Title
55513
    1DOPE     N    1   4.543   4.427   8.807 -0.1368  0.6273  0.4855
    1DOPE   HN1    2   4.554   4.520   8.761  0.2135  0.9053  1.1155
    1DOPE   HN2    3   4.604   4.360   8.755  0.2367  1.4334 -0.1454
    1DOPE   HN3    4   4.446   4.393   8.794 -0.4146  1.8722 -1.0896
    1DOPE   C12    5   4.559   4.466   8.947 -0.4227  0.8132  0.2734
    1DOPE  H12A    6   4.636   4.545   8.957 -1.2238  1.9853 -1.9464
    1DOPE  H12B    7   4.576   4.377   9.011 -1.8823  0.5990  0.3940
    1DOPE   C11    8   4.416   4.508   8.990 -0.1808  0.1620  0.5807
    1DOPE  H11A    9   4.422   4.548   9.093  0.4031  0.4143  0.4499
    1DOPE  H11B   10   4.354   4.416   8.995 -0.4881  0.3927  1.0806
    1DOPE     P   11   4.307   4.752   8.935 -0.5101 -0.2680  0.0844
    1DOPE   O13   12   4.425   4.842   8.902 -0.0586  0.5792  0.8713
    1DOPE   O14   13   4.251   4.761   9.074  0.3400  0.1330 -0.2155
    1DOPE   O11   14   4.203   4.793   8.836 -0.4915 -0.2013  0.3548
    1DOPE   O12   15   4.353   4.606   8.901 -0.0355 -0.2570 -0.3602
    1DOPE    C1   16   4.107   4.700   8.777  0.5986  0.9213  0.7325
    1DOPE    HA   17   4.007   4.742   8.752 -0.0195 -1.4569 -1.2156
    1DOPE    HB   18   4.084   4.619   8.850  1.4825  0.8452  0.9315
    1DOPE    C2   19   4.148   4.629   8.639  0.6800 -0.2212 -0.1543
    1DOPE    HS   20   4.242   4.573   8.656  1.0181  0.6020  0.8269
    1DOPE   O21   21   4.159   4.734   8.537 -0.5205 -0.1561 -0.1256
    1DOPE   C21   22   4.277   4.793   8.524 -0.8069  0.2149 -0.3072
    1DOPE   O22   23   4.384   4.747   8.568  0.4119 -0.6775  0.6792
    1DOPE   C22   24   4.272   4.923   8.443 -0.7982 -0.8977 -0.2881
    1DOPE   H2R   25   4.306   5.008   8.507 -0.7574 -0.7556 -0.4982
    1DOPE   H2S   26   4.166   4.952   8.428 -0.1357  2.8660  1.1020
    1DOPE    C3   27   4.034   4.537   8.596  0.2975  0.2923  0.5901
    1DOPE    HX   28   3.935   4.589   8.597 -0.2418 -0.6286 -0.7381
    1DOPE    HY   29   4.032   4.446   8.659  1.6859  0.3135  0.6959
    1DOPE   O31   30   4.070   4.479   8.464  0.1141  0.2342 -0.7478
    1DOPE   C31   31   3.987   4.501   8.364 -0.3606 -1.2904  0.1527
    1DOPE   O32   32   3.884   4.565   8.365  0.1441  0.1200  0.2210
    1DOPE   C32   33   4.039   4.421   8.246  0.2141 -0.9385  0.1732
    1DOPE   H2X   34   4.137   4.372   8.264  0.3794 -0.4573  0.6038
    1DOPE   H2Y   35   3.969   4.336   8.227 -1.7183  0.7075 -0.5164
    1DOPE   C23   36   4.356   4.918   8.315 -0.5934  0.2674  0.6755
    1DOPE   H3R   37   4.320   4.845   8.240 -1.0148  2.2486 -1.1371
    1DOPE   H3S   38   4.459   4.891   8.346 -1.0920 -1.4710  0.9319
    1DOPE   C24   39   4.356   5.056   8.243  0.1743  0.5071 -1.0278
    1DOPE   H4R   40   4.383   5.130   8.321 -1.6439 -1.6493  1.8155
    1DOPE   H4S   41   4.253   5.078   8.209 -1.3964 -1.7210  1.8228
    1DOPE   C25   42   4.452   5.062   8.122 -0.0412  0.6061  0.0528
    1DOPE   H5R   43   4.541   5.000   8.147  0.5540  1.7634  0.8676
    1DOPE   H5S   44   4.486   5.165   8.097 -2.0998  1.4935  0.6659
    1DOPE   C26   45   4.392   5.009   7.989  0.3317 -0.0952 -0.2323
    1DOPE   H6R   46   4.314   5.078   7.951  1.7525  0.8811 -1.4958
    1DOPE   H6S   47   4.349   4.908   8.008 -1.8486  1.1600  1.9486
    1DOPE   C27   48   4.500   5.000   7.876  0.1994  0.0400  1.0979
    1DOPE   H7R   49   4.553   4.908   7.907 -1.2493 -0.9268  0.7925
    1DOPE   H7S   50   4.563   5.092   7.881  0.7743 -0.2249 -0.5826
    1DOPE   C28   51   4.427   4.988   7.737  0.4015  0.9702 -0.2494
    1DOPE   H8R   52   4.340   5.056   7.728  0.0706  0.5151 -0.5186
    1DOPE   H8S   53   4.384   4.886   7.730  0.8488  0.6512  1.2886
    1DOPE   C29   54   4.530   5.011   7.636 -0.0850 -0.6578 -0.3138
    1DOPE   H9R   55   4.568   5.114   7.630  0.8537 -0.8701  1.3956
    1DOPE  C210   56   4.586   4.931   7.543  0.3870  0.1062  0.1917
    1DOPE  H10R   57   4.652   4.980   7.470 -0.5696  1.9242  0.5158
    1DOPE  C211   58   4.554   4.782   7.523 -0.6209  0.2827  0.2535
    1DOPE  H11R   59   4.531   4.757   7.417  1.4979 -0.9144  0.0153
    1DOPE  H11S   60   4.473   4.750   7.592 -0.4061  0.8756  0.7895
    1DOPE  C212   61   4.676   4.690   7.556  0.6866  0.3040  0.2140
    1DOPE  H12R   62   4.753   4.719   7.482 -1.6634  1.0900 -2.0819
    1DOPE  H12S   63   4.643   4.589   7.525  1.9613 -0.0858  0.0562
    1DOPE  C213   64   4.718   4.698   7.696 -1.0142 -0.9799  0.0005
    1DOPE  H13R   65   4.740   4.799   7.736  1.4755 -1.8670  1.0835
    1DOPE  H13S   66   4.821   4.659   7.710 -0.0813  1.6859  1.3581
    1DOPE  C214   67   4.629   4.624   7.801  0.0694  0.1615 -0.0977
    1DOPE  H14R   68   4.637   4.516   7.776  0.7803  0.3169 -0.5752
    1DOPE  H14S   69   4.522   4.655   7.804  0.4670  1.5393  1.9674
    1DOPE  C215   70   4.685   4.645   7.949 -0.0291  0.4964 -0.2665
    1DOPE  H15R   71   4.700   4.753   7.970  2.2818  0.3960 -1.1754
    1DOPE  H15S   72   4.787   4.603   7.953  0.0164  0.2755 -2.5060
    1DOPE  C216   73   4.600   4.584   8.057 -0.2585  0.6323  0.0993
    1DOPE  H16R   74   4.591   4.474   8.048  1.6460  0.5109 -0.8061
    1DOPE  H16S   75   4.500   4.632   8.062 -1.0452 -0.9476  0.0670
    1DOPE  C217   76   4.677   4.606   8.195 -0.2285  0.7700 -0.1428
    1DOPE  H17R   77   4.713   4.711   8.202  1.5190  0.1814  0.3058
    1DOPE  H17S   78   4.769   4.544   8.185  0.8336  2.5668 -2.5390
    1DOPE  C218   79   4.598   4.582   8.321 -1.7668 -0.0818 -0.3086
    1DOPE  H18R   80   4.672   4.599   8.402 -1.1306  1.8164 -1.2288
    1DOPE  H18S   81   4.559   4.478   8.316  1.0562 -1.1460 -2.5648
    1DOPE  H18T   82   4.506   4.645   8.331 -0.5022  1.8489 -0.3022
    1DOPE   C33   83   4.061   4.517   8.127  0.6495 -0.4636  0.1101
    1DOPE   H3X   84   4.150   4.580   8.147 -0.3085  0.9964 -0.0459
    1DOPE   H3Y   85   3.972   4.584   8.123  1.1880  0.2035 -1.8745
    1DOPE   C34   86   4.071   4.432   7.998 -0.2425  0.0723  0.6150
    1DOPE   H4X   87   4.167   4.377   8.007 -0.4177 -0.2821  0.3674
    1DOPE   H4Y   88   3.995   4.351   7.988  0.2705 -0.5082  1.2924
    1DOPE   C35   89   4.046   4.513   7.867  0.4388  0.0560  0.3775
    1DOPE   H5X   90   3.956   4.578   7.868  0.8880  0.7266 -0.5380
    1DOPE   H5Y   91   4.024   4.448   7.780 -2.1809  0.9637  0.2870
    1DOPE   C36   92   4.171   4.593   7.832  0.1054 -0.4905  0.2560
    1DOPE   H6X   93   4.241   4.560   7.911 -0.3561 -2.7422 -0.2110
    1DOPE   H6Y   94   4.160   4.703   7.849  3.7764  0.0773 -0.1499
    1DOPE   C37   95   4.226   4.560   7.693 -0.4709 -0.0635 -0.8993
    1DOPE   H7X   96   4.334   4.584   7.697 -0.0334 -2.0700  1.4501
    1DOPE   H7Y   97   4.220   4.452   7.667  2.1258 -0.9952  1.7951
    1DOPE   C38   98   4.157   4.635   7.578 -0.2187 -0.3673 -0.3533
    1DOPE   H8X   99   4.177   4.745   7.574 -0.9142 -0.2754 -3.6971
    1DOPE   H8Y  100   4.047   4.621   7.579 -0.0760 -1.5839 -0.6084
    1DOPE   C39  101   4.214   4.576   7.455  0.1388 -0.3125 -0.1030
    1DOPE   H9X  102   4.232   4.468   7.469 -0.9679 -0.3242  1.5223
    1DOPE  C310  103   4.240   4.644   7.340  0.0517 -0.4814  0.3353
    1DOPE  H10X  104   4.292   4.594   7.258  0.1726 -0.8078  0.6106
    1DOPE  C311  105   4.206   4.792   7.316 -0.5832  0.3131 -0.2075
    1DOPE  H11X  106   4.178   4.852   7.405 -1.7817 -0.3959 -0.0986
    1DOPE  H11Y  107   4.291   4.848   7.271 -0.8117 -0.8346 -2.2023
    1DOPE  C312  108   4.090   4.815   7.218  0.7329  0.3252 -0.7894
    1DOPE  H12X  109   4.063   4.922   7.222 -0.8360 -0.0534 -0.3782
    1DOPE  H12Y  110   3.995   4.767   7.252  1.1176  0.8600  1.1414
    1DOPE  C313  111   4.119   4.790   7.073 -0.3894 -0.3464 -0.3309
    1DOPE  H13X  112   4.162   4.688   7.065 -0.6164 -0.4072 -0.8122
    1DOPE  H13Y  113   4.027   4.798   7.012 -0.6938  2.2285  0.3632
    1DOPE  C314  114   4.224   4.882   7.011 -0.0721  0.1658 -0.2147
    1DOPE  H14X  115   4.323   4.862   7.057  1.0594  2.4698 -1.4497
    1DOPE  H14Y  116   4.198   4.988   7.029  1.0048  0.3041  0.6074
    1DOPE  C315  117   4.241   4.858   6.857  0.6818 -0.4430 -0.1044
    1DOPE  H15X  118   4.302   4.939   6.815 -2.1563  1.6055 -0.5896
    1DOPE  H15Y  119   4.143   4.870   6.805  1.8997  0.0667 -2.4013
    1DOPE  C316  120   4.302   4.723   6.820 -0.1084  0.0328  0.0600
    1DOPE  H16X  121   4.231   4.641   6.839 -1.0178  0.6633 -0.5663
    1DOPE  H16Y  122   4.393   4.702   6.882  0.5620 -0.6946 -1.1324
    1DOPE  C317  123   4.345   4.726   6.671  0.1883  0.4444 -0.5075
    1DOPE  H17X  124   4.248   4.694   6.626 -0.4909 -0.5687  1.5420
    1DOPE  H17Y  125   4.364   4.832   6.646 -2.9512  1.6955  1.7282
    1DOPE  C318  126   4.457   4.632   6.641 -0.1684  0.1634 -0.1740
    1DOPE  H18X  127   4.548   4.655   6.701 -0.6459 -2.8026  1.8841
    1DOPE  H18Y  128   4.427   4.528   6.662 -2.4845  0.7572 -0.2667
    1DOPE  H18Z  129   4.479   4.633   6.532 -1.1683 -2.4554 -0.4601
    2DOPE     N  130   5.316   4.684   8.967  0.6960  0.4717  0.0417
    2DOPE   HN1  131   5.239   4.753   8.975 -0.4877 -0.9121  1.2619
    2DOPE   HN2  132   5.335   4.690   8.865 -0.1965 -0.0068 -0.1603
    2DOPE   HN3  133   5.287   4.590   9.001  2.0144  0.6612  1.8051
    2DOPE   C12  134   5.441   4.725   9.030  0.0067 -0.0851 -0.1322
    2DOPE  H12A  135   5.520   4.650   9.012 -0.3255 -0.8911  1.5147
    2DOPE  H12B  136   5.424   4.723   9.140  0.5798 -1.6716 -0.0527
    2DOPE   C11  137   5.482   4.868   9.018 -0.0834  0.1029  0.0458
    2DOPE  H11A  138   5.452   4.930   9.105  0.3004  0.8231 -0.3321
    2DOPE  H11B  139   5.439   4.910   8.925  0.9968 -0.4428 -0.7183
    2DOPE     P  140   5.700   4.996   8.943  0.1348  0.7151  0.0234
    2DOPE   O13  141   5.849   4.989   8.954 -0.0225 -0.8368 -0.9781
    2DOPE   O14  142   5.631   5.119   8.992 -0.6635  0.1458  0.7496
    2DOPE   O11  143   5.658   4.996   8.790  0.1694  0.4676 -0.0075
    2DOPE   O12  144   5.625   4.866   9.008 -0.1965 -0.0424  0.1457
    2DOPE    C1  145   5.698   4.889   8.708 -0.7366 -0.8831  0.1462
    2DOPE    HA  146   5.624   4.807   8.718 -0.5982 -1.0217  0.0390
    2DOPE    HB  147   5.798   4.851   8.739  0.7840  1.9035 -0.9657
    2DOPE    C2  148   5.720   4.940   8.559  0.4325  0.3173  0.2573
    2DOPE    HS  149   5.638   5.007   8.527  0.6057 -0.2175 -1.4385
    2DOPE   O21  150   5.738   4.828   8.466 -0.2423  0.2606 -0.3796
    2DOPE   C21  151   5.630   4.763   8.446  0.3653  0.4185  0.0545
    2DOPE   O22  152   5.522   4.799   8.490  0.4174 -0.1614  0.3324
    2DOPE   C22  153   5.642   4.646   8.356 -0.1199 -0.0182 -0.6065
    2DOPE   H2R  154   5.598   4.558   8.407 -0.7733  0.2726 -0.6643
    2DOPE   H2S  155   5.750   4.630   8.336  0.7828  2.7283  1.3932
    2DOPE    C3  156   5.847   5.034   8.562 -0.2849 -0.1649 -0.1181
    2DOPE    HX  157   5.933   4.979   8.606  0.1471 -0.1780 -0.9442
    2DOPE    HY  158   5.830   5.120   8.630  0.1786  0.1985 -0.4495
    2DOPE   O31  159   5.894   5.080   8.431  0.1097 -0.3972 -0.2385
    2DOPE   C31  160   5.819   5.176   8.379 -0.1040  0.3186  0.5540
    2DOPE   O32  161   5.728   5.229   8.440  0.3746  0.0736  0.3016
    2DOPE   C32  162   5.862   5.206   8.232 -0.3226 -0.0952  0.1739
    2DOPE   H2X  163   5.770   5.226   8.173  0.9881  1.5376 -1.4523
    2DOPE   H2Y  164   5.934   5.291   8.236  3.4256 -3.0362  1.2211
    2DOPE   C23  165   5.564   4.644   8.225 -0.5989  0.2537  0.4368
    2DOPE   H3R  166   5.463   4.688   8.241 -0.5792  0.4801 -0.0318
    2DOPE   H3S  167   5.535   4.547   8.180 -0.7185  1.1477 -1.5515
    2DOPE   C24  168   5.626   4.728   8.110 -0.3446 -1.4678 -0.1558
    2DOPE   H4R  169   5.737   4.732   8.119 -0.4216  0.7003  0.4808
    2DOPE   H4S  170   5.581   4.826   8.138  0.8359 -1.0751  0.4326
    2DOPE   C25  171   5.587   4.684   7.968  0.1491  0.3905  0.5678
    2DOPE   H5R  172   5.479   4.697   7.947  0.6699  1.5072 -1.7826
    2DOPE   H5S  173   5.612   4.577   7.957  0.1354  0.5047 -0.7922
    2DOPE   C26  174   5.668   4.755   7.855  1.0363  0.6016  0.2174
    2DOPE   H6R  175   5.776   4.731   7.863  0.8200 -0.5423 -0.1129
    2DOPE   H6S  176   5.654   4.865   7.856 -0.3686  0.4642 -0.9208
    2DOPE   C27  177   5.629   4.709   7.716  1.1760 -0.5626 -0.2914
    2DOPE   H7R  178   5.522   4.737   7.706  0.9811 -1.5289 -1.0552
    2DOPE   H7S  179   5.639   4.599   7.713  1.5220 -0.5274 -2.1841
    2DOPE   C28  180   5.719   4.780   7.614  0.3336  0.0126 -0.0508
    2DOPE   H8R  181   5.736   4.885   7.644  2.3343 -0.6834  1.4840
    2DOPE   H8S  182   5.655   4.772   7.523  1.5048 -1.2101 -0.8065
    2DOPE   C29  183   5.859   4.720   7.591  0.6269  0.1769 -0.0553
    2DOPE   H9R  184   5.929   4.715   7.676  0.0356 -1.5308  0.3641
    2DOPE  C210  185   5.893   4.669   7.475 -0.5608 -0.5523  1.0093
    2DOPE  H10R  186   5.997   4.637   7.457 -1.2923 -2.3558 -0.3527
    2DOPE  C211  187   5.808   4.636   7.355 -1.2040  0.4344  0.3238
    2DOPE  H11R  188   5.710   4.595   7.387 -1.8544  0.6842 -1.2673
    2DOPE  H11S  189   5.841   4.542   7.306 -1.1021  1.0499 -0.8132
    2DOPE  C212  190   5.807   4.749   7.258  0.0554  0.3260  0.2328
    2DOPE  H12R  191   5.906   4.777   7.218 -0.3520  0.1412 -0.9456
    2DOPE  H12S  192   5.764   4.837   7.311 -0.5774  0.6401 -0.7669
    2DOPE  C213  193   5.703   4.704   7.147  0.4712  0.4747 -0.1113
    2DOPE  H13R  194   5.610   4.670   7.196  1.4336 -0.1110  1.3893
    2DOPE  H13S  195   5.748   4.624   7.084 -1.1739 -1.4787  1.0996
    2DOPE  C214  196   5.666   4.811   7.047 -0.1528  0.0332 -0.2116
    2DOPE  H14R  197   5.632   4.901   7.103 -1.1760 -1.8934  2.4616
    2DOPE  H14S  198   5.580   4.780   6.985 -0.8274  2.6338 -0.6983
    2DOPE  C215  199   5.781   4.846   6.956 -0.5921  0.2974  0.0219
    2DOPE  H15R  200   5.807   4.751   6.905  0.5161  1.1338 -1.0150
    2DOPE  H15S  201   5.872   4.877   7.011 -0.2136 -1.5753  0.5134
    2DOPE  C216  202   5.743   4.947   6.852 -0.0346 -0.1955 -0.5841
    2DOPE  H16R  203   5.834   5.000   6.818  0.1199 -0.6422 -0.8753
    2DOPE  H16S  204   5.678   5.017   6.909 -1.5108 -1.1040 -1.0798
    2DOPE  C217  205   5.673   4.893   6.730 -0.2517 -0.0328  0.0077
    2DOPE  H17R  206   5.663   4.784   6.752  1.4475 -0.1781  0.1422
    2DOPE  H17S  207   5.749   4.901   6.649 -1.0383 -0.1476 -0.7605
    2DOPE  C218  208   5.528   4.945   6.704 -0.2986  0.0131 -0.0469
    2DOPE  H18R  209   5.465   4.862   6.665  0.7468 -1.2683  0.8890
    2DOPE  H18S  210   5.519   5.041   6.650  0.3640  0.6504  0.9406
    2DOPE  H18T  211   5.483   4.976   6.801 -0.0042  0.1048  0.0631
    2DOPE   C33  212   5.931   5.084   8.168 -0.1551 -0.4826 -0.0704
    2DOPE   H3X  213   5.856   5.002   8.173  0.2661 -0.9393 -0.9178
    2DOPE   H3Y  214   6.025   5.054   8.219 -0.7025 -1.4346  0.4017
    2DOPE   C34  215   5.952   5.118   8.017 -0.1316  0.1152 -0.2460
    2DOPE   H4X  216   5.851   5.134   7.973 -0.0412 -0.3316 -0.6210
    2DOPE   H4Y  217   6.003   5.216   8.006 -0.3497  0.2090 -0.4103
    2DOPE   C35  218   6.042   5.021   7.939 -0.4439 -0.0708  0.0683
    2DOPE   H5X  219   5.994   4.922   7.931 -1.1992  0.2132  0.9248
    2DOPE   H5Y  220   6.132   5.010   8.003 -0.3355 -2.6239 -0.4417
    2DOPE   C36  221   6.083   5.073   7.805  0.1457 -0.1698 -0.3224
    2DOPE   H6X  222   6.134   4.990   7.751 -2.2119 -1.1749 -1.1160
    2DOPE   H6Y  223   6.168   5.142   7.826 -0.1750 -0.4526  2.3011
    2DOPE   C37  224   5.985   5.159   7.737  0.2996 -0.1906  0.7187
    2DOPE   H7X  225   5.891   5.100   7.745  0.4959 -0.2981  2.7641
    2DOPE   H7Y  226   5.971   5.252   7.797  0.9030  0.5733 -0.3056
    2DOPE   C38  227   6.023   5.178   7.586 -0.1670  0.0426  0.3075
    2DOPE   H8X  228   6.114   5.242   7.590 -0.9870  1.3395 -0.7656
    2DOPE   H8Y  229   5.943   5.239   7.540  0.6065  1.0712  0.2793
    2DOPE   C39  230   6.030   5.050   7.513 -0.6619  0.0326 -0.5662
    2DOPE   H9X  231   6.013   4.958   7.570  1.3277 -0.0245  0.0336
    2DOPE  C310  232   6.038   5.044   7.381  0.3625  0.2874 -0.1228
    2DOPE  H10X  233   6.061   4.947   7.334 -0.9541 -0.6677  1.1242
    2DOPE  C311  234   6.011   5.164   7.292  0.3532  0.2532 -0.0590
    2DOPE  H11X  235   5.930   5.230   7.332  1.8264  2.5844 -0.7370
    2DOPE  H11Y  236   6.106   5.219   7.282  2.0126 -2.5055 -0.5842
    2DOPE  C312  237   5.984   5.123   7.147  0.2869 -0.0990 -0.2441
    2DOPE  H12X  238   5.909   5.043   7.129  1.7805 -1.1835 -2.0425
    2DOPE  H12Y  239   6.077   5.070   7.115  0.7496 -0.6377  1.8762
    2DOPE  C313  240   5.973   5.246   7.058  0.6505 -0.3666 -0.1966
    2DOPE  H13X  241   5.864   5.269   7.061  0.7688  0.2046 -0.0824
    2DOPE  H13Y  242   6.022   5.336   7.100 -0.1977  1.1115 -2.1845
    2DOPE  C314  243   6.022   5.222   6.920  0.5579  0.0574 -0.3350
    2DOPE  H14X  244   5.982   5.121   6.895  0.6361 -0.8051  2.5674
    2DOPE  H14Y  245   6.133   5.217   6.920  0.6265  1.3987 -0.1649
    2DOPE  C315  246   5.982   5.331   6.821 -0.4352  0.3922 -0.2273
    2DOPE  H15X  247   6.021   5.306   6.720 -0.2889  2.5010 -0.7320
    2DOPE  H15Y  248   6.029   5.426   6.855 -2.3759  0.2900  3.1454
    2DOPE  C316  249   5.832   5.351   6.787 -0.2440 -0.0360  0.7063
    2DOPE  H16X  250   5.802   5.393   6.886 -0.0775  0.9616  0.3475
    2DOPE  H16Y  251   5.778   5.256   6.771 -2.5268  0.6238  3.5136
    2DOPE  C317  252   5.798   5.465   6.682  0.1737  0.2251 -0.3237
    2DOPE  H17X  253   5.836   5.560   6.724 -0.4458 -0.1556  1.1620
    2DOPE  H17Y  254   5.852   5.448   6.586 -0.8437  0.2088 -0.9026
    2DOPE  C318  255   5.651   5.469   6.648  0.4053  0.6546 -0.1778
    2DOPE  H18X  256   5.618   5.521   6.556 -1.0362 -0.7213 -0.4709
    2DOPE  H18Y  257   5.613   5.367   6.627 -2.5819  1.8882 -1.3177
    2DOPE  H18Z  258   5.584   5.508   6.728 -0.9886 -0.7252 -0.6292
    3DOPE     N  259   3.403   5.857   8.980  0.0710  0.5151 -0.8752
    3DOPE   HN1  260   3.501   5.850   8.948  0.9061  0.8222  1.4305
    3DOPE   HN2  261   3.349   5.907   8.907  0.9974  0.0593 -1.9048
    3DOPE   HN3  262   3.400   5.909   9.070  0.4252 -0.5495 -0.2310
    3DOPE   C12  263   3.346   5.718   8.999  0.7866  0.2582 -0.8481
    3DOPE  H12A  264   3.251   5.716   9.057  0.3921 -3.8205 -1.3514
    3DOPE  H12B  265   3.417   5.673   9.071 -0.3747 -1.6914 -0.8575
    3DOPE   C11  266   3.348   5.623   8.878 -0.7762 -0.0554  0.5288
    3DOPE  H11A  267   3.327   5.519   8.912 -1.2139  0.0186  0.4948
    3DOPE  H11B  268   3.450   5.609   8.837 -1.4437  0.0188 -1.2484
    3DOPE     P  269   3.136   5.587   8.732 -0.5192 -0.0869  0.0305
    3DOPE   O13  270   3.028   5.634   8.818  0.2123  0.0999 -0.0904
    3DOPE   O14  271   3.166   5.443   8.725  0.4622  0.5214  0.0160
    3DOPE   O11  272   3.101   5.644   8.593 -0.4703  0.6695  0.5054
    3DOPE   O12  273   3.273   5.667   8.768 -0.6083  0.3117  0.0876
    3DOPE    C1  274   3.173   5.736   8.519 -0.1310 -0.3456 -0.2001
    3DOPE    HA  275   3.225   5.679   8.439 -1.0728 -0.3191 -0.8492
    3DOPE    HB  276   3.257   5.791   8.567  0.5029  1.0240 -2.7063
    3DOPE    C2  277   3.078   5.836   8.451 -0.1088  0.4039 -0.4275
    3DOPE    HS  278   3.014   5.885   8.527 -0.2383  0.6622 -0.7016
    3DOPE   O21  279   3.007   5.762   8.348 -0.2318 -0.1552 -0.7797
    3DOPE   C21  280   2.903   5.819   8.294 -0.6427  0.4777 -0.9428
    3DOPE   O22  281   2.854   5.920   8.342  0.1294  0.1154 -0.3633
    3DOPE   C22  282   2.852   5.738   8.170 -0.8249 -0.3782  0.3221
    3DOPE   H2R  283   2.850   5.628   8.188 -0.7388 -0.7157 -1.5259
    3DOPE   H2S  284   2.933   5.756   8.096 -1.0085 -0.6724  0.0450
    3DOPE    C3  285   3.154   5.951   8.375 -0.1187 -0.2596  0.3583
    3DOPE    HX  286   3.188   6.032   8.443 -1.9487  1.5413 -0.7447
    3DOPE    HY  287   3.084   6.009   8.311 -0.2888 -1.0841 -0.2228
    3DOPE   O31  288   3.270   5.890   8.309  0.6765  0.2182  0.4007
    3DOPE   C31  289   3.253   5.855   8.177  0.5149  0.2294  0.6720
    3DOPE   O32  290   3.153   5.879   8.110 -0.3962 -0.0826 -0.0477
    3DOPE   C32  291   3.379   5.789   8.124 -0.1623 -0.5853  0.2030
    3DOPE   H2X  292   3.459   5.805   8.200  0.4741  1.9099 -0.9165
    3DOPE   H2Y  293   3.363   5.679   8.122  0.2580 -0.6380 -0.9163
    3DOPE   C23  294   2.713   5.782   8.124 -0.2678  0.5846  0.0244
    3DOPE   H3R  295   2.705   5.890   8.102 -0.1366  1.2201  2.7318
    3DOPE   H3S  296   2.646   5.761   8.210  1.3480 -1.1389  0.9493
    3DOPE   C24  297   2.662   5.705   8.003  0.1849 -0.9965 -0.1996
    3DOPE   H4R  298   2.678   5.595   8.007 -0.5635 -1.0895  1.1700
    3DOPE   H4S  299   2.726   5.739   7.919 -1.8516  0.9334 -1.0573
    3DOPE   C25  300   2.513   5.733   7.962 -0.7972  0.0054  0.4548
    3DOPE   H5R  301   2.494   5.840   7.938  1.4231  0.2801 -0.3517
    3DOPE   H5S  302   2.456   5.719   8.056 -0.3748  0.8352  0.8579
    3DOPE   C26  303   2.464   5.642   7.849  0.0515  0.1011 -0.1326
    3DOPE   H6R  304   2.354   5.632   7.839  0.1256 -1.0900  0.0794
    3DOPE   H6S  305   2.489   5.538   7.878 -2.0099 -0.3238  0.3268
    3DOPE   C27  306   2.525   5.679   7.708  0.6578  0.0194 -0.3363
    3DOPE   H7R  307   2.636   5.677   7.717  0.6975  1.0396 -0.5376
    3DOPE   H7S  308   2.486   5.781   7.690 -0.5313  0.5386  4.0110
    3DOPE   C28  309   2.474   5.576   7.602  0.3822  0.4330 -0.7966
    3DOPE   H8R  310   2.364   5.588   7.607  0.4387  0.9181 -0.5808
    3DOPE   H8S  311   2.493   5.472   7.634  0.9170  0.6527 -0.3857
    3DOPE   C29  312   2.527   5.602   7.462 -0.1962  1.0339 -0.1308
    3DOPE   H9R  313   2.637   5.598   7.470 -0.3648 -0.7282  2.4763
    3DOPE  C210  314   2.461   5.622   7.348  0.0041 -0.3813  0.5338
    3DOPE  H10R  315   2.524   5.635   7.258 -1.7214  0.2791 -0.6448
    3DOPE  C211  316   2.310   5.649   7.325 -0.3131  0.3386 -0.1415
    3DOPE  H11R  317   2.248   5.658   7.417  1.6879 -2.8413  1.6847
    3DOPE  H11S  318   2.281   5.550   7.284  3.6009 -0.1151 -2.3154
    3DOPE  C212  319   2.291   5.756   7.219  0.1524 -0.9781  0.1785
    3DOPE  H12R  320   2.336   5.854   7.248  3.0285 -2.7419  2.1889
    3DOPE  H12S  321   2.182   5.770   7.207  0.3225  2.0830  1.2057
    3DOPE  C213  322   2.360   5.713   7.094 -0.0063  0.0846  1.2802
    3DOPE  H13R  323   2.342   5.604   7.084  0.1236  0.2445 -1.2648
    3DOPE  H13S  324   2.470   5.724   7.105  0.3403 -2.7249  1.3461
    3DOPE  C214  325   2.307   5.776   6.969  0.2496 -0.1578 -0.0829
    3DOPE  H14R  326   2.342   5.881   6.957 -0.1109  0.1035  1.0207
    3DOPE  H14S  327   2.197   5.788   6.971  0.1719 -0.4423 -1.6087
    3DOPE  C215  328   2.331   5.711   6.834 -0.5137  0.0915 -0.0237
    3DOPE  H15R  329   2.261   5.756   6.760  1.7604  0.5765 -2.0137
    3DOPE  H15S  330   2.310   5.602   6.828 -0.7820  0.1139  0.4304
    3DOPE  C216  331   2.481   5.745   6.785  0.1889  0.1687  0.4349
    3DOPE  H16R  332   2.543   5.698   6.865  0.1916 -0.9116 -0.1828
    3DOPE  H16S  333   2.494   5.855   6.785  0.9028  0.0888  0.4426
    3DOPE  C217  334   2.513   5.689   6.645  0.0476 -0.0584  0.1001
    3DOPE  H17R  335   2.510   5.578   6.641 -0.6554 -0.0831  0.9273
    3DOPE  H17S  336   2.618   5.714   6.618 -0.2579  1.1651 -0.0205
    3DOPE  C218  337   2.434   5.753   6.526 -0.1265  0.0914 -0.4130
    3DOPE  H18R  338   2.439   5.692   6.433 -1.4497 -1.2536  0.3511
    3DOPE  H18S  339   2.479   5.852   6.503 -0.2780  0.8821  2.3756
    3DOPE  H18T  340   2.326   5.761   6.552  0.0513 -2.1707  1.3669
    3DOPE   C33  341   3.426   5.830   7.981 -0.0322 -0.1694  0.9140
    3DOPE   H3X  342   3.536   5.811   7.972 -0.5580 -2.8772 -1.4518
    3DOPE   H3Y  343   3.419   5.939   7.963 -0.3399  0.0963  2.5091
    3DOPE   C34  344   3.364   5.749   7.862  0.0460 -0.9529 -0.0230
    3DOPE   H4X  345   3.392   5.643   7.875  2.1011 -0.6255 -1.2414
    3DOPE   H4Y  346   3.254   5.762   7.855  0.2098  0.3135 -0.4682
    3DOPE   C35  347   3.432   5.808   7.732  0.3068  0.3027 -0.1721
    3DOPE   H5X  348   3.541   5.800   7.754  0.1066  1.9239  1.7273
    3DOPE   H5Y  349   3.430   5.919   7.726  1.6108  0.4034  0.8025
    3DOPE   C36  350   3.359   5.745   7.604 -0.2565 -0.2465  0.0066
    3DOPE   H6X  351   3.252   5.767   7.618 -0.0917 -0.5828  2.0392
    3DOPE   H6Y  352   3.384   5.637   7.613  0.1233 -0.0463  1.5955
    3DOPE   C37  353   3.411   5.826   7.482  0.4202 -0.0731  0.2863
    3DOPE   H7X  354   3.403   5.936   7.498 -0.0925 -0.1383  0.4917
    3DOPE   H7Y  355   3.521   5.818   7.469  0.5532  2.2352 -0.4775
    3DOPE   C38  356   3.349   5.772   7.352 -0.2046  0.7609  0.5423
    3DOPE   H8X  357   3.367   5.662   7.349 -1.7383  0.4929 -0.2824
    3DOPE   H8Y  358   3.401   5.819   7.267 -1.0556  0.9928  0.1368
    3DOPE   C39  359   3.203   5.811   7.342 -0.1951  0.0409  0.1237
    3DOPE   H9X  360   3.191   5.913   7.383 -0.7100  0.3157 -0.6633
    3DOPE  C310  361   3.098   5.760   7.278 -0.5100 -0.5089  0.4179
    3DOPE  H10X  362   3.005   5.817   7.268 -1.8704 -2.7195 -0.3206
    3DOPE  C311  363   3.105   5.631   7.203 -0.8567 -0.6697 -0.2050
    3DOPE  H11X  364   3.171   5.558   7.255  0.1688 -0.2529 -0.8905
    3DOPE  H11Y  365   3.003   5.594   7.181 -1.1173  0.1668 -0.4262
    3DOPE  C312  366   3.175   5.665   7.073  0.1552 -0.0654 -0.1620
    3DOPE  H12X  367   3.187   5.564   7.028  1.9479 -0.8046  1.7807
    3DOPE  H12Y  368   3.278   5.706   7.085 -0.6645  2.8187 -2.1163
    3DOPE  C313  369   3.107   5.746   6.969  0.7180  0.4614  0.2959
    3DOPE  H13X  370   2.996   5.734   6.972  0.6386  0.8294 -0.6895
    3DOPE  H13Y  371   3.116   5.850   7.007 -1.0505  0.8225 -0.1691
    3DOPE  C314  372   3.144   5.725   6.828 -0.3807  0.1377  1.4141
    3DOPE  H14X  373   3.132   5.621   6.790  2.0966 -0.5581  2.3393
    3DOPE  H14Y  374   3.254   5.738   6.823 -0.5450  1.8352  1.6351
    3DOPE  C315  375   3.059   5.810   6.731  0.2041  0.2839  0.3239
    3DOPE  H15X  376   3.112   5.906   6.716  0.1723  0.0791 -1.2629
    3DOPE  H15Y  377   2.957   5.831   6.770 -0.0774 -1.1224  0.4092
    3DOPE  C316  378   3.049   5.746   6.587 -0.6055  0.0708  0.0022
    3DOPE  H16X  379   3.021   5.640   6.599  0.0981 -0.2120 -0.7288
    3DOPE  H16Y  380   3.148   5.740   6.536 -1.3896 -0.8386 -1.4969
    3DOPE  C317  381   2.940   5.819   6.505 -0.5110  0.5529 -0.0653
    3DOPE  H17X  382   2.843   5.793   6.553  0.2993  0.9802  1.9000
    3DOPE  H17Y  383   2.964   5.925   6.528  0.1252  0.2021  0.9312
    3DOPE  C318  384   2.943   5.781   6.353 -0.0835  0.3416  0.0071
    3DOPE  H18X  385   2.884   5.852   6.292  0.6249 -1.1433 -2.5833
    3DOPE  H18Y  386   3.047   5.770   6.315  0.3492  0.5086  1.1101
    3DOPE  H18Z  387   2.902   5.682   6.325  0.9489 -0.4479  1.1827
    4DOPE     N  388   4.871   4.816   9.457 -0.4794  0.0848  0.4694
    4DOPE   HN1  389   4.842   4.721   9.488 -0.9414  0.1426  0.2211
    4DOPE   HN2  390   4.927   4.853   9.537  1.4613  1.0932 -1.2664
    4DOPE   HN3  391   4.788   4.878   9.450 -1.9725 -1.4768  2.6433
    4DOPE   C12  392   4.940   4.807   9.323 -0.3871  0.3151 -0.1277
    4DOPE  H12A  393   5.049   4.799   9.343 -0.5641  2.1106  2.0014
    4DOPE  H12B  394   4.925   4.907   9.276 -0.7879  0.6776  0.7494
    4DOPE   C11  395   4.879   4.700   9.235 -0.2759 -0.0388  0.4066
    4DOPE  H11A  396   4.934   4.680   9.141  0.4050 -1.6740  1.1222
    4DOPE  H11B  397   4.782   4.746   9.207 -0.0559 -0.4676 -1.1401
    4DOPE     P  398   4.766   4.459   9.246 -0.2680 -0.1803 -0.0108
    4DOPE   O13  399   4.632   4.527   9.261 -0.1106  0.1101 -0.0113
    4DOPE   O14  400   4.797   4.337   9.321  0.3663  0.2845  0.0511
    4DOPE   O11  401   4.799   4.422   9.098 -0.3137 -0.4612  0.1949
    4DOPE   O12  402   4.867   4.568   9.296  0.2040  0.3755 -0.2965
    4DOPE    C1  403   4.938   4.407   9.064  0.2110  0.3818  0.2794
    4DOPE    HA  404   4.999   4.346   9.133 -0.0181  0.4668  0.5553
    4DOPE    HB  405   4.985   4.507   9.054 -1.1046  0.7997 -3.6312
    4DOPE    C2  406   4.951   4.324   8.939  0.5149 -0.1760 -0.6288
    4DOPE    HS  407   5.058   4.297   8.926  0.8034  1.1786 -1.1638
    4DOPE   O21  408   4.906   4.408   8.833 -0.3600  0.1819  0.2456
    4DOPE   C21  409   4.997   4.487   8.787  0.2262  0.0080 -0.3836
    4DOPE   O22  410   5.106   4.511   8.835 -0.0112  0.0609 -0.7921
    4DOPE   C22  411   4.949   4.537   8.653  0.6282  0.1556 -0.4202
    4DOPE   H2R  412   4.892   4.630   8.676  0.3870 -0.5445  2.1145
    4DOPE   H2S  413   4.885   4.463   8.601 -1.6341  0.4041  1.8374
    4DOPE    C3  414   4.854   4.204   8.945 -0.1770  0.3671  0.2312
    4DOPE    HX  415   4.748   4.239   8.952  0.0768  1.5985 -1.4111
    4DOPE    HY  416   4.872   4.151   9.041 -1.9258  0.4297  0.6366
    4DOPE   O31  417   4.873   4.107   8.834 -0.0705  0.0228 -0.2173
    4DOPE   C31  418   4.790   4.117   8.726 -0.7496  0.2637  0.9982
    4DOPE   O32  419   4.704   4.205   8.718  0.4180  0.7779 -0.2421
    4DOPE   C32  420   4.834   4.014   8.627 -0.2565 -0.4189 -0.3319
    4DOPE   H2X  421   4.930   3.973   8.665 -2.6189 -3.3458  3.2234
    4DOPE   H2Y  422   4.768   3.924   8.626  0.1899 -0.7780  1.1044
    4DOPE   C23  423   5.063   4.596   8.566  0.1672  0.0617 -0.4194
    4DOPE   H3R  424   5.141   4.520   8.543 -0.6475 -0.7673 -0.5075
    4DOPE   H3S  425   5.115   4.676   8.623  2.3714 -1.1763 -0.5631
    4DOPE   C24  426   5.010   4.660   8.434 -0.0981 -0.2755 -0.3296
    4DOPE   H4R  427   4.924   4.728   8.454 -2.0912 -2.5783 -0.6225
    4DOPE   H4S  428   4.967   4.570   8.385  3.2374 -1.8280 -0.6733
    4DOPE   C25  429   5.116   4.731   8.354  0.5307  0.4121 -0.2739
    4DOPE   H5R  430   5.199   4.657   8.362 -1.9252 -2.4011  0.9417
    4DOPE   H5S  431   5.136   4.834   8.389  0.5739  0.8082 -1.4175
    4DOPE   C26  432   5.078   4.750   8.206  0.3331  0.1670  0.3187
    4DOPE   H6R  433   4.974   4.791   8.203  0.2702  0.0444  0.7471
    4DOPE   H6S  434   5.082   4.653   8.153  0.1453 -0.1528  0.8869
    4DOPE   C27  435   5.167   4.844   8.127  0.5564  1.0225  0.0098
    4DOPE   H7R  436   5.276   4.832   8.142  0.6090 -1.2462 -1.7108
    4DOPE   H7S  437   5.136   4.948   8.151 -1.5786  0.4842 -0.1746
    4DOPE   C28  438   5.137   4.823   7.976 -0.0129 -0.0330 -0.9779
    4DOPE   H8R  439   5.028   4.835   7.956  0.1381 -1.3397 -2.8274
    4DOPE   H8S  440   5.159   4.714   7.970  2.2066  0.0474  2.7674
    4DOPE   C29  441   5.213   4.905   7.878  0.0501 -0.0566 -0.3620
    4DOPE   H9R  442   5.230   5.009   7.907 -2.3657  0.0689  0.8560
    4DOPE  C210  443   5.253   4.870   7.753 -0.9262  0.3975 -0.3189
    4DOPE  H10R  444   5.313   4.943   7.696 -0.9757  1.3424  0.7946
    4DOPE  C211  445   5.214   4.735   7.702  0.1850 -0.1636 -0.2199
    4DOPE  H11R  446   5.141   4.680   7.765 -1.1005  0.0853 -1.4474
    4DOPE  H11S  447   5.297   4.662   7.690  1.5094  1.0687  1.0675
    4DOPE  C212  448   5.140   4.752   7.566  0.0019  0.2616  0.6374
    4DOPE  H12R  449   5.061   4.830   7.567 -0.7745 -0.4236 -1.6318
    4DOPE  H12S  450   5.085   4.656   7.553 -0.2027  0.5499 -0.7982
    4DOPE  C213  451   5.242   4.769   7.456  0.4630  0.4311 -0.5400
    4DOPE  H13R  452   5.307   4.681   7.474  1.6188  1.4454  0.3689
    4DOPE  H13S  453   5.310   4.856   7.466  0.2004  0.5166  0.6054
    4DOPE  C214  454   5.187   4.756   7.314 -0.4315  0.4317 -0.4807
    4DOPE  H14R  455   5.143   4.854   7.284  1.6995  1.3910 -0.6205
    4DOPE  H14S  456   5.102   4.684   7.317 -1.2621  1.3957  1.6325
    4DOPE  C215  457   5.287   4.717   7.214 -0.2706  0.3633 -0.6744
    4DOPE  H15R  458   5.345   4.632   7.255  0.5013  0.6148 -1.2153
    4DOPE  H15S  459   5.359   4.802   7.214 -0.1968  0.3138 -1.7698
    4DOPE  C216  460   5.229   4.673   7.078  0.0532 -0.0517  0.4370
    4DOPE  H16R  461   5.133   4.728   7.069 -0.0354 -0.0949  1.0741
    4DOPE  H16S  462   5.204   4.565   7.085 -1.4495  0.1905 -0.7006
    4DOPE  C217  463   5.314   4.716   6.957 -0.4036  0.5765 -0.7739
    4DOPE  H17R  464   5.395   4.641   6.948 -1.1698 -0.3672 -0.1234
    4DOPE  H17S  465   5.362   4.815   6.961  0.5688  0.0966 -0.3195
    4DOPE  C218  466   5.236   4.696   6.829  0.3957  0.5627  0.4263
    4DOPE  H18R  467   5.295   4.711   6.736 -2.2811  1.6671 -1.2249
    4DOPE  H18S  468   5.151   4.766   6.816  0.6705  0.5157 -2.2738
    4DOPE  H18T  469   5.194   4.593   6.834 -0.3915  0.9063  1.1060
    4DOPE   C33  470   4.835   4.059   8.475  0.6634 -0.3171 -0.6161
    4DOPE   H3X  471   4.729   4.091   8.461  0.0404 -0.8784  2.1392
    4DOPE   H3Y  472   4.848   3.964   8.419 -1.2334  0.1187 -1.8898
    4DOPE   C34  473   4.917   4.183   8.439 -0.2574 -0.0914 -0.4473
    4DOPE   H4X  474   4.911   4.266   8.512  0.3931  0.5150 -1.0681
    4DOPE   H4Y  475   5.024   4.154   8.429 -0.2373 -1.3050  2.2900
    4DOPE   C35  476   4.863   4.242   8.314  0.7355 -0.0421 -0.1932
    4DOPE   H5X  477   4.901   4.343   8.289 -0.8501  0.4816 -0.5592
    4DOPE   H5Y  478   4.753   4.252   8.327  0.8069 -1.1555  1.7541
    4DOPE   C36  479   4.897   4.160   8.188  0.2563 -0.6609 -0.4191
    4DOPE   H6X  480   4.857   4.058   8.207 -2.0855  0.6345  2.3015
    4DOPE   H6Y  481   5.006   4.157   8.167 -0.0799  0.2913 -2.5044
    4DOPE   C37  482   4.815   4.212   8.070 -0.1206  0.1322  0.0924
    4DOPE   H7X  483   4.709   4.195   8.097 -0.7861  0.5214 -2.0581
    4DOPE   H7Y  484   4.844   4.319   8.056  1.5660 -0.4072 -0.9504
    4DOPE   C38  485   4.849   4.131   7.948  0.3787  0.2824 -0.0184
    4DOPE   H8X  486   4.804   4.032   7.973  0.0081  0.1725 -1.0754
    4DOPE   H8Y  487   4.959   4.126   7.935  0.2377  0.1043 -1.2338
    4DOPE   C39  488   4.770   4.188   7.832 -0.2717  0.3552  0.8546
    4DOPE   H9X  489   4.661   4.182   7.822 -0.2774  1.2805  0.1670
    4DOPE  C310  490   4.817   4.267   7.732 -0.1213  0.2180  0.1991
    4DOPE  H10X  491   4.748   4.278   7.647 -0.0391  0.9413  0.2200
    4DOPE  C311  492   4.970   4.296   7.711  1.0365 -0.1804  0.6900
    4DOPE  H11X  493   4.980   4.401   7.746 -1.4148  1.3442 -2.5664
    4DOPE  H11Y  494   5.039   4.232   7.769 -0.3646  0.5283  3.2767
    4DOPE  C312  495   4.989   4.292   7.555  0.6684  0.2473 -0.4867
    4DOPE  H12X  496   4.942   4.196   7.523  0.0724 -0.1329  1.4070
    4DOPE  H12Y  497   5.095   4.294   7.523  0.2296  0.6534 -1.9986
    4DOPE  C313  498   4.919   4.406   7.476  0.2726 -0.6846 -0.1374
    4DOPE  H13X  499   4.809   4.388   7.472  0.1858 -0.0091 -1.1109
    4DOPE  H13Y  500   4.948   4.498   7.530  1.0917 -0.9209 -0.1707
    4DOPE  C314  501   4.942   4.421   7.322 -0.0465  0.7302  0.1156
    4DOPE  H14X  502   5.049   4.446   7.307  0.8328 -1.7877  1.5003
    4DOPE  H14Y  503   4.872   4.495   7.277  2.0519  1.5870 -1.8710
    4DOPE  C315  504   4.928   4.283   7.242 -0.8072  0.3176 -0.3150
    4DOPE  H15X  505   4.832   4.236   7.274  0.2479 -1.6915  0.0779
    4DOPE  H15Y  506   5.015   4.220   7.271 -1.1370 -0.1048 -0.2122
    4DOPE  C316  507   4.930   4.300   7.089 -0.3119 -0.1256 -1.0469
    4DOPE  H16X  508   4.915   4.405   7.054 -0.4193  0.5576  0.9299
    4DOPE  H16Y  509   4.857   4.236   7.034 -0.3082  2.8025 -4.9488
    4DOPE  C317  510   5.068   4.256   7.042  0.3030  0.7684  0.5110
    4DOPE  H17X  511   5.145   4.319   7.091  0.0784  0.2846  1.5302
    4DOPE  H17Y  512   5.084   4.147   7.057 -1.4109  0.1281 -1.7948
    4DOPE  C318  513   5.080   4.281   6.890 -0.4985 -0.4686 -0.6723
    4DOPE  H18X  514   5.190   4.269   6.875 -0.3831  0.0436 -0.2523
    4DOPE  H18Y  515   5.026   4.209   6.823 -2.5254  1.1478 -0.8670
    4DOPE  H18Z  516   5.061   4.386   6.861  0.9214 -0.2948 -1.0540
    5DOPE     N  517   1.789   5.896   8.802  0.4610  0.0137 -0.3665
    5DOPE   HN1  518   1.695   5.876   8.843 -1.2278  2.2507 -2.7716
    5DOPE   HN2  519   1.864   5.901   8.873  0.2914 -2.9958  0.1621
    5DOPE   HN3  520   1.773   5.983   8.747 -1.8089 -0.2615 -0.2466
    5DOPE   C12  521   1.817   5.799   8.696 -0.1344  0.6000 -0.2560
    5DOPE  H12A  522   1.725   5.786   8.637  0.1109 -0.3299 -0.4494
    5DOPE  H12B  523   1.842   5.700   8.740 -0.0945  0.9368  0.4975
    5DOPE   C11  524   1.933   5.841   8.607  0.1876  0.2396  0.4120
    5DOPE  H11A  525   1.908   5.944   8.573  1.1648  0.3928  0.1236
    5DOPE  H11B  526   1.936   5.761   8.531  1.5001  0.8886 -0.2418
    5DOPE     P  527   2.137   5.978   8.718 -0.1763  0.4732 -0.4395
    5DOPE   O13  528   2.268   5.947   8.778 -0.0828 -0.4568  0.1830
    5DOPE   O14  529   2.051   6.070   8.789 -0.5080 -0.1896 -0.2726
    5DOPE   O11  530   2.164   6.031   8.570 -0.1070  0.3443 -0.1284
    5DOPE   O12  531   2.053   5.843   8.681 -0.1037 -0.0330 -0.0170
    5DOPE    C1  532   2.266   5.962   8.484  0.4425 -0.3779  0.1965
    5DOPE    HA  533   2.270   5.852   8.501  0.5405 -0.4432 -0.2321
    5DOPE    HB  534   2.367   6.006   8.502  0.3583 -0.0631 -0.1037
    5DOPE    C2  535   2.232   5.989   8.335 -0.0221  0.2392 -0.1448
    5DOPE    HS  536   2.249   6.095   8.308  1.7991 -0.5231 -2.4005
    5DOPE   O21  537   2.107   5.924   8.306  0.0714 -0.5027  0.1684
    5DOPE   C21  538   2.009   6.014   8.291 -0.6115 -0.3138  0.0928
    5DOPE   O22  539   2.024   6.134   8.310 -0.2654  0.4761  0.0780
    5DOPE   C22  540   1.883   5.941   8.242  0.1153 -0.0954  0.2769
    5DOPE   H2R  541   1.821   5.939   8.334  1.2199  0.9886  1.0743
    5DOPE   H2S  542   1.908   5.839   8.205 -0.7491  0.2134 -1.2412
    5DOPE    C3  543   2.338   5.912   8.247  0.2792  0.0507 -0.2337
    5DOPE    HX  544   2.329   5.804   8.270  0.3682  0.3569  1.3816
    5DOPE    HY  545   2.437   5.956   8.271  0.3134  0.7373 -1.5237
    5DOPE   O31  546   2.302   5.927   8.103  0.1859  0.4115 -0.1910
    5DOPE   C31  547   2.331   6.043   8.045 -0.3067 -0.0011  1.1218
    5DOPE   O32  548   2.389   6.134   8.106  0.4686  0.7616  0.0441
    5DOPE   C32  549   2.286   6.042   7.901  0.2473  0.0656  0.0402
    5DOPE   H2X  550   2.315   5.944   7.859  1.4469  0.1530  0.6345
    5DOPE   H2Y  551   2.175   6.042   7.906  0.2908 -1.3220  3.0070
    5DOPE   C23  552   1.821   6.016   8.121  0.0831 -0.0428  0.3599
    5DOPE   H3R  553   1.848   6.124   8.116  1.9725 -0.5031  0.1016
    5DOPE   H3S  554   1.710   6.009   8.120 -0.1565  1.8849 -3.3365
    5DOPE   C24  555   1.870   5.961   7.985 -0.1698  0.1880 -0.0967
    5DOPE   H4R  556   1.843   5.854   7.972  2.1345 -0.4185 -0.3718
    5DOPE   H4S  557   1.981   5.965   7.984 -0.0156 -1.9260  1.2227
    5DOPE   C25  558   1.795   6.025   7.872  0.0511  0.2916  0.6139
    5DOPE   H5R  559   1.779   6.134   7.882 -1.5909  0.2869 -1.3221
    5DOPE   H5S  560   1.691   5.988   7.862  0.4081 -0.7344  0.5936
    5DOPE   C26  561   1.875   5.998   7.741  0.7666  0.1853 -0.6472
    5DOPE   H6R  562   1.877   5.888   7.725  1.3166  0.1326 -0.2241
    5DOPE   H6S  563   1.979   6.031   7.764  1.2131 -2.1746  1.1371
    5DOPE   C27  564   1.832   6.089   7.620 -0.3862  0.3444 -0.2686
    5DOPE   H7R  565   1.868   6.193   7.626 -2.8426  1.1844  2.1262
    5DOPE   H7S  566   1.721   6.096   7.627 -0.2734  0.7039  1.7647
    5DOPE   C28  567   1.876   6.029   7.487  0.0149  0.2912  0.8934
    5DOPE   H8R  568   1.812   5.947   7.449  2.0093 -1.1564  0.5396
    5DOPE   H8S  569   1.979   5.989   7.497  0.3091  0.1424 -1.9719
    5DOPE   C29  570   1.874   6.134   7.376  0.3633 -0.3320  0.3295
    5DOPE   H9R  571   1.901   6.235   7.410  2.0669 -0.3181 -0.9429
    5DOPE  C210  572   1.846   6.114   7.244  0.4468  0.4696 -0.0955
    5DOPE  H10R  573   1.834   6.203   7.181 -0.2879 -0.4873 -1.3704
    5DOPE  C211  574   1.810   5.987   7.175 -0.4581 -0.2553 -0.3300
    5DOPE  H11R  575   1.700   5.994   7.173 -0.3419  3.1451 -1.7454
    5DOPE  H11S  576   1.850   5.899   7.230 -0.3704  0.3884  0.6590
    5DOPE  C212  577   1.853   6.005   7.035 -0.7706  0.0262 -0.4550
    5DOPE  H12R  578   1.963   5.999   7.040 -0.8490 -0.7261  1.2725
    5DOPE  H12S  579   1.824   6.098   6.982  2.2449  0.5280 -1.3649
    5DOPE  C213  580   1.820   5.880   6.938  0.0598  0.6067 -0.1281
    5DOPE  H13R  581   1.713   5.891   6.913  0.7584  2.8702 -2.6365
    5DOPE  H13S  582   1.840   5.787   6.995  2.7727  0.4827 -1.1339
    5DOPE  C214  583   1.898   5.884   6.802  0.2152  0.3706 -0.1891
    5DOPE  H14R  584   1.859   5.803   6.737  1.1715 -1.3705  1.3128
    5DOPE  H14S  585   2.007   5.863   6.810  0.7296  2.4616 -1.1187
    5DOPE  C215  586   1.876   6.018   6.737  0.1019 -0.0139 -0.1513
    5DOPE  H15R  587   1.946   6.085   6.790  1.2291 -0.4301 -1.0701
    5DOPE  H15S  588   1.770   6.049   6.744 -0.4010 -1.1145 -2.0382
    5DOPE  C216  589   1.922   6.012   6.593  0.2504  0.9595  0.3903
    5DOPE  H16R  590   1.914   6.109   6.538  1.3198  0.3419 -0.9363
    5DOPE  H16S  591   1.861   5.939   6.535  2.3997 -1.1576  0.6380
    5DOPE  C217  592   2.061   5.958   6.555 -0.1505  0.3687 -0.2053
    5DOPE  H17R  593   2.063   5.855   6.596 -0.2515  0.5208  0.1901
    5DOPE  H17S  594   2.139   6.016   6.609  1.1083 -1.7686  0.3824
    5DOPE  C218  595   2.093   5.927   6.413 -0.4621 -0.5371  0.6504
    5DOPE  H18R  596   2.001   5.880   6.371 -0.2401 -0.1545 -0.2984
    5DOPE  H18S  597   2.181   5.860   6.401 -0.4068 -0.1924 -1.2131
    5DOPE  H18T  598   2.112   6.024   6.362 -3.3256 -0.1194  0.1831
    5DOPE   C33  599   2.339   6.158   7.823 -1.0617 -0.0671  0.2738
    5DOPE   H3X  600   2.448   6.140   7.809 -1.4147 -0.8628 -1.8029
    5DOPE   H3Y  601   2.342   6.263   7.860  2.0132  1.1360 -2.8455
    5DOPE   C34  602   2.288   6.157   7.679  0.5666  1.0338 -0.3598
    5DOPE   H4X  603   2.315   6.057   7.638  0.5502  1.7912 -2.3000
    5DOPE   H4Y  604   2.178   6.169   7.680  0.5866  1.1871  0.0964
    5DOPE   C35  605   2.363   6.247   7.580  0.2956 -0.1175 -0.1390
    5DOPE   H5X  606   2.469   6.226   7.603  0.1519  0.0677  0.7072
    5DOPE   H5Y  607   2.343   6.352   7.610  0.0094 -0.0977 -0.3821
    5DOPE   C36  608   2.318   6.229   7.436 -0.4717 -0.8966 -0.1622
    5DOPE   H6X  609   2.213   6.191   7.430  0.9813 -5.2480 -2.4090
    5DOPE   H6Y  610   2.381   6.157   7.379  0.5867  1.7589 -2.6188
    5DOPE   C37  611   2.324   6.358   7.363 -0.1703  0.0475  0.5939
    5DOPE   H7X  612   2.232   6.419   7.380 -0.6181 -0.5528  0.3551
    5DOPE   H7Y  613   2.413   6.414   7.399 -0.6766  1.7787 -0.7092
    5DOPE   C38  614   2.356   6.328   7.212  0.9534 -0.5888  1.1562
    5DOPE   H8X  615   2.448   6.266   7.221  0.7302 -0.9291  1.0632
    5DOPE   H8Y  616   2.384   6.420   7.156 -0.1309 -0.5201  0.6998
    5DOPE   C39  617   2.243   6.251   7.143 -0.0917 -0.3794 -0.4264
    5DOPE   H9X  618   2.157   6.237   7.209  0.2758 -0.7536 -0.0228
    5DOPE  C310  619   2.242   6.204   7.020  0.4497  0.7480 -0.0283
    5DOPE  H10X  620   2.147   6.163   6.981  0.1690 -0.3855  1.6797
    5DOPE  C311  621   2.361   6.209   6.933  0.6965 -0.6136  0.5160
    5DOPE  H11X  622   2.456   6.204   6.991  0.9127  1.1403  0.3588
    5DOPE  H11Y  623   2.353   6.119   6.868  1.2877 -2.0262  2.3246
    5DOPE  C312  624   2.353   6.341   6.846 -0.0107 -0.8032  0.0178
    5DOPE  H12X  625   2.456   6.344   6.804  0.4633  0.4817  1.2051
    5DOPE  H12Y  626   2.338   6.431   6.909 -2.2508 -0.1212 -1.3524
    5DOPE  C313  627   2.247   6.349   6.735  0.4090  0.5040 -0.2214
    5DOPE  H13X  628   2.271   6.267   6.664  1.4845  0.3557  0.2995
    5DOPE  H13Y  629   2.147   6.321   6.775  0.8363 -0.0868  0.4632
    5DOPE  C314  630   2.241   6.488   6.670  0.4485 -0.7223 -1.1313
    5DOPE  H14X  631   2.342   6.510   6.628  0.8204  2.1488  0.9599
    5DOPE  H14Y  632   2.228   6.559   6.754 -0.7372 -1.4977 -0.6351
    5DOPE  C315  633   2.133   6.499   6.563 -0.3913 -0.8580 -0.1052
    5DOPE  H15X  634   2.143   6.605   6.532  0.4250 -0.6017  0.9857
    5DOPE  H15Y  635   2.039   6.471   6.615  0.3881 -0.1445  1.7917
    5DOPE  C316  636   2.157   6.402   6.449  0.2763 -0.1121  0.0349
    5DOPE  H16X  637   2.141   6.302   6.496  1.9691 -0.3967  0.0605
    5DOPE  H16Y  638   2.262   6.415   6.415  0.6766  1.3211  1.6926
    5DOPE  C317  639   2.061   6.422   6.331  0.8720  0.3747  0.4574
    5DOPE  H17X  640   1.958   6.408   6.369 -0.5487  2.3165 -2.3078
    5DOPE  H17Y  641   2.061   6.531   6.310 -4.0649  1.0232  2.3998
    5DOPE  C318  642   2.095   6.338   6.214  0.7737  0.6040  0.1495
    5DOPE  H18X  643   2.021   6.346   6.132  0.9489  1.4194  0.0645
    5DOPE  H18Y  644   2.199   6.352   6.177  0.8787  1.2168  0.6570
    5DOPE  H18Z  645   2.068   6.233   6.237 -1.6663  0.7110 -1.8047
    6DOPE     N  646   1.915   6.316   8.466  0.0566 -0.2024  0.0588
    6DOPE   HN1  647   1.996   6.274   8.417  1.6377  1.2760  1.2817
    6DOPE   HN2  648   1.921   6.293   8.568  3.3042 -3.4278 -0.6342
    6DOPE   HN3  649   1.825   6.274   8.435 -0.2110 -0.7837  1.5285
    6DOPE   C12  650   1.911   6.464   8.452  0.3329 -0.1366  0.0027
    6DOPE  H12A  651   1.889   6.489   8.346  0.2335  0.5977  0.1968
    6DOPE  H12B  652   2.011   6.507   8.471 -0.4396  0.7419  2.3383
    6DOPE   C11  653   1.804   6.529   8.542 -0.3063 -0.1879  0.4536
    6DOPE  H11A  654   1.807   6.489   8.646  0.3815  0.2853  0.6180
    6DOPE  H11B  655   1.708   6.503   8.492 -0.8408  1.5257  0.5429
    6DOPE     P  656   1.922   6.755   8.630 -0.4623 -0.3701  0.4252
    6DOPE   O13  657   1.951   6.690   8.762 -0.2706 -0.7154  0.0652
    6DOPE   O14  658   1.868   6.893   8.635  0.6707  0.4911 -0.7125
    6DOPE   O11  659   2.053   6.751   8.546 -0.2181  0.3566 -0.6634
    6DOPE   O12  660   1.816   6.668   8.550  0.4383 -0.3361  0.3574
    6DOPE    C1  661   2.095   6.858   8.463 -0.3929 -0.1139  0.6900
    6DOPE    HA  662   2.166   6.922   8.519  2.8834 -1.6329 -1.4527
    6DOPE    HB  663   2.009   6.925   8.441  0.2005  0.5987  0.5331
    6DOPE    C2  664   2.144   6.805   8.324 -0.0603  0.5133 -0.0019
    6DOPE    HS  665   2.171   6.887   8.255  1.1797 -0.8289 -1.1820
    6DOPE   O21  666   2.039   6.726   8.263  0.0906 -0.1465 -0.4274
    6DOPE   C21  667   1.940   6.801   8.210  0.4457 -0.3264 -0.5526
    6DOPE   O22  668   1.943   6.919   8.192  0.2362 -0.3789  0.4056
    6DOPE   C22  669   1.816   6.709   8.189  0.6073 -0.0438  0.2477
    6DOPE   H2R  670   1.786   6.678   8.292  1.4227  2.5754  1.3506
    6DOPE   H2S  671   1.849   6.622   8.129  2.5409 -0.9833  2.5134
    6DOPE    C3  672   2.268   6.713   8.346 -0.0180 -0.0913 -0.7517
    6DOPE    HX  673   2.222   6.644   8.420  1.4341 -0.1856  0.1008
    6DOPE    HY  674   2.346   6.775   8.395 -0.3127 -0.6677  0.4742
    6DOPE   O31  675   2.315   6.640   8.231  0.0239 -0.2683  0.0782
    6DOPE   C31  676   2.381   6.712   8.149 -0.5108  0.1267  0.5071
    6DOPE   O32  677   2.410   6.830   8.169 -0.1498 -0.7769  0.1146
    6DOPE   C32  678   2.429   6.623   8.029 -0.4496 -0.6170 -0.1109
    6DOPE   H2X  679   2.534   6.595   8.054  0.5703  2.6813 -0.1146
    6DOPE   H2Y  680   2.378   6.525   8.025 -0.4194 -0.6303 -0.1907
    6DOPE   C23  681   1.714   6.784   8.097 -0.1669  0.2619 -0.1771
    6DOPE   H3R  682   1.775   6.822   8.012  0.1295 -0.2722 -0.2076
    6DOPE   H3S  683   1.674   6.870   8.155  1.0387  0.5571  0.2640
    6DOPE   C24  684   1.615   6.692   8.028  0.4997 -0.0352 -0.7240
    6DOPE   H4R  685   1.588   6.616   8.104  2.1847  0.8212  0.8156
    6DOPE   H4S  686   1.657   6.628   7.947 -1.0803 -0.5146 -1.2199
    6DOPE   C25  687   1.488   6.755   7.968 -0.0679  0.1417  0.1071
    6DOPE   H5R  688   1.445   6.818   8.050  0.8725  0.2462  0.5333
    6DOPE   H5S  689   1.410   6.678   7.948  0.0531  0.3735 -1.3493
    6DOPE   C26  690   1.530   6.825   7.838  0.5009  0.0639 -0.8616
    6DOPE   H6R  691   1.579   6.748   7.774  1.7986 -0.0115  0.1849
    6DOPE   H6S  692   1.593   6.910   7.869 -2.4446  2.1371 -0.1151
    6DOPE   C27  693   1.407   6.889   7.773 -0.5698 -0.2687 -0.1066
    6DOPE   H7R  694   1.371   6.967   7.843  2.4363  0.4692  0.7821
    6DOPE   H7S  695   1.328   6.813   7.757 -0.4509  0.0837 -3.0586
    6DOPE   C28  696   1.445   6.963   7.642 -0.2647  0.2182 -0.7194
    6DOPE   H8R  697   1.529   7.036   7.646 -0.1397  0.2500 -2.8358
    6DOPE   H8S  698   1.364   7.035   7.616  0.7158  0.5895 -2.9967
    6DOPE   C29  699   1.492   6.870   7.535  0.0734  1.0256 -0.7161
    6DOPE   H9R  700   1.566   6.795   7.569 -0.0768 -0.1249 -2.7964
    6DOPE  C210  701   1.459   6.862   7.401 -0.5113 -0.0108 -0.0857
    6DOPE  H10R  702   1.495   6.775   7.344 -0.6556 -0.7635  0.9433
    6DOPE  C211  703   1.359   6.957   7.351  0.1368 -0.1575  0.0287
    6DOPE  H11R  704   1.408   7.052   7.322  0.1610 -0.6935 -1.7922
    6DOPE  H11S  705   1.277   6.968   7.425 -1.8739  0.3495 -2.1499
    6DOPE  C212  706   1.291   6.906   7.230  0.1997 -0.6374  0.3732
    6DOPE  H12R  707   1.237   6.997   7.195  0.2477 -0.9854 -0.6340
    6DOPE  H12S  708   1.211   6.833   7.251  1.2561 -1.6117  1.0891
    6DOPE  C213  709   1.381   6.886   7.105 -0.5020  0.0702 -0.3834
    6DOPE  H13R  710   1.459   6.810   7.128  1.9137  2.5451  0.1235
    6DOPE  H13S  711   1.435   6.981   7.085  0.8902 -0.4692  0.6350
    6DOPE  C214  712   1.314   6.858   6.977 -0.9211 -0.0829 -0.1085
    6DOPE  H14R  713   1.237   6.937   6.962  0.6964  2.3681  3.1453
    6DOPE  H14S  714   1.251   6.766   6.983  1.5208 -1.8141  0.6745
    6DOPE  C215  715   1.406   6.838   6.857 -0.8162 -1.4522  0.2899
    6DOPE  H15R  716   1.463   6.744   6.873  4.4893  1.0004 -1.8300
    6DOPE  H15S  717   1.472   6.927   6.853 -0.1938 -1.9598 -1.2570
    6DOPE  C216  718   1.316   6.828   6.740 -0.0003 -0.8904  0.6585
    6DOPE  H16R  719   1.254   6.920   6.728  0.4912 -0.3372  2.1401
    6DOPE  H16S  720   1.245   6.743   6.755  1.4776 -2.1589  0.6976
    6DOPE  C217  721   1.389   6.800   6.602  0.2117  0.7667  0.2237
    6DOPE  H17R  722   1.424   6.696   6.589 -0.3981  0.6443 -0.5171
    6DOPE  H17S  723   1.470   6.876   6.597  0.1808  0.8775  1.2960
    6DOPE  C218  724   1.298   6.805   6.480  0.3744  0.2187  0.1913
    6DOPE  H18R  725   1.223   6.887   6.487  0.5810  0.3394  1.1063
    6DOPE  H18S  726   1.243   6.709   6.475 -0.8116  0.9105 -0.6276
    6DOPE  H18T  727   1.350   6.818   6.382  0.4759  0.9254  0.3342
    6DOPE   C33  728   2.434   6.698   7.894 -0.3528  0.7720 -0.4943
    6DOPE   H3X  729   2.526   6.762   7.891 -0.5860  1.0830 -1.1275
    6DOPE   H3Y  730   2.353   6.774   7.906 -1.3837 -0.4677  0.7598
    6DOPE   C34  731   2.413   6.608   7.764 -0.3980 -0.3951  0.9401
    6DOPE   H4X  732   2.493   6.532   7.752 -0.3422  0.0426 -2.1331
    6DOPE   H4Y  733   2.319   6.554   7.789 -1.4270  0.9393  0.0777
    6DOPE   C35  734   2.409   6.673   7.627  0.6301  0.4466 -0.2098
    6DOPE   H5X  735   2.396   6.585   7.560  1.5849 -0.4817  0.7754
    6DOPE   H5Y  736   2.511   6.713   7.607  1.9213 -1.8497  1.3343
    6DOPE   C36  737   2.311   6.787   7.605  0.7931 -0.6512  0.3570
    6DOPE   H6X  738   2.287   6.849   7.693  2.8493  0.3520  0.2567
    6DOPE   H6Y  739   2.213   6.739   7.581  1.5976 -1.5890 -1.2656
    6DOPE   C37  740   2.345   6.880   7.482 -0.4649  0.0194  0.3388
    6DOPE   H7X  741   2.257   6.940   7.449  0.8364  2.9363  1.7105
    6DOPE   H7Y  742   2.418   6.956   7.519  0.3925 -0.7338  0.2417
    6DOPE   C38  743   2.412   6.805   7.364 -0.1480 -0.9911  0.1693
    6DOPE   H8X  744   2.490   6.733   7.398  1.2997  0.2561 -0.4455
    6DOPE   H8Y  745   2.464   6.891   7.317 -0.2109  0.0512  1.9216
    6DOPE   C39  746   2.320   6.737   7.262 -0.0152 -0.5004 -0.8093
    6DOPE   H9X  747   2.302   6.630   7.282  0.3354 -0.0947  2.0835
    6DOPE  C310  748   2.265   6.801   7.158  0.7739  0.3885  0.2091
    6DOPE  H10X  749   2.204   6.736   7.094  1.2242 -4.2198  3.8798
    6DOPE  C311  750   2.286   6.938   7.113  0.1779 -0.1811  0.3607
    6DOPE  H11X  751   2.189   6.992   7.104 -0.4377 -1.2834  0.2354
    6DOPE  H11Y  752   2.344   7.003   7.182  2.7964 -1.5535 -0.4338
    6DOPE  C312  753   2.363   6.952   6.972 -0.5567 -0.7816  0.3360
    6DOPE  H12X  754   2.461   6.902   6.990  0.1141  0.3713  0.0008
    6DOPE  H12Y  755   2.377   7.062   6.961  4.2748 -1.1737  0.4381
    6DOPE  C313  756   2.283   6.900   6.855 -0.4718  0.7644 -0.9006
    6DOPE  H13X  757   2.248   6.797   6.877 -1.6710  1.1073 -1.1358
    6DOPE  H13Y  758   2.195   6.967   6.852 -0.6519  0.4899 -2.5081
    6DOPE  C314  759   2.361   6.925   6.729 -0.1378 -0.2362  1.4443
    6DOPE  H14X  760   2.449   6.857   6.737  0.3604  0.1190 -0.5168
    6DOPE  H14Y  761   2.387   7.033   6.722 -2.3338  0.2380 -1.6278
    6DOPE  C315  762   2.273   6.883   6.610  0.5069 -0.2546 -0.1240
    6DOPE  H15X  763   2.204   6.962   6.575  1.0689  0.8240  1.1550
    6DOPE  H15Y  764   2.208   6.799   6.645 -1.5035  0.9855 -0.6975
    6DOPE  C316  765   2.357   6.822   6.492  0.5717 -0.1189  0.3396
    6DOPE  H16X  766   2.401   6.726   6.524 -1.2406 -1.3766 -0.6957
    6DOPE  H16Y  767   2.437   6.896   6.472 -0.4695  1.1353  0.7098
    6DOPE  C317  768   2.279   6.791   6.362 -0.4886 -0.1385  0.5009
    6DOPE  H17X  769   2.184   6.740   6.390 -1.1648  1.2135  0.7815
    6DOPE  H17Y  770   2.242   6.884   6.313 -1.6560 -0.7012  0.2911
    6DOPE  C318  771   2.363   6.715   6.256  0.1317 -0.1328 -0.0406
    6DOPE  H18X  772   2.311   6.648   6.184 -0.2652 -0.5427  0.6116
    6DOPE  H18Y  773   2.412   6.788   6.189  0.1823  1.3004  1.4910
    6DOPE  H18Z  774   2.435   6.644   6.302 -0.9787  0.1981  2.3437
    7DOPE     N  775   4.713   5.861   8.968  0.6114  0.1317 -0.0223
    7DOPE   HN1  776   4.757   5.838   9.059 -1.1221  0.8620  1.0437
    7DOPE   HN2  777   4.739   5.961   8.960  1.0096 -0.0521 -1.2581
    7DOPE   HN3  778   4.609   5.856   8.972  0.6236 -0.1068  0.0277
    7DOPE   C12  779   4.753   5.788   8.836 -0.3565 -0.4387 -0.1358
    7DOPE  H12A  780   4.752   5.679   8.856  1.8495 -1.1516 -3.1984
    7DOPE  H12B  781   4.859   5.815   8.817  0.1272 -2.7171 -1.0208
    7DOPE   C11  782   4.664   5.822   8.715  0.3216 -0.5604 -0.2327
    7DOPE  H11A  783   4.566   5.772   8.732 -0.5715  0.7873 -1.1517
    7DOPE  H11B  784   4.699   5.779   8.618  0.9761  1.7279 -1.0745
    7DOPE     P  785   4.508   6.033   8.669  0.0786  0.3077 -0.1565
    7DOPE   O13  786   4.529   6.176   8.649  0.4172  0.1323  0.3633
    7DOPE   O14  787   4.420   6.001   8.780  0.5665  0.3682 -0.3967
    7DOPE   O11  788   4.455   5.973   8.540  0.3377  0.0080  0.5537
    7DOPE   O12  789   4.649   5.965   8.690 -0.4589 -0.2943  0.1231
    7DOPE    C1  790   4.541   5.957   8.427 -0.0185 -0.6759  0.0292
    7DOPE    HA  791   4.538   5.850   8.396 -1.5111 -0.9327  0.9677
    7DOPE    HB  792   4.640   6.004   8.446 -1.3357  2.2470  0.1795
    7DOPE    C2  793   4.487   6.051   8.310 -0.0563 -0.6399  0.1392
    7DOPE    HS  794   4.503   6.151   8.355 -0.7022 -1.0465  1.3022
    7DOPE   O21  795   4.353   6.027   8.278  0.4326  0.7768 -0.1423
    7DOPE   C21  796   4.286   6.132   8.240 -0.7458 -0.9671 -0.8837
    7DOPE   O22  797   4.322   6.252   8.245  0.0058  0.8764  0.4065
    7DOPE   C22  798   4.151   6.085   8.199  0.3744  0.0895 -0.1864
    7DOPE   H2R  799   4.084   6.169   8.224  0.7613  0.0854  0.9365
    7DOPE   H2S  800   4.120   6.007   8.272 -0.1854  0.4765 -0.0130
    7DOPE    C3  801   4.572   6.046   8.172 -0.7331 -0.0858  0.1562
    7DOPE    HX  802   4.550   5.947   8.128  1.0039 -0.0790 -0.8347
    7DOPE    HY  803   4.682   6.051   8.191 -0.6230 -0.4360 -0.3882
    7DOPE   O31  804   4.538   6.153   8.085  0.2343  0.5726 -0.0372
    7DOPE   C31  805   4.603   6.265   8.114  1.0133  0.5026 -0.5161
    7DOPE   O32  806   4.684   6.277   8.208  0.0254 -0.0565  0.3194
    7DOPE   C32  807   4.574   6.365   8.007  1.1720 -0.8063  0.4632
    7DOPE   H2X  808   4.554   6.305   7.916  1.0851 -1.6372  1.0137
    7DOPE   H2Y  809   4.476   6.411   8.032  0.9060 -1.4490  0.6214
    7DOPE   C23  810   4.137   6.022   8.054 -0.3159 -0.3978 -0.0100
    7DOPE   H3R  811   4.178   6.095   7.980 -0.0935  1.7316  2.1146
    7DOPE   H3S  812   4.027   6.015   8.039 -0.1854 -1.5240 -0.5829
    7DOPE   C24  813   4.202   5.886   8.045  0.1402  0.2043 -0.2667
    7DOPE   H4R  814   4.146   5.809   8.103  0.8713  0.7717  1.2467
    7DOPE   H4S  815   4.298   5.887   8.100 -0.1653  0.7835  0.2714
    7DOPE   C25  816   4.219   5.819   7.907 -0.2751  0.0456 -0.6171
    7DOPE   H5R  817   4.118   5.802   7.863 -1.0350  0.2797  0.9643
    7DOPE   H5S  818   4.287   5.733   7.890  0.4882  0.8140 -1.6155
    7DOPE   C26  819   4.274   5.919   7.798  0.1871 -0.6565  0.2120
    7DOPE   H6R  820   4.363   5.973   7.838  0.6914 -2.1068  1.1245
    7DOPE   H6S  821   4.193   5.993   7.778 -0.2002 -0.3450  2.6332
    7DOPE   C27  822   4.321   5.841   7.669 -0.1534  0.2206 -0.0944
    7DOPE   H7R  823   4.392   5.758   7.692 -0.2090 -0.7863 -3.1426
    7DOPE   H7S  824   4.383   5.914   7.613  1.4763 -0.7687  0.3619
    7DOPE   C28  825   4.205   5.789   7.583 -0.6226 -0.2920 -0.1333
    7DOPE   H8R  826   4.150   5.877   7.545  2.9172  1.7834 -0.8243
    7DOPE   H8S  827   4.130   5.735   7.645 -1.1580 -0.6644 -1.0867
    7DOPE   C29  828   4.237   5.684   7.478 -0.2682 -0.1689  0.3304
    7DOPE   H9R  829   4.194   5.586   7.502 -0.4572 -0.1755 -0.0416
    7DOPE  C210  830   4.328   5.688   7.373 -0.2059  0.3097  0.1202
    7DOPE  H10R  831   4.324   5.604   7.301 -2.2551 -1.3673  2.0409
    7DOPE  C211  832   4.400   5.813   7.325  0.0276  0.5775  0.2357
    7DOPE  H11R  833   4.507   5.811   7.354 -0.1792 -0.7297  0.9706
    7DOPE  H11S  834   4.359   5.900   7.381 -0.5321  1.0456 -0.8697
    7DOPE  C212  835   4.379   5.844   7.175  0.0471  0.3470  0.3104
    7DOPE  H12R  836   4.405   5.951   7.167  0.4740  0.1697 -0.7642
    7DOPE  H12S  837   4.268   5.843   7.161 -0.2005  1.8389  1.7672
    7DOPE  C213  838   4.457   5.763   7.070 -0.3456 -0.4882 -0.2181
    7DOPE  H13R  839   4.455   5.655   7.095  0.4614 -0.4331  0.1278
    7DOPE  H13S  840   4.566   5.784   7.074  0.3749 -3.6772 -0.2327
    7DOPE  C214  841   4.401   5.796   6.932  0.8597 -0.2153 -0.0492
    7DOPE  H14R  842   4.418   5.904   6.913 -1.3509  0.3382  0.8102
    7DOPE  H14S  843   4.291   5.783   6.934  0.6101  1.6996  0.0658
    7DOPE  C215  844   4.450   5.728   6.804  0.1144 -0.7198 -0.5367
    7DOPE  H15R  845   4.434   5.619   6.816 -0.8488 -0.5546 -0.1946
    7DOPE  H15S  846   4.551   5.751   6.765  0.1007  0.6768  0.1786
    7DOPE  C216  847   4.358   5.773   6.685 -0.1915  0.0108  0.3940
    7DOPE  H16R  848   4.364   5.883   6.681  0.6651 -0.0411  0.0265
    7DOPE  H16S  849   4.256   5.738   6.711  0.4001 -1.6592  0.6177
    7DOPE  C217  850   4.411   5.717   6.554 -0.7343  0.5226 -1.1056
    7DOPE  H17R  851   4.408   5.608   6.573 -1.0035  0.7167  0.0328
    7DOPE  H17S  852   4.507   5.758   6.516  0.6045 -1.8989 -0.5585
    7DOPE  C218  853   4.298   5.749   6.451 -0.6954  0.1412 -0.1236
    7DOPE  H18R  854   4.198   5.708   6.476 -0.8760  0.1894 -0.7521
    7DOPE  H18S  855   4.310   5.701   6.351 -1.6535  0.5105 -0.4303
    7DOPE  H18T  856   4.296   5.856   6.421  0.1737  0.1782 -0.0798
    7DOPE   C33  857   4.677   6.470   7.985 -0.4553  0.5214  0.5180
    7DOPE   H3X  858   4.763   6.419   7.935  0.1178  0.2848  1.7189
    7DOPE   H3Y  859   4.689   6.526   8.080  0.6245  1.4266 -0.1284
    7DOPE   C34  860   4.618   6.570   7.883  0.4659 -0.7248  0.0539
    7DOPE   H4X  861   4.524   6.605   7.931 -0.4030  0.5586 -2.4047
    7DOPE   H4Y  862   4.679   6.660   7.863 -2.6325  1.6132  0.2913
    7DOPE   C35  863   4.579   6.503   7.753 -0.0262 -0.3788  0.0657
    7DOPE   H5X  864   4.479   6.456   7.767 -0.4247  0.0902 -1.0304
    7DOPE   H5Y  865   4.652   6.424   7.723  0.8051 -0.6280  2.5214
    7DOPE   C36  866   4.564   6.615   7.647 -0.4894  0.2555  0.2548
    7DOPE   H6X  867   4.663   6.663   7.632 -0.4531  0.3474  0.7543
    7DOPE   H6Y  868   4.483   6.682   7.683 -0.2880  0.1203  0.9712
    7DOPE   C37  869   4.530   6.561   7.507 -0.3430  0.0188 -0.1635
    7DOPE   H7X  870   4.600   6.494   7.452 -2.0094 -1.6277 -0.3866
    7DOPE   H7Y  871   4.435   6.507   7.523 -0.4390  0.3053  0.2481
    7DOPE   C38  872   4.496   6.687   7.417  0.5783  0.3435  0.5258
    7DOPE   H8X  873   4.588   6.747   7.409  0.3569  0.5801 -0.3182
    7DOPE   H8Y  874   4.416   6.752   7.460 -1.0364 -0.0351 -1.7073
    7DOPE   C39  875   4.436   6.636   7.292  0.0574  0.6190  0.2393
    7DOPE   H9X  876   4.345   6.579   7.316  0.4231  0.4016  1.1304
    7DOPE  C310  877   4.481   6.642   7.167 -0.3128 -0.9274 -0.0539
    7DOPE  H10X  878   4.420   6.602   7.086  1.0541 -2.7635 -0.2502
    7DOPE  C311  879   4.609   6.706   7.125 -0.2419  0.1353  0.1310
    7DOPE  H11X  880   4.603   6.815   7.105 -0.0413  0.1179 -0.0327
    7DOPE  H11Y  881   4.679   6.712   7.211  0.1758  1.1378 -0.2641
    7DOPE  C312  882   4.669   6.631   7.007  0.0168  0.3593 -0.2622
    7DOPE  H12X  883   4.698   6.526   7.029  2.0477  0.6952 -1.0858
    7DOPE  H12Y  884   4.768   6.676   6.984  1.0938 -2.0082 -0.6233
    7DOPE  C313  885   4.587   6.632   6.875  0.3375  0.0811  0.3029
    7DOPE  H13X  886   4.499   6.570   6.900  1.0913  0.0754  3.4267
    7DOPE  H13Y  887   4.548   6.734   6.855  2.5032  0.6225 -1.5692
    7DOPE  C314  888   4.661   6.600   6.739  0.3433 -0.1747 -0.1359
    7DOPE  H14X  889   4.711   6.501   6.734 -1.2222 -1.1309  1.6653
    7DOPE  H14Y  890   4.738   6.680   6.734 -1.7151  1.8605 -1.1875
    7DOPE  C315  891   4.566   6.611   6.623  0.1094 -0.0250 -0.8152
    7DOPE  H15X  892   4.524   6.714   6.623 -1.5457 -0.6648 -1.6605
    7DOPE  H15Y  893   4.498   6.524   6.638  2.9821 -2.1098  1.2890
    7DOPE  C316  894   4.621   6.586   6.480  0.5314  0.1835  0.0563
    7DOPE  H16X  895   4.698   6.506   6.481 -0.2737 -0.5978  0.7565
    7DOPE  H16Y  896   4.668   6.679   6.440  2.2441 -1.1290 -1.0823
    7DOPE  C317  897   4.515   6.537   6.381  0.3613 -0.1867  0.2340
    7DOPE  H17X  898   4.555   6.496   6.286 -1.1404 -0.6882 -0.2154
    7DOPE  H17Y  899   4.446   6.458   6.417 -1.6319  0.0573 -2.6979
    7DOPE  C318  900   4.419   6.654   6.348 -0.3356 -0.1940  0.0855
    7DOPE  H18X  901   4.478   6.744   6.318 -0.1149 -0.4078 -0.1277
    7DOPE  H18Y  902   4.345   6.635   6.267 -0.8239  0.5632  0.3371
    7DOPE  H18Z  903   4.361   6.654   6.442 -0.9987 -3.1325 -0.2443
    8DOPE     N  904   4.753   0.521   8.644 -0.2120  0.0949 -0.1569
    8DOPE   HN1  905   4.770   0.529   8.746 -1.3045 -1.5889  0.2050
    8DOPE   HN2  906   4.832   0.489   8.583 -0.2783 -0.0665 -0.1600
    8DOPE   HN3  907   4.720   0.612   8.606  1.2156  0.8181  0.2504
    8DOPE   C12  908   4.631   0.426   8.629 -0.2868  0.1936  0.1710
    8DOPE  H12A  909   4.666   0.322   8.613 -0.7369 -0.0946  1.0160
    8DOPE  H12B  910   4.579   0.455   8.535  1.2493 -1.5496 -1.2956
    8DOPE   C11  911   4.544   0.421   8.752 -0.3849  0.1413  0.3861
    8DOPE  H11A  912   4.531   0.516   8.808 -0.2040 -0.1757  0.9792
    8DOPE  H11B  913   4.598   0.347   8.815  1.8984  2.2114  0.9893
    8DOPE     P  914   4.371   0.232   8.686 -0.2988 -0.3022 -0.2817
    8DOPE   O13  915   4.253   0.220   8.776 -0.9241 -0.3891 -0.2278
    8DOPE   O14  916   4.481   0.138   8.713 -0.8665 -0.1436  0.0340
    8DOPE   O11  917   4.325   0.213   8.540  0.2808  0.4397 -0.0244
    8DOPE   O12  918   4.418   0.381   8.695  0.4510  0.2488  0.0450
    8DOPE    C1  919   4.219   0.285   8.477 -0.1606 -0.6328  0.4177
    8DOPE    HA  920   4.233   0.395   8.477  1.8595 -0.7456 -2.9005
    8DOPE    HB  921   4.120   0.268   8.526  0.2867 -0.7065  1.3292
    8DOPE    C2  922   4.197   0.241   8.328 -0.5244  0.2932  0.2768
    8DOPE    HS  923   4.103   0.281   8.285 -0.4982 -1.1132 -1.2047
    8DOPE   O21  924   4.200   0.099   8.316 -0.3233  0.3009 -0.3881
    8DOPE   C21  925   4.129   0.044   8.217  0.0195  0.2563 -0.3208
    8DOPE   O22  926   4.030   0.100   8.166  0.0147 -0.5708  0.7573
    8DOPE   C22  927   4.172  -0.102   8.189 -0.1590 -1.2480  0.2332
    8DOPE   H2R  928   4.220  -0.138   8.283 -1.4620  3.0341  2.8078
    8DOPE   H2S  929   4.256  -0.101   8.116 -1.0046  1.2112 -0.8354
    8DOPE    C3  930   4.318   0.305   8.241  0.2227 -0.1607  0.2409
    8DOPE    HX  931   4.410   0.260   8.285 -0.2140 -0.4703  0.8441
    8DOPE    HY  932   4.332   0.413   8.264 -0.0802  0.0596 -0.5691
    8DOPE   O31  933   4.311   0.269   8.102  0.1860 -0.4003 -0.3648
    8DOPE   C31  934   4.208   0.331   8.031 -0.3258 -0.1899  0.1883
    8DOPE   O32  935   4.137   0.416   8.076  0.1357  0.3121  0.3969
    8DOPE   C32  936   4.195   0.273   7.886  0.2240 -1.2918 -0.0414
    8DOPE   H2X  937   4.102   0.311   7.839  0.6786 -0.7100 -0.4983
    8DOPE   H2Y  938   4.271   0.332   7.829 -0.2392 -0.7960 -0.1544
    8DOPE   C23  939   4.060  -0.199   8.145 -0.7269  0.8796 -0.3053
    8DOPE   H3R  940   3.997  -0.131   8.083 -0.3529  1.3357 -0.1842
    8DOPE   H3S  941   4.015  -0.229   8.242  1.5396 -1.1021  0.2126
    8DOPE   C24  942   4.115  -0.312   8.047  0.0372  1.1291 -0.5205
    8DOPE   H4R  943   4.041  -0.395   8.048  0.9920  0.2598 -0.4108
    8DOPE   H4S  944   4.205  -0.346   8.103 -1.9473 -1.3484  1.4222
    8DOPE   C25  945   4.143  -0.259   7.911 -0.3051 -0.0123  0.2726
    8DOPE   H5R  946   4.236  -0.198   7.909 -0.6320  0.4808 -1.4088
    8DOPE   H5S  947   4.056  -0.194   7.886  0.4016  0.6151 -0.6269
    8DOPE   C26  948   4.145  -0.371   7.804  0.2851 -0.4004 -0.5004
    8DOPE   H6R  949   4.043  -0.416   7.803 -0.2083  0.6735 -0.1094
    8DOPE   H6S  950   4.231  -0.441   7.808  0.1463 -0.5443  3.2024
    8DOPE   C27  951   4.132  -0.302   7.662  0.2458  0.1107  0.1276
    8DOPE   H7R  952   4.231  -0.255   7.645  0.4817 -0.2015  0.6325
    8DOPE   H7S  953   4.058  -0.219   7.664 -1.5687 -1.3672 -1.7178
    8DOPE   C28  954   4.080  -0.397   7.557  0.2279 -0.3447 -0.1025
    8DOPE   H8R  955   4.045  -0.329   7.476  3.1038  0.0176 -1.1409
    8DOPE   H8S  956   3.985  -0.438   7.598 -0.6632  1.6030 -0.0766
    8DOPE   C29  957   4.170  -0.501   7.505  0.2635  0.1502  0.7736
    8DOPE   H9R  958   4.177  -0.595   7.562  1.5771 -0.0003  0.4058
    8DOPE  C210  959   4.243  -0.489   7.393  0.1458  0.4433  0.3896
    8DOPE  H10R  960   4.314  -0.569   7.366 -2.6841 -2.4327  0.8133
    8DOPE  C211  961   4.247  -0.366   7.310 -0.0302 -0.1618 -0.4511
    8DOPE  H11R  962   4.345  -0.345   7.261  0.1022  2.6598  0.8434
    8DOPE  H11S  963   4.219  -0.271   7.361 -0.7247 -0.8435  0.4646
    8DOPE  C212  964   4.152  -0.388   7.189  0.3363 -0.0612  0.5563
    8DOPE  H12R  965   4.129  -0.297   7.129  0.4826 -0.4626 -0.1231
    8DOPE  H12S  966   4.056  -0.420   7.234 -0.8817 -1.5762 -2.8129
    8DOPE  C213  967   4.198  -0.502   7.080  0.2670  0.7708 -0.3449
    8DOPE  H13R  968   4.206  -0.599   7.133 -0.1998  0.2573 -1.1948
    8DOPE  H13S  969   4.299  -0.473   7.044  0.6406  0.2644  0.2669
    8DOPE  C214  970   4.092  -0.511   6.980  0.4402 -0.0473  1.2396
    8DOPE  H14R  971   4.086  -0.416   6.922  1.3518  0.2617  1.6282
    8DOPE  H14S  972   3.992  -0.534   7.022 -0.2457 -1.7247 -1.0941
    8DOPE  C215  973   4.111  -0.626   6.879  0.0826  0.8083  0.2656
    8DOPE  H15R  974   4.084  -0.716   6.939  0.7188 -1.0822 -2.1399
    8DOPE  H15S  975   4.217  -0.618   6.848  0.0159  0.7737  0.0303
    8DOPE  C216  976   4.021  -0.608   6.756  0.2792 -0.5302  0.3779
    8DOPE  H16R  977   4.067  -0.522   6.703 -0.2374  0.0610  0.8745
    8DOPE  H16S  978   3.918  -0.582   6.789  1.1073  0.9489  1.9643
    8DOPE  C217  979   4.015  -0.731   6.663  0.4849 -0.6867  0.1288
    8DOPE  H17R  980   4.116  -0.744   6.619  0.9825  0.4122  0.9006
    8DOPE  H17S  981   3.948  -0.714   6.576  0.7700  0.1311  0.0669
    8DOPE  C218  982   3.987  -0.867   6.723 -0.3361  0.2078  0.2983
    8DOPE  H18R  983   3.896  -0.868   6.787 -0.7543 -0.7983 -0.2937
    8DOPE  H18S  984   4.066  -0.898   6.795  0.5965 -0.7349 -1.0878
    8DOPE  H18T  985   3.971  -0.950   6.651  2.9961 -0.9033  0.6517
    8DOPE   C33  986   4.221   0.125   7.867 -0.0842  0.1679 -0.3815
    8DOPE   H3X  987   4.136   0.072   7.916  1.3011 -1.2985  0.4870
    8DOPE   H3Y  988   4.317   0.094   7.913  0.3448 -0.3464 -1.6109
    8DOPE   C34  989   4.238   0.093   7.720 -0.4159 -0.1468 -0.0207
    8DOPE   H4X  990   4.294   0.177   7.674 -1.3895 -0.0450 -1.0522
    8DOPE   H4Y  991   4.300   0.001   7.712 -0.1559  0.1126 -1.1819
    8DOPE   C35  992   4.108   0.087   7.638  0.0110 -0.6981 -0.1965
    8DOPE   H5X  993   4.061   0.188   7.646 -2.0316 -1.5566 -0.7358
    8DOPE   H5Y  994   4.037   0.017   7.687 -0.9769 -0.4999 -1.3066
    8DOPE   C36  995   4.136   0.055   7.491  0.1191  0.2813 -0.7092
    8DOPE   H6X  996   4.166  -0.050   7.474 -1.5578 -0.1303 -1.3367
    8DOPE   H6Y  997   4.217   0.126   7.462  0.4697  0.0013 -0.4342
    8DOPE   C37  998   4.011   0.096   7.407 -0.5294  0.3801 -0.7049
    8DOPE   H7X  999   3.916   0.079   7.463 -0.4108 -0.7198 -0.8123
    8DOPE   H7Y 1000   4.022   0.206   7.416 -0.7137  0.3682 -0.2856
    8DOPE   C38 1001   3.998   0.057   7.263 -0.3239  0.5771 -0.4444
    8DOPE   H8X 1002   3.901   0.084   7.216 -1.0272 -0.1122  0.5689
    8DOPE   H8Y 1003   3.996  -0.054   7.264 -1.4987  0.5827 -0.8738
    8DOPE   C39 1004   4.112   0.112   7.171 -0.0196  0.2830 -0.1844
    8DOPE   H9X 1005   4.205   0.140   7.224 -0.5463 -0.2626  1.0643
    8DOPE  C310 1006   4.109   0.108   7.036 -0.2552  0.1422 -0.1044
    8DOPE  H10X 1007   4.181   0.167   6.977  1.0430 -1.1834  0.0779
    8DOPE  C311 1008   3.993   0.063   6.951 -0.5881 -0.1393 -0.4175
    8DOPE  H11X 1009   3.922  -0.007   6.998 -0.8501  2.3252  3.2416
    8DOPE  H11Y 1010   3.935   0.149   6.909  1.9467  1.2606 -1.3021
    8DOPE  C312 1011   4.030  -0.001   6.820  0.0566  0.2003 -0.3887
    8DOPE  H12X 1012   4.084   0.078   6.763  0.4252  1.6250  1.8105
    8DOPE  H12Y 1013   3.941  -0.036   6.765 -1.2939  0.7737  1.3358
    8DOPE  C313 1014   4.130  -0.125   6.824 -0.2028 -0.1066  0.2373
    8DOPE  H13X 1015   4.226  -0.099   6.872 -0.1242 -0.9128  0.5286
    8DOPE  H13Y 1016   4.078  -0.206   6.880 -3.2421  0.2326 -1.8249
    8DOPE  C314 1017   4.182  -0.160   6.674  1.0994 -0.0603 -0.5422
    8DOPE  H14X 1018   4.235  -0.257   6.682  0.2514 -0.6392 -1.5390
    8DOPE  H14Y 1019   4.257  -0.087   6.637  0.1802  1.4462  0.4348
    8DOPE  C315 1020   4.061  -0.197   6.581  0.0760  0.2208 -0.0402
    8DOPE  H15X 1021   4.004  -0.103   6.561  1.7750  1.1186 -0.8812
    8DOPE  H15Y 1022   4.001  -0.280   6.625  1.7009 -0.8454  0.2151
    8DOPE  C316 1023   4.110  -0.249   6.440 -0.2010  0.2617 -0.0079
    8DOPE  H16X 1024   4.165  -0.343   6.459  2.1219  1.3176 -1.0507
    8DOPE  H16Y 1025   4.182  -0.179   6.391 -1.9663  0.8211 -1.9367
    8DOPE  C317 1026   3.992  -0.290   6.351  0.4893 -0.1364 -0.1169
    8DOPE  H17X 1027   3.906  -0.341   6.398 -1.1060  2.1960 -0.3193
    8DOPE  H17Y 1028   3.949  -0.197   6.308 -1.0273 -1.1234 -0.8210
    8DOPE  C318 1029   4.028  -0.391   6.240  0.4452  0.3842  0.1510
    8DOPE  H18X 1030   4.091  -0.339   6.166  0.8124 -0.1971  0.0509
    8DOPE  H18Y 1031   3.943  -0.441   6.189  1.6417 -1.5545 -0.0271
    8DOPE  H18Z 1032   4.075  -0.476   6.294 -1.2509 -0.5580  0.2280
    9DOPE     N 1033   2.160   5.615   8.729  0.0568 -0.0166  0.1747
    9DOPE   HN1 1034   2.240   5.567   8.682  0.3578  0.8874 -0.2433
    9DOPE   HN2 1035   2.078   5.565   8.688  0.2763 -0.5650  0.3916
    9DOPE   HN3 1036   2.150   5.716   8.707 -1.0410 -0.2992 -0.7728
    9DOPE   C12 1037   2.184   5.599   8.874  0.2129 -0.3390 -0.5518
    9DOPE  H12A 1038   2.088   5.588   8.927 -0.0344 -0.8729 -1.1008
    9DOPE  H12B 1039   2.231   5.696   8.903  0.0680 -0.3349 -0.3316
    9DOPE   C11 1040   2.254   5.464   8.896 -0.0096 -0.0064 -0.0180
    9DOPE  H11A 1041   2.193   5.381   8.855  0.7489 -1.4029  1.5252
    9DOPE  H11B 1042   2.262   5.441   9.005  0.6551  0.3965  0.0295
    9DOPE     P 1043   2.507   5.387   8.899  0.2590 -0.1836 -0.3816
    9DOPE   O13 1044   2.468   5.254   8.951 -0.3723 -0.1036  0.6998
    9DOPE   O14 1045   2.565   5.482   8.994 -0.0089  0.1796  0.3570
    9DOPE   O11 1046   2.599   5.362   8.778 -0.4778  0.0432  0.2038
    9DOPE   O12 1047   2.380   5.454   8.837 -0.2789  0.1726  0.1002
    9DOPE    C1 1048   2.614   5.457   8.675 -0.2581  0.3642  0.7944
    9DOPE    HA 1049   2.720   5.471   8.643  0.2891  0.3092  2.4715
    9DOPE    HB 1050   2.582   5.559   8.707  1.8703  1.4070 -0.1640
    9DOPE    C2 1051   2.526   5.429   8.555 -0.3362 -0.9773 -0.3000
    9DOPE    HS 1052   2.424   5.438   8.598  0.1252  0.1160  0.6194
    9DOPE   O21 1053   2.553   5.297   8.505  0.4823  0.6446 -0.1583
    9DOPE   C21 1054   2.438   5.231   8.487 -1.1003  0.6967 -0.4805
    9DOPE   O22 1055   2.323   5.273   8.498  0.0663  0.6138 -0.0554
    9DOPE   C22 1056   2.480   5.081   8.466  0.5562 -1.1758  0.0020
    9DOPE   H2R 1057   2.443   5.042   8.563  0.1036 -0.8575 -0.0392
    9DOPE   H2S 1058   2.590   5.071   8.456  0.6427  0.4287 -0.8961
    9DOPE    C3 1059   2.531   5.538   8.445 -0.3322  0.0842  0.7321
    9DOPE    HX 1060   2.637   5.539   8.413 -0.1439  2.8632  1.2417
    9DOPE    HY 1061   2.500   5.639   8.478 -0.9651  0.5669 -1.2341
    9DOPE   O31 1062   2.446   5.506   8.336  0.4635 -0.0844  0.1507
    9DOPE   C31 1063   2.320   5.531   8.369  0.1934 -0.0778  0.6644
    9DOPE   O32 1064   2.281   5.585   8.470  0.5522 -0.0593 -0.1718
    9DOPE   C32 1065   2.239   5.492   8.248  0.1679  0.1906 -0.8521
    9DOPE   H2X 1066   2.295   5.485   8.152 -0.0519  2.0362 -1.1724
    9DOPE   H2Y 1067   2.196   5.393   8.273  0.7247 -0.1440 -1.1993
    9DOPE   C23 1068   2.405   4.999   8.360  0.1619 -0.0862  0.7285
    9DOPE   H3R 1069   2.296   5.011   8.380  0.1736 -0.0139  0.7499
    9DOPE   H3S 1070   2.431   4.893   8.378 -2.0332 -1.2350 -2.0464
    9DOPE   C24 1071   2.453   5.021   8.216  0.2284  0.3461  0.6973
    9DOPE   H4R 1072   2.407   4.943   8.152 -0.1915 -0.7914  2.3381
    9DOPE   H4S 1073   2.563   5.006   8.206  0.2972  0.2987  1.5087
    9DOPE   C25 1074   2.405   5.148   8.147 -0.0434 -0.3641  0.3234
    9DOPE   H5R 1075   2.479   5.222   8.183 -0.9633 -0.3153  2.2796
    9DOPE   H5S 1076   2.303   5.171   8.185  0.1244 -1.1193  1.2690
    9DOPE   C26 1077   2.417   5.133   8.001 -0.1567 -0.2203  0.8896
    9DOPE   H6R 1078   2.359   5.043   7.969 -0.8841  1.0374 -1.6174
    9DOPE   H6S 1079   2.524   5.114   7.977 -0.3196 -0.0257 -0.0382
    9DOPE   C27 1080   2.360   5.241   7.908 -0.3872 -0.0665  0.3387
    9DOPE   H7R 1081   2.434   5.323   7.900  2.1761 -2.4108 -1.9898
    9DOPE   H7S 1082   2.266   5.271   7.959  0.3631  3.2836 -0.0370
    9DOPE   C28 1083   2.331   5.185   7.766  0.1970  0.5134  0.2063
    9DOPE   H8R 1084   2.278   5.256   7.699 -0.2718 -1.8727 -2.1518
    9DOPE   H8S 1085   2.248   5.111   7.777  1.0327 -0.7416 -1.3978
    9DOPE   C29 1086   2.443   5.116   7.694 -0.3987 -0.1673  0.2004
    9DOPE   H9R 1087   2.523   5.068   7.753  0.6599  0.1392 -0.9577
    9DOPE  C210 1088   2.463   5.126   7.558 -0.4366  0.6173 -0.6846
    9DOPE  H10R 1089   2.550   5.081   7.508  0.2311  0.5106  0.5302
    9DOPE  C211 1090   2.377   5.203   7.459  0.4578 -0.5918  0.2109
    9DOPE  H11R 1091   2.344   5.301   7.501  0.7056 -0.8375  1.0054
    9DOPE  H11S 1092   2.287   5.139   7.453  0.5512 -1.0062  2.3778
    9DOPE  C212 1093   2.446   5.218   7.322  0.2764 -0.3979  0.2917
    9DOPE  H12R 1094   2.500   5.125   7.297 -0.6223 -1.1214  0.9431
    9DOPE  H12S 1095   2.514   5.305   7.335 -0.2583  0.0095  0.4367
    9DOPE  C213 1096   2.362   5.256   7.199 -0.5357  0.8911  0.0480
    9DOPE  H13R 1097   2.365   5.367   7.194  2.2578  0.9682  1.7542
    9DOPE  H13S 1098   2.259   5.216   7.208 -0.7248  0.8005 -1.9470
    9DOPE  C214 1099   2.416   5.175   7.076 -0.0058 -0.0423  0.2338
    9DOPE  H14R 1100   2.405   5.066   7.094  1.0437 -0.0523  0.8839
    9DOPE  H14S 1101   2.525   5.193   7.082  0.0563 -0.8871  2.2910
    9DOPE  C215 1102   2.377   5.227   6.936  0.4352  0.2939 -0.7423
    9DOPE  H15R 1103   2.409   5.334   6.937  0.1675  0.4305 -2.5378
    9DOPE  H15S 1104   2.266   5.233   6.925  0.2249  0.4697  1.1922
    9DOPE  C216 1105   2.445   5.153   6.823  0.4473 -0.6700 -0.3288
    9DOPE  H16R 1106   2.425   5.044   6.834 -0.8747 -0.3336  0.8386
    9DOPE  H16S 1107   2.554   5.162   6.844  0.0435  2.0267  1.0388
    9DOPE  C217 1108   2.419   5.216   6.688 -0.2219 -0.4763 -0.5198
    9DOPE  H17R 1109   2.401   5.323   6.707  1.3309 -0.7264  3.4275
    9DOPE  H17S 1110   2.327   5.167   6.651 -1.6679  1.0704  0.9159
    9DOPE  C218 1111   2.523   5.206   6.579 -0.2879  1.0441 -0.1759
    9DOPE  H18R 1112   2.619   5.254   6.607  0.1139 -0.1857  0.6114
    9DOPE  H18S 1113   2.478   5.240   6.483 -1.2149 -1.5631 -0.7316
    9DOPE  H18T 1114   2.554   5.100   6.566 -0.7663  0.8103  0.5388
    9DOPE   C33 1115   2.111   5.586   8.225  0.0338  0.3393  0.8354
    9DOPE   H3X 1116   2.128   5.691   8.193 -0.4288 -0.4296 -2.3058
    9DOPE   H3Y 1117   2.044   5.584   8.314 -2.5644 -0.2646 -1.0091
    9DOPE   C34 1118   2.030   5.539   8.095 -0.0409 -0.4436  0.3113
    9DOPE   H4X 1119   1.993   5.434   8.096 -2.4169  0.2961 -1.6235
    9DOPE   H4Y 1120   1.934   5.593   8.107 -0.7898 -1.8588  0.9881
    9DOPE   C35 1121   2.106   5.564   7.966 -0.4466  0.0714 -0.0769
    9DOPE   H5X 1122   2.184   5.485   7.962  0.1769  0.6526  0.3731
    9DOPE   H5Y 1123   2.151   5.665   7.964  1.6358 -0.8054 -1.4723
    9DOPE   C36 1124   2.011   5.541   7.848 -0.0748 -0.6735  0.5736
    9DOPE   H6X 1125   1.944   5.628   7.830 -0.5163 -1.4748 -2.1578
    9DOPE   H6Y 1126   1.952   5.452   7.878  2.1937 -1.8699  1.7197
    9DOPE   C37 1127   2.090   5.524   7.714  0.0868 -0.0484 -0.7197
    9DOPE   H7X 1128   2.177   5.594   7.713 -0.4529  0.6966  0.6597
    9DOPE   H7Y 1129   2.137   5.424   7.718  0.5467  0.1762 -0.3773
    9DOPE   C38 1130   2.004   5.498   7.590  0.5361 -0.8618  0.5853
    9DOPE   H8X 1131   1.951   5.401   7.595 -1.8197  0.2736 -0.5803
    9DOPE   H8Y 1132   2.084   5.487   7.514 -0.7987 -0.5681 -0.9100
    9DOPE   C39 1133   1.895   5.591   7.544  0.1244  0.6158  0.7243
    9DOPE   H9X 1134   1.824   5.613   7.626 -0.4335 -0.2553  0.4874
    9DOPE  C310 1135   1.872   5.619   7.417 -0.4669  0.0107  0.4425
    9DOPE  H10X 1136   1.787   5.682   7.388  0.0230  0.4879  0.0350
    9DOPE  C311 1137   1.944   5.571   7.296 -0.2356  0.0213 -0.4006
    9DOPE  H11X 1138   1.979   5.665   7.247  0.4777 -0.8332 -1.5645
    9DOPE  H11Y 1139   2.031   5.505   7.317  0.1803  0.6478 -0.0931
    9DOPE  C312 1140   1.856   5.505   7.203 -0.0851 -0.3164  0.3217
    9DOPE  H12X 1141   1.787   5.580   7.158 -0.9873 -2.0346 -1.2956
    9DOPE  H12Y 1142   1.798   5.427   7.256  1.4563  1.7794  5.7749
    9DOPE  C313 1143   1.946   5.438   7.093 -0.0593 -0.5160 -0.3121
    9DOPE  H13X 1144   2.015   5.511   7.045 -0.7310  0.2691 -0.1190
    9DOPE  H13Y 1145   2.011   5.363   7.142 -0.5286 -0.3135  0.6468
    9DOPE  C314 1146   1.862   5.377   6.979  0.5887 -0.6140 -0.4149
    9DOPE  H14X 1147   1.797   5.457   6.937  0.6965 -0.5973 -0.5520
    9DOPE  H14Y 1148   1.783   5.312   7.024  0.7960 -0.6119 -0.0471
    9DOPE  C315 1149   1.946   5.305   6.869  0.0485 -0.4626 -0.2208
    9DOPE  H15X 1150   1.973   5.206   6.912  1.8020 -0.1987 -0.6126
    9DOPE  H15Y 1151   2.045   5.351   6.846  0.1441  0.2556  1.4812
    9DOPE  C316 1152   1.879   5.299   6.725  0.2518  0.6540 -1.4401
    9DOPE  H16X 1153   1.772   5.271   6.741  0.7704 -2.1893 -2.4505
    9DOPE  H16Y 1154   1.931   5.226   6.660 -0.1075 -0.5001 -0.4718
    9DOPE  C317 1155   1.900   5.439   6.664  0.2693  0.1340 -0.1417
    9DOPE  H17X 1156   1.891   5.520   6.739 -0.3782  0.0065 -0.0769
    9DOPE  H17Y 1157   2.008   5.439   6.636  0.9984 -0.4069  2.3818
    9DOPE  C318 1158   1.806   5.457   6.549  0.5810  0.3598 -0.0438
    9DOPE  H18X 1159   1.821   5.554   6.497  0.3178  1.0308  1.0915
    9DOPE  H18Y 1160   1.821   5.380   6.470  0.0805  3.1776 -3.0897
    9DOPE  H18Z 1161   1.701   5.453   6.586  0.7718 -0.8902  0.4227
   10DOPE     N 1162   2.746   0.772   8.054  0.4465 -0.1699  0.0084
   10DOPE   HN1 1163   2.673   0.814   7.992 -2.2224 -2.3739  1.4021
   10DOPE   HN2 1164   2.799   0.697   8.004  1.7454  0.7051  0.0464
   10DOPE   HN3 1165   2.701   0.738   8.142  3.5735 -0.0415  1.7865
   10DOPE   C12 1166   2.840   0.870   8.122 -0.0550 -0.0069  0.9556
   10DOPE  H12A 1167   2.779   0.943   8.178 -0.8955 -0.6946  0.9635
   10DOPE  H12B 1168   2.900   0.926   8.048 -0.9107 -1.5390 -0.9957
   10DOPE   C11 1169   2.910   0.785   8.225  0.3656 -0.2627 -0.0551
   10DOPE  H11A 1170   2.955   0.861   8.293 -0.2344  0.6769 -0.6909
   10DOPE  H11B 1171   2.996   0.737   8.173  0.7353  2.1007 -1.8135
   10DOPE     P 1172   2.908   0.569   8.372  0.0230  0.0996 -0.2014
   10DOPE   O13 1173   2.809   0.508   8.464  0.4082  0.3107  0.2690
   10DOPE   O14 1174   3.026   0.624   8.439 -0.4235  0.3794 -0.1146
   10DOPE   O11 1175   2.942   0.476   8.250 -0.1435 -0.1245  0.3253
   10DOPE   O12 1176   2.831   0.690   8.296  0.7965 -0.0475 -0.1637
   10DOPE    C1 1177   2.841   0.403   8.192  1.4439 -0.1573  0.1830
   10DOPE    HA 1178   2.761   0.465   8.146 -0.8869 -1.4930  2.1542
   10DOPE    HB 1179   2.783   0.336   8.260  0.8643 -1.9317 -1.9102
   10DOPE    C2 1180   2.878   0.312   8.069 -0.4654  0.0641 -0.2147
   10DOPE    HS 1181   2.903   0.209   8.099 -4.4474 -1.9588 -2.9146
   10DOPE   O21 1182   2.985   0.361   7.991  0.2400 -0.4839  0.0445
   10DOPE   C21 1183   2.989   0.486   7.946 -0.7669 -0.2632 -0.4821
   10DOPE   O22 1184   2.908   0.577   7.950  0.1159  0.4143  0.0164
   10DOPE   C22 1185   3.113   0.494   7.849 -0.4240 -0.5007 -0.0560
   10DOPE   H2R 1186   3.171   0.399   7.850 -0.3166 -0.4405  1.0562
   10DOPE   H2S 1187   3.184   0.572   7.882 -2.2672  1.3272 -0.2191
   10DOPE    C3 1188   2.749   0.283   7.982  0.6662  0.1524 -0.1974
   10DOPE    HX 1189   2.680   0.232   8.052 -0.8644 -1.4912 -2.7116
   10DOPE    HY 1190   2.779   0.209   7.904  2.6800 -0.1771  0.8411
   10DOPE   O31 1191   2.682   0.403   7.934  0.3895  0.2716  0.1226
   10DOPE   C31 1192   2.637   0.391   7.812  0.8249 -0.7103  0.1391
   10DOPE   O32 1193   2.650   0.292   7.744  0.0957  0.4123 -0.4879
   10DOPE   C32 1194   2.564   0.521   7.779 -0.2862 -0.7955 -0.1201
   10DOPE   H2X 1195   2.473   0.526   7.843 -0.6806 -1.7161 -0.5882
   10DOPE   H2Y 1196   2.634   0.605   7.797  1.8252 -1.9716 -2.2463
   10DOPE   C23 1197   3.056   0.534   7.709  0.3406  0.5837  0.4989
   10DOPE   H3R 1198   3.149   0.557   7.654 -0.0731 -1.7013 -1.2990
   10DOPE   H3S 1199   2.983   0.619   7.710  0.2458  0.5295  2.3863
   10DOPE   C24 1200   2.996   0.413   7.631  0.1634 -0.0123  0.1140
   10DOPE   H4R 1201   2.901   0.383   7.679  0.6472  1.3807  2.0548
   10DOPE   H4S 1202   3.070   0.329   7.638 -0.8051 -0.8513  0.5711
   10DOPE   C25 1203   2.962   0.450   7.484 -0.6915  0.7100 -0.3040
   10DOPE   H5R 1204   2.920   0.552   7.469 -2.3637 -0.0636 -1.0301
   10DOPE   H5S 1205   2.880   0.379   7.463 -0.5204 -0.0377  1.3748
   10DOPE   C26 1206   3.076   0.423   7.390 -0.0274  0.5644  0.3964
   10DOPE   H6R 1207   3.103   0.319   7.416  0.8030  0.9501  1.1279
   10DOPE   H6S 1208   3.164   0.490   7.405  0.9101 -0.5861  0.1464
   10DOPE   C27 1209   3.022   0.431   7.240 -0.0400 -0.1243 -0.4422
   10DOPE   H7R 1210   2.965   0.526   7.224 -2.1798 -1.2789 -0.0195
   10DOPE   H7S 1211   2.950   0.347   7.238 -0.0400 -0.1356 -0.0281
   10DOPE   C28 1212   3.130   0.415   7.129 -0.3802 -0.3897 -0.0826
   10DOPE   H8R 1213   3.191   0.324   7.154 -2.0347 -1.6017 -0.2972
   10DOPE   H8S 1214   3.188   0.510   7.135  1.9652 -1.4527 -3.0630
   10DOPE   C29 1215   3.086   0.396   6.988  0.0494  0.0874  0.8245
   10DOPE   H9R 1216   3.014   0.312   6.979  0.7579 -0.3462 -1.3322
   10DOPE  C210 1217   3.131   0.462   6.875  0.3330 -0.8156 -0.0710
   10DOPE  H10R 1218   3.088   0.438   6.777 -0.2279 -0.3991  0.0685
   10DOPE  C211 1219   3.248   0.559   6.882  0.2841  1.2115 -0.0322
   10DOPE  H11R 1220   3.317   0.536   6.965  0.7899 -2.3050 -1.2666
   10DOPE  H11S 1221   3.211   0.659   6.915 -3.2100 -0.1586  0.6296
   10DOPE  C212 1222   3.326   0.564   6.746  0.2677 -0.7597  0.2215
   10DOPE  H12R 1223   3.362   0.462   6.724  1.9982  0.1612 -1.6314
   10DOPE  H12S 1224   3.406   0.637   6.773 -0.0802 -1.4610  3.5655
   10DOPE  C213 1225   3.259   0.620   6.616 -0.1869 -0.2154 -0.1087
   10DOPE  H13R 1226   3.248   0.728   6.640  1.0199 -0.0751 -0.1016
   10DOPE  H13S 1227   3.159   0.572   6.611 -0.8591  1.1127  0.1473
   10DOPE  C214 1228   3.360   0.597   6.498  0.2604  0.2523 -0.1187
   10DOPE  H14R 1229   3.361   0.488   6.478 -1.1793  0.4598 -1.5108
   10DOPE  H14S 1230   3.459   0.630   6.537  1.5659  0.0332 -3.0062
   10DOPE  C215 1231   3.328   0.674   6.370  0.1647  0.4173  0.6528
   10DOPE  H15R 1232   3.343   0.783   6.387 -0.2266  1.0360 -2.3953
   10DOPE  H15S 1233   3.224   0.641   6.348  0.9766 -1.2776 -0.9061
   10DOPE  C216 1234   3.414   0.635   6.251 -0.2131  0.1339  0.3733
   10DOPE  H16R 1235   3.446   0.529   6.254  2.3063  0.8444  0.4957
   10DOPE  H16S 1236   3.501   0.702   6.263 -2.8194  3.4818  2.2971
   10DOPE  C217 1237   3.355   0.655   6.113  0.7744 -0.3682 -0.0400
   10DOPE  H17R 1238   3.266   0.591   6.098 -0.9763  2.1586 -1.2673
   10DOPE  H17S 1239   3.424   0.627   6.031  0.8985  1.1003 -0.4756
   10DOPE  C218 1240   3.303   0.796   6.100  0.1722 -0.4202 -0.3926
   10DOPE  H18R 1241   3.399   0.852   6.106  0.4478 -0.8927 -0.3340
   10DOPE  H18S 1242   3.225   0.836   6.169  0.2527 -1.8761  0.5816
   10DOPE  H18T 1243   3.266   0.797   5.995  2.0890 -3.1105 -1.1884
   10DOPE   C33 1244   2.505   0.521   7.635 -0.6332 -0.5888  0.4587
   10DOPE   H3X 1245   2.439   0.610   7.625  0.2938  0.2171  1.2782
   10DOPE   H3Y 1246   2.432   0.441   7.612  0.9294 -1.3946 -2.0775
   10DOPE   C34 1247   2.613   0.526   7.521  0.0810 -0.4402  0.8893
   10DOPE   H4X 1248   2.694   0.592   7.557 -1.8606  1.0435  2.7994
   10DOPE   H4Y 1249   2.644   0.421   7.503 -0.5810 -0.3974 -0.6484
   10DOPE   C35 1250   2.552   0.569   7.382  0.3240 -0.2474  0.4441
   10DOPE   H5X 1251   2.494   0.662   7.399 -0.0388 -0.3822 -0.0395
   10DOPE   H5Y 1252   2.477   0.494   7.349 -1.1606  0.4497  2.0936
   10DOPE   C36 1253   2.653   0.608   7.273 -0.1930  0.0793  0.7172
   10DOPE   H6X 1254   2.723   0.522   7.262 -0.1025  0.3673 -1.2620
   10DOPE   H6Y 1255   2.712   0.689   7.322  1.5713 -0.9783  0.4606
   10DOPE   C37 1256   2.580   0.650   7.146  0.1939 -0.4443 -0.0604
   10DOPE   H7X 1257   2.511   0.570   7.109  1.5726 -2.9451  2.4071
   10DOPE   H7Y 1258   2.521   0.739   7.175 -1.2256 -0.6764 -1.9976
   10DOPE   C38 1259   2.661   0.693   7.027  0.3101  0.6359  0.0572
   10DOPE   H8X 1260   2.748   0.756   7.058  0.4327  0.2197  0.5738
   10DOPE   H8Y 1261   2.607   0.759   6.956  1.5082 -0.4770 -1.9911
   10DOPE   C39 1262   2.728   0.574   6.957 -0.1968  0.2136 -0.0728
   10DOPE   H9X 1263   2.807   0.529   7.019 -0.6075  1.5549  1.4938
   10DOPE  C310 1264   2.704   0.538   6.830  0.2982  0.0448 -0.1633
   10DOPE  H10X 1265   2.749   0.449   6.784 -1.4196  0.7101 -3.4307
   10DOPE  C311 1266   2.597   0.597   6.729 -0.1514 -0.3898  0.4692
   10DOPE  H11X 1267   2.538   0.507   6.701  0.1457 -0.7522  0.9927
   10DOPE  H11Y 1268   2.523   0.668   6.770  1.7183  0.9142  1.7506
   10DOPE  C312 1269   2.674   0.664   6.610  0.5578 -0.5995 -0.4286
   10DOPE  H12X 1270   2.772   0.615   6.592  3.2895  2.8961  2.9882
   10DOPE  H12Y 1271   2.706   0.763   6.649  1.2930 -0.6650 -0.8468
   10DOPE  C313 1272   2.599   0.687   6.475  0.4388 -0.3629 -0.7752
   10DOPE  H13X 1273   2.512   0.755   6.486 -0.5726 -1.9105  1.4244
   10DOPE  H13Y 1274   2.676   0.731   6.408 -1.5618  0.7722 -2.4707
   10DOPE  C314 1275   2.554   0.555   6.412 -0.6452 -0.4809  0.1367
   10DOPE  H14X 1276   2.461   0.519   6.461 -1.5084  0.1868 -0.9931
   10DOPE  H14Y 1277   2.632   0.476   6.418  0.3306  0.5304  1.6036
   10DOPE  C315 1278   2.512   0.567   6.261  0.4070 -0.1847  0.1353
   10DOPE  H15X 1279   2.597   0.604   6.200  0.2844 -0.9977 -0.5504
   10DOPE  H15Y 1280   2.431   0.642   6.248 -0.2011 -0.7190  0.7067
   10DOPE  C316 1281   2.471   0.431   6.198  0.4100 -0.0091  0.6314
   10DOPE  H16X 1282   2.383   0.387   6.250  0.2687  1.2564  1.5214
   10DOPE  H16Y 1283   2.554   0.363   6.224  2.5832  1.7284 -1.3772
   10DOPE  C317 1284   2.443   0.446   6.047  0.0127 -0.4689  0.3851
   10DOPE  H17X 1285   2.534   0.484   5.997  0.8396 -3.6628 -0.8134
   10DOPE  H17Y 1286   2.435   0.339   6.016 -1.6849 -0.9019  2.1526
   10DOPE  C318 1287   2.323   0.522   6.009  0.2070  0.0824  0.9762
   10DOPE  H18X 1288   2.318   0.624   6.054 -1.0572  0.0205  1.0204
   10DOPE  H18Y 1289   2.317   0.541   5.900 -1.0549 -0.3183  0.9609
   10DOPE  H18Z 1290   2.235   0.461   6.040  0.5973 -0.2558  1.4167
   11DOPE     N 1291   0.813   5.019   9.150 -0.4510 -0.7891 -0.3547
   11DOPE   HN1 1292   0.831   4.934   9.092 -0.7620 -1.6233  0.7510
   11DOPE   HN2 1293   0.716   5.006   9.184 -0.1042 -1.9872  0.2018
   11DOPE   HN3 1294   0.816   5.101   9.086  1.0316  1.3336  2.2555
   11DOPE   C12 1295   0.914   5.027   9.261 -0.7720 -0.1982  0.2172
   11DOPE  H12A 1296   0.911   4.930   9.315 -0.3152 -1.0982 -1.3204
   11DOPE  H12B 1297   0.889   5.099   9.342  0.5406  0.0641  0.4105
   11DOPE   C11 1298   1.047   5.063   9.206 -0.2016  0.3812 -0.3197
   11DOPE  H11A 1299   1.107   5.109   9.287 -0.6852 -0.6713  0.6690
   11DOPE  H11B 1300   1.016   5.144   9.135 -0.1980  0.6518 -0.0126
   11DOPE     P 1301   1.208   4.961   9.026 -0.0033  0.2051  0.1975
   11DOPE   O13 1302   1.222   4.828   8.973  0.2638  0.0650  0.2204
   11DOPE   O14 1303   1.332   5.028   9.072 -0.8371  0.2162  0.2376
   11DOPE   O11 1304   1.138   5.051   8.918  0.1119 -0.5228 -0.0074
   11DOPE   O12 1305   1.113   4.952   9.154 -0.1677  0.0903  0.6039
   11DOPE    C1 1306   1.186   5.178   8.873  0.0767 -0.0704 -0.3115
   11DOPE    HA 1307   1.236   5.236   8.954 -2.0834  2.4077 -0.6193
   11DOPE    HB 1308   1.089   5.229   8.855 -0.7478 -1.7405 -0.8178
   11DOPE    C2 1309   1.262   5.173   8.735  0.0019  0.1502 -1.1212
   11DOPE    HS 1310   1.234   5.268   8.684 -0.1084  1.2021  0.8099
   11DOPE   O21 1311   1.221   5.056   8.654 -0.0493 -0.5293  0.4110
   11DOPE   C21 1312   1.090   5.068   8.621  0.0641  0.5812 -0.0317
   11DOPE   O22 1313   1.026   5.167   8.638  0.3447  0.2425 -0.1225
   11DOPE   C22 1314   1.043   4.936   8.552 -0.6457 -0.4224 -0.1613
   11DOPE   H2R 1315   1.039   4.853   8.627 -0.8247 -1.7340 -1.5822
   11DOPE   H2S 1316   1.122   4.905   8.480  1.1342 -1.0180  1.9148
   11DOPE    C3 1317   1.415   5.185   8.763 -0.2390 -0.7133 -0.1346
   11DOPE    HX 1318   1.451   5.111   8.837  0.2578  0.4115  0.7728
   11DOPE    HY 1319   1.442   5.285   8.804 -1.7458 -0.9602  1.5485
   11DOPE   O31 1320   1.495   5.149   8.651  0.3431  0.1285 -0.1307
   11DOPE   C31 1321   1.510   5.241   8.553  1.0250 -0.7463 -0.7373
   11DOPE   O32 1322   1.482   5.359   8.563  0.0818  0.3477 -0.2151
   11DOPE   C32 1323   1.542   5.180   8.419 -0.5865 -0.3351  0.2771
   11DOPE   H2X 1324   1.623   5.104   8.427  0.9064  0.8137 -2.6146
   11DOPE   H2Y 1325   1.447   5.135   8.384 -1.2046  2.1192 -1.3842
   11DOPE   C23 1326   0.908   4.948   8.476 -0.1129 -0.6510 -0.0007
   11DOPE   H3R 1327   0.837   5.009   8.536  1.2499 -0.4565  1.4725
   11DOPE   H3S 1328   0.886   4.840   8.464  0.6935 -0.9837  1.3072
   11DOPE   C24 1329   0.926   5.005   8.330 -0.1325 -1.0354 -0.4436
   11DOPE   H4R 1330   0.995   4.932   8.280  1.8974  1.8644 -2.1742
   11DOPE   H4S 1331   0.978   5.102   8.341 -1.4025 -0.2685 -0.9776
   11DOPE   C25 1332   0.795   5.029   8.247 -0.3810  0.0408  0.5447
   11DOPE   H5R 1333   0.733   5.099   8.308  2.1145  1.0966  2.0208
   11DOPE   H5S 1334   0.741   4.932   8.243  2.5260 -1.6419 -1.1521
   11DOPE   C26 1335   0.819   5.080   8.102  0.7158 -0.1292 -0.7737
   11DOPE   H6R 1336   0.848   5.187   8.101 -0.7238  0.2890 -0.4078
   11DOPE   H6S 1337   0.723   5.086   8.047  0.1245  1.2043  0.3428
   11DOPE   C27 1338   0.909   4.992   8.020  0.1247 -0.0223  0.4013
   11DOPE   H7R 1339   0.886   4.884   8.027 -0.1059 -0.1731 -1.8232
   11DOPE   H7S 1340   1.016   5.014   8.043  0.7665 -0.8847 -1.4894
   11DOPE   C28 1341   0.902   5.012   7.865 -0.4792  0.0753  0.7343
   11DOPE   H8R 1342   0.983   4.942   7.835  0.1018  0.8079  0.5558
   11DOPE   H8S 1343   0.932   5.117   7.843  0.8387 -0.3606  0.3154
   11DOPE   C29 1344   0.774   4.988   7.797 -0.4570  0.2225  0.6964
   11DOPE   H9R 1345   0.682   4.982   7.858 -0.0256 -0.2728  1.3017
   11DOPE  C210 1346   0.761   4.944   7.668  0.4566 -0.0906  0.6176
   11DOPE  H10R 1347   0.665   4.924   7.618  0.1130  1.0777  0.7820
   11DOPE  C211 1348   0.877   4.934   7.578 -0.1315 -0.4579  0.2053
   11DOPE  H11R 1349   0.923   4.835   7.598 -2.2519 -1.4549  0.3838
   11DOPE  H11S 1350   0.954   5.013   7.591  0.8905 -1.7489  2.6373
   11DOPE  C212 1351   0.843   4.942   7.425  0.1885  0.2919  0.2659
   11DOPE  H12R 1352   0.812   5.047   7.407 -1.1785  0.2239  1.9291
   11DOPE  H12S 1353   0.759   4.871   7.407  0.1317 -0.0507  1.7495
   11DOPE  C213 1354   0.956   4.890   7.332  0.4831  0.5461 -0.1629
   11DOPE  H13R 1355   0.986   4.785   7.349 -3.3818 -0.8446 -0.8538
   11DOPE  H13S 1356   1.044   4.946   7.371  0.8698 -0.3068  0.2057
   11DOPE  C214 1357   0.917   4.892   7.172 -0.5450  0.1427 -0.1217
   11DOPE  H14R 1358   0.894   4.999   7.153  1.5252  0.6316 -0.0476
   11DOPE  H14S 1359   0.823   4.836   7.155  0.7525 -2.5949  1.1490
   11DOPE  C215 1360   1.021   4.831   7.082  0.0737  0.1934 -0.4627
   11DOPE  H15R 1361   1.064   4.735   7.119  0.2970  0.7527  0.7756
   11DOPE  H15S 1362   1.109   4.898   7.088  0.9070 -0.9413  0.3497
   11DOPE  C216 1363   0.969   4.809   6.939 -0.2739 -0.1912  0.5332
   11DOPE  H16R 1364   0.953   4.913   6.904 -1.9007 -0.4554  0.3733
   11DOPE  H16S 1365   0.873   4.752   6.939  1.6029 -3.7473 -2.0276
   11DOPE  C217 1366   1.065   4.742   6.846  0.8819  0.0674 -0.1814
   11DOPE  H17R 1367   1.171   4.769   6.862  1.3053 -0.3365 -1.9924
   11DOPE  H17S 1368   1.046   4.772   6.740 -0.6788 -0.7524 -0.1601
   11DOPE  C218 1369   1.058   4.588   6.856 -0.0762 -0.2273  0.7966
   11DOPE  H18R 1370   1.107   4.541   6.768 -1.7398  0.7645 -0.7243
   11DOPE  H18S 1371   0.952   4.555   6.853 -0.5596  1.2964 -2.1835
   11DOPE  H18T 1372   1.107   4.546   6.946  1.8528 -0.7041 -0.4132
   11DOPE   C33 1373   1.576   5.294   8.319 -0.3591  0.2614 -0.3591
   11DOPE   H3X 1374   1.671   5.344   8.347  0.2894 -0.7889 -0.6108
   11DOPE   H3Y 1375   1.496   5.370   8.332  1.2025  1.5394  2.6065
   11DOPE   C34 1376   1.581   5.254   8.167 -0.2129  0.2314 -0.2223
   11DOPE   H4X 1377   1.575   5.356   8.122  0.7936  1.3696  2.0711
   11DOPE   H4Y 1378   1.686   5.224   8.148 -1.0819 -1.2282 -3.4596
   11DOPE   C35 1379   1.471   5.160   8.117  0.8945 -0.2531  0.4360
   11DOPE   H5X 1380   1.373   5.211   8.133  0.7900 -0.3861  0.2247
   11DOPE   H5Y 1381   1.468   5.069   8.180 -1.6991 -0.9704 -0.5793
   11DOPE   C36 1382   1.475   5.129   7.968  0.1050 -0.5622 -0.1223
   11DOPE   H6X 1383   1.558   5.056   7.964  1.5112  1.0170 -2.3938
   11DOPE   H6Y 1384   1.500   5.223   7.914 -0.3097 -0.6885 -0.5460
   11DOPE   C37 1385   1.338   5.068   7.923  0.0729 -0.0594  0.2834
   11DOPE   H7X 1386   1.323   4.969   7.971 -2.0508 -0.6313 -1.4131
   11DOPE   H7Y 1387   1.250   5.134   7.942 -0.9540 -1.7781  1.7416
   11DOPE   C38 1388   1.336   5.047   7.769  0.3515 -0.2718 -0.4441
   11DOPE   H8X 1389   1.345   5.152   7.734  0.4964  0.4626  1.6545
   11DOPE   H8Y 1390   1.230   5.017   7.750  0.0125  0.7588 -0.2600
   11DOPE   C39 1391   1.438   4.949   7.708 -0.0691  0.1533 -0.2785
   11DOPE   H9X 1392   1.524   4.934   7.774 -1.0598  2.5489  1.7271
   11DOPE  C310 1393   1.418   4.896   7.589 -0.3642  0.4944  0.0384
   11DOPE  H10X 1394   1.477   4.803   7.578 -3.3716 -1.6215  0.5490
   11DOPE  C311 1395   1.310   4.918   7.490  0.3694  0.8641 -0.1031
   11DOPE  H11X 1396   1.225   4.848   7.504 -0.1682  1.2690 -1.2396
   11DOPE  H11Y 1397   1.262   5.018   7.502 -0.2843  0.9862 -3.0485
   11DOPE  C312 1398   1.362   4.899   7.347  0.8983  1.1289  0.5511
   11DOPE  H12X 1399   1.467   4.935   7.347  0.5648  2.1301  0.7086
   11DOPE  H12Y 1400   1.302   4.950   7.268  0.5324 -2.4713 -1.7246
   11DOPE  C313 1401   1.354   4.754   7.320 -0.3951 -0.3821 -0.0622
   11DOPE  H13X 1402   1.422   4.693   7.383 -0.0582 -0.5598 -0.5864
   11DOPE  H13Y 1403   1.250   4.717   7.331 -1.1706  1.4482 -0.7871
   11DOPE  C314 1404   1.392   4.737   7.173  0.1216  1.1972  0.5046
   11DOPE  H14X 1405   1.482   4.797   7.149  1.6635  0.0670  3.0392
   11DOPE  H14Y 1406   1.320   4.760   7.092  0.7993 -2.0548 -1.2178
   11DOPE  C315 1407   1.424   4.584   7.137 -0.2506 -0.1696 -0.5185
   11DOPE  H15X 1408   1.338   4.516   7.152  0.7940 -1.2918  0.5438
   11DOPE  H15Y 1409   1.495   4.559   7.219 -1.3520 -2.2224 -0.1345
   11DOPE  C316 1410   1.477   4.558   6.994  0.1199  0.7474  0.1989
   11DOPE  H16X 1411   1.578   4.598   6.971 -0.7531  1.4512 -2.9052
   11DOPE  H16Y 1412   1.406   4.609   6.925 -1.0948  0.5140  1.2489
   11DOPE  C317 1413   1.461   4.407   6.954 -0.6210 -0.2355  0.9829
   11DOPE  H17X 1414   1.538   4.350   7.011  3.1343  0.4236 -2.9070
   11DOPE  H17Y 1415   1.357   4.374   6.976 -1.0637  0.7255  0.4008
   11DOPE  C318 1416   1.489   4.395   6.806 -0.0930 -0.1326 -0.3047
   11DOPE  H18X 1417   1.590   4.411   6.761  0.4995 -2.5177 -0.0064
   11DOPE  H18Y 1418   1.455   4.292   6.781 -0.8864 -0.3665  1.5499
   11DOPE  H18Z 1419   1.423   4.462   6.748  1.4196  0.2181 -1.7046
   12DOPE     N 1420   3.513   1.177   8.261  0.5740 -0.3059  0.5134
   12DOPE   HN1 1421   3.469   1.129   8.180 -1.6054  2.8609 -0.3643
   12DOPE   HN2 1422   3.559   1.260   8.219  0.2349 -0.2664  0.2082
   12DOPE   HN3 1423   3.576   1.103   8.298  0.8661 -1.0861 -1.4278
   12DOPE   C12 1424   3.411   1.239   8.354 -0.1781 -0.2503 -0.0397
   12DOPE  H12A 1425   3.468   1.309   8.418  3.0886 -1.5233 -1.3743
   12DOPE  H12B 1426   3.371   1.158   8.420  2.7967 -2.0404 -0.2799
   12DOPE   C11 1427   3.306   1.318   8.272 -0.7527 -0.2242  0.0094
   12DOPE  H11A 1428   3.360   1.398   8.217 -0.6800  0.8450  1.5649
   12DOPE  H11B 1429   3.242   1.377   8.340  0.3679  0.8929  0.1341
   12DOPE     P 1430   3.098   1.157   8.216  0.1254 -0.3776  0.2690
   12DOPE   O13 1431   2.990   1.256   8.205  0.0328  0.6964 -0.3802
   12DOPE   O14 1432   3.117   1.101   8.349 -0.2773 -0.3285 -0.0758
   12DOPE   O11 1433   3.092   1.042   8.109 -0.0550  0.0677 -0.3606
   12DOPE   O12 1434   3.233   1.237   8.177  0.2857  0.1998 -0.4396
   12DOPE    C1 1435   3.211   0.958   8.095  0.0648 -0.1161  0.1983
   12DOPE    HA 1436   3.200   0.855   8.137 -0.1568 -0.9125 -1.7301
   12DOPE    HB 1437   3.302   0.994   8.147 -0.7273  0.5470  1.1742
   12DOPE    C2 1438   3.260   0.951   7.945  0.1956  0.1984 -0.2694
   12DOPE    HS 1439   3.349   0.886   7.931 -1.4962 -1.8289 -2.3867
   12DOPE   O21 1440   3.278   1.083   7.891 -0.1412  0.1710  0.3814
   12DOPE   C21 1441   3.396   1.133   7.921 -0.0488  0.5487 -0.7662
   12DOPE   O22 1442   3.467   1.092   8.009 -0.7457 -0.0565  0.5627
   12DOPE   C22 1443   3.422   1.240   7.832 -0.8447 -0.3891  0.3417
   12DOPE   H2R 1444   3.515   1.290   7.866 -0.7123  1.0450 -1.9253
   12DOPE   H2S 1445   3.334   1.307   7.846 -0.9686 -0.1052 -1.5453
   12DOPE    C3 1446   3.158   0.879   7.865 -0.3102 -0.2924  0.3111
   12DOPE    HX 1447   3.062   0.934   7.868 -0.9846 -1.1950 -2.0730
   12DOPE    HY 1448   3.134   0.776   7.899 -2.4047 -0.2144 -0.7784
   12DOPE   O31 1449   3.200   0.865   7.720  0.1556 -0.2474  0.1398
   12DOPE   C31 1450   3.101   0.862   7.637 -0.0933 -1.3666 -0.0136
   12DOPE   O32 1451   2.987   0.894   7.660  0.1274  0.9391 -0.5131
   12DOPE   C32 1452   3.159   0.829   7.505  0.2712  0.3907  0.0083
   12DOPE   H2X 1453   3.232   0.903   7.467  0.8967 -0.6010 -0.7545
   12DOPE   H2Y 1454   3.197   0.725   7.503  0.9048  0.4515  3.2644
   12DOPE   C23 1455   3.460   1.203   7.693 -0.5649 -0.5754 -0.3997
   12DOPE   H3R 1456   3.378   1.147   7.642 -0.5447  0.7601 -1.9734
   12DOPE   H3S 1457   3.550   1.138   7.693  0.1864  0.3670  1.7497
   12DOPE   C24 1458   3.460   1.324   7.593  0.2428 -0.0800  0.0204
   12DOPE   H4R 1459   3.549   1.384   7.622 -1.3990  0.7265  4.0286
   12DOPE   H4S 1460   3.380   1.399   7.610 -0.5958 -0.5679 -1.5793
   12DOPE   C25 1461   3.470   1.281   7.445 -0.0109  0.3590 -0.4449
   12DOPE   H5R 1462   3.528   1.186   7.440 -2.3855 -1.1225 -1.7354
   12DOPE   H5S 1463   3.526   1.359   7.389  1.4679 -0.8013 -0.6324
   12DOPE   C26 1464   3.332   1.269   7.369 -0.8262  0.0308  0.0767
   12DOPE   H6R 1465   3.281   1.368   7.360 -1.3674 -0.0445  1.9584
   12DOPE   H6S 1466   3.267   1.212   7.439  0.3629 -1.1476  0.2562
   12DOPE   C27 1467   3.338   1.204   7.225 -1.0525 -0.0089  0.2451
   12DOPE   H7R 1468   3.231   1.200   7.193 -1.4733 -0.3825  1.6102
   12DOPE   H7S 1469   3.378   1.101   7.219 -0.9175  0.1090 -1.4082
   12DOPE   C28 1470   3.420   1.298   7.137 -0.6172 -0.0365  0.1735
   12DOPE   H8R 1471   3.524   1.304   7.176 -0.8422 -1.3968  1.0240
   12DOPE   H8S 1472   3.375   1.399   7.144 -1.0049 -0.2312  0.4521
   12DOPE   C29 1473   3.430   1.256   6.995  1.1008  0.3364  0.3643
   12DOPE   H9R 1474   3.521   1.198   6.975  2.1813  1.7824  0.8754
   12DOPE  C210 1475   3.334   1.276   6.897  0.0579 -0.4972 -0.2517
   12DOPE  H10R 1476   3.363   1.254   6.793 -1.6537  0.2084 -0.9045
   12DOPE  C211 1477   3.208   1.361   6.912 -0.0293 -0.1041  0.4032
   12DOPE  H11R 1478   3.203   1.415   7.009  1.3638 -0.3117  0.6038
   12DOPE  H11S 1479   3.121   1.292   6.898 -1.1188  0.9516  1.6350
   12DOPE  C212 1480   3.204   1.466   6.796 -0.3512  0.4653 -0.2917
   12DOPE  H12R 1481   3.178   1.419   6.699  2.8563 -1.3548 -0.4000
   12DOPE  H12S 1482   3.299   1.522   6.785 -0.4083  0.8225  0.8852
   12DOPE  C213 1483   3.107   1.577   6.819  0.7379 -0.4138 -0.2668
   12DOPE  H13R 1484   3.145   1.646   6.897  0.1601 -1.9513  1.4356
   12DOPE  H13S 1485   3.010   1.533   6.852  0.7738 -0.1267  0.2202
   12DOPE  C214 1486   3.078   1.656   6.689  0.2815 -0.3033  0.1169
   12DOPE  H14R 1487   3.010   1.609   6.615 -1.6106  1.1766  0.8179
   12DOPE  H14S 1488   3.176   1.685   6.646 -0.1348  2.0036  0.5899
   12DOPE  C215 1489   3.014   1.787   6.721  0.2091  0.4325  0.5133
   12DOPE  H15R 1490   3.087   1.846   6.780  0.4969  0.0236  0.5778
   12DOPE  H15S 1491   2.919   1.768   6.776 -0.0648 -1.7819 -0.6137
   12DOPE  C216 1492   2.972   1.871   6.593 -0.7031 -0.1639  0.7733
   12DOPE  H16R 1493   2.891   1.806   6.554 -0.3232 -0.5049  0.5444
   12DOPE  H16S 1494   3.052   1.853   6.518 -1.0613 -0.0518  0.3585
   12DOPE  C217 1495   2.932   2.017   6.594 -0.2532  0.3157  0.4401
   12DOPE  H17R 1496   2.901   2.049   6.492 -0.8537 -1.3429  0.0840
   12DOPE  H17S 1497   3.025   2.077   6.607  1.6381 -2.4874  0.5395
   12DOPE  C218 1498   2.829   2.047   6.702 -0.4566  0.1756 -0.6281
   12DOPE  H18R 1499   2.793   2.151   6.702 -1.3634 -0.1262 -1.6703
   12DOPE  H18S 1500   2.857   2.031   6.808 -0.7708  1.4377 -0.3420
   12DOPE  H18T 1501   2.732   1.998   6.679 -0.3246 -0.5271  0.2631
   12DOPE   C33 1502   3.056   0.849   7.395 -0.7018 -0.5856 -0.6768
   12DOPE   H3X 1503   3.031   0.956   7.390 -0.1366 -0.3258  1.0715
   12DOPE   H3Y 1504   2.960   0.799   7.419 -0.9986  0.1312 -0.3657
   12DOPE   C34 1505   3.113   0.807   7.260 -0.3330 -0.3410 -0.3043
   12DOPE   H4X 1506   3.214   0.852   7.254  0.3775 -1.7364  0.5730
   12DOPE   H4Y 1507   3.131   0.698   7.269 -1.5580 -0.4093  2.8220
   12DOPE   C35 1508   3.035   0.850   7.142  0.5292 -0.2833  0.6291
   12DOPE   H5X 1509   2.927   0.831   7.160  0.1741  0.7661 -0.2536
   12DOPE   H5Y 1510   3.061   0.795   7.049 -1.4448 -2.4733  1.2844
   12DOPE   C36 1511   3.050   0.995   7.110 -0.5220  0.0747  0.1076
   12DOPE   H6X 1512   3.136   1.017   7.043  0.3255  1.0944  1.4806
   12DOPE   H6Y 1513   3.084   1.045   7.203 -0.9724 -1.4072  1.0941
   12DOPE   C37 1514   2.924   1.067   7.052 -0.1331  0.0765  0.1215
   12DOPE   H7X 1515   2.836   1.067   7.120  0.5371 -0.3609  0.9968
   12DOPE   H7Y 1516   2.942   1.175   7.029 -2.9203  0.3054 -1.3849
   12DOPE   C38 1517   2.890   1.009   6.913  0.3977 -0.3526 -1.2321
   12DOPE   H8X 1518   2.876   0.899   6.924 -0.2042 -0.0887  1.0364
   12DOPE   H8Y 1519   2.972   1.019   6.838  0.3974 -2.4345 -1.5841
   12DOPE   C39 1520   2.759   1.060   6.860  0.1858 -0.7131 -0.4023
   12DOPE   H9X 1521   2.670   1.010   6.901  0.1172 -1.3564 -1.2950
   12DOPE  C310 1522   2.743   1.163   6.776  0.0652 -0.0952  0.1294
   12DOPE  H10X 1523   2.645   1.192   6.735 -0.0808 -0.5237  0.1690
   12DOPE  C311 1524   2.865   1.247   6.735  0.1312  0.5781  0.4158
   12DOPE  H11X 1525   2.846   1.356   6.736 -1.7580  0.3063  2.3287
   12DOPE  H11Y 1526   2.950   1.232   6.805  0.3884  1.1729  0.2363
   12DOPE  C312 1527   2.918   1.207   6.601 -0.8834 -0.5081 -0.3041
   12DOPE  H12X 1528   2.929   1.097   6.599 -0.6224 -0.5799  2.3482
   12DOPE  H12Y 1529   3.016   1.260   6.595  0.1399 -2.4586 -3.0498
   12DOPE  C313 1530   2.841   1.256   6.479  0.4079  0.7342  0.4877
   12DOPE  H13X 1531   2.859   1.186   6.395  2.3729  1.9185 -0.1344
   12DOPE  H13Y 1532   2.732   1.239   6.496  0.3561  1.6493  1.1423
   12DOPE  C314 1533   2.853   1.406   6.446 -0.0281 -0.2722  0.2703
   12DOPE  H14X 1534   2.955   1.428   6.408 -0.3792 -0.1448 -0.6299
   12DOPE  H14Y 1535   2.840   1.468   6.537  0.4505  0.1198  0.0733
   12DOPE  C315 1536   2.762   1.446   6.330 -0.1961 -0.8176  0.6670
   12DOPE  H15X 1537   2.653   1.438   6.351 -0.4019  0.8450  0.3899
   12DOPE  H15Y 1538   2.783   1.390   6.237 -1.3782  2.1892 -1.5602
   12DOPE  C316 1539   2.795   1.594   6.299 -0.2141  1.0176 -0.0746
   12DOPE  H16X 1540   2.898   1.603   6.257  1.2125 -0.7426  2.7169
   12DOPE  H16Y 1541   2.786   1.656   6.391 -1.3364  0.3569  0.2733
   12DOPE  C317 1542   2.690   1.655   6.196 -0.3939  0.6820  0.1457
   12DOPE  H17X 1543   2.589   1.621   6.227 -0.5553  0.6820 -0.3717
   12DOPE  H17Y 1544   2.701   1.765   6.207  2.1294  0.3798  1.4593
   12DOPE  C318 1545   2.720   1.610   6.049  0.3452  0.0475 -0.1348
   12DOPE  H18X 1546   2.828   1.625   6.027 -0.0630 -0.9980 -3.3394
   12DOPE  H18Y 1547   2.704   1.501   6.037 -0.3721  0.1415 -0.0684
   12DOPE  H18Z 1548   2.662   1.669   5.976 -1.7416 -0.9219  0.6465
   13DOPE     N 1549   2.200   3.226   9.388  0.2210 -0.1526 -0.0002
   13DOPE   HN1 1550   2.117   3.224   9.451 -0.2617 -1.8261 -0.6691
   13DOPE   HN2 1551   2.211   3.127   9.359  2.0234 -0.8333  2.5511
   13DOPE   HN3 1552   2.274   3.253   9.457  1.4739  1.4503 -1.8668
   13DOPE   C12 1553   2.184   3.335   9.290 -0.1490  0.7887  0.1941
   13DOPE  H12A 1554   2.287   3.364   9.259  0.6202 -0.3244  1.6101
   13DOPE  H12B 1555   2.133   3.423   9.335  0.1284  0.4767  1.1287
   13DOPE   C11 1556   2.127   3.271   9.155 -0.4969 -0.7511 -0.3441
   13DOPE  H11A 1557   2.206   3.202   9.119  1.6287  1.2764  0.2350
   13DOPE  H11B 1558   2.110   3.354   9.083  0.9964  0.2696  0.4115
   13DOPE     P 1559   1.872   3.263   9.209 -0.1476 -0.4217 -0.0311
   13DOPE   O13 1560   1.888   3.409   9.194  0.3268  0.2040 -0.2811
   13DOPE   O14 1561   1.816   3.200   9.331  0.3930  0.2349 -0.3390
   13DOPE   O11 1562   1.778   3.215   9.096  0.2098 -0.1227  0.2092
   13DOPE   O12 1563   2.012   3.192   9.177  0.1722  0.2443 -0.1249
   13DOPE    C1 1564   1.819   3.134   8.988 -0.2018 -1.1656  0.3530
   13DOPE    HA 1565   1.730   3.080   8.949 -2.6068  2.6340  0.0279
   13DOPE    HB 1566   1.881   3.047   9.017  0.0581 -2.6619 -3.9970
   13DOPE    C2 1567   1.878   3.227   8.873  0.7090  0.3161  0.1110
   13DOPE    HS 1568   1.925   3.316   8.919 -0.5889  1.4465 -0.6749
   13DOPE   O21 1569   1.764   3.271   8.796 -0.7520 -0.4324  0.3232
   13DOPE   C21 1570   1.768   3.397   8.747  0.6782 -0.2969  0.3098
   13DOPE   O22 1571   1.856   3.476   8.787 -0.1909 -0.5959 -0.2772
   13DOPE   C22 1572   1.656   3.428   8.647 -0.1086 -0.2952  0.6698
   13DOPE   H2R 1573   1.641   3.537   8.631 -1.0124 -0.6691 -1.3372
   13DOPE   H2S 1574   1.568   3.376   8.692  0.2530 -0.9500  0.6310
   13DOPE    C3 1575   1.962   3.146   8.773  0.2387  0.0548 -0.4463
   13DOPE    HX 1576   1.925   3.041   8.769  0.6075 -0.0777 -0.3757
   13DOPE    HY 1577   2.062   3.125   8.816  0.6158 -0.7252 -1.6534
   13DOPE   O31 1578   1.959   3.194   8.636  0.1465 -0.2674  0.2219
   13DOPE   C31 1579   2.066   3.158   8.572 -0.9772  0.5335 -0.3857
   13DOPE   O32 1580   2.154   3.084   8.616 -0.4481 -0.0355  0.1340
   13DOPE   C32 1581   2.065   3.208   8.427 -0.3055  0.3680  0.1961
   13DOPE   H2X 1582   1.960   3.220   8.394 -0.2143 -0.4019 -0.3988
   13DOPE   H2Y 1583   2.115   3.306   8.413  0.1095  0.0155 -0.8820
   13DOPE   C23 1584   1.683   3.359   8.512  0.7175 -0.8849 -0.5284
   13DOPE   H3R 1585   1.634   3.261   8.495  0.4198 -0.8716  0.2519
   13DOPE   H3S 1586   1.792   3.340   8.497  0.7043 -0.0529 -1.8618
   13DOPE   C24 1587   1.648   3.458   8.392  0.6167  0.0757  0.3491
   13DOPE   H4R 1588   1.689   3.557   8.421 -0.4680  0.8466 -0.7124
   13DOPE   H4S 1589   1.538   3.471   8.394  0.6607  0.6632  2.8279
   13DOPE   C25 1590   1.698   3.404   8.255  0.4946  0.3627 -0.0621
   13DOPE   H5R 1591   1.651   3.306   8.236 -0.2554 -0.1211  3.5701
   13DOPE   H5S 1592   1.805   3.383   8.279 -0.4176 -1.2246  3.2327
   13DOPE   C26 1593   1.688   3.497   8.134 -0.6735  0.7306  0.2436
   13DOPE   H6R 1594   1.767   3.475   8.059  0.7260 -1.5679  2.2280
   13DOPE   H6S 1595   1.716   3.601   8.162 -1.3034  0.8071  0.6012
   13DOPE   C27 1596   1.553   3.493   8.072 -0.0515 -0.6932  0.5225
   13DOPE   H7R 1597   1.548   3.585   8.010 -0.0857 -1.1902 -0.2290
   13DOPE   H7S 1598   1.475   3.497   8.152 -1.3367  3.6555 -0.6369
   13DOPE   C28 1599   1.505   3.372   7.990  0.2780 -0.0770  1.1255
   13DOPE   H8R 1600   1.521   3.270   8.032  1.2966 -1.5129 -2.3960
   13DOPE   H8S 1601   1.577   3.366   7.906  2.1785  0.8976  2.6193
   13DOPE   C29 1602   1.361   3.385   7.938  0.2233 -0.0862 -0.1613
   13DOPE   H9R 1603   1.284   3.392   8.016  1.1616  0.1963  0.7672
   13DOPE  C210 1604   1.328   3.400   7.812  0.0273 -0.1866 -0.2690
   13DOPE  H10R 1605   1.220   3.401   7.788  0.2071 -3.0966 -1.5803
   13DOPE  C211 1606   1.411   3.406   7.688  0.1529 -0.1247 -0.4448
   13DOPE  H11R 1607   1.353   3.379   7.597 -0.3287  1.5849 -0.6783
   13DOPE  H11S 1608   1.474   3.316   7.705  0.5093  0.3220  0.7055
   13DOPE  C212 1609   1.498   3.533   7.660 -0.7651 -0.4266 -0.2729
   13DOPE  H12R 1610   1.523   3.578   7.758 -2.1910  0.3173 -0.2300
   13DOPE  H12S 1611   1.441   3.607   7.600 -0.0563 -0.7551 -1.3998
   13DOPE  C213 1612   1.631   3.498   7.586 -0.0559 -0.0424  0.1819
   13DOPE  H13R 1613   1.621   3.473   7.478  2.0682  1.3690 -0.4039
   13DOPE  H13S 1614   1.685   3.409   7.626  1.1287  0.8814  0.6929
   13DOPE  C214 1615   1.718   3.620   7.609 -0.3034  0.1060 -0.1061
   13DOPE  H14R 1616   1.742   3.617   7.717  0.4162 -0.9521 -0.2788
   13DOPE  H14S 1617   1.665   3.713   7.578 -0.0853  0.8003  1.5157
   13DOPE  C215 1618   1.841   3.605   7.522  0.0485  0.0886  0.3373
   13DOPE  H15R 1619   1.885   3.504   7.532 -1.5357 -0.8157 -1.2251
   13DOPE  H15S 1620   1.913   3.682   7.559  1.2724 -0.3680 -1.0204
   13DOPE  C216 1621   1.807   3.632   7.374 -0.2686  0.3678  0.7440
   13DOPE  H16R 1622   1.750   3.727   7.372 -0.9773  0.0214  2.5376
   13DOPE  H16S 1623   1.746   3.554   7.323  1.4235  0.2317 -1.1753
   13DOPE  C217 1624   1.942   3.645   7.302  0.0733  0.5367  0.1539
   13DOPE  H17R 1625   1.994   3.547   7.307 -1.5728 -0.3061  2.3471
   13DOPE  H17S 1626   2.001   3.733   7.334  0.9473 -0.0515  0.1882
   13DOPE  C218 1627   1.905   3.669   7.146  0.0487  0.4416 -0.2853
   13DOPE  H18R 1628   1.832   3.597   7.104 -0.0648  1.0097 -1.1034
   13DOPE  H18S 1629   1.997   3.651   7.086 -0.3217  0.7131 -0.9513
   13DOPE  H18T 1630   1.878   3.776   7.158 -0.7876 -0.0322  2.9840
   13DOPE   C33 1631   2.135   3.100   8.328  0.2184 -0.7343 -0.9289
   13DOPE   H3X 1632   2.109   2.998   8.364  1.8427 -1.6483 -2.2036
   13DOPE   H3Y 1633   2.246   3.098   8.325  0.2153 -0.7606 -3.6544
   13DOPE   C34 1634   2.073   3.097   8.190 -0.2541  0.5390 -0.1950
   13DOPE   H4X 1635   2.097   2.997   8.146  4.0789  1.3334 -0.0178
   13DOPE   H4Y 1636   1.963   3.108   8.204 -0.2466 -1.1115  1.7870
   13DOPE   C35 1637   2.128   3.206   8.090  0.4786  0.6045  0.0734
   13DOPE   H5X 1638   2.234   3.199   8.058  0.4095  0.2630 -0.0814
   13DOPE   H5Y 1639   2.118   3.298   8.151 -0.4981  0.2149  0.5153
   13DOPE   C36 1640   2.048   3.209   7.962  0.4577  0.3701  0.9607
   13DOPE   H6X 1641   1.942   3.190   7.990 -0.0726  1.6902  0.0067
   13DOPE   H6Y 1642   2.080   3.133   7.887 -3.3340  0.1017 -0.6558
   13DOPE   C37 1643   2.045   3.349   7.893  0.1454 -0.6648 -0.3017
   13DOPE   H7X 1644   1.993   3.421   7.960 -1.2680 -2.2159  0.3365
   13DOPE   H7Y 1645   2.153   3.375   7.886  0.3336  0.2731  3.7693
   13DOPE   C38 1646   1.968   3.351   7.761  0.6766 -0.1353 -0.2589
   13DOPE   H8X 1647   1.967   3.455   7.722 -0.3006 -1.0905 -2.9874
   13DOPE   H8Y 1648   1.860   3.335   7.784  0.5620 -1.3317 -1.5082
   13DOPE   C39 1649   2.009   3.260   7.650  0.2843 -1.1161 -0.1164
   13DOPE   H9X 1650   1.944   3.173   7.631 -0.1447 -0.7234 -0.4684
   13DOPE  C310 1651   2.118   3.280   7.569 -0.4014 -0.0985  0.1050
   13DOPE  H10X 1652   2.148   3.202   7.498  1.5207  0.1627  0.5738
   13DOPE  C311 1653   2.220   3.396   7.575 -0.1236 -0.2571  0.1070
   13DOPE  H11X 1654   2.171   3.477   7.633 -1.4176 -1.3796  0.6551
   13DOPE  H11Y 1655   2.308   3.362   7.633 -0.7313 -1.0557  0.5970
   13DOPE  C312 1656   2.252   3.457   7.436  0.3556  0.7520 -0.4969
   13DOPE  H12X 1657   2.347   3.513   7.448  1.8439 -1.4673 -1.3074
   13DOPE  H12Y 1658   2.171   3.527   7.405 -1.2305 -0.5698  0.4685
   13DOPE  C313 1659   2.277   3.352   7.329  0.3449 -0.3094  1.1541
   13DOPE  H13X 1660   2.361   3.287   7.359 -1.2689 -2.7773  0.6039
   13DOPE  H13Y 1661   2.194   3.281   7.308  1.5876 -1.7465  0.9528
   13DOPE  C314 1662   2.315   3.408   7.192  0.0702  0.0483 -0.4261
   13DOPE  H14X 1663   2.394   3.483   7.213 -0.1488  0.4662 -1.0614
   13DOPE  H14Y 1664   2.224   3.456   7.149  0.6538  1.1239 -0.5095
   13DOPE  C315 1665   2.369   3.304   7.090 -0.3042 -0.0881 -0.2759
   13DOPE  H15X 1666   2.293   3.225   7.072 -0.6451  0.1149  0.2206
   13DOPE  H15Y 1667   2.452   3.261   7.150  3.1550  2.0900 -3.0766
   13DOPE  C316 1668   2.430   3.379   6.971  0.4372 -0.2370 -0.3497
   13DOPE  H16X 1669   2.516   3.439   7.008 -0.1064 -0.3576  1.1701
   13DOPE  H16Y 1670   2.353   3.448   6.931 -2.2946 -2.4575  0.7748
   13DOPE  C317 1671   2.477   3.284   6.863 -0.1952  0.1955  0.2376
   13DOPE  H17X 1672   2.393   3.245   6.802  0.1832  0.6176 -0.5682
   13DOPE  H17Y 1673   2.533   3.349   6.792 -2.0739  2.4020  0.6326
   13DOPE  C318 1674   2.565   3.166   6.909 -0.3667  0.2211  0.4205
   13DOPE  H18X 1675   2.609   3.117   6.819  0.5632 -0.0371  1.0011
   13DOPE  H18Y 1676   2.646   3.205   6.975 -0.4792 -0.2835  0.8666
   13DOPE  H18Z 1677   2.508   3.088   6.964  0.0010 -1.5681 -1.5970
   14DOPE     N 1678   6.257   5.930   8.944 -0.0313  0.1201  0.2326
   14DOPE   HN1 1679   6.191   6.010   8.953  1.4818  1.4470 -0.1579
   14DOPE   HN2 1680   6.205   5.841   8.957 -2.2927  1.3036 -0.1688
   14DOPE   HN3 1681   6.333   5.937   9.014  1.0933  0.2529 -0.9513
   14DOPE   C12 1682   6.316   5.927   8.803  0.3492  0.8596  0.4910
   14DOPE  H12A 1683   6.370   5.830   8.793 -0.1181  0.7536 -1.5823
   14DOPE  H12B 1684   6.384   6.015   8.796 -0.4528  1.4864  0.3966
   14DOPE   C11 1685   6.200   5.934   8.700 -0.2760 -0.5918  0.0052
   14DOPE  H11A 1686   6.139   5.844   8.722 -0.8028 -0.2549 -0.0618
   14DOPE  H11B 1687   6.245   5.927   8.599  0.6090  0.2514  0.3257
   14DOPE     P 1688   6.145   6.184   8.624  0.1944  0.1342  0.2346
   14DOPE   O13 1689   6.286   6.237   8.645  0.6430 -0.1143  0.1912
   14DOPE   O14 1690   6.033   6.277   8.647  0.3791  0.1251  0.1565
   14DOPE   O11 1691   6.132   6.117   8.482 -0.1258  0.4394  0.1804
   14DOPE   O12 1692   6.126   6.055   8.715 -0.0933 -0.3991 -0.2305
   14DOPE    C1 1693   6.004   6.066   8.438 -0.5261 -0.2002  0.1109
   14DOPE    HA 1694   5.916   6.115   8.484 -0.0443  1.4317 -0.6326
   14DOPE    HB 1695   5.995   5.961   8.473  1.8247 -1.4760 -2.6839
   14DOPE    C2 1696   5.991   6.054   8.286  0.0977  0.1181  0.1502
   14DOPE    HS 1697   5.998   6.156   8.241  1.2515 -0.3174 -0.7134
   14DOPE   O21 1698   5.868   5.989   8.244 -0.0650  0.1160  0.2945
   14DOPE   C21 1699   5.758   6.066   8.269 -0.3626  0.4309  0.7617
   14DOPE   O22 1700   5.761   6.175   8.319 -0.3805  0.1389 -0.1798
   14DOPE   C22 1701   5.627   6.006   8.215 -0.0999  0.0594 -0.3628
   14DOPE   H2R 1702   5.547   6.083   8.214 -0.3007 -0.1554 -0.9801
   14DOPE   H2S 1703   5.613   5.920   8.284 -2.0371 -0.1968 -1.0375
   14DOPE    C3 1704   6.114   5.974   8.225 -0.3629  0.2120  0.4086
   14DOPE    HX 1705   6.092   5.874   8.268 -2.9260  0.4443 -0.2186
   14DOPE    HY 1706   6.212   6.015   8.259 -0.1893  0.0776  0.0801
   14DOPE   O31 1707   6.110   5.986   8.080 -0.1283 -0.3451 -0.2868
   14DOPE   C31 1708   6.118   5.868   8.014  0.1438 -0.7066  0.2830
   14DOPE   O32 1709   6.141   5.757   8.064 -0.4091  0.1385 -0.2948
   14DOPE   C32 1710   6.064   5.885   7.875  0.9694 -0.0266 -0.2245
   14DOPE   H2X 1711   6.020   5.787   7.847  1.8773 -0.3981 -0.3859
   14DOPE   H2Y 1712   5.985   5.962   7.866  0.4266 -0.6389 -0.7767
   14DOPE   C23 1713   5.639   5.946   8.075 -0.2774  0.5697  0.0616
   14DOPE   H3R 1714   5.718   5.869   8.065 -0.7572  0.0342  0.3204
   14DOPE   H3S 1715   5.652   6.020   7.994  0.5426  0.6058  0.2233
   14DOPE   C24 1716   5.511   5.856   8.042  0.0064 -0.6595 -0.2021
   14DOPE   H4R 1717   5.420   5.913   8.069  1.1786  0.9919  0.5182
   14DOPE   H4S 1718   5.512   5.768   8.109  2.0610  0.0095  0.7422
   14DOPE   C25 1719   5.501   5.815   7.895  0.1246 -0.0646 -0.2620
   14DOPE   H5R 1720   5.450   5.716   7.888  2.0842 -1.2787  1.5659
   14DOPE   H5S 1721   5.599   5.815   7.844 -1.2029 -1.2422 -3.0597
   14DOPE   C26 1722   5.416   5.918   7.829 -0.2993 -0.5229  0.0346
   14DOPE   H6R 1723   5.461   6.019   7.829 -0.2005 -0.5669  0.0992
   14DOPE   H6S 1724   5.319   5.911   7.882 -1.1846 -1.1284 -1.5779
   14DOPE   C27 1725   5.383   5.876   7.681  0.2514 -0.0441  0.2250
   14DOPE   H7R 1726   5.349   5.770   7.680 -1.6557  0.5313 -0.7961
   14DOPE   H7S 1727   5.488   5.871   7.645  0.3202 -2.4544  0.5535
   14DOPE   C28 1728   5.294   5.976   7.595  0.5579 -0.0219 -0.2513
   14DOPE   H8R 1729   5.337   5.975   7.493 -1.3014  0.4674 -1.0814
   14DOPE   H8S 1730   5.300   6.080   7.634 -1.7105  0.5661 -1.3211
   14DOPE   C29 1731   5.156   5.921   7.589  0.3587  0.9329  0.1640
   14DOPE   H9R 1732   5.143   5.851   7.673  2.1211  0.8670  0.4367
   14DOPE  C210 1733   5.063   5.943   7.495  0.6832 -0.0449  0.7177
   14DOPE  H10R 1734   4.972   5.882   7.494  1.0970 -0.6787  0.5351
   14DOPE  C211 1735   5.087   6.029   7.368 -0.4666  0.1716  0.1754
   14DOPE  H11R 1736   5.168   6.104   7.381 -0.5996  1.2203 -3.7610
   14DOPE  H11S 1737   4.993   6.088   7.362 -0.6905 -0.2129 -0.1321
   14DOPE  C212 1738   5.125   5.958   7.242  0.1947  0.5590  0.4692
   14DOPE  H12R 1739   5.046   5.884   7.220 -1.7477  2.1325  1.7561
   14DOPE  H12S 1740   5.217   5.896   7.245 -1.5492 -2.4910 -2.2560
   14DOPE  C213 1741   5.125   6.047   7.116  0.7369 -0.4722  1.0961
   14DOPE  H13R 1742   5.201   6.127   7.127 -1.6664  1.9377  1.3593
   14DOPE  H13S 1743   5.028   6.101   7.108  1.4271  0.8603  1.3562
   14DOPE  C214 1744   5.156   5.980   6.979 -0.4627 -0.8272 -0.2350
   14DOPE  H14R 1745   5.082   5.899   6.966 -0.4582 -1.3943  2.5592
   14DOPE  H14S 1746   5.256   5.932   6.991 -0.5450 -1.5585 -2.1882
   14DOPE  C215 1747   5.140   6.080   6.863  0.4257  0.2279 -0.0316
   14DOPE  H15R 1748   5.215   6.159   6.881  0.1005  0.8178 -1.1818
   14DOPE  H15S 1749   5.035   6.114   6.878  1.2087  2.2805  1.1478
   14DOPE  C216 1750   5.162   6.012   6.725  0.1681  0.3697  0.3874
   14DOPE  H16R 1751   5.261   5.962   6.730 -0.4325 -1.2552 -2.0892
   14DOPE  H16S 1752   5.176   6.090   6.648  0.7657 -0.2979 -0.1945
   14DOPE  C217 1753   5.059   5.905   6.681  0.4150 -0.2561 -0.0101
   14DOPE  H17R 1754   4.954   5.940   6.687 -0.7191 -3.4918  1.7258
   14DOPE  H17S 1755   5.063   5.819   6.751  0.7936  2.0200  2.9598
   14DOPE  C218 1756   5.082   5.851   6.540 -0.1693 -0.3723 -0.4991
   14DOPE  H18R 1757   5.087   5.935   6.468  0.3191 -0.0185 -0.0557
   14DOPE  H18S 1758   5.000   5.777   6.523 -1.5887  1.2865 -1.2716
   14DOPE  H18T 1759   5.179   5.797   6.537 -0.2375 -0.4723 -1.0986
   14DOPE   C33 1760   6.173   5.921   7.767 -0.3288  0.4379 -0.0485
   14DOPE   H3X 1761   6.254   5.844   7.773  0.5507  1.4256  1.5619
   14DOPE   H3Y 1762   6.213   6.018   7.801  0.3509  0.8066 -1.7952
   14DOPE   C34 1763   6.128   5.954   7.627  1.3740  0.0252 -0.1465
   14DOPE   H4X 1764   6.066   5.874   7.582  3.3467 -2.5397  1.3386
   14DOPE   H4Y 1765   6.080   6.053   7.618 -0.0593 -0.6483 -0.1040
   14DOPE   C35 1766   6.245   5.978   7.532 -0.2006 -0.5863  0.1031
   14DOPE   H5X 1767   6.302   5.886   7.510 -1.1559 -0.9010 -1.2289
   14DOPE   H5Y 1768   6.314   6.055   7.573 -2.1924  1.5174 -0.2556
   14DOPE   C36 1769   6.200   6.025   7.392 -0.2546  0.0904  0.0448
   14DOPE   H6X 1770   6.122   6.102   7.413 -1.3804 -1.0224  0.0521
   14DOPE   H6Y 1771   6.140   5.945   7.345 -1.3138  0.7605  0.2274
   14DOPE   C37 1772   6.313   6.073   7.304  0.0953 -0.0303 -0.0763
   14DOPE   H7X 1773   6.263   6.120   7.216  0.5985  1.0103  0.1800
   14DOPE   H7Y 1774   6.379   6.149   7.351 -1.2315  2.0308 -1.3905
   14DOPE   C38 1775   6.411   5.966   7.242  0.2877  0.3555 -0.4861
   14DOPE   H8X 1776   6.348   5.881   7.208  0.1301 -0.0152  0.6714
   14DOPE   H8Y 1777   6.471   5.928   7.328  0.3305  1.0849 -0.1814
   14DOPE   C39 1778   6.498   6.031   7.138 -0.8762  0.0214  0.0231
   14DOPE   H9X 1779   6.457   6.114   7.078 -1.4184 -0.5793 -0.4508
   14DOPE  C310 1780   6.622   5.987   7.111  0.0449  0.1893 -1.1324
   14DOPE  H10X 1781   6.690   6.043   7.045 -1.0886  0.3314 -2.2230
   14DOPE  C311 1782   6.692   5.870   7.180  0.0261  0.9749  0.7939
   14DOPE  H11X 1783   6.759   5.894   7.265  0.8651 -1.3219  0.8449
   14DOPE  H11Y 1784   6.615   5.804   7.225 -1.9118  0.9425 -2.2286
   14DOPE  C312 1785   6.762   5.790   7.067 -0.3548  0.4443 -0.4161
   14DOPE  H12X 1786   6.681   5.751   7.001 -1.1633 -2.6014  2.1312
   14DOPE  H12Y 1787   6.806   5.698   7.110 -0.3459 -0.4283 -2.1730
   14DOPE  C313 1788   6.873   5.858   6.989 -0.9484  0.2985  0.3443
   14DOPE  H13X 1789   6.845   5.962   6.961  0.0253  0.7118  0.8427
   14DOPE  H13Y 1790   6.957   5.888   7.055  1.3600  0.8076 -2.5927
   14DOPE  C314 1791   6.935   5.781   6.871  0.2737  0.9086 -0.4849
   14DOPE  H14X 1792   6.865   5.705   6.831  1.7009 -1.4247  1.2337
   14DOPE  H14Y 1793   7.012   5.714   6.914 -0.7492  0.5447  0.8478
   14DOPE  C315 1794   6.981   5.866   6.762 -0.4992  0.0135 -0.2002
   14DOPE  H15X 1795   7.069   5.925   6.794  1.5202 -0.3330 -4.4220
   14DOPE  H15Y 1796   6.901   5.938   6.734 -0.2701  0.6604  0.7753
   14DOPE  C316 1797   7.033   5.774   6.655  0.5807  0.0523  0.8016
   14DOPE  H16X 1798   6.964   5.697   6.615  0.5556  0.8120 -0.6987
   14DOPE  H16Y 1799   7.124   5.718   6.684  1.7704  0.5556 -1.6622
   14DOPE  C317 1800   7.085   5.849   6.534  0.0802  0.3103  0.0011
   14DOPE  H17X 1801   7.006   5.918   6.498  0.7976  0.2584 -1.8085
   14DOPE  H17Y 1802   7.163   5.925   6.557  0.5217  0.4051 -1.6205
   14DOPE  C318 1803   7.156   5.756   6.434  0.2742  0.2605  0.5326
   14DOPE  H18X 1804   7.221   5.686   6.491  0.5986 -1.0344 -1.3378
   14DOPE  H18Y 1805   7.085   5.689   6.380  0.8913 -1.7571  2.0797
   14DOPE  H18Z 1806   7.211   5.819   6.362 -0.6994  0.4578 -0.0532
   15DOPE     N 1807   1.288   4.574   9.017 -0.1257 -0.1307  0.0439
   15DOPE   HN1 1808   1.253   4.668   8.991 -1.3139 -0.8490 -1.0890
   15DOPE   HN2 1809   1.390   4.585   9.029  0.3376  0.9733 -3.6700
   15DOPE   HN3 1810   1.283   4.516   8.931  0.4312  1.5227 -1.1390
   15DOPE   C12 1811   1.211   4.507   9.132  0.1756  0.3726  0.6772
   15DOPE  H12A 1812   1.216   4.573   9.222 -1.2818 -0.8063  1.6663
   15DOPE  H12B 1813   1.260   4.408   9.144 -0.7750 -0.0476  1.2046
   15DOPE   C11 1814   1.068   4.484   9.091  0.4802 -0.5621  0.1574
   15DOPE  H11A 1815   1.015   4.431   9.173  0.3420  0.1840  0.5655
   15DOPE  H11B 1816   1.055   4.425   8.998  4.4429 -1.6330  0.0984
   15DOPE     P 1817   0.860   4.645   9.123 -0.0290 -0.2526  0.1923
   15DOPE   O13 1818   0.808   4.769   9.061 -0.4224  0.2568 -0.3229
   15DOPE   O14 1819   0.896   4.649   9.267  0.3744  0.0867  0.9372
   15DOPE   O11 1820   0.762   4.526   9.089  0.1323  0.2885 -0.8321
   15DOPE   O12 1821   1.001   4.605   9.054  0.2306 -0.2800 -0.2034
   15DOPE    C1 1822   0.725   4.498   8.954  0.0552  0.1287  0.5375
   15DOPE    HA 1823   0.802   4.533   8.882 -0.3507 -1.6014 -0.8116
   15DOPE    HB 1824   0.628   4.540   8.919  0.1856 -0.7589 -1.0005
   15DOPE    C2 1825   0.723   4.343   8.918 -0.7543 -0.0010  0.8351
   15DOPE    HS 1826   0.818   4.300   8.956 -1.0590 -0.7971  0.7179
   15DOPE   O21 1827   0.704   4.340   8.774  0.3213 -0.1553  0.1244
   15DOPE   C21 1828   0.770   4.243   8.720  0.2616  0.2854  0.1638
   15DOPE   O22 1829   0.862   4.178   8.763 -0.2392  0.4387 -0.4404
   15DOPE   C22 1830   0.705   4.216   8.587  0.0713  0.3409 -0.0396
   15DOPE   H2R 1831   0.753   4.289   8.518 -0.2789  0.8857  0.2894
   15DOPE   H2S 1832   0.596   4.235   8.579  0.4401  2.5204 -0.6095
   15DOPE    C3 1833   0.607   4.257   8.980 -0.3662 -0.4187  0.2313
   15DOPE    HX 1834   0.515   4.310   8.946  1.0425  1.2329 -1.2541
   15DOPE    HY 1835   0.617   4.262   9.090  0.2331 -2.9008  0.3364
   15DOPE   O31 1836   0.595   4.121   8.935  0.1347 -0.0204  1.0625
   15DOPE   C31 1837   0.673   4.032   8.995  0.2228  0.3554  0.0501
   15DOPE   O32 1838   0.765   4.061   9.071  0.4254 -0.0835  0.4088
   15DOPE   C32 1839   0.637   3.886   8.952  0.2191  0.0777 -0.0993
   15DOPE   H2X 1840   0.548   3.860   9.013  0.3534 -1.0258 -0.3646
   15DOPE   H2Y 1841   0.601   3.878   8.847 -0.2093  0.9124 -0.0292
   15DOPE   C23 1842   0.733   4.072   8.533  0.0141 -0.1823 -0.3924
   15DOPE   H3R 1843   0.679   4.008   8.605  0.5221  0.7998  0.8936
   15DOPE   H3S 1844   0.843   4.057   8.543  0.1625  1.4549  0.8275
   15DOPE   C24 1845   0.685   4.045   8.385 -0.0344  0.1907 -0.7433
   15DOPE   H4R 1846   0.575   4.057   8.374  0.2753  0.4357 -5.6594
   15DOPE   H4S 1847   0.709   3.940   8.360 -1.1264  0.2943 -2.3458
   15DOPE   C25 1848   0.739   4.143   8.279  0.3545  0.7242  0.1323
   15DOPE   H5R 1849   0.849   4.133   8.282  0.1679 -1.7710  1.7216
   15DOPE   H5S 1850   0.710   4.250   8.292  1.1252  0.9342  0.1884
   15DOPE   C26 1851   0.695   4.110   8.133 -0.3426 -0.2134 -0.4163
   15DOPE   H6R 1852   0.706   4.206   8.079  0.4046  0.7150  1.3334
   15DOPE   H6S 1853   0.587   4.085   8.140 -0.0786 -1.6265 -0.9540
   15DOPE   C27 1854   0.781   4.001   8.067 -0.3483 -0.3133 -0.1252
   15DOPE   H7R 1855   0.763   3.913   8.132  0.0157  0.6367  1.3057
   15DOPE   H7S 1856   0.888   4.027   8.077 -0.0551 -0.5945 -2.1517
   15DOPE   C28 1857   0.734   3.973   7.929 -0.0761  0.0777  0.2460
   15DOPE   H8R 1858   0.624   3.973   7.943 -0.0482 -0.1122  0.4648
   15DOPE   H8S 1859   0.744   3.867   7.897 -0.0121 -0.5070  2.1066
   15DOPE   C29 1860   0.776   4.072   7.822 -0.2435 -0.7830 -0.3711
   15DOPE   H9R 1861   0.772   4.176   7.856 -0.4076 -0.5879 -0.9591
   15DOPE  C210 1862   0.841   4.041   7.707 -0.1929 -0.5572 -0.1592
   15DOPE  H10R 1863   0.882   4.119   7.642  3.9171 -1.8196  0.6277
   15DOPE  C211 1864   0.881   3.908   7.654 -0.1879 -0.2543  0.4064
   15DOPE  H11R 1865   0.825   3.889   7.559  0.0535  1.0415 -0.0168
   15DOPE  H11S 1866   0.848   3.832   7.728 -1.4467  1.0869  1.3043
   15DOPE  C212 1867   1.028   3.899   7.623  0.8091  0.4596  0.8046
   15DOPE  H12R 1868   1.089   3.910   7.715  0.9505 -1.4850  0.9878
   15DOPE  H12S 1869   1.051   3.969   7.540 -0.6352 -0.8447 -0.7902
   15DOPE  C213 1870   1.061   3.761   7.555 -0.7390 -0.1570  0.0422
   15DOPE  H13R 1871   0.997   3.742   7.466  0.6201 -1.5421 -0.6853
   15DOPE  H13S 1872   1.060   3.672   7.622 -0.6730 -2.8179 -3.2157
   15DOPE  C214 1873   1.200   3.755   7.496 -0.3499 -0.1175  0.0049
   15DOPE  H14R 1874   1.273   3.763   7.580 -1.1189 -0.7647  0.7551
   15DOPE  H14S 1875   1.210   3.846   7.433  0.7194  0.3481  0.8073
   15DOPE  C215 1876   1.217   3.633   7.402  0.4816  0.0533  0.5536
   15DOPE  H15R 1877   1.126   3.621   7.338 -0.5298  0.8817  1.7729
   15DOPE  H15S 1878   1.226   3.545   7.469 -1.4989 -0.9147 -0.3718
   15DOPE  C216 1879   1.347   3.640   7.323  0.9333 -0.4287 -0.1694
   15DOPE  H16R 1880   1.433   3.645   7.392  0.8991  2.6719 -0.2198
   15DOPE  H16S 1881   1.343   3.737   7.269 -0.0882 -1.1805 -1.4937
   15DOPE  C217 1882   1.347   3.529   7.206  0.1870  0.8639 -0.2422
   15DOPE  H17R 1883   1.251   3.542   7.150 -0.7806 -1.0318  0.8959
   15DOPE  H17S 1884   1.329   3.431   7.254 -1.3105 -0.0714 -2.4878
   15DOPE  C218 1885   1.471   3.530   7.117  0.4455 -1.0785  0.3144
   15DOPE  H18R 1886   1.454   3.478   7.020  0.8358  0.2344 -0.4742
   15DOPE  H18S 1887   1.562   3.486   7.163  1.4786  0.5096 -0.1125
   15DOPE  H18T 1888   1.489   3.637   7.093 -2.7513 -0.3717  0.7462
   15DOPE   C33 1889   0.745   3.779   8.983 -0.5940  0.0865  0.6778
   15DOPE   H3X 1890   0.701   3.677   8.987 -0.7944  0.1812  0.8676
   15DOPE   H3Y 1891   0.804   3.804   9.074  2.3274 -0.0643 -1.0425
   15DOPE   C34 1892   0.850   3.772   8.864 -0.4003 -0.5977  0.1652
   15DOPE   H4X 1893   0.877   3.877   8.841 -1.7835 -0.1498  0.5122
   15DOPE   H4Y 1894   0.934   3.706   8.892 -1.5226 -3.0386 -1.8163
   15DOPE   C35 1895   0.797   3.721   8.729  0.0910 -0.3570  0.3145
   15DOPE   H5X 1896   0.712   3.784   8.695  0.1386 -0.1273  0.6092
   15DOPE   H5Y 1897   0.762   3.616   8.739  0.5150 -0.8045 -2.2291
   15DOPE   C36 1898   0.924   3.727   8.629 -0.1225 -0.1550 -0.6935
   15DOPE   H6X 1899   1.000   3.652   8.662 -1.7197 -0.4202  2.9055
   15DOPE   H6Y 1900   0.967   3.829   8.642  0.3202 -0.1523 -2.0491
   15DOPE   C37 1901   0.888   3.698   8.487  0.4916  0.1198 -0.1647
   15DOPE   H7X 1902   0.835   3.600   8.479  1.4922 -0.3439 -1.4930
   15DOPE   H7Y 1903   0.805   3.763   8.451 -2.0470 -1.4233  2.4202
   15DOPE   C38 1904   1.010   3.695   8.390  0.0062 -0.6858 -0.1646
   15DOPE   H8X 1905   0.991   3.636   8.297  2.6839  0.9540 -1.8668
   15DOPE   H8Y 1906   1.083   3.628   8.441 -1.3233 -3.1142 -1.2624
   15DOPE   C39 1907   1.056   3.835   8.339  0.1705  0.2094 -0.1331
   15DOPE   H9X 1908   1.067   3.912   8.418  1.3977  0.2514 -0.3270
   15DOPE  C310 1909   1.102   3.868   8.221  0.0844 -0.6651  0.2013
   15DOPE  H10X 1910   1.138   3.970   8.199  1.4687 -1.0191  0.7169
   15DOPE  C311 1911   1.110   3.773   8.108  0.4192  0.2171 -0.8979
   15DOPE  H11X 1912   1.187   3.695   8.122 -0.2936 -0.1532  1.3618
   15DOPE  H11Y 1913   1.012   3.719   8.104 -0.0272  0.4687  2.8884
   15DOPE  C312 1914   1.129   3.846   7.972  0.3905  1.0286  0.2162
   15DOPE  H12X 1915   1.036   3.903   7.951 -1.5219 -1.6287  0.9456
   15DOPE  H12Y 1916   1.135   3.763   7.899  2.2537 -0.2192  1.7059
   15DOPE  C313 1917   1.262   3.923   7.946  1.0920  0.1592  0.1219
   15DOPE  H13X 1918   1.262   3.975   7.848  1.2260 -0.3093 -0.1303
   15DOPE  H13Y 1919   1.269   3.996   8.030 -2.2888 -0.6973  1.3076
   15DOPE  C314 1920   1.393   3.833   7.952 -0.1564 -0.1477 -0.3318
   15DOPE  H14X 1921   1.387   3.763   7.866 -1.5498 -0.8050  0.2581
   15DOPE  H14Y 1922   1.393   3.779   8.050 -1.1128  0.7172  0.1595
   15DOPE  C315 1923   1.525   3.907   7.928 -0.7583 -0.6542  0.9711
   15DOPE  H15X 1924   1.615   3.857   7.970  0.4894 -0.3333 -1.2094
   15DOPE  H15Y 1925   1.509   4.013   7.960 -1.7944 -1.1527  2.1602
   15DOPE  C316 1926   1.556   3.911   7.773  0.4828 -0.5282 -0.3635
   15DOPE  H16X 1927   1.480   3.981   7.732  0.1881 -0.5068  0.2052
   15DOPE  H16Y 1928   1.541   3.811   7.727 -2.9067 -1.3802  2.1747
   15DOPE  C317 1929   1.690   3.969   7.730 -0.0742 -0.2375  0.6949
   15DOPE  H17X 1930   1.774   3.918   7.781  0.3971  0.6738  0.8516
   15DOPE  H17Y 1931   1.691   3.957   7.619 -3.7248  1.6117  0.2946
   15DOPE  C318 1932   1.711   4.121   7.759 -0.1287  1.0505  0.8544
   15DOPE  H18X 1933   1.638   4.175   7.694  0.9677  0.3301 -1.0707
   15DOPE  H18Y 1934   1.706   4.143   7.867  2.0280  1.9575  0.8230
   15DOPE  H18Z 1935   1.812   4.156   7.729 -0.6123  1.5947 -0.2209
   16DOPE     N 1936   0.608   5.809   8.606 -0.0630 -0.5187  0.8575
   16DOPE   HN1 1937   0.511   5.838   8.584 -0.2877 -1.0969  1.0780
   16DOPE   HN2 1938   0.661   5.782   8.521 -3.0467  0.7221 -1.5693
   16DOPE   HN3 1939   0.604   5.719   8.657  1.7800 -1.0767  0.0917
   16DOPE   C12 1940   0.691   5.917   8.677  0.0246  0.0881  0.0643
   16DOPE  H12A 1941   0.625   5.957   8.756 -0.0706  0.8667 -0.3960
   16DOPE  H12B 1942   0.708   6.000   8.604 -0.8351  0.3896  0.2026
   16DOPE   C11 1943   0.822   5.858   8.745  0.1326  0.3843  0.3055
   16DOPE  H11A 1944   0.801   5.786   8.826  1.5089  0.9065  1.1542
   16DOPE  H11B 1945   0.875   5.947   8.785 -0.1081  1.2633 -1.2361
   16DOPE     P 1946   1.051   5.795   8.634  0.1552  0.0218  0.1321
   16DOPE   O13 1947   1.120   5.870   8.741 -0.3110 -0.4785 -0.4290
   16DOPE   O14 1948   1.090   5.826   8.492 -0.2866 -0.5413 -0.1069
   16DOPE   O11 1949   1.082   5.642   8.659 -0.0074  0.1773  0.3963
   16DOPE   O12 1950   0.894   5.796   8.641 -0.1312 -0.2300  0.0668
   16DOPE    C1 1951   0.978   5.544   8.627  0.4313 -0.0948 -0.5619
   16DOPE    HA 1952   0.878   5.586   8.651  0.7451  0.3112  0.0700
   16DOPE    HB 1953   0.992   5.452   8.687 -0.8779  1.1296  1.7585
   16DOPE    C2 1954   0.982   5.500   8.476  0.6193 -0.1118 -0.9431
   16DOPE    HS 1955   0.994   5.598   8.424 -0.1499  0.2192 -0.5065
   16DOPE   O21 1956   0.856   5.434   8.449  0.8520  0.3077  0.4406
   16DOPE   C21 1957   0.748   5.510   8.434 -0.1335 -0.6610 -0.2521
   16DOPE   O22 1958   0.747   5.630   8.426 -0.6218 -0.1947  0.1981
   16DOPE   C22 1959   0.626   5.418   8.398  0.4477  0.1105 -0.4161
   16DOPE   H2R 1960   0.594   5.398   8.502 -0.7861  1.3943 -0.5123
   16DOPE   H2S 1961   0.665   5.323   8.357 -0.1872 -0.0994 -0.5484
   16DOPE    C3 1962   1.100   5.422   8.436  0.3148 -0.1626 -0.6073
   16DOPE    HX 1963   1.104   5.329   8.497 -0.3450  0.7428  0.9011
   16DOPE    HY 1964   1.194   5.476   8.458 -0.6643  2.0577 -1.5574
   16DOPE   O31 1965   1.088   5.377   8.295  0.1305 -0.2444 -1.0965
   16DOPE   C31 1966   1.132   5.468   8.209 -0.1288 -0.2789 -0.0818
   16DOPE   O32 1967   1.173   5.580   8.238 -0.4100 -0.1731 -0.9601
   16DOPE   C32 1968   1.120   5.401   8.072 -0.2481  0.0844  0.3421
   16DOPE   H2X 1969   1.194   5.317   8.074 -0.4099 -0.0518  0.7610
   16DOPE   H2Y 1970   1.022   5.349   8.072 -0.0776 -0.4728 -3.0077
   16DOPE   C23 1971   0.509   5.481   8.320  0.4629 -0.4719 -0.8242
   16DOPE   H3R 1972   0.482   5.580   8.364 -0.2622 -1.6078  1.4072
   16DOPE   H3S 1973   0.413   5.426   8.337 -0.4247  0.6653 -1.9492
   16DOPE   C24 1974   0.520   5.482   8.165 -1.2159  0.2762 -0.2704
   16DOPE   H4R 1975   0.437   5.551   8.139  0.5068  2.2168 -0.9247
   16DOPE   H4S 1976   0.500   5.379   8.128  1.4204 -0.5206  0.2987
   16DOPE   C25 1977   0.649   5.547   8.110  0.5522 -0.2686 -0.2344
   16DOPE   H5R 1978   0.745   5.502   8.144  1.4627  0.3859 -1.8472
   16DOPE   H5S 1979   0.646   5.653   8.144 -1.7426 -0.7450  1.3371
   16DOPE   C26 1980   0.668   5.553   7.959  0.0417 -0.0504  0.3913
   16DOPE   H6R 1981   0.748   5.620   7.923 -1.1464  2.2555  1.8469
   16DOPE   H6S 1982   0.577   5.590   7.907 -0.2769 -0.6342  0.5180
   16DOPE   C27 1983   0.683   5.405   7.907 -0.2225  0.2009 -0.2736
   16DOPE   H7R 1984   0.601   5.334   7.929  3.0788 -3.3857  1.7072
   16DOPE   H7S 1985   0.774   5.355   7.949  0.4544  0.0772 -1.8208
   16DOPE   C28 1986   0.705   5.401   7.749  0.1002  0.4177 -0.5130
   16DOPE   H8R 1987   0.735   5.298   7.722  0.8865 -0.5254  3.2920
   16DOPE   H8S 1988   0.787   5.472   7.722 -1.1652  1.2780 -2.2815
   16DOPE   C29 1989   0.579   5.435   7.681  0.0118 -0.1296 -0.2301
   16DOPE   H9R 1990   0.485   5.391   7.716  0.4225  0.8340  2.3321
   16DOPE  C210 1991   0.571   5.520   7.577  0.6723 -0.3198  0.3318
   16DOPE  H10R 1992   0.477   5.547   7.526  1.6391  1.5915 -0.5601
   16DOPE  C211 1993   0.685   5.593   7.505 -0.1503 -0.2552 -0.1511
   16DOPE  H11R 1994   0.778   5.542   7.539 -1.3493 -2.0281  0.6380
   16DOPE  H11S 1995   0.708   5.697   7.538  1.0063 -0.4506 -0.2969
   16DOPE  C212 1996   0.677   5.590   7.351 -0.3707  0.1762  0.1607
   16DOPE  H12R 1997   0.676   5.481   7.330  0.8105  0.1690  0.0777
   16DOPE  H12S 1998   0.771   5.641   7.322  0.4489 -0.4306  1.6626
   16DOPE  C213 1999   0.558   5.661   7.287  0.0205 -0.5768  0.3540
   16DOPE  H13R 2000   0.563   5.772   7.299  0.1537 -0.7349  1.8951
   16DOPE  H13S 2001   0.473   5.624   7.348  1.2475 -4.3609 -0.0016
   16DOPE  C214 2002   0.537   5.618   7.139  0.3547 -1.3349  0.4353
   16DOPE  H14R 2003   0.431   5.632   7.107  0.9449  0.9377 -0.7002
   16DOPE  H14S 2004   0.557   5.509   7.153  2.0126 -0.8956  1.8052
   16DOPE  C215 2005   0.644   5.680   7.046 -0.2661  0.5407 -0.2794
   16DOPE  H15R 2006   0.736   5.627   7.078 -0.7117  0.8613  1.6275
   16DOPE  H15S 2007   0.660   5.789   7.058  2.0276  0.0518  1.9577
   16DOPE  C216 2008   0.627   5.655   6.902 -0.4406 -0.4088 -0.4872
   16DOPE  H16R 2009   0.725   5.668   6.851  0.7509  2.2319  2.1850
   16DOPE  H16S 2010   0.548   5.721   6.859  0.5594  0.6505 -0.7349
   16DOPE  C217 2011   0.585   5.512   6.891  0.2502  0.5618 -0.0517
   16DOPE  H17R 2012   0.477   5.496   6.913  0.2313 -1.0627 -1.1858
   16DOPE  H17S 2013   0.649   5.453   6.961 -0.2151  1.4138  1.1333
   16DOPE  C218 2014   0.618   5.467   6.747  0.8313 -0.3851  0.0000
   16DOPE  H18R 2015   0.576   5.542   6.676 -1.2674 -1.2396  0.2420
   16DOPE  H18S 2016   0.565   5.374   6.717 -1.3993  0.7933 -0.0026
   16DOPE  H18T 2017   0.727   5.460   6.730  0.6664 -2.0427 -0.5895
   16DOPE   C33 2018   1.128   5.479   7.941  0.3447  0.4096 -0.1143
   16DOPE   H3X 2019   1.232   5.515   7.926  0.9824 -1.0553  0.5194
   16DOPE   H3Y 2020   1.058   5.564   7.956 -1.1525 -0.7820 -0.0866
   16DOPE   C34 2021   1.089   5.391   7.820  0.1596 -0.9544  0.1409
   16DOPE   H4X 2022   1.159   5.304   7.829  0.3619 -1.0514 -1.9994
   16DOPE   H4Y 2023   0.985   5.354   7.831  0.0963 -0.9389 -0.3930
   16DOPE   C35 2024   1.119   5.465   7.691 -0.1918 -0.4219  0.1044
   16DOPE   H5X 2025   1.230   5.462   7.679 -0.2216  1.9068 -1.2733
   16DOPE   H5Y 2026   1.094   5.573   7.688 -1.3793 -0.7106 -1.0138
   16DOPE   C36 2027   1.067   5.395   7.562  0.3793 -0.1122  0.6168
   16DOPE   H6X 2028   0.957   5.382   7.565 -0.0494  1.3195 -3.3043
   16DOPE   H6Y 2029   1.106   5.291   7.571  1.2101  0.0733 -0.4607
   16DOPE   C37 2030   1.110   5.453   7.429  0.7665 -0.5146  0.1403
   16DOPE   H7X 2031   1.066   5.552   7.408  0.9447 -0.2678  0.8858
   16DOPE   H7Y 2032   1.221   5.453   7.443  0.9809 -3.3207 -0.9304
   16DOPE   C38 2033   1.080   5.365   7.309  0.9195 -0.3148  0.1725
   16DOPE   H8X 2034   1.096   5.259   7.338 -0.6856 -0.4313  0.7648
   16DOPE   H8Y 2035   1.151   5.390   7.228 -0.3964 -0.8210 -1.1642
   16DOPE   C39 2036   0.936   5.358   7.257  0.5416 -0.1350 -0.0554
   16DOPE   H9X 2037   0.863   5.336   7.337  1.4888 -2.2025  0.3191
   16DOPE  C310 2038   0.893   5.366   7.131 -0.0959 -0.0365 -0.1255
   16DOPE  H10X 2039   0.785   5.362   7.114 -0.2306  2.6636 -0.4013
   16DOPE  C311 2040   0.979   5.382   7.010 -0.1007 -0.6464  0.7021
   16DOPE  H11X 2041   0.923   5.438   6.932 -0.7560 -1.5725  0.4805
   16DOPE  H11Y 2042   1.075   5.432   7.033 -0.9735  0.0563  3.0911
   16DOPE  C312 2043   1.002   5.258   6.924  0.4883 -0.4654  0.2852
   16DOPE  H12X 2044   0.908   5.199   6.921 -0.7278  1.4282 -1.3495
   16DOPE  H12Y 2045   1.076   5.196   6.980  0.5400 -1.2629 -0.6223
   16DOPE  C313 2046   1.063   5.278   6.787 -0.0115  0.2247  0.3438
   16DOPE  H13X 2047   1.017   5.364   6.733 -0.2519 -0.9240 -1.3620
   16DOPE  H13Y 2048   1.165   5.320   6.802 -0.8794  2.3530  0.7107
   16DOPE  C314 2049   1.084   5.157   6.707  0.0376  0.4321  0.4655
   16DOPE  H14X 2050   0.982   5.121   6.686  1.4383 -1.9742 -3.1260
   16DOPE  H14Y 2051   1.150   5.091   6.768  0.6439  2.3795  2.0288
   16DOPE  C315 2052   1.148   5.174   6.563  0.1888 -0.6418  0.0970
   16DOPE  H15X 2053   1.257   5.190   6.576  0.8111 -2.8988 -1.7722
   16DOPE  H15Y 2054   1.097   5.257   6.509  1.4927 -0.1297 -0.3844
   16DOPE  C316 2055   1.123   5.046   6.481 -0.1434  0.4566 -0.1402
   16DOPE  H16X 2056   1.014   5.039   6.462 -0.0446 -0.2564 -0.4625
   16DOPE  H16Y 2057   1.156   4.956   6.537 -0.4445  1.2040  1.2887
   16DOPE  C317 2058   1.187   5.052   6.343 -0.0684 -0.2343  0.9160
   16DOPE  H17X 2059   1.158   5.141   6.283 -1.0146  1.0990  3.2373
   16DOPE  H17Y 2060   1.298   5.051   6.343 -0.0046  1.1166 -1.2299
   16DOPE  C318 2061   1.136   4.931   6.262  0.6010  0.0668 -0.2941
   16DOPE  H18X 2062   1.179   4.835   6.295 -0.9448  0.0884  1.9607
   16DOPE  H18Y 2063   1.026   4.925   6.277  1.0729 -0.8029  3.8686
   16DOPE  H18Z 2064   1.162   4.937   6.154  0.2376  2.0056 -0.3171
   17DOPE     N 2065   2.331   1.205   8.580 -0.7194  0.0740 -0.1971
   17DOPE   HN1 2066   2.399   1.284   8.576 -0.6032 -0.0268 -0.2105
   17DOPE   HN2 2067   2.320   1.158   8.488 -0.6937  2.3891 -1.4463
   17DOPE   HN3 2068   2.236   1.245   8.598 -0.1830  1.1738  0.2603
   17DOPE   C12 2069   2.376   1.112   8.690 -0.2621 -0.3447  0.5892
   17DOPE  H12A 2070   2.392   1.173   8.782 -1.4275  0.7407  0.1103
   17DOPE  H12B 2071   2.462   1.055   8.650  1.3205  1.3979  1.3553
   17DOPE   C11 2072   2.250   1.022   8.738  1.0174  0.0606  0.1570
   17DOPE  H11A 2073   2.171   1.095   8.766 -0.2638 -1.4316  0.5631
   17DOPE  H11B 2074   2.284   0.957   8.821 -0.0062 -0.9596 -0.1986
   17DOPE     P 2075   2.114   0.802   8.668  0.1635  0.4576 -0.2140
   17DOPE   O13 2076   2.015   0.846   8.771 -0.3131  0.5104  0.2056
   17DOPE   O14 2077   2.189   0.681   8.691 -0.1637 -0.1119  0.2527
   17DOPE   O11 2078   2.047   0.780   8.525 -0.2229  0.2794  0.6834
   17DOPE   O12 2079   2.207   0.934   8.637 -0.2237  0.0484 -0.1539
   17DOPE    C1 2080   2.104   0.686   8.433 -0.1851  0.0653  0.1878
   17DOPE    HA 2081   2.021   0.633   8.382  0.1210  1.3144 -1.6898
   17DOPE    HB 2082   2.164   0.606   8.482 -1.2714 -0.2840  1.0157
   17DOPE    C2 2083   2.193   0.757   8.327  0.2289 -0.1813  0.2986
   17DOPE    HS 2084   2.280   0.803   8.379  0.1508  1.3115 -0.8316
   17DOPE   O21 2085   2.117   0.862   8.265  0.5065 -0.4592  0.2227
   17DOPE   C21 2086   2.165   0.982   8.270 -1.0065 -0.4137  0.5957
   17DOPE   O22 2087   2.261   1.023   8.335 -0.6609 -0.8303 -0.0253
   17DOPE   C22 2088   2.093   1.061   8.162 -0.0578 -0.2772  0.3724
   17DOPE   H2R 2089   2.154   1.152   8.142  2.0635 -1.7476 -0.2467
   17DOPE   H2S 2090   1.991   1.087   8.198 -0.1538  1.0836 -0.8333
   17DOPE    C3 2091   2.237   0.665   8.216 -0.2132  0.6784  0.0248
   17DOPE    HX 2092   2.268   0.568   8.261 -2.7255 -0.5405 -0.6716
   17DOPE    HY 2093   2.323   0.702   8.156 -0.2075  1.4261  0.4832
   17DOPE   O31 2094   2.128   0.618   8.140 -0.3844  0.5697  0.5504
   17DOPE   C31 2095   2.168   0.528   8.039  0.8297 -0.6269  0.0665
   17DOPE   O32 2096   2.276   0.475   8.036  0.0497  0.3852  0.1165
   17DOPE   C32 2097   2.055   0.503   7.941  0.9587  0.9270  0.4746
   17DOPE   H2X 2098   2.002   0.411   7.971  1.5016 -0.4268 -2.4043
   17DOPE   H2Y 2099   1.983   0.586   7.960  0.6486  0.5744  0.8501
   17DOPE   C23 2100   2.082   0.988   8.023  0.7447  0.5225 -0.3233
   17DOPE   H3R 2101   2.022   1.054   7.956  0.6904  2.5683  1.6489
   17DOPE   H3S 2102   2.021   0.896   8.040 -0.3319  1.4042  0.7860
   17DOPE   C24 2103   2.215   0.957   7.953 -0.1944 -0.0761  0.0646
   17DOPE   H4R 2104   2.253   0.869   8.010 -3.6276 -1.6604  0.1746
   17DOPE   H4S 2105   2.282   1.045   7.958 -0.8257  0.5225 -1.4153
   17DOPE   C25 2106   2.222   0.927   7.804 -0.5815 -0.3062 -0.1106
   17DOPE   H5R 2107   2.165   1.010   7.755 -0.5699 -0.5797 -0.5994
   17DOPE   H5S 2108   2.161   0.836   7.782 -0.1562 -0.4471 -0.7327
   17DOPE   C26 2109   2.365   0.929   7.743 -0.9519  0.0869  0.3204
   17DOPE   H6R 2110   2.425   0.840   7.771  2.5140  1.3602 -2.3658
   17DOPE   H6S 2111   2.421   1.021   7.771  2.1753 -2.1020  1.9056
   17DOPE   C27 2112   2.374   0.921   7.595  0.4483  0.1308  0.0650
   17DOPE   H7R 2113   2.322   1.009   7.552  0.1848 -0.0260  0.0625
   17DOPE   H7S 2114   2.323   0.833   7.552 -0.2735  2.2507 -3.8213
   17DOPE   C28 2115   2.518   0.922   7.543  0.0970 -0.1208  0.0039
   17DOPE   H8R 2116   2.507   0.871   7.444  1.9565  2.0261 -1.4166
   17DOPE   H8S 2117   2.590   0.855   7.594 -0.8245 -1.5771 -0.5332
   17DOPE   C29 2118   2.573   1.060   7.531  0.9779  0.4103 -0.1237
   17DOPE   H9R 2119   2.620   1.094   7.624 -0.5458  0.8074  0.5312
   17DOPE  C210 2120   2.594   1.120   7.415  1.1434 -0.0468 -0.1723
   17DOPE  H10R 2121   2.644   1.218   7.419  1.5453 -0.2734  1.2979
   17DOPE  C211 2122   2.568   1.071   7.273 -0.4690  0.2090 -0.3061
   17DOPE  H11R 2123   2.608   0.968   7.265  0.5689  0.6517 -1.0359
   17DOPE  H11S 2124   2.616   1.134   7.196  1.5120 -1.3941 -0.4507
   17DOPE  C212 2125   2.415   1.063   7.235 -0.1867  0.2909  0.2664
   17DOPE  H12R 2126   2.370   1.159   7.267 -1.2723 -0.2175  0.2855
   17DOPE  H12S 2127   2.354   0.985   7.284  0.2144 -1.0808 -1.3495
   17DOPE  C213 2128   2.407   1.049   7.076  0.3679 -0.0323 -0.2834
   17DOPE  H13R 2129   2.464   0.957   7.051  0.6232  0.1087 -0.2263
   17DOPE  H13S 2130   2.486   1.124   7.056  0.8674 -0.3113  0.5535
   17DOPE  C214 2131   2.278   1.070   7.001 -0.4761  0.0368  0.9826
   17DOPE  H14R 2132   2.254   1.179   7.008  2.3984  0.7565  0.7909
   17DOPE  H14S 2133   2.204   1.000   7.046 -0.3881 -0.5164  0.2795
   17DOPE  C215 2134   2.293   1.033   6.853 -0.1316  0.8348  0.8954
   17DOPE  H15R 2135   2.199   0.989   6.812 -0.4418  1.3174  1.0684
   17DOPE  H15S 2136   2.364   0.948   6.856  0.9848  1.5177 -2.1857
   17DOPE  C216 2137   2.344   1.146   6.764  0.4922  0.3745  0.4113
   17DOPE  H16R 2138   2.448   1.159   6.802  1.0336 -3.0572  0.4764
   17DOPE  H16S 2139   2.284   1.237   6.784  1.7054  1.8435 -2.1145
   17DOPE  C217 2140   2.335   1.135   6.613 -0.2870  0.0727 -0.6875
   17DOPE  H17R 2141   2.231   1.105   6.587 -0.4356 -0.6813  0.6934
   17DOPE  H17S 2142   2.400   1.057   6.568 -3.2053 -2.2433 -1.1645
   17DOPE  C218 2143   2.366   1.267   6.541  0.0406 -0.1807 -0.5133
   17DOPE  H18R 2144   2.473   1.297   6.544  0.6738 -2.2322 -0.6864
   17DOPE  H18S 2145   2.308   1.355   6.576 -1.2223 -0.7305 -1.1313
   17DOPE  H18T 2146   2.332   1.250   6.436  0.1074 -1.0953 -0.3906
   17DOPE   C33 2147   2.104   0.491   7.790  0.3987  0.5400  0.2282
   17DOPE   H3X 2148   2.158   0.394   7.777 -0.8365  0.0321 -1.4750
   17DOPE   H3Y 2149   2.177   0.571   7.765  3.0921 -1.5670  0.8590
   17DOPE   C34 2150   1.997   0.487   7.675 -0.3614 -0.2754  0.2051
   17DOPE   H4X 2151   1.912   0.422   7.704  0.3640 -0.3788  2.2336
   17DOPE   H4Y 2152   1.960   0.590   7.658 -0.0919 -0.1408  0.4263
   17DOPE   C35 2153   2.047   0.450   7.536  0.1179  0.2445 -0.8127
   17DOPE   H5X 2154   1.955   0.439   7.474  1.2887 -1.6017 -2.3476
   17DOPE   H5Y 2155   2.104   0.354   7.536 -1.4795 -0.7954  1.3534
   17DOPE   C36 2156   2.126   0.554   7.462  0.2890  0.5357  0.3843
   17DOPE   H6X 2157   2.230   0.570   7.495 -0.2439  1.1312  1.8738
   17DOPE   H6Y 2158   2.072   0.651   7.459 -2.1379 -0.7373 -1.9342
   17DOPE   C37 2159   2.124   0.516   7.311  0.5234 -0.3958 -0.2380
   17DOPE   H7X 2160   2.196   0.432   7.304  0.0737 -0.6951 -1.5019
   17DOPE   H7Y 2161   2.023   0.485   7.277  0.5425  0.4447 -1.1283
   17DOPE   C38 2162   2.174   0.628   7.219 -0.0018  0.3343 -0.8139
   17DOPE   H8X 2163   2.270   0.670   7.254 -0.2017 -0.9555  1.4471
   17DOPE   H8Y 2164   2.095   0.707   7.218  0.2277  0.5839  0.3048
   17DOPE   C39 2165   2.192   0.583   7.077 -0.2603 -0.3480  0.3194
   17DOPE   H9X 2166   2.298   0.554   7.065 -0.2831  0.3154 -1.8728
   17DOPE  C310 2167   2.120   0.591   6.966  0.1824 -0.0177 -0.5848
   17DOPE  H10X 2168   2.138   0.510   6.893 -1.9960 -0.6554 -0.5123
   17DOPE  C311 2169   1.985   0.653   6.953 -0.0452 -0.8367  0.0268
   17DOPE  H11X 2170   1.908   0.585   6.912 -0.7972  1.1226 -1.9799
   17DOPE  H11Y 2171   1.961   0.694   7.054  1.0385 -1.4935  0.5713
   17DOPE  C312 2172   1.994   0.766   6.852 -0.3963 -0.0831 -0.2787
   17DOPE  H12X 2173   2.085   0.828   6.869  0.3564 -1.0307 -0.7282
   17DOPE  H12Y 2174   1.908   0.836   6.851 -2.1228 -2.1198 -0.5290
   17DOPE  C313 2175   2.002   0.717   6.707  0.1512 -0.3189  0.2026
   17DOPE  H13X 2176   2.100   0.668   6.689 -0.0883 -1.8230  2.6300
   17DOPE  H13Y 2177   1.920   0.644   6.690  0.1842 -0.2298 -0.3500
   17DOPE  C314 2178   1.988   0.842   6.618  0.6118  0.1719  0.8466
   17DOPE  H14X 2179   2.066   0.918   6.642  1.1326 -0.4405  1.1498
   17DOPE  H14Y 2180   1.892   0.891   6.641 -0.8177 -2.4029  0.7624
   17DOPE  C315 2181   1.975   0.783   6.482 -0.1475 -0.6880  0.0930
   17DOPE  H15X 2182   1.889   0.713   6.482 -0.8645  0.1851 -0.0753
   17DOPE  H15Y 2183   2.068   0.734   6.444 -0.1937 -0.5995 -0.1358
   17DOPE  C316 2184   1.943   0.878   6.365 -0.3741  0.3661 -0.2927
   17DOPE  H16X 2185   1.847   0.927   6.388 -1.5706 -1.9972  0.0727
   17DOPE  H16Y 2186   1.931   0.819   6.271 -1.1180 -0.5592  0.3722
   17DOPE  C317 2187   2.047   0.986   6.337  0.0174  0.1747 -0.1557
   17DOPE  H17X 2188   1.990   1.077   6.310  0.7778  0.5250 -0.6302
   17DOPE  H17Y 2189   2.110   1.014   6.424 -0.4497  1.5293 -0.2311
   17DOPE  C318 2190   2.142   0.963   6.210  0.3674 -0.0617  0.5875
   17DOPE  H18X 2191   2.210   0.876   6.221  0.0975 -0.3804 -0.1842
   17DOPE  H18Y 2192   2.082   0.932   6.122  0.4517  1.7875 -0.1832
   17DOPE  H18Z 2193   2.198   1.056   6.188 -1.5058  1.3864  1.6415
   18DOPE     N 2194   6.637   4.786   9.178 -0.0248  0.0937 -0.3139
   18DOPE   HN1 2195   6.573   4.770   9.098 -0.9406 -0.4433  0.5016
   18DOPE   HN2 2196   6.732   4.750   9.154  0.3943 -0.1736  1.5588
   18DOPE   HN3 2197   6.602   4.728   9.257  1.4315  0.0463  0.3354
   18DOPE   C12 2198   6.652   4.928   9.215  0.3701 -0.3249  0.1893
   18DOPE  H12A 2199   6.753   4.931   9.262 -0.3613 -2.4243  2.1016
   18DOPE  H12B 2200   6.574   4.942   9.294 -0.4448 -0.4498 -0.5714
   18DOPE   C11 2201   6.612   5.022   9.089  0.0012 -0.0439 -0.0601
   18DOPE  H11A 2202   6.706   5.032   9.030  0.2261  1.2266  0.4640
   18DOPE  H11B 2203   6.589   5.122   9.131  1.3674  0.8052 -1.2240
   18DOPE     P 2204   6.379   5.031   8.983 -0.3739  0.3253  0.2760
   18DOPE   O13 2205   6.415   5.156   8.905 -0.0940  0.4368  0.1388
   18DOPE   O14 2206   6.302   5.032   9.111 -0.6619  0.7658  0.0744
   18DOPE   O11 2207   6.288   4.940   8.890  0.1399 -0.0927  0.0101
   18DOPE   O12 2208   6.516   4.953   9.009 -0.6732  0.8208 -0.2822
   18DOPE    C1 2209   6.316   4.798   8.878 -0.4465  0.0151 -0.1216
   18DOPE    HA 2210   6.214   4.755   8.875 -0.9170  1.1551 -0.8577
   18DOPE    HB 2211   6.367   4.753   8.966 -0.8089  1.2286  0.7336
   18DOPE    C2 2212   6.365   4.761   8.734 -0.1596 -0.1583 -0.6099
   18DOPE    HS 2213   6.356   4.652   8.719 -0.9470 -0.0510 -0.9768
   18DOPE   O21 2214   6.498   4.801   8.714  0.1644 -0.1856  0.3835
   18DOPE   C21 2215   6.594   4.744   8.790  0.1751 -0.2429  0.4466
   18DOPE   O22 2216   6.578   4.651   8.864  1.1661  0.4581 -0.1195
   18DOPE   C22 2217   6.723   4.816   8.765 -0.1655 -0.6303  0.3117
   18DOPE   H2R 2218   6.752   4.853   8.866 -4.6675  0.3748  1.4212
   18DOPE   H2S 2219   6.708   4.907   8.703  0.1165  0.3410  1.6174
   18DOPE    C3 2220   6.278   4.822   8.619 -0.2103  0.5314 -0.3115
   18DOPE    HX 2221   6.278   4.933   8.630  0.3844  0.3451  2.2326
   18DOPE    HY 2222   6.174   4.785   8.634  0.8371 -2.5514 -0.0015
   18DOPE   O31 2223   6.336   4.794   8.492  0.1258  0.4537  0.1298
   18DOPE   C31 2224   6.281   4.686   8.432 -0.5632  0.2324 -0.7402
   18DOPE   O32 2225   6.210   4.603   8.492 -0.6552 -0.3870  0.0423
   18DOPE   C32 2226   6.318   4.683   8.278  0.3814  0.5716 -0.5448
   18DOPE   H2X 2227   6.346   4.786   8.247  1.3687  0.4623 -0.0656
   18DOPE   H2Y 2228   6.413   4.626   8.269 -0.0136 -0.1230 -0.4711
   18DOPE   C23 2229   6.832   4.723   8.702 -0.2876  0.0105 -0.2519
   18DOPE   H3R 2230   6.850   4.630   8.759 -0.7070  0.0954  0.0193
   18DOPE   H3S 2231   6.931   4.772   8.708  0.1570 -1.0434  1.4342
   18DOPE   C24 2232   6.796   4.685   8.563  1.0282 -0.8394 -0.0780
   18DOPE   H4R 2233   6.779   4.776   8.503  0.9771 -0.3868  0.6108
   18DOPE   H4S 2234   6.701   4.627   8.558  0.9073 -0.7158  0.6273
   18DOPE   C25 2235   6.905   4.612   8.489  0.4382 -0.4377 -0.5466
   18DOPE   H5R 2236   6.947   4.533   8.554  0.8971 -1.1953 -1.7214
   18DOPE   H5S 2237   6.982   4.688   8.463  0.9794 -0.9182 -0.3523
   18DOPE   C26 2238   6.854   4.551   8.363  0.3355  0.0896  0.8733
   18DOPE   H6R 2239   6.764   4.491   8.389 -0.1566  0.0560 -0.7834
   18DOPE   H6S 2240   6.928   4.478   8.324 -1.2795  0.2512 -2.9655
   18DOPE   C27 2241   6.826   4.648   8.249 -0.7232  0.1863  0.0804
   18DOPE   H7R 2242   6.916   4.710   8.231 -0.3804  0.4222  2.3358
   18DOPE   H7S 2243   6.748   4.714   8.291 -0.9999  0.5817 -1.0183
   18DOPE   C28 2244   6.778   4.579   8.118 -0.1896 -0.0735  0.0193
   18DOPE   H8R 2245   6.701   4.502   8.142 -0.1185 -0.1681 -0.0591
   18DOPE   H8S 2246   6.864   4.521   8.078 -0.5716 -0.1873 -0.6557
   18DOPE   C29 2247   6.709   4.682   8.027 -0.1190 -0.1072 -0.1887
   18DOPE   H9R 2248   6.665   4.775   8.067 -1.6148  0.3536 -2.6634
   18DOPE  C210 2249   6.725   4.692   7.892 -0.8960  0.0317 -0.6401
   18DOPE  H10R 2250   6.683   4.774   7.832 -2.4903  0.0709  0.4848
   18DOPE  C211 2251   6.823   4.605   7.818 -0.5660  0.4759 -0.5828
   18DOPE  H11R 2252   6.806   4.499   7.846  0.4451  0.4474 -0.0276
   18DOPE  H11S 2253   6.921   4.639   7.858 -1.0817  0.6854  0.5383
   18DOPE  C212 2254   6.812   4.616   7.663  0.5609 -0.0104 -0.4884
   18DOPE  H12R 2255   6.854   4.520   7.626 -0.0117  0.2263 -1.7921
   18DOPE  H12S 2256   6.872   4.703   7.629 -0.6645  1.1801  0.2921
   18DOPE  C213 2257   6.673   4.616   7.587  0.3228 -0.4881 -0.5825
   18DOPE  H13R 2258   6.633   4.716   7.614 -1.2096 -1.9267  3.1713
   18DOPE  H13S 2259   6.606   4.538   7.630 -1.2101  1.0857 -0.0114
   18DOPE  C214 2260   6.678   4.592   7.436  0.9811  0.6234 -0.7123
   18DOPE  H14R 2261   6.577   4.605   7.391  1.6638  1.1850 -2.1780
   18DOPE  H14S 2262   6.728   4.494   7.423  2.6240  1.2121  0.8512
   18DOPE  C215 2263   6.752   4.700   7.362  0.0031 -0.2297  0.0906
   18DOPE  H15R 2264   6.862   4.697   7.377  0.1941  1.7980 -0.6147
   18DOPE  H15S 2265   6.725   4.806   7.384 -1.0304 -0.6345  0.8889
   18DOPE  C216 2266   6.743   4.681   7.206 -0.1629  0.3158  0.3512
   18DOPE  H16R 2267   6.644   4.690   7.157  0.7570 -2.7091 -2.3651
   18DOPE  H16S 2268   6.784   4.580   7.187 -1.2249 -0.1446  0.4565
   18DOPE  C217 2269   6.834   4.781   7.131 -0.1688 -0.3247  0.0469
   18DOPE  H17R 2270   6.930   4.788   7.187 -0.6818  1.0408  0.8181
   18DOPE  H17S 2271   6.781   4.878   7.146  0.1597 -0.1958  0.4025
   18DOPE  C218 2272   6.849   4.761   6.981 -0.4931 -0.0395  0.2583
   18DOPE  H18R 2273   6.934   4.816   6.935 -1.7327  0.8768 -1.0001
   18DOPE  H18S 2274   6.757   4.795   6.928 -1.2053 -0.6837  1.0507
   18DOPE  H18T 2275   6.860   4.652   6.962  1.5271  0.1796 -0.0944
   18DOPE   C33 2276   6.192   4.640   8.198 -0.3474 -0.5571  1.2442
   18DOPE   H3X 2277   6.100   4.671   8.253 -0.2873  0.2185  0.9196
   18DOPE   H3Y 2278   6.180   4.529   8.200  1.0492 -0.7084  2.1711
   18DOPE   C34 2279   6.191   4.703   8.063 -0.4092 -0.1811  0.4804
   18DOPE   H4X 2280   6.097   4.690   8.006 -1.1590  0.7455  1.4704
   18DOPE   H4Y 2281   6.212   4.812   8.071 -0.8736 -0.0509 -0.0206
   18DOPE   C35 2282   6.303   4.628   7.981  0.7630 -0.3771 -0.4474
   18DOPE   H5X 2283   6.254   4.529   7.969  0.7143 -0.5339  0.8860
   18DOPE   H5Y 2284   6.399   4.617   8.036 -0.4537 -1.4392  1.5850
   18DOPE   C36 2285   6.330   4.691   7.844 -0.3025  0.8749  0.2402
   18DOPE   H6X 2286   6.403   4.624   7.794 -1.2268  0.3036 -0.3973
   18DOPE   H6Y 2287   6.371   4.794   7.854 -0.3443  0.8888  0.2694
   18DOPE   C37 2288   6.202   4.700   7.760 -0.2601  0.2620  0.3837
   18DOPE   H7X 2289   6.137   4.611   7.773 -0.9956  0.9914  1.9103
   18DOPE   H7Y 2290   6.143   4.786   7.800  0.0544  0.6943 -0.0634
   18DOPE   C38 2291   6.247   4.713   7.607 -0.2513 -0.9123  0.7485
   18DOPE   H8X 2292   6.348   4.759   7.598  0.7572 -3.2807 -1.2160
   18DOPE   H8Y 2293   6.175   4.782   7.559  3.2834  1.7554 -1.1483
   18DOPE   C39 2294   6.264   4.582   7.538 -0.4472  0.2070  0.0210
   18DOPE   H9X 2295   6.251   4.494   7.603  0.3949 -0.4108 -0.6082
   18DOPE  C310 2296   6.296   4.583   7.404 -0.1122  0.9695  0.7502
   18DOPE  H10X 2297   6.310   4.488   7.350 -0.5034  0.9967  0.6014
   18DOPE  C311 2298   6.322   4.708   7.326 -0.0812 -0.6242 -0.0552
   18DOPE  H11X 2299   6.328   4.796   7.393 -0.6591 -1.6937  1.4561
   18DOPE  H11Y 2300   6.413   4.694   7.264 -0.0555  1.3473 -0.5498
   18DOPE  C312 2301   6.209   4.717   7.221 -0.6237 -0.7555 -0.4729
   18DOPE  H12X 2302   6.122   4.739   7.285 -1.2516 -0.1908 -1.4886
   18DOPE  H12Y 2303   6.195   4.618   7.173 -3.2508 -1.0840  0.8337
   18DOPE  C313 2304   6.227   4.826   7.119  0.5546  0.1353  0.1817
   18DOPE  H13X 2305   6.128   4.844   7.072  0.3086  0.3185  0.7715
   18DOPE  H13Y 2306   6.252   4.919   7.174  2.6441 -0.7720  0.8686
   18DOPE  C314 2307   6.329   4.790   7.015 -0.6136 -0.1665  0.4906
   18DOPE  H14X 2308   6.289   4.692   6.982 -2.0238  0.2496  0.8986
   18DOPE  H14Y 2309   6.426   4.774   7.068  0.0633  1.1287 -0.2939
   18DOPE  C315 2310   6.337   4.906   6.909 -0.4134  0.3018  0.3270
   18DOPE  H15X 2311   6.364   4.995   6.969 -0.5023 -0.8259  2.1233
   18DOPE  H15Y 2312   6.241   4.921   6.857  0.1678  2.1222 -0.2877
   18DOPE  C316 2313   6.443   4.864   6.806 -0.0182 -0.6729  0.1223
   18DOPE  H16X 2314   6.389   4.792   6.740 -0.7224 -2.0853  2.1228
   18DOPE  H16Y 2315   6.514   4.804   6.867 -0.2466  1.0497  2.1975
   18DOPE  C317 2316   6.513   4.984   6.747  0.1221 -0.4461 -0.6470
   18DOPE  H17X 2317   6.436   5.043   6.693 -1.7716  0.3902  2.6445
   18DOPE  H17Y 2318   6.562   5.044   6.827  2.2262  0.6176 -2.6199
   18DOPE  C318 2319   6.627   4.942   6.655 -0.4590  0.4590 -0.0541
   18DOPE  H18X 2320   6.682   5.033   6.623 -0.8141  0.6927 -0.0043
   18DOPE  H18Y 2321   6.696   4.872   6.708 -1.9035 -0.4318  0.7298
   18DOPE  H18Z 2322   6.598   4.873   6.573  0.1526  0.0984  0.0256
   19DOPE     N 2323   6.431   5.422   8.937 -0.0569 -0.1726 -0.3280
   19DOPE   HN1 2324   6.408   5.324   8.915  0.2012 -0.6415  1.3856
   19DOPE   HN2 2325   6.354   5.469   8.989  0.2809  0.5120 -0.4267
   19DOPE   HN3 2326   6.449   5.468   8.845  0.8470  0.0198 -0.0664
   19DOPE   C12 2327   6.555   5.457   9.014  0.6966 -0.0422  0.2995
   19DOPE  H12A 2328   6.644   5.410   8.967  0.8569  0.7584 -0.2208
   19DOPE  H12B 2329   6.539   5.427   9.120  0.3350  0.2071  0.3180
   19DOPE   C11 2330   6.580   5.611   9.034 -0.3918  0.2012  0.5414
   19DOPE  H11A 2331   6.672   5.628   9.094 -0.0579  0.4093 -0.0152
   19DOPE  H11B 2332   6.507   5.664   9.098 -0.2534  1.6282 -0.4480
   19DOPE     P 2333   6.725   5.678   8.828  0.1571  0.5172  0.6254
   19DOPE   O13 2334   6.837   5.715   8.917  0.7410  0.0543 -0.8288
   19DOPE   O14 2335   6.699   5.761   8.709 -0.2446  0.1829 -0.2742
   19DOPE   O11 2336   6.740   5.517   8.795  0.0580  0.1790 -0.2055
   19DOPE   O12 2337   6.589   5.682   8.910  0.0617 -0.5040 -0.7243
   19DOPE    C1 2338   6.860   5.461   8.741  0.9234  0.3348  0.1347
   19DOPE    HA 2339   6.913   5.397   8.815  1.7103  1.6550  0.7596
   19DOPE    HB 2340   6.926   5.541   8.704  1.3912  0.1920  0.6462
   19DOPE    C2 2341   6.824   5.380   8.613 -0.3692  0.1844  0.2869
   19DOPE    HS 2342   6.916   5.344   8.563  0.3215 -0.0082  1.6302
   19DOPE   O21 2343   6.739   5.457   8.518  0.1523  0.1980  0.0244
   19DOPE   C21 2344   6.796   5.555   8.446 -0.4208  0.2760 -0.1711
   19DOPE   O22 2345   6.915   5.578   8.450 -0.2763 -0.0168 -0.0115
   19DOPE   C22 2346   6.694   5.624   8.363 -0.2493  0.3718 -0.0141
   19DOPE   H2R 2347   6.747   5.705   8.310  1.9380 -0.0087  1.4832
   19DOPE   H2S 2348   6.614   5.660   8.431 -2.0219  1.0072 -2.3054
   19DOPE    C3 2349   6.737   5.252   8.656 -0.6092 -0.3096  0.5068
   19DOPE    HX 2350   6.657   5.285   8.726 -0.6913  3.2788 -1.0526
   19DOPE    HY 2351   6.799   5.189   8.723 -0.7443 -0.7054  0.2624
   19DOPE   O31 2352   6.687   5.174   8.550  0.4699 -0.0019  0.2351
   19DOPE   C31 2353   6.550   5.179   8.527 -0.1487 -0.7123  0.3014
   19DOPE   O32 2354   6.471   5.247   8.590 -0.4404 -0.2840  0.0542
   19DOPE   C32 2355   6.523   5.090   8.406  0.2515  0.1045 -0.1314
   19DOPE   H2X 2356   6.511   4.985   8.438 -0.6683 -0.2800 -1.6300
   19DOPE   H2Y 2357   6.418   5.108   8.373  1.3574  3.1658 -2.4722
   19DOPE   C23 2358   6.630   5.534   8.257 -0.1832 -0.2544  0.7591
   19DOPE   H3R 2359   6.529   5.575   8.233 -0.5225 -1.4468  0.0308
   19DOPE   H3S 2360   6.607   5.431   8.294 -0.9937 -0.5502 -0.5104
   19DOPE   C24 2361   6.708   5.525   8.124 -0.0675 -0.4363  0.8116
   19DOPE   H4R 2362   6.723   5.632   8.100 -0.3156 -0.8365 -1.2441
   19DOPE   H4S 2363   6.642   5.480   8.047 -0.6206  2.1772 -0.3365
   19DOPE   C25 2364   6.841   5.448   8.125 -0.3610 -0.1573  1.0164
   19DOPE   H5R 2365   6.832   5.339   8.146 -0.5733 -0.4400 -0.4472
   19DOPE   H5S 2366   6.910   5.503   8.192 -0.2957 -0.2270  1.0077
   19DOPE   C26 2367   6.918   5.465   7.984  0.4026 -0.0218 -0.1353
   19DOPE   H6R 2368   7.014   5.409   7.978 -0.2340 -1.0091 -1.9871
   19DOPE   H6S 2369   6.951   5.571   7.973 -0.5132  0.2357 -0.4705
   19DOPE   C27 2370   6.829   5.425   7.860 -0.3525  0.1857 -0.2227
   19DOPE   H7R 2371   6.769   5.510   7.823 -1.2859 -0.4234 -0.1312
   19DOPE   H7S 2372   6.768   5.335   7.882  0.8969 -0.8370 -0.7657
   19DOPE   C28 2373   6.923   5.398   7.735 -0.2188  0.4648 -0.1738
   19DOPE   H8R 2374   6.993   5.312   7.746  0.0463 -0.3099 -5.5653
   19DOPE   H8S 2375   6.988   5.487   7.724  1.2961 -0.7705 -1.7454
   19DOPE   C29 2376   6.840   5.362   7.619  0.1645  0.3366 -1.0615
   19DOPE   H9R 2377   6.776   5.273   7.634 -0.4483  1.0661  0.9346
   19DOPE  C210 2378   6.820   5.436   7.515 -0.0886 -0.2259  0.9302
   19DOPE  H10R 2379   6.765   5.394   7.430  0.1996  0.3947  0.4312
   19DOPE  C211 2380   6.891   5.572   7.481  0.4074  0.2957 -0.5473
   19DOPE  H11R 2381   6.944   5.556   7.385  1.7697  0.9269  0.0715
   19DOPE  H11S 2382   6.973   5.598   7.552  1.0841  1.5500 -1.7311
   19DOPE  C212 2383   6.807   5.705   7.452 -0.7472 -0.1572 -0.0309
   19DOPE  H12R 2384   6.747   5.683   7.361 -0.8786  0.2879 -0.0541
   19DOPE  H12S 2385   6.875   5.792   7.439 -0.1846 -0.2144  2.1483
   19DOPE  C213 2386   6.720   5.734   7.573 -0.0308  0.1875  0.4190
   19DOPE  H13R 2387   6.774   5.710   7.668  2.6526  0.4117 -0.9540
   19DOPE  H13S 2388   6.631   5.666   7.580  0.5502 -1.0280 -2.5755
   19DOPE  C214 2389   6.676   5.877   7.602  0.2547 -0.2523  0.0796
   19DOPE  H14R 2390   6.648   5.927   7.507 -0.2357  0.0252  0.3699
   19DOPE  H14S 2391   6.766   5.928   7.643  0.1133  0.2056 -0.1742
   19DOPE  C215 2392   6.559   5.882   7.701  0.7464 -0.0055  0.3424
   19DOPE  H15R 2393   6.490   5.800   7.669  2.1516 -0.8883 -0.5193
   19DOPE  H15S 2394   6.516   5.983   7.685  1.9880  0.2552 -1.7934
   19DOPE  C216 2395   6.598   5.860   7.849 -0.4353 -0.7550  0.1602
   19DOPE  H16R 2396   6.673   5.935   7.881 -0.3195 -0.4947 -0.6805
   19DOPE  H16S 2397   6.641   5.758   7.852  0.1558 -0.5857 -1.3901
   19DOPE  C217 2398   6.476   5.875   7.940 -0.1739 -0.4356  0.3100
   19DOPE  H17R 2399   6.408   5.788   7.924  2.2483 -2.3543 -0.0470
   19DOPE  H17S 2400   6.420   5.969   7.921  0.0702 -0.5740 -1.1561
   19DOPE  C218 2401   6.522   5.884   8.091  0.1153 -0.1667 -0.0349
   19DOPE  H18R 2402   6.568   5.787   8.118 -0.0805 -0.8726 -2.0479
   19DOPE  H18S 2403   6.438   5.920   8.155  1.4063  1.6042  0.7503
   19DOPE  H18T 2404   6.597   5.966   8.094 -1.6201  1.4655  2.3968
   19DOPE   C33 2405   6.632   5.097   8.295 -0.3486 -0.2844 -0.4595
   19DOPE   H3X 2406   6.724   5.056   8.342 -0.5252  1.1083  1.1759
   19DOPE   H3Y 2407   6.653   5.203   8.268 -1.0698 -0.1870 -0.6633
   19DOPE   C34 2408   6.597   5.028   8.166  0.4533  0.5019  0.4835
   19DOPE   H4X 2409   6.698   5.026   8.119  1.2268 -0.0338  2.0886
   19DOPE   H4Y 2410   6.562   4.923   8.180 -0.3403  0.4881 -1.2903
   19DOPE   C35 2411   6.490   5.098   8.088  0.3609  0.0634  0.4691
   19DOPE   H5X 2412   6.507   5.208   8.087  0.5651  0.0351 -0.2044
   19DOPE   H5Y 2413   6.393   5.075   8.136  1.1789 -0.8462  1.7641
   19DOPE   C36 2414   6.476   5.035   7.943 -0.3181  0.0447  0.5872
   19DOPE   H6X 2415   6.371   5.055   7.910  0.0848  2.8249  0.7495
   19DOPE   H6Y 2416   6.501   4.927   7.941 -1.4875 -0.2815 -2.7015
   19DOPE   C37 2417   6.559   5.110   7.834  0.4148  0.1371  0.7595
   19DOPE   H7X 2418   6.518   5.213   7.836 -1.8320 -0.6456 -1.1936
   19DOPE   H7Y 2419   6.667   5.102   7.858  0.7191 -1.0554 -0.8607
   19DOPE   C38 2420   6.553   5.049   7.697  0.1102 -0.5777  0.3199
   19DOPE   H8X 2421   6.572   4.941   7.716 -1.2745 -0.6009  1.7699
   19DOPE   H8Y 2422   6.627   5.089   7.624 -0.5270 -0.4635 -0.2765
   19DOPE   C39 2423   6.419   5.052   7.630  0.6486 -0.0194  0.5161
   19DOPE   H9X 2424   6.344   4.989   7.679  1.6565 -0.4643  1.5448
   19DOPE  C310 2425   6.387   5.115   7.513 -0.1907 -1.1615  0.0316
   19DOPE  H10X 2426   6.291   5.095   7.463 -0.3654  1.0199 -0.6079
   19DOPE  C311 2427   6.476   5.203   7.430 -0.5610  0.0893 -0.1407
   19DOPE  H11X 2428   6.430   5.305   7.433 -0.3123  0.1789  2.5016
   19DOPE  H11Y 2429   6.575   5.212   7.479 -0.2629  1.1179 -0.8795
   19DOPE  C312 2430   6.490   5.147   7.287  0.3371 -0.2004 -0.6080
   19DOPE  H12X 2431   6.404   5.192   7.232  0.1552  0.8030  0.4466
   19DOPE  H12Y 2432   6.469   5.039   7.278  0.9187 -0.4433  0.7611
   19DOPE  C313 2433   6.624   5.182   7.223  0.5416 -0.7815  0.2328
   19DOPE  H13X 2434   6.654   5.288   7.214  1.5751 -1.1745 -1.3966
   19DOPE  H13Y 2435   6.696   5.130   7.289  1.3480 -0.4301 -0.3485
   19DOPE  C314 2436   6.637   5.128   7.079 -0.0245  0.2848 -0.2210
   19DOPE  H14X 2437   6.549   5.167   7.023 -0.5532  0.6577  0.8468
   19DOPE  H14Y 2438   6.619   5.018   7.076  1.7393 -0.0163 -1.0083
   19DOPE  C315 2439   6.770   5.152   7.008  0.1121  0.1661  0.1317
   19DOPE  H15X 2440   6.748   5.117   6.905  0.6529  0.3157 -0.0371
   19DOPE  H15Y 2441   6.856   5.087   7.036 -0.0902 -0.6231 -1.0066
   19DOPE  C316 2442   6.805   5.303   6.997 -0.5674  1.3020 -0.0607
   19DOPE  H16X 2443   6.838   5.335   7.098  0.2506 -0.0934  0.1377
   19DOPE  H16Y 2444   6.712   5.351   6.958  0.3246  1.3557 -2.2816
   19DOPE  C317 2445   6.909   5.327   6.880 -0.3970 -0.2469 -0.5713
   19DOPE  H17X 2446   6.970   5.414   6.913 -1.0706 -0.6943  2.1570
   19DOPE  H17Y 2447   6.984   5.245   6.878 -1.9687 -1.7421 -3.5532
   19DOPE  C318 2448   6.851   5.341   6.746  0.5985  0.6116 -0.3137
   19DOPE  H18X 2449   6.772   5.419   6.741 -0.0547 -0.0104  0.1371
   19DOPE  H18Y 2450   6.926   5.362   6.666  0.6820 -1.1310 -0.7178
   19DOPE  H18Z 2451   6.796   5.248   6.722  1.2820 -0.0026  0.4589
   20DOPE     N 2452   4.178   1.763   8.604 -0.2494  0.2842 -0.5901
   20DOPE   HN1 2453   4.253   1.726   8.666  1.8469  2.9811 -1.3046
   20DOPE   HN2 2454   4.175   1.859   8.643  3.8251 -0.0233  1.0252
   20DOPE   HN3 2455   4.093   1.707   8.625  0.4336 -1.5080 -2.3011
   20DOPE   C12 2456   4.198   1.754   8.461  0.6084 -0.3272  0.3327
   20DOPE  H12A 2457   4.115   1.806   8.409 -1.1573 -1.7287  1.6485
   20DOPE  H12B 2458   4.205   1.648   8.428 -0.8422  0.1229 -1.5628
   20DOPE   C11 2459   4.331   1.827   8.421 -0.8709  0.2035  0.8369
   20DOPE  H11A 2460   4.321   1.938   8.423 -2.1856  0.1036  1.1422
   20DOPE  H11B 2461   4.336   1.802   8.313 -1.2305  1.2727  0.5562
   20DOPE     P 2462   4.584   1.831   8.477 -0.2487 -0.3044 -0.3295
   20DOPE   O13 2463   4.668   1.779   8.585  0.4525  0.4186  0.9595
   20DOPE   O14 2464   4.577   1.978   8.472 -0.4171 -0.2024  0.2170
   20DOPE   O11 2465   4.638   1.786   8.337 -0.0044 -0.0951  0.0573
   20DOPE   O12 2466   4.442   1.781   8.493 -0.7344  0.4239 -0.6065
   20DOPE    C1 2467   4.595   1.660   8.280  0.1169 -0.1291 -0.6975
   20DOPE    HA 2468   4.485   1.647   8.290  0.2367 -0.8285 -0.1948
   20DOPE    HB 2469   4.643   1.575   8.333 -0.3851 -0.7073 -1.1571
   20DOPE    C2 2470   4.616   1.646   8.129 -0.1781 -0.5868 -0.1832
   20DOPE    HS 2471   4.717   1.692   8.122 -1.0513  1.9780  2.0937
   20DOPE   O21 2472   4.519   1.732   8.069 -0.4369  0.8480 -0.0560
   20DOPE   C21 2473   4.552   1.798   7.961  0.6941 -0.0952 -0.0491
   20DOPE   O22 2474   4.655   1.777   7.898  0.2485 -0.1508  0.6742
   20DOPE   C22 2475   4.447   1.899   7.932  0.5375  0.2203 -0.0899
   20DOPE   H2R 2476   4.437   1.958   8.026 -0.6299 -0.7170  0.4006
   20DOPE   H2S 2477   4.348   1.850   7.916  0.2204  0.9124 -0.2865
   20DOPE    C3 2478   4.589   1.498   8.092  0.2671 -0.0221  0.5082
   20DOPE    HX 2479   4.502   1.474   8.157  0.5812 -1.3821  0.4561
   20DOPE    HY 2480   4.676   1.435   8.119 -1.7821 -2.1185  2.6513
   20DOPE   O31 2481   4.572   1.491   7.944 -0.4453  0.2955  0.0854
   20DOPE   C31 2482   4.453   1.457   7.888  0.0198 -0.1631  0.7131
   20DOPE   O32 2483   4.351   1.439   7.952 -0.4077  0.2623  0.2692
   20DOPE   C32 2484   4.458   1.450   7.738 -1.2008  0.0783  0.0458
   20DOPE   H2X 2485   4.550   1.496   7.695 -1.1947 -1.5699 -1.8642
   20DOPE   H2Y 2486   4.464   1.342   7.713  0.6179 -0.4621  2.4217
   20DOPE   C23 2487   4.466   2.007   7.825  0.5717  0.0615  0.0351
   20DOPE   H3R 2488   4.568   2.053   7.826  0.2291  0.8753 -0.8535
   20DOPE   H3S 2489   4.402   2.094   7.851  2.4966  0.5472  3.9097
   20DOPE   C24 2490   4.446   1.951   7.692  0.3688  0.6660 -0.9343
   20DOPE   H4R 2491   4.342   1.924   7.666 -0.8654  2.8261  1.2631
   20DOPE   H4S 2492   4.513   1.863   7.693  0.3171  0.6252  0.0901
   20DOPE   C25 2493   4.497   2.046   7.580 -0.1555  0.1822  0.2307
   20DOPE   H5R 2494   4.607   2.043   7.596 -0.2146  1.0759  0.9485
   20DOPE   H5S 2495   4.464   2.152   7.588 -2.5558 -0.5207  0.4510
   20DOPE   C26 2496   4.461   1.996   7.437 -0.3319 -0.4575 -0.9656
   20DOPE   H6R 2497   4.507   2.069   7.367 -2.5049  1.0792 -0.8833
   20DOPE   H6S 2498   4.352   2.012   7.422 -0.1350  1.6072 -0.4871
   20DOPE   C27 2499   4.497   1.850   7.413  0.9830  0.1377  0.0743
   20DOPE   H7R 2500   4.402   1.791   7.413 -1.6971  4.0203 -1.4471
   20DOPE   H7S 2501   4.578   1.822   7.484  0.9944  2.4140  1.0311
   20DOPE   C28 2502   4.546   1.823   7.265 -0.3089  0.0472  1.3525
   20DOPE   H8R 2503   4.589   1.723   7.246 -0.8975  0.3558 -2.3918
   20DOPE   H8S 2504   4.637   1.886   7.250  0.0579 -0.5116  1.2357
   20DOPE   C29 2505   4.453   1.867   7.157  0.4699  0.1304 -0.0370
   20DOPE   H9R 2506   4.349   1.882   7.190  0.5803  0.6975  0.0638
   20DOPE  C210 2507   4.480   1.903   7.032  0.3875  0.0418  0.3431
   20DOPE  H10R 2508   4.401   1.944   6.967  0.5851  0.5507  0.4137
   20DOPE  C211 2509   4.617   1.890   6.965  1.1953  0.3070  0.7027
   20DOPE  H11R 2510   4.683   1.839   7.038  1.3075  1.4498  1.4225
   20DOPE  H11S 2511   4.669   1.988   6.952 -0.3787  1.1815  0.7416
   20DOPE  C212 2512   4.616   1.822   6.823 -0.4429  0.3545  0.3554
   20DOPE  H12R 2513   4.564   1.888   6.751 -0.3538 -0.5074 -0.5256
   20DOPE  H12S 2514   4.564   1.724   6.815 -0.2848  0.4295 -3.0966
   20DOPE  C213 2515   4.754   1.789   6.773  0.6663 -0.3854  0.3563
   20DOPE  H13R 2516   4.800   1.706   6.830  0.8644 -1.2607 -1.0205
   20DOPE  H13S 2517   4.818   1.871   6.811 -0.2823  0.9084 -0.7262
   20DOPE  C214 2518   4.784   1.779   6.623 -0.0224  0.3434 -0.3161
   20DOPE  H14R 2519   4.894   1.789   6.617  0.2064 -0.9785  1.1487
   20DOPE  H14S 2520   4.743   1.867   6.569 -0.0819 -0.7066 -2.0689
   20DOPE  C215 2521   4.756   1.637   6.559  0.1871 -0.4865  0.1604
   20DOPE  H15R 2522   4.650   1.615   6.532 -0.0698 -0.8154  1.3710
   20DOPE  H15S 2523   4.781   1.562   6.636  2.5269 -0.3010 -0.3512
   20DOPE  C216 2524   4.844   1.609   6.439  0.0850  0.3063 -0.1453
   20DOPE  H16R 2525   4.842   1.499   6.423  0.0908  0.3712 -0.6311
   20DOPE  H16S 2526   4.950   1.627   6.468  0.4854 -1.7994 -0.1149
   20DOPE  C217 2527   4.806   1.678   6.312 -0.4971 -0.4408  0.9756
   20DOPE  H17R 2528   4.881   1.664   6.232 -2.4978 -0.7142 -0.9565
   20DOPE  H17S 2529   4.794   1.786   6.331  1.9695 -0.1035  0.9518
   20DOPE  C218 2530   4.684   1.621   6.242 -0.1669  0.1125 -0.6808
   20DOPE  H18R 2531   4.699   1.517   6.206 -2.1436  0.5080 -2.9221
   20DOPE  H18S 2532   4.638   1.692   6.170 -1.7756 -1.1465 -0.9438
   20DOPE  H18T 2533   4.607   1.605   6.321  1.2239 -2.9609  0.2173
   20DOPE   C33 2534   4.332   1.518   7.672 -0.0185  0.3595  0.5430
   20DOPE   H3X 2535   4.342   1.628   7.666  1.4059  0.1657 -1.4553
   20DOPE   H3Y 2536   4.244   1.498   7.737  0.3401  1.3455  1.3583
   20DOPE   C34 2537   4.312   1.457   7.532 -0.1183  0.5085  0.7394
   20DOPE   H4X 2538   4.293   1.347   7.535 -3.4356  0.9001 -0.7991
   20DOPE   H4Y 2539   4.222   1.498   7.481  0.3780 -1.9326 -2.4337
   20DOPE   C35 2540   4.435   1.468   7.441  0.3704  0.1516 -1.0873
   20DOPE   H5X 2541   4.525   1.420   7.485  0.3991  1.4192  0.3088
   20DOPE   H5Y 2542   4.462   1.575   7.422  0.1155  0.1982 -1.1968
   20DOPE   C36 2543   4.411   1.406   7.308  0.0218 -0.5664 -0.7723
   20DOPE   H6X 2544   4.377   1.303   7.330 -0.8648  0.1637  1.6018
   20DOPE   H6Y 2545   4.499   1.406   7.241  0.8452  0.6239  0.2662
   20DOPE   C37 2546   4.298   1.477   7.224 -0.1653 -0.4630  0.5906
   20DOPE   H7X 2547   4.198   1.447   7.261 -1.5770  1.5376 -1.3529
   20DOPE   H7Y 2548   4.308   1.587   7.216  1.1396 -0.5965  0.1935
   20DOPE   C38 2549   4.298   1.445   7.070 -0.3803 -0.4567  0.1410
   20DOPE   H8X 2550   4.203   1.492   7.034  1.2736  1.5107 -1.9928
   20DOPE   H8Y 2551   4.292   1.336   7.051 -2.2928  0.0812 -3.1869
   20DOPE   C39 2552   4.414   1.507   7.002 -0.1363  0.2853 -0.8203
   20DOPE   H9X 2553   4.419   1.616   7.013  1.0876  0.1748 -0.1467
   20DOPE  C310 2554   4.512   1.441   6.930 -0.3819 -0.2696 -0.5889
   20DOPE  H10X 2555   4.588   1.499   6.877  1.5699 -1.3461  0.9080
   20DOPE  C311 2556   4.510   1.292   6.889 -0.5420 -0.3568 -0.1435
   20DOPE  H11X 2557   4.613   1.252   6.900 -1.0376 -1.5588  0.3201
   20DOPE  H11Y 2558   4.442   1.227   6.949  1.9512 -2.7282  0.3186
   20DOPE  C312 2559   4.479   1.269   6.739  0.0922 -0.7753 -0.0849
   20DOPE  H12X 2560   4.410   1.352   6.712  0.7797 -0.0601  0.2996
   20DOPE  H12Y 2561   4.431   1.173   6.711  0.9837 -1.4053  0.4779
   20DOPE  C313 2562   4.607   1.277   6.655  0.1124 -0.2591 -0.4502
   20DOPE  H13X 2563   4.674   1.363   6.674  0.3042 -0.3028 -0.9183
   20DOPE  H13Y 2564   4.663   1.184   6.678 -1.3419 -1.2456 -0.7160
   20DOPE  C314 2565   4.569   1.288   6.501  0.1367  0.5594  0.3609
   20DOPE  H14X 2566   4.541   1.388   6.461  1.0472  0.8667  0.4688
   20DOPE  H14Y 2567   4.476   1.229   6.488  0.9581 -0.3672 -1.7513
   20DOPE  C315 2568   4.674   1.219   6.411  0.0770 -0.4664 -0.8731
   20DOPE  H15X 2569   4.714   1.136   6.472  0.6841  0.8485  0.5884
   20DOPE  H15Y 2570   4.759   1.288   6.392  0.6441 -0.8991  0.0542
   20DOPE  C316 2571   4.616   1.174   6.273 -0.1328  0.0441  0.5515
   20DOPE  H16X 2572   4.526   1.113   6.297 -0.5594 -0.2880 -1.6949
   20DOPE  H16Y 2573   4.678   1.098   6.220 -0.7882 -0.7173  0.8529
   20DOPE  C317 2574   4.553   1.279   6.176 -0.3771 -0.4108 -0.1165
   20DOPE  H17X 2575   4.523   1.367   6.238 -0.0893 -0.3459 -0.0709
   20DOPE  H17Y 2576   4.641   1.322   6.124 -0.4246  0.6228  0.6113
   20DOPE  C318 2577   4.448   1.242   6.079 -0.4509  0.1967  0.2121
   20DOPE  H18X 2578   4.371   1.193   6.143 -1.6316 -1.1500 -2.0949
   20DOPE  H18Y 2579   4.405   1.327   6.022 -0.5019  0.2743  0.3651
   20DOPE  H18Z 2580   4.475   1.173   5.996  0.0754  1.6144 -0.8287
   21DOPE     N 2581   2.387   1.815   9.057 -0.2531 -0.6663 -0.9002
   21DOPE   HN1 2582   2.473   1.873   9.056 -1.3212  1.1241  1.2393
   21DOPE   HN2 2583   2.361   1.823   8.956  2.0570  0.4157 -1.4821
   21DOPE   HN3 2584   2.313   1.866   9.110  1.9162  0.9166  0.7919
   21DOPE   C12 2585   2.414   1.670   9.086  0.2424  0.0239 -0.2938
   21DOPE  H12A 2586   2.320   1.617   9.059 -0.3629  2.1109 -2.6797
   21DOPE  H12B 2587   2.442   1.656   9.193 -0.5597  0.3483 -0.0287
   21DOPE   C11 2588   2.523   1.621   8.981  0.3306 -0.0109  0.0674
   21DOPE  H11A 2589   2.539   1.513   8.999  1.3399  0.2876  1.0604
   21DOPE  H11B 2590   2.622   1.665   9.007  2.0613 -2.3235 -2.1025
   21DOPE     P 2591   2.394   1.540   8.768 -0.0600 -0.0439 -0.1044
   21DOPE   O13 2592   2.311   1.468   8.863 -0.0648 -0.2258 -0.3173
   21DOPE   O14 2593   2.467   1.459   8.666 -0.1913  0.1967  0.0312
   21DOPE   O11 2594   2.294   1.625   8.687  0.5745 -0.0751  0.2827
   21DOPE   O12 2595   2.488   1.642   8.842 -0.0985  0.8024  0.9315
   21DOPE    C1 2596   2.299   1.636   8.542  0.3126  0.1474 -0.0744
   21DOPE    HA 2597   2.207   1.685   8.505 -0.0898 -1.2248 -0.9966
   21DOPE    HB 2598   2.288   1.542   8.483  1.2699 -0.1888  0.2611
   21DOPE    C2 2599   2.425   1.716   8.487  0.0471 -0.0079  0.3712
   21DOPE    HS 2600   2.514   1.653   8.509  0.0688  0.8114  3.0655
   21DOPE   O21 2601   2.428   1.839   8.562 -0.3948  0.3029  0.4683
   21DOPE   C21 2602   2.549   1.890   8.574 -0.3666 -0.5173 -0.3096
   21DOPE   O22 2603   2.650   1.823   8.570 -0.2893 -0.5210  0.3371
   21DOPE   C22 2604   2.553   2.040   8.595  0.1400  0.7572  0.0603
   21DOPE   H2R 2605   2.604   2.053   8.693 -0.2315 -1.1529  0.5455
   21DOPE   H2S 2606   2.454   2.090   8.598 -0.8408 -1.1113 -0.0635
   21DOPE    C3 2607   2.407   1.738   8.338 -0.3299 -0.4543  0.0735
   21DOPE    HX 2608   2.313   1.787   8.305 -0.5397 -0.5423  0.5424
   21DOPE    HY 2609   2.401   1.639   8.286  0.8829 -0.2921 -0.4126
   21DOPE   O31 2610   2.507   1.822   8.282  0.4797 -0.0717 -0.1403
   21DOPE   C31 2611   2.594   1.763   8.206  0.1413 -0.1677  0.2770
   21DOPE   O32 2612   2.590   1.652   8.157 -0.0807  0.1921 -0.1435
   21DOPE   C32 2613   2.708   1.859   8.182 -0.4672 -0.3566  0.7203
   21DOPE   H2X 2614   2.722   1.938   8.259  0.4376 -1.0938  1.3344
   21DOPE   H2Y 2615   2.801   1.798   8.180 -0.0802  0.1498  2.3650
   21DOPE   C23 2616   2.645   2.114   8.492 -0.2494 -0.4120 -0.5863
   21DOPE   H3R 2617   2.617   2.090   8.387  1.0968  0.2660 -1.1129
   21DOPE   H3S 2618   2.750   2.088   8.517 -1.1255 -2.8528  0.9419
   21DOPE   C24 2619   2.616   2.269   8.509 -0.4348  0.3998 -0.1568
   21DOPE   H4R 2620   2.633   2.305   8.613  0.8300  2.3019 -0.9570
   21DOPE   H4S 2621   2.515   2.302   8.476  0.5316  3.8175 -0.1698
   21DOPE   C25 2622   2.717   2.347   8.417 -0.6535 -0.0755  0.3856
   21DOPE   H5R 2623   2.825   2.327   8.435 -0.6592  0.4463  1.0674
   21DOPE   H5S 2624   2.699   2.457   8.420 -0.4518 -0.0521  0.9926
   21DOPE   C26 2625   2.691   2.312   8.269  0.1544  0.0592  0.5734
   21DOPE   H6R 2626   2.587   2.294   8.235  0.9456 -3.0011 -0.5784
   21DOPE   H6S 2627   2.731   2.209   8.261  0.6220 -0.2425  4.7765
   21DOPE   C27 2628   2.773   2.401   8.167 -0.2327  0.5223  0.5343
   21DOPE   H7R 2629   2.774   2.358   8.065 -1.5362  2.7500 -0.4979
   21DOPE   H7S 2630   2.881   2.396   8.194 -0.3687 -1.7991  0.8436
   21DOPE   C28 2631   2.715   2.542   8.154  0.6659  0.6671  0.2903
   21DOPE   H8R 2632   2.709   2.578   8.259 -0.5749  0.0082  0.4707
   21DOPE   H8S 2633   2.611   2.555   8.116  1.0710  1.3080 -0.6235
   21DOPE   C29 2634   2.794   2.630   8.065 -0.1296 -0.0975 -0.1438
   21DOPE   H9R 2635   2.835   2.721   8.111 -0.9721  0.8268 -1.1691
   21DOPE  C210 2636   2.808   2.609   7.931 -0.2036 -0.0064 -0.1451
   21DOPE  H10R 2637   2.864   2.680   7.869 -0.0938  1.2251  1.3079
   21DOPE  C211 2638   2.751   2.502   7.837  0.4053 -0.2564 -0.3908
   21DOPE  H11R 2639   2.672   2.449   7.894  1.6651 -0.5449  1.1514
   21DOPE  H11S 2640   2.818   2.419   7.807  1.9821  0.6959  0.4090
   21DOPE  C212 2641   2.676   2.564   7.717 -0.1274  0.2203  0.3766
   21DOPE  H12R 2642   2.631   2.662   7.744 -2.9187 -1.2376  1.5442
   21DOPE  H12S 2643   2.600   2.501   7.665  1.2607 -1.1341 -0.0715
   21DOPE  C213 2644   2.780   2.593   7.607  0.5326 -0.2712 -0.0490
   21DOPE  H13R 2645   2.857   2.514   7.622  1.0398 -0.1626 -1.8762
   21DOPE  H13S 2646   2.824   2.694   7.615 -1.1768  0.5986 -0.9173
   21DOPE  C214 2647   2.722   2.588   7.459 -0.3201  0.0288  0.4631
   21DOPE  H14R 2648   2.655   2.675   7.445 -0.9501 -0.4594  0.4135
   21DOPE  H14S 2649   2.661   2.497   7.441  1.1936 -0.6789 -1.4778
   21DOPE  C215 2650   2.831   2.595   7.353 -0.1585 -0.2358 -0.1256
   21DOPE  H15R 2651   2.891   2.504   7.375  1.2152  0.7855  0.5599
   21DOPE  H15S 2652   2.900   2.682   7.356  1.6414 -1.5765 -0.7905
   21DOPE  C216 2653   2.764   2.581   7.210 -0.3841 -0.3045 -0.2929
   21DOPE  H16R 2654   2.698   2.670   7.198  0.3173  0.3919  0.8315
   21DOPE  H16S 2655   2.704   2.487   7.212 -0.2179 -0.4049  0.0394
   21DOPE  C217 2656   2.863   2.576   7.095 -0.6181  0.3096  0.9186
   21DOPE  H17R 2657   2.930   2.489   7.115 -1.3779 -0.9822 -1.6643
   21DOPE  H17S 2658   2.923   2.668   7.106 -2.5940  2.2010 -2.5054
   21DOPE  C218 2659   2.799   2.583   6.952 -0.4018 -0.0861  0.4466
   21DOPE  H18R 2660   2.734   2.672   6.939  0.6757  0.3937 -2.3272
   21DOPE  H18S 2661   2.751   2.485   6.931  0.4586 -0.4192 -0.0384
   21DOPE  H18T 2662   2.881   2.593   6.878  0.4548 -0.2866  1.3502
   21DOPE   C33 2663   2.673   1.926   8.044 -0.3805  0.1923  0.3110
   21DOPE   H3X 2664   2.580   1.982   8.069 -0.9793 -1.7666  2.9952
   21DOPE   H3Y 2665   2.646   1.856   7.962  1.5477 -0.6192  0.3336
   21DOPE   C34 2666   2.769   2.041   8.006  0.2196  0.5202  0.0452
   21DOPE   H4X 2667   2.786   2.109   8.092  1.1241 -0.8115  0.9547
   21DOPE   H4Y 2668   2.864   1.985   7.999 -0.7818 -1.1400 -0.9777
   21DOPE   C35 2669   2.744   2.124   7.876 -0.0472  0.4326 -0.0035
   21DOPE   H5X 2670   2.819   2.206   7.884 -0.2718  0.5146  1.6486
   21DOPE   H5Y 2671   2.644   2.170   7.889  0.2363  0.8056  0.9001
   21DOPE   C36 2672   2.747   2.041   7.751  0.6130 -0.0056  0.0215
   21DOPE   H6X 2673   2.685   1.949   7.756 -0.9551  0.9375 -1.2009
   21DOPE   H6Y 2674   2.849   2.004   7.727  0.6295  1.1014 -1.8264
   21DOPE   C37 2675   2.703   2.126   7.631  0.1019  0.0280 -0.0816
   21DOPE   H7X 2676   2.759   2.222   7.635  0.5734 -0.1656 -1.3812
   21DOPE   H7Y 2677   2.742   2.075   7.540  3.7324 -0.9675  1.8139
   21DOPE   C38 2678   2.553   2.149   7.618 -0.0711 -0.2281 -0.8402
   21DOPE   H8X 2679   2.541   2.227   7.540  0.6462  0.8082  0.0562
   21DOPE   H8Y 2680   2.521   2.199   7.712  0.4920 -0.1343 -0.6930
   21DOPE   C39 2681   2.476   2.028   7.576 -0.4828  0.8138  0.2726
   21DOPE   H9X 2682   2.417   1.979   7.655  1.2032 -1.6008  0.1449
   21DOPE  C310 2683   2.470   1.978   7.450  0.6978 -0.3653 -0.3787
   21DOPE  H10X 2684   2.434   1.874   7.456  0.3237 -0.1619  1.4743
   21DOPE  C311 2685   2.555   2.013   7.334 -0.0076  1.0498 -0.1926
   21DOPE  H11X 2686   2.654   2.053   7.366 -1.0186  1.4399  2.8662
   21DOPE  H11Y 2687   2.576   1.915   7.287  2.0777  0.9142  0.8806
   21DOPE  C312 2688   2.489   2.107   7.236  0.4269 -0.3899  0.3283
   21DOPE  H12X 2689   2.472   2.204   7.289  0.0707 -1.2279  1.7981
   21DOPE  H12Y 2690   2.387   2.076   7.204  0.7499  1.1490 -2.5255
   21DOPE  C313 2691   2.577   2.156   7.117 -0.1245 -0.5321 -0.4854
   21DOPE  H13X 2692   2.668   2.209   7.150 -0.0467 -1.3005  0.5942
   21DOPE  H13Y 2693   2.617   2.068   7.061 -0.6148 -0.5672 -0.7895
   21DOPE  C314 2694   2.503   2.243   7.012 -0.3499  0.5254  0.0543
   21DOPE  H14X 2695   2.504   2.345   7.056 -0.3721  0.2717  0.6598
   21DOPE  H14Y 2696   2.395   2.218   7.008 -0.7653  2.0653  0.9176
   21DOPE  C315 2697   2.555   2.253   6.867  0.1296 -0.2125  0.4585
   21DOPE  H15X 2698   2.557   2.151   6.824 -0.3839 -0.6741  1.4953
   21DOPE  H15Y 2699   2.655   2.300   6.863 -1.1408  2.6278 -0.8839
   21DOPE  C316 2700   2.466   2.359   6.788  0.4273 -0.2076  0.3046
   21DOPE  H16X 2701   2.462   2.457   6.839 -1.1511 -0.5037  0.8077
   21DOPE  H16Y 2702   2.362   2.321   6.795 -0.6656  2.6584  0.9839
   21DOPE  C317 2703   2.513   2.378   6.644  0.5875 -0.1252  0.1889
   21DOPE  H17X 2704   2.511   2.278   6.597 -0.5593 -0.1297  0.2166
   21DOPE  H17Y 2705   2.429   2.425   6.588 -0.4861 -1.7703  0.3442
   21DOPE  C318 2706   2.640   2.453   6.621  0.3704 -0.3001 -0.5791
   21DOPE  H18X 2707   2.727   2.397   6.660  0.4428 -0.0077 -0.3141
   21DOPE  H18Y 2708   2.654   2.456   6.511 -0.3565 -0.2848 -0.6788
   21DOPE  H18Z 2709   2.634   2.561   6.647  0.9822 -0.6535  1.1334
   22DOPE     N 2710   6.525   6.170   8.519 -0.0995 -0.0127 -0.1785
   22DOPE   HN1 2711   6.538   6.067   8.530 -0.9673 -0.4803 -2.7723
   22DOPE   HN2 2712   6.613   6.214   8.552  0.9734 -1.6815 -0.7207
   22DOPE   HN3 2713   6.440   6.197   8.572  0.5299  0.2690  0.7054
   22DOPE   C12 2714   6.506   6.197   8.376 -0.3446  0.2660 -0.1501
   22DOPE  H12A 2715   6.488   6.307   8.370 -0.2000  0.5410  2.8276
   22DOPE  H12B 2716   6.408   6.151   8.351 -0.1806 -0.5687  0.6993
   22DOPE   C11 2717   6.614   6.120   8.302 -0.6935 -0.1017  0.0879
   22DOPE  H11A 2718   6.605   6.148   8.195 -0.6197  0.6314  0.2681
   22DOPE  H11B 2719   6.619   6.010   8.318  0.9618 -0.3478 -1.7852
   22DOPE     P 2720   6.876   6.087   8.312 -0.0391  0.1898 -0.4624
   22DOPE   O13 2721   6.868   5.958   8.382  0.2828 -0.4348 -0.9313
   22DOPE   O14 2722   6.986   6.179   8.346 -0.0678  0.0796  0.2404
   22DOPE   O11 2723   6.876   6.059   8.157  0.0027 -0.5455  0.1222
   22DOPE   O12 2724   6.743   6.177   8.336  1.0330  0.3637 -0.6543
   22DOPE    C1 2725   6.951   5.941   8.122 -0.1598  0.2798  0.0086
   22DOPE    HA 2726   6.908   5.903   8.026 -0.3446  0.8686 -0.1435
   22DOPE    HB 2727   6.942   5.850   8.186 -1.4455  0.3831 -0.0150
   22DOPE    C2 2728   7.095   5.975   8.103 -0.2808 -0.1475  0.0577
   22DOPE    HS 2729   7.138   5.988   8.205  1.0751  1.4531 -0.6860
   22DOPE   O21 2730   7.116   6.093   8.018 -0.0642  0.3430 -0.2034
   22DOPE   C21 2731   7.240   6.131   8.027 -0.5432  0.3524  0.1454
   22DOPE   O22 2732   7.322   6.107   8.114 -0.6578  0.2852  0.5290
   22DOPE   C22 2733   7.263   6.218   7.912  0.3513 -0.0435 -0.2636
   22DOPE   H2R 2734   7.207   6.311   7.936 -0.6011 -0.8519  0.7775
   22DOPE   H2S 2735   7.232   6.177   7.814  1.5681 -0.8115 -0.3556
   22DOPE    C3 2736   7.168   5.854   8.043 -0.0401  0.2267 -0.0722
   22DOPE    HX 2737   7.143   5.775   8.116 -0.3657  0.0681 -0.3509
   22DOPE    HY 2738   7.279   5.865   8.038  0.0727 -0.7962 -0.0254
   22DOPE   O31 2739   7.110   5.807   7.921 -0.5155  0.3734 -0.0787
   22DOPE   C31 2740   7.161   5.865   7.811 -0.4728 -0.0555  0.0452
   22DOPE   O32 2741   7.259   5.941   7.811 -0.2823 -0.0879  0.6051
   22DOPE   C32 2742   7.066   5.845   7.696  0.7062 -0.0414  0.2443
   22DOPE   H2X 2743   7.041   5.737   7.694  0.0138  0.1171  0.1369
   22DOPE   H2Y 2744   6.969   5.898   7.713 -0.7743 -2.6176  0.3610
   22DOPE   C23 2745   7.419   6.252   7.898  0.1874 -0.1741 -0.0341
   22DOPE   H3R 2746   7.472   6.154   7.893 -1.2871 -1.0846  1.0852
   22DOPE   H3S 2747   7.455   6.297   7.993  1.1887  3.2904 -1.8859
   22DOPE   C24 2748   7.451   6.362   7.796  0.3695  0.6936 -0.7623
   22DOPE   H4R 2749   7.545   6.417   7.818  0.5730  0.6574 -1.4956
   22DOPE   H4S 2750   7.365   6.433   7.791 -0.6803 -0.6277 -2.5702
   22DOPE   C25 2751   7.484   6.308   7.660  0.5708 -0.4443  0.0959
   22DOPE   H5R 2752   7.387   6.283   7.613  0.0078  0.7173  0.6036
   22DOPE   H5S 2753   7.540   6.213   7.673  0.2369 -0.7771 -0.8618
   22DOPE   C26 2754   7.551   6.409   7.567  0.0618  0.0393 -0.3647
   22DOPE   H6R 2755   7.647   6.433   7.616 -0.9176 -0.0259  1.6799
   22DOPE   H6S 2756   7.489   6.501   7.568 -1.1473 -0.7493 -0.5720
   22DOPE   C27 2757   7.561   6.359   7.419  0.0993  0.7097  1.0564
   22DOPE   H7R 2758   7.459   6.334   7.383  0.4366 -0.2057  0.6940
   22DOPE   H7S 2759   7.610   6.259   7.423 -1.3352 -0.1296 -0.7709
   22DOPE   C28 2760   7.628   6.451   7.318  0.0819  0.0373 -0.8093
   22DOPE   H8R 2761   7.657   6.380   7.238  1.3035 -0.9815  0.5010
   22DOPE   H8S 2762   7.715   6.484   7.378 -0.9949  1.8306 -0.1585
   22DOPE   C29 2763   7.549   6.563   7.268  0.4480  0.4309  0.2725
   22DOPE   H9R 2764   7.479   6.619   7.333 -1.6837  0.8659 -2.2348
   22DOPE  C210 2765   7.529   6.593   7.134 -0.3801  0.0418 -0.0479
   22DOPE  H10R 2766   7.468   6.682   7.114  1.4520  1.6017  0.9474
   22DOPE  C211 2767   7.604   6.534   7.012 -0.0082  0.1530  0.5930
   22DOPE  H11R 2768   7.592   6.424   7.018  2.4123 -0.2273 -0.4298
   22DOPE  H11S 2769   7.713   6.552   7.008 -0.0918  0.5560 -0.2172
   22DOPE  C212 2770   7.549   6.574   6.873  0.4818  0.5521  0.2417
   22DOPE  H12R 2771   7.574   6.681   6.859 -1.7181  1.0076 -0.5295
   22DOPE  H12S 2772   7.441   6.547   6.875  1.0263 -1.9280  1.3083
   22DOPE  C213 2773   7.620   6.501   6.762 -0.8812  0.7177 -0.2694
   22DOPE  H13R 2774   7.607   6.394   6.789  3.1342 -0.0204 -0.5889
   22DOPE  H13S 2775   7.727   6.526   6.782 -0.4819 -0.9279 -0.2486
   22DOPE  C214 2776   7.593   6.527   6.621 -0.3668 -0.4069 -0.1472
   22DOPE  H14R 2777   7.623   6.631   6.599 -0.6385 -0.3742 -0.3750
   22DOPE  H14S 2778   7.483   6.509   6.614 -0.8616 -0.0406  4.1169
   22DOPE  C215 2779   7.663   6.421   6.534 -0.2612  0.5377 -0.5954
   22DOPE  H15R 2780   7.622   6.321   6.560  0.5574  0.3127 -0.1226
   22DOPE  H15S 2781   7.771   6.424   6.561 -0.6972  1.0042  1.1683
   22DOPE  C216 2782   7.642   6.438   6.385  0.0720  0.2420 -0.0433
   22DOPE  H16R 2783   7.537   6.441   6.350  0.4192  3.1236 -1.1179
   22DOPE  H16S 2784   7.683   6.348   6.334 -0.8468 -0.9838  1.3183
   22DOPE  C217 2785   7.726   6.554   6.330 -0.0282 -0.5723  0.0780
   22DOPE  H17R 2786   7.833   6.537   6.353  0.7054 -1.6160 -3.5173
   22DOPE  H17S 2787   7.699   6.643   6.392  1.2114 -0.3566  0.3393
   22DOPE  C218 2788   7.701   6.595   6.187 -0.8076 -0.0425 -0.1571
   22DOPE  H18R 2789   7.746   6.528   6.111 -2.4908  0.7049 -1.9127
   22DOPE  H18S 2790   7.749   6.692   6.164  0.2531 -0.3856  0.5156
   22DOPE  H18T 2791   7.595   6.605   6.156 -0.5510  0.7264 -0.8232
   22DOPE   C33 2792   7.134   5.894   7.563  0.5659 -0.6009 -0.2812
   22DOPE   H3X 2793   7.091   5.847   7.472 -0.9620  0.1376  0.0164
   22DOPE   H3Y 2794   7.243   5.878   7.566  1.4893  3.6504 -2.9380
   22DOPE   C34 2795   7.119   6.049   7.536  0.5725 -0.5207 -0.4476
   22DOPE   H4X 2796   7.013   6.068   7.508  0.5425  0.4937  0.2763
   22DOPE   H4Y 2797   7.131   6.105   7.632 -0.8736  0.4773 -0.8128
   22DOPE   C35 2798   7.208   6.112   7.434 -0.5059  0.1324  0.3528
   22DOPE   H5X 2799   7.309   6.068   7.445 -0.5744 -0.6194 -1.5426
   22DOPE   H5Y 2800   7.220   6.221   7.444  1.4487  0.1216 -1.2140
   22DOPE   C36 2801   7.153   6.096   7.286 -0.2430 -0.1945 -0.0324
   22DOPE   H6X 2802   7.090   6.184   7.262 -2.4478 -1.7295 -0.1752
   22DOPE   H6Y 2803   7.090   6.005   7.281 -2.0496  1.0496 -1.1806
   22DOPE   C37 2804   7.274   6.079   7.191  0.2764  0.5941  0.2979
   22DOPE   H7X 2805   7.336   6.169   7.212  0.2295  0.4654  0.9925
   22DOPE   H7Y 2806   7.322   5.981   7.212  0.2087  0.3062 -0.8118
   22DOPE   C38 2807   7.232   6.069   7.040 -0.1189  0.6335 -0.2839
   22DOPE   H8X 2808   7.168   5.979   7.037 -0.1318  0.6500 -0.5521
   22DOPE   H8Y 2809   7.321   6.041   6.980 -1.3266 -3.0232 -0.5680
   22DOPE   C39 2810   7.161   6.201   6.994 -0.1508 -0.0513  0.7304
   22DOPE   H9X 2811   7.080   6.240   7.057  0.2401  1.1826  0.5026
   22DOPE  C310 2812   7.181   6.283   6.883 -0.2263 -0.7612  0.4197
   22DOPE  H10X 2813   7.129   6.378   6.869 -1.2275 -1.6238 -2.3566
   22DOPE  C311 2814   7.294   6.266   6.778  0.1914  0.5113  0.4976
   22DOPE  H11X 2815   7.337   6.364   6.747  1.9103 -0.3423  0.0816
   22DOPE  H11Y 2816   7.386   6.208   6.801  0.4095  0.4278 -0.5285
   22DOPE  C312 2817   7.240   6.195   6.649 -0.7183  0.1213  0.0043
   22DOPE  H12X 2818   7.143   6.238   6.616 -2.3388 -3.3290 -0.2090
   22DOPE  H12Y 2819   7.213   6.092   6.681  0.0599  0.2423  1.1032
   22DOPE  C313 2820   7.342   6.207   6.536 -0.0363 -0.0663 -0.2699
   22DOPE  H13X 2821   7.317   6.290   6.466  2.7196 -0.4975 -1.8831
   22DOPE  H13Y 2822   7.444   6.227   6.574 -0.1281  0.6676 -0.3805
   22DOPE  C314 2823   7.356   6.090   6.441  0.1544  0.3647 -0.8340
   22DOPE  H14X 2824   7.267   6.085   6.375 -0.8311  1.5473  0.3711
   22DOPE  H14Y 2825   7.353   5.999   6.504 -3.3292  1.5631  0.9793
   22DOPE  C315 2826   7.479   6.103   6.345 -0.0047  0.2717  0.2790
   22DOPE  H15X 2827   7.571   6.107   6.407 -0.5857  2.4242  1.0806
   22DOPE  H15Y 2828   7.490   6.197   6.287  2.7578 -1.3821 -2.2072
   22DOPE  C316 2829   7.489   5.989   6.248  0.7171 -0.5572  0.5363
   22DOPE  H16X 2830   7.385   5.963   6.218  0.9494 -0.1103 -0.7562
   22DOPE  H16Y 2831   7.525   5.900   6.303  2.1684 -1.2950 -1.4610
   22DOPE  C317 2832   7.570   6.021   6.117 -0.5695  0.0743 -0.2445
   22DOPE  H17X 2833   7.567   5.929   6.055  0.5560 -1.0482  1.2957
   22DOPE  H17Y 2834   7.528   6.110   6.066  0.5786  1.8945  1.8558
   22DOPE  C318 2835   7.722   6.045   6.133  0.5067 -0.6596  0.0448
   22DOPE  H18X 2836   7.780   5.957   6.168  3.7681  0.8342 -1.1743
   22DOPE  H18Y 2837   7.759   6.067   6.031  0.1560 -0.1513  0.0229
   22DOPE  H18Z 2838   7.743   6.138   6.190  1.5723 -0.3275 -0.8466
   23DOPE     N 2839   3.210   2.304   9.084 -0.5463  0.1756  0.4844
   23DOPE   HN1 2840   3.255   2.215   9.113 -0.0494 -0.1427 -1.1352
   23DOPE   HN2 2841   3.260   2.381   9.134  0.1854 -0.5604  0.9064
   23DOPE   HN3 2842   3.111   2.304   9.116 -0.8231 -0.3667 -0.3280
   23DOPE   C12 2843   3.207   2.313   8.937 -0.0477  0.2582  0.1729
   23DOPE  H12A 2844   3.186   2.418   8.908 -1.1320  0.6810  2.3151
   23DOPE  H12B 2845   3.125   2.252   8.894 -0.8815  1.7727 -0.4754
   23DOPE   C11 2846   3.353   2.282   8.897  0.2241  0.0780 -0.5196
   23DOPE  H11A 2847   3.364   2.297   8.788 -1.9355  2.3322 -0.5137
   23DOPE  H11B 2848   3.383   2.178   8.922  1.2972  0.6571  0.7468
   23DOPE     P 2849   3.593   2.358   8.974 -0.1795 -0.0852 -0.4196
   23DOPE   O13 2850   3.624   2.250   9.066  0.0837  0.4451  0.2522
   23DOPE   O14 2851   3.637   2.489   9.011  0.2251  0.1840  0.1251
   23DOPE   O11 2852   3.649   2.318   8.836 -0.3065  0.4529 -1.0555
   23DOPE   O12 2853   3.439   2.377   8.955 -0.0268 -0.1451  0.5036
   23DOPE    C1 2854   3.644   2.416   8.728  0.8729 -0.0741 -0.0299
   23DOPE    HA 2855   3.666   2.522   8.753 -1.7219  0.3791  0.5808
   23DOPE    HB 2856   3.538   2.426   8.697  0.6074 -1.2855  0.4199
   23DOPE    C2 2857   3.733   2.372   8.610 -0.0038 -0.2480 -0.2340
   23DOPE    HS 2858   3.835   2.349   8.650  1.1431 -1.1621 -3.4125
   23DOPE   O21 2859   3.733   2.481   8.515  0.1228  0.0830  0.4680
   23DOPE   C21 2860   3.831   2.487   8.430 -0.1504 -0.2970  0.1317
   23DOPE   O22 2861   3.931   2.416   8.437  0.0829  0.1885 -0.2891
   23DOPE   C22 2862   3.815   2.613   8.336 -0.3154  0.1981 -0.6818
   23DOPE   H2R 2863   3.808   2.709   8.391  0.0776  1.0072 -2.0076
   23DOPE   H2S 2864   3.714   2.595   8.292 -2.0501  2.1693  2.1715
   23DOPE    C3 2865   3.664   2.244   8.550  0.2837  0.7469  0.2089
   23DOPE    HX 2866   3.554   2.248   8.543  0.3097  0.3908 -0.5261
   23DOPE    HY 2867   3.679   2.170   8.631  3.1611  1.1087  0.1150
   23DOPE   O31 2868   3.727   2.188   8.430  0.2620 -0.0692  0.3436
   23DOPE   C31 2869   3.657   2.200   8.318  0.6242  0.0574 -0.1311
   23DOPE   O32 2870   3.552   2.262   8.306 -0.1051 -0.4110 -0.0332
   23DOPE   C32 2871   3.719   2.108   8.210  0.1285 -0.6492  1.2428
   23DOPE   H2X 2872   3.820   2.078   8.246  0.1296 -0.5007  1.3625
   23DOPE   H2Y 2873   3.649   2.027   8.181 -1.5297  1.2195 -0.3144
   23DOPE   C23 2874   3.927   2.622   8.237  0.0778 -0.6006  0.2982
   23DOPE   H3R 2875   3.944   2.530   8.177  2.5489 -1.2868  1.8825
   23DOPE   H3S 2876   4.021   2.639   8.294  1.1565 -2.5112 -0.8275
   23DOPE   C24 2877   3.882   2.725   8.133  0.9681 -0.7495  0.3186
   23DOPE   H4R 2878   3.964   2.764   8.069 -0.7251  1.2269 -0.7367
   23DOPE   H4S 2879   3.843   2.818   8.180  3.3465  0.0965  0.7697
   23DOPE   C25 2880   3.776   2.666   8.027  0.3239 -0.4554 -0.7751
   23DOPE   H5R 2881   3.673   2.690   8.063  0.9378  0.0166  0.7609
   23DOPE   H5S 2882   3.773   2.555   8.024 -0.4546 -0.5393  1.3490
   23DOPE   C26 2883   3.802   2.713   7.885  0.4172 -0.4315  0.5166
   23DOPE   H6R 2884   3.831   2.821   7.883 -1.7733  0.2588 -3.2122
   23DOPE   H6S 2885   3.706   2.702   7.831  0.1200 -1.7290  1.2726
   23DOPE   C27 2886   3.905   2.625   7.804  0.4605  0.3706 -0.4724
   23DOPE   H7R 2887   3.879   2.517   7.812  0.4774  0.4912  1.5957
   23DOPE   H7S 2888   4.001   2.637   7.858  0.7059 -0.3687 -0.7336
   23DOPE   C28 2889   3.922   2.679   7.660  0.1864 -0.1737  0.0256
   23DOPE   H8R 2890   4.011   2.644   7.605  0.5350  3.3151 -1.9518
   23DOPE   H8S 2891   3.940   2.788   7.675  1.3554 -0.5577  1.7526
   23DOPE   C29 2892   3.806   2.672   7.567 -0.0897 -0.3211  0.1098
   23DOPE   H9R 2893   3.717   2.705   7.622 -0.4748  0.8283 -1.1488
   23DOPE  C210 2894   3.800   2.635   7.436 -0.3737 -0.3567 -0.0666
   23DOPE  H10R 2895   3.702   2.620   7.389 -1.2708 -0.7592  1.8187
   23DOPE  C211 2896   3.909   2.607   7.346 -0.7480  0.1192 -0.3802
   23DOPE  H11R 2897   3.912   2.497   7.332  0.1629  0.4438 -3.8007
   23DOPE  H11S 2898   4.011   2.634   7.381  0.7665 -2.2519 -2.5733
   23DOPE  C212 2899   3.890   2.677   7.209  0.2706 -0.4775  0.6019
   23DOPE  H12R 2900   3.931   2.778   7.232 -0.8210 -0.3946  2.4575
   23DOPE  H12S 2901   3.784   2.686   7.178  0.6200 -0.7875 -0.7523
   23DOPE  C213 2902   3.973   2.622   7.090  1.0282  0.1989 -0.1171
   23DOPE  H13R 2903   3.947   2.514   7.083 -1.4322  0.7563 -0.6833
   23DOPE  H13S 2904   4.077   2.647   7.119  0.6407  0.7851  0.8128
   23DOPE  C214 2905   3.926   2.670   6.957 -0.1274  0.0009 -0.3894
   23DOPE  H14R 2906   4.015   2.673   6.891  0.0639  0.3984 -0.1215
   23DOPE  H14S 2907   3.878   2.771   6.960  0.0191  0.1806 -2.5678
   23DOPE  C215 2908   3.828   2.571   6.887 -0.0244  0.2395 -0.2547
   23DOPE  H15R 2909   3.741   2.542   6.950  0.2529  0.7885  0.3914
   23DOPE  H15S 2910   3.877   2.473   6.866  0.8467  0.1323  2.0187
   23DOPE  C216 2911   3.767   2.630   6.759 -0.3048 -0.0833  0.0508
   23DOPE  H16R 2912   3.843   2.651   6.681  0.0379 -1.4963 -0.0326
   23DOPE  H16S 2913   3.727   2.729   6.791  0.9391 -0.0342  1.5599
   23DOPE  C217 2914   3.674   2.524   6.703  0.4820  1.1025  0.2428
   23DOPE  H17R 2915   3.597   2.511   6.782  0.6842  0.8042  0.3917
   23DOPE  H17S 2916   3.723   2.426   6.686 -1.3755 -0.0499  1.2351
   23DOPE  C218 2917   3.598   2.563   6.577  0.4395  0.5129 -0.0683
   23DOPE  H18R 2918   3.662   2.561   6.486  2.2089 -2.1224  1.0856
   23DOPE  H18S 2919   3.566   2.669   6.582  1.0141  0.6265  1.6971
   23DOPE  H18T 2920   3.516   2.492   6.552  1.9004 -2.3253  2.5534
   23DOPE   C33 2921   3.736   2.193   8.076 -0.2498 -0.3218 -0.1004
   23DOPE   H3X 2922   3.815   2.146   8.014 -1.3410 -1.5503 -0.5946
   23DOPE   H3Y 2923   3.769   2.298   8.096  0.1226 -0.4629  0.0336
   23DOPE   C34 2924   3.620   2.196   7.983 -0.2971  0.1272  0.0661
   23DOPE   H4X 2925   3.597   2.092   7.952 -0.9554  0.7365 -1.5589
   23DOPE   H4Y 2926   3.538   2.252   8.033 -0.1514  0.4224 -0.0258
   23DOPE   C35 2927   3.651   2.271   7.848 -0.2154  0.5577 -0.3974
   23DOPE   H5X 2928   3.762   2.263   7.843 -0.2359 -0.7480  0.5839
   23DOPE   H5Y 2929   3.641   2.380   7.868  0.0079  0.5522 -0.2571
   23DOPE   C36 2930   3.581   2.206   7.729  0.4199 -0.4984 -0.3276
   23DOPE   H6X 2931   3.471   2.190   7.741  0.2103  0.2338 -1.1970
   23DOPE   H6Y 2932   3.621   2.106   7.699 -0.6671 -0.9090 -0.4742
   23DOPE   C37 2933   3.575   2.296   7.609 -0.1978 -1.1621 -0.2368
   23DOPE   H7X 2934   3.486   2.361   7.623 -0.7688 -2.0688  0.5097
   23DOPE   H7Y 2935   3.666   2.360   7.607 -0.6498 -0.5054 -0.1559
   23DOPE   C38 2936   3.563   2.219   7.474 -0.1403 -0.1594 -0.3864
   23DOPE   H8X 2937   3.490   2.136   7.483 -1.2220  0.8684  0.6772
   23DOPE   H8Y 2938   3.668   2.186   7.460  0.2322  0.7115  0.2642
   23DOPE   C39 2939   3.532   2.322   7.367 -0.1610  1.3438 -0.5998
   23DOPE   H9X 2940   3.432   2.367   7.379 -0.6140 -0.2705  2.8565
   23DOPE  C310 2941   3.612   2.339   7.256 -0.5943  0.2448  0.0737
   23DOPE  H10X 2942   3.573   2.417   7.190 -0.3943  0.6194  0.3944
   23DOPE  C311 2943   3.740   2.277   7.227 -0.1747  0.0384  0.2364
   23DOPE  H11X 2944   3.809   2.346   7.174  0.4057  0.2996  1.3115
   23DOPE  H11Y 2945   3.796   2.245   7.317  1.6647 -0.9535 -1.1760
   23DOPE  C312 2946   3.738   2.147   7.131  0.1542 -0.1170  0.0747
   23DOPE  H12X 2947   3.655   2.079   7.158 -0.6119  0.3182 -1.1063
   23DOPE  H12Y 2948   3.826   2.082   7.148  0.4662  0.4883  0.8700
   23DOPE  C313 2949   3.729   2.184   6.981 -1.5893  0.6468 -0.8213
   23DOPE  H13X 2950   3.623   2.216   6.965 -0.8658  3.5318 -0.4010
   23DOPE  H13Y 2951   3.792   2.274   6.966  0.1254 -0.3830 -0.0080
   23DOPE  C314 2952   3.757   2.076   6.879  0.3056 -0.3851  0.1483
   23DOPE  H14X 2953   3.678   1.998   6.891 -0.2310  0.2994  1.1993
   23DOPE  H14Y 2954   3.856   2.032   6.902  0.6701  0.5390  0.3883
   23DOPE  C315 2955   3.747   2.135   6.738 -0.5895 -0.0363  0.0275
   23DOPE  H15X 2956   3.812   2.224   6.749 -1.2080  0.3733  0.3809
   23DOPE  H15Y 2957   3.645   2.177   6.726  0.0787  1.7522  0.3138
   23DOPE  C316 2958   3.803   2.046   6.622 -0.3953 -0.5680 -0.2029
   23DOPE  H16X 2959   3.730   2.059   6.539 -0.9600  0.4272  0.4276
   23DOPE  H16Y 2960   3.795   1.936   6.636  1.1439 -1.1185 -3.0312
   23DOPE  C317 2961   3.944   2.080   6.582  0.4929 -0.1771  0.6153
   23DOPE  H17X 2962   3.962   2.189   6.597  0.5640 -0.1873  0.6056
   23DOPE  H17Y 2963   4.009   2.037   6.662  3.2151  1.0729 -0.7700
   23DOPE  C318 2964   3.995   2.032   6.443 -0.1699 -1.0504  0.5077
   23DOPE  H18X 2965   3.934   2.074   6.360  1.8234  0.1894 -0.3875
   23DOPE  H18Y 2966   4.100   2.065   6.428  0.0408 -1.9418 -0.0899
   23DOPE  H18Z 2967   3.991   1.921   6.435  0.4060 -1.1269  1.2185
   24DOPE     N 2968   5.793   6.380   8.498  0.4224 -0.1075 -0.4150
   24DOPE   HN1 2969   5.739   6.315   8.437  0.9179 -0.4028 -0.5533
   24DOPE   HN2 2970   5.826   6.320   8.576 -1.8553 -2.2510 -0.9752
   24DOPE   HN3 2971   5.722   6.445   8.537  0.6953 -0.5341  0.8249
   24DOPE   C12 2972   5.911   6.451   8.433 -0.2735  0.4417  0.0109
   24DOPE  H12A 2973   5.877   6.484   8.332  1.1937  1.2720 -0.2518
   24DOPE  H12B 2974   5.989   6.375   8.410 -0.2121  0.7370 -0.8029
   24DOPE   C11 2975   5.969   6.559   8.526  0.6985  0.3769 -0.0934
   24DOPE  H11A 2976   6.062   6.595   8.476 -0.4055  1.3248 -1.5625
   24DOPE  H11B 2977   5.991   6.505   8.620 -0.4012 -1.7927 -1.0080
   24DOPE     P 2978   5.844   6.777   8.433 -0.6167  0.7860  0.1140
   24DOPE   O13 2979   5.938   6.887   8.437  0.6035  0.1716 -0.3846
   24DOPE   O14 2980   5.699   6.791   8.445 -0.1691  0.3097  0.1550
   24DOPE   O11 2981   5.887   6.695   8.301 -0.7223  0.2444 -1.0546
   24DOPE   O12 2982   5.875   6.666   8.544 -0.0117 -0.1850 -0.6222
   24DOPE    C1 2983   5.881   6.760   8.174 -0.5671 -0.4181 -0.9595
   24DOPE    HA 2984   5.975   6.749   8.115 -1.2111  2.7810 -2.8381
   24DOPE    HB 2985   5.873   6.871   8.186  1.2352 -0.4242  0.8035
   24DOPE    C2 2986   5.755   6.729   8.097 -0.1566 -0.3908  0.2454
   24DOPE    HS 2987   5.665   6.757   8.157 -0.6985 -0.1982 -0.6458
   24DOPE   O21 2988   5.747   6.591   8.062 -0.1701 -0.2013 -0.1725
   24DOPE   C21 2989   5.648   6.511   8.124 -0.3931 -0.0533 -0.2080
   24DOPE   O22 2990   5.566   6.554   8.201  0.4704 -0.4499 -0.2744
   24DOPE   C22 2991   5.645   6.370   8.072  0.1894 -0.0471 -0.2031
   24DOPE   H2R 2992   5.632   6.303   8.160  1.1070  0.5315  0.3955
   24DOPE   H2S 2993   5.745   6.344   8.032  0.7657 -1.9841  2.2381
   24DOPE    C3 2994   5.748   6.820   7.966 -0.1003  0.1332 -0.1029
   24DOPE    HX 2995   5.840   6.802   7.907 -1.1455 -1.1698 -1.4220
   24DOPE    HY 2996   5.736   6.926   7.998  0.4398  0.3475 -0.5894
   24DOPE   O31 2997   5.635   6.769   7.883  0.6436  0.7163  0.0353
   24DOPE   C31 2998   5.518   6.825   7.893 -0.3323  0.2192 -0.1536
   24DOPE   O32 2999   5.498   6.932   7.946 -0.2524 -0.2746  0.1827
   24DOPE   C32 3000   5.420   6.747   7.814  0.2019  0.1556  0.0281
   24DOPE   H2X 3001   5.453   6.645   7.843  2.9787  1.0956  0.4880
   24DOPE   H2Y 3002   5.319   6.768   7.856 -0.1203  0.6631 -0.9592
   24DOPE   C23 3003   5.519   6.337   7.981 -0.3955  0.7769 -0.1214
   24DOPE   H3R 3004   5.432   6.394   8.018 -0.3197  2.2544 -2.1297
   24DOPE   H3S 3005   5.495   6.232   8.009  0.1143  0.4395 -0.9114
   24DOPE   C24 3006   5.534   6.340   7.835 -0.0274  0.6211  0.0615
   24DOPE   H4R 3007   5.546   6.447   7.806  1.0110 -0.0897 -2.3798
   24DOPE   H4S 3008   5.451   6.296   7.775  1.6230 -1.8518 -0.5388
   24DOPE   C25 3009   5.664   6.272   7.792  0.0847 -0.4338  0.1542
   24DOPE   H5R 3010   5.669   6.186   7.861  2.1024 -1.2758 -0.9494
   24DOPE   H5S 3011   5.755   6.334   7.809 -0.1878 -0.5440  2.3026
   24DOPE   C26 3012   5.658   6.212   7.646 -0.1682  0.3473 -0.1998
   24DOPE   H6R 3013   5.634   6.293   7.573  1.9309 -0.2855 -1.7043
   24DOPE   H6S 3014   5.579   6.135   7.646 -0.8985  1.0732  0.4106
   24DOPE   C27 3015   5.789   6.143   7.599 -0.0301 -0.9180 -0.4350
   24DOPE   H7R 3016   5.824   6.063   7.669  2.9169  1.2047  0.7173
   24DOPE   H7S 3017   5.866   6.223   7.609  0.0941 -1.1830  0.9111
   24DOPE   C28 3018   5.792   6.096   7.451  0.6406 -0.2700  0.4263
   24DOPE   H8R 3019   5.899   6.071   7.435  0.2759 -0.9842 -1.0245
   24DOPE   H8S 3020   5.774   6.194   7.401 -2.2508 -0.5714  0.6875
   24DOPE   C29 3021   5.702   5.980   7.419 -0.1131 -0.2263 -0.5855
   24DOPE   H9R 3022   5.738   5.891   7.473 -0.4625  0.1015  0.2130
   24DOPE  C210 3023   5.598   5.971   7.339 -0.1989  0.3284 -0.7154
   24DOPE  H10R 3024   5.537   5.879   7.349  0.2169  0.1225  0.0579
   24DOPE  C211 3025   5.531   6.081   7.261 -0.0504  0.2295  0.3077
   24DOPE  H11R 3026   5.564   6.178   7.303  1.6191 -0.0140 -0.3629
   24DOPE  H11S 3027   5.421   6.079   7.275 -0.1364 -1.0813 -0.4173
   24DOPE  C212 3028   5.583   6.077   7.116  0.1619 -0.2245  0.5137
   24DOPE  H12R 3029   5.555   5.983   7.063  0.5155 -0.4229  0.6765
   24DOPE  H12S 3030   5.693   6.090   7.110  0.0174  0.3680 -1.7488
   24DOPE  C213 3031   5.514   6.188   7.039 -0.3577  0.5693  0.5345
   24DOPE  H13R 3032   5.527   6.283   7.095 -0.6242 -0.1177  1.7841
   24DOPE  H13S 3033   5.406   6.164   7.039 -0.9251  2.8304  1.8462
   24DOPE  C214 3034   5.566   6.195   6.890  0.8813 -0.1633  0.0912
   24DOPE  H14R 3035   5.675   6.217   6.890  0.8866 -0.0339 -1.5226
   24DOPE  H14S 3036   5.497   6.270   6.845  0.5542  0.3157  1.3623
   24DOPE  C215 3037   5.550   6.068   6.803  0.3253 -0.2274  0.0625
   24DOPE  H15R 3038   5.445   6.032   6.805  0.0757  0.5306  1.0214
   24DOPE  H15S 3039   5.613   5.980   6.831 -1.2612 -0.7357  2.3387
   24DOPE  C216 3040   5.569   6.100   6.652 -0.0431  0.3459 -0.5630
   24DOPE  H16R 3041   5.677   6.128   6.644 -0.1439  1.6751  1.6325
   24DOPE  H16S 3042   5.508   6.187   6.620  1.5044  1.3979 -0.7758
   24DOPE  C217 3043   5.533   5.988   6.548  0.2146 -0.3131 -0.5486
   24DOPE  H17R 3044   5.530   6.022   6.443  1.2968  0.2747 -0.4057
   24DOPE  H17S 3045   5.428   5.964   6.575 -0.5252  1.0282 -2.0713
   24DOPE  C218 3046   5.613   5.863   6.553  0.4124 -0.5460  0.1805
   24DOPE  H18R 3047   5.568   5.780   6.493  0.5198 -1.0616  0.8109
   24DOPE  H18S 3048   5.625   5.822   6.655 -0.7691  1.0388  0.9938
   24DOPE  H18T 3049   5.717   5.877   6.516  0.8859 -1.7506  0.9787
   24DOPE   C33 3050   5.431   6.764   7.659 -0.7840 -0.3081 -0.3232
   24DOPE   H3X 3051   5.371   6.685   7.608  0.0468 -0.8202 -0.5399
   24DOPE   H3Y 3052   5.539   6.766   7.633 -0.3363  2.1053  1.3595
   24DOPE   C34 3053   5.366   6.886   7.605  0.7267 -0.7243  0.0786
   24DOPE   H4X 3054   5.260   6.873   7.636  0.8275  0.7262  1.0893
   24DOPE   H4Y 3055   5.403   6.973   7.662  1.1189  0.1365 -1.4242
   24DOPE   C35 3056   5.392   6.925   7.460 -0.6345  0.2874  0.0809
   24DOPE   H5X 3057   5.492   6.972   7.447 -0.8948  0.0108 -4.7225
   24DOPE   H5Y 3058   5.320   7.007   7.437  1.8138  2.7871  0.8149
   24DOPE   C36 3059   5.377   6.808   7.360 -0.0817 -0.3423  0.1077
   24DOPE   H6X 3060   5.270   6.780   7.344  0.1892 -0.9958 -0.5742
   24DOPE   H6Y 3061   5.433   6.720   7.397  1.6560  0.6439 -0.0657
   24DOPE   C37 3062   5.429   6.835   7.219  0.2788 -0.4596 -0.2179
   24DOPE   H7X 3063   5.537   6.862   7.220  0.2306 -0.2369 -0.8300
   24DOPE   H7Y 3064   5.428   6.744   7.156 -0.5976 -1.0006  0.5453
   24DOPE   C38 3065   5.356   6.955   7.153 -0.0685  0.6790  0.7069
   24DOPE   H8X 3066   5.425   6.993   7.074  0.6854 -0.3858  0.8182
   24DOPE   H8Y 3067   5.339   7.035   7.228 -1.6183 -0.1310  1.2718
   24DOPE   C39 3068   5.213   6.922   7.108 -0.3589  0.1329 -0.5023
   24DOPE   H9X 3069   5.152   6.885   7.192  0.4254  1.8877  0.9129
   24DOPE  C310 3070   5.169   6.920   6.982  0.4198 -0.2033 -0.1111
   24DOPE  H10X 3071   5.064   6.890   6.969  0.5761 -1.2928  0.9861
   24DOPE  C311 3072   5.245   6.939   6.854 -0.6055 -0.4420  0.7279
   24DOPE  H11X 3073   5.177   6.990   6.783  0.1975 -1.2309 -0.6542
   24DOPE  H11Y 3074   5.334   7.005   6.858 -1.0501  0.1530  0.8221
   24DOPE  C312 3075   5.302   6.807   6.789 -1.1161  1.2149  0.3774
   24DOPE  H12X 3076   5.279   6.822   6.681  0.4469 -1.1123 -0.3629
   24DOPE  H12Y 3077   5.241   6.718   6.816 -1.7576  0.8324 -2.0992
   24DOPE  C313 3078   5.452   6.789   6.813 -0.2055  1.0248  0.0833
   24DOPE  H13X 3079   5.518   6.854   6.750  1.8987 -0.2663  0.8526
   24DOPE  H13Y 3080   5.481   6.813   6.917 -1.6349 -1.0146  0.9950
   24DOPE  C314 3081   5.500   6.645   6.789 -0.4947 -0.1117  0.1979
   24DOPE  H14X 3082   5.437   6.573   6.846  0.4860  1.7500  3.9654
   24DOPE  H14Y 3083   5.602   6.637   6.834 -0.6414 -0.5565  0.4578
   24DOPE  C315 3084   5.515   6.615   6.640  0.3381 -0.4096  0.0233
   24DOPE  H15X 3085   5.556   6.698   6.579  1.2467 -2.0440 -1.6773
   24DOPE  H15Y 3086   5.413   6.596   6.599  0.1220 -0.8703  0.7331
   24DOPE  C316 3087   5.590   6.488   6.607  0.4344  0.9114  0.3455
   24DOPE  H16X 3088   5.555   6.410   6.677 -1.2191  0.5145 -0.8750
   24DOPE  H16Y 3089   5.697   6.501   6.634  0.6944  1.6545 -0.9338
   24DOPE  C317 3090   5.590   6.453   6.455  1.3541  0.1265 -1.0506
   24DOPE  H17X 3091   5.637   6.542   6.408  0.2511  0.6994 -1.0882
   24DOPE  H17Y 3092   5.654   6.363   6.440  1.9589  0.3520  0.0557
   24DOPE  C318 3093   5.450   6.413   6.403 -0.4082 -0.3703 -0.6809
   24DOPE  H18X 3094   5.415   6.317   6.445 -0.1850  0.0265  0.4339
   24DOPE  H18Y 3095   5.368   6.487   6.416 -1.4820 -1.6637  0.0622
   24DOPE  H18Z 3096   5.458   6.395   6.293 -0.1828 -0.8026 -0.5955
   25DOPE     N 3097   6.193   0.168   8.407 -0.5960 -0.0014 -0.4003
   25DOPE   HN1 3098   6.227   0.265   8.422 -0.9489 -0.3486  4.1829
   25DOPE   HN2 3099   6.089   0.174   8.414 -0.4535  4.7690  1.1903
   25DOPE   HN3 3100   6.219   0.121   8.496 -3.3928 -0.6881  0.1569
   25DOPE   C12 3101   6.231   0.101   8.277 -0.5515  0.9763 -0.1375
   25DOPE  H12A 3102   6.167   0.154   8.203 -0.9663  1.4602  0.5652
   25DOPE  H12B 3103   6.202  -0.007   8.282  0.3749  0.7741  1.1721
   25DOPE   C11 3104   6.387   0.120   8.274  0.2141 -0.3734 -1.0759
   25DOPE  H11A 3105   6.404   0.230   8.273  0.9600 -0.4860 -1.0248
   25DOPE  H11B 3106   6.428   0.075   8.181  0.8342 -0.1053 -0.9368
   25DOPE     P 3107   6.497  -0.082   8.394 -0.4772 -0.0582 -0.1920
   25DOPE   O13 3108   6.380  -0.166   8.388 -0.0576 -0.0749  0.8785
   25DOPE   O14 3109   6.588  -0.103   8.509  0.5221  0.0263 -0.2632
   25DOPE   O11 3110   6.579  -0.103   8.265 -0.2394  0.4924 -0.0798
   25DOPE   O12 3111   6.454   0.064   8.390 -0.0836 -0.1149 -0.0108
   25DOPE    C1 3112   6.706  -0.062   8.235  0.1226  0.1917  0.4145
   25DOPE    HA 3113   6.776  -0.070   8.320  0.9463  0.1386 -0.2541
   25DOPE    HB 3114   6.707   0.043   8.198  0.7488  0.1935  0.4195
   25DOPE    C2 3115   6.752  -0.153   8.116  0.7364 -0.5390 -0.3812
   25DOPE    HS 3116   6.857  -0.120   8.098  1.0052  0.9444  3.2122
   25DOPE   O21 3117   6.671  -0.135   7.996  0.1545  0.0012 -0.4144
   25DOPE   C21 3118   6.703  -0.029   7.933 -0.0026 -0.0681  0.0054
   25DOPE   O22 3119   6.770   0.069   7.971 -0.8123 -0.5973  0.8975
   25DOPE   C22 3120   6.644  -0.037   7.788  0.6531 -0.4710 -0.5425
   25DOPE   H2R 3121   6.537  -0.010   7.796  0.9708  1.0868 -1.0992
   25DOPE   H2S 3122   6.661  -0.136   7.741  0.5490  0.1448 -1.9288
   25DOPE    C3 3123   6.757  -0.303   8.166  0.3207 -0.6426 -0.4027
   25DOPE    HX 3124   6.664  -0.325   8.221  1.6193 -0.4465  2.0034
   25DOPE    HY 3125   6.840  -0.318   8.239  1.2597  1.9474 -0.8244
   25DOPE   O31 3126   6.764  -0.393   8.061 -0.1972  0.1977  0.5939
   25DOPE   C31 3127   6.885  -0.399   8.003 -0.2761 -0.0294  0.4602
   25DOPE   O32 3128   6.987  -0.343   8.049  0.2573 -0.5276  0.5780
   25DOPE   C32 3129   6.877  -0.469   7.865  0.3247 -0.1634 -0.2042
   25DOPE   H2X 3130   6.974  -0.445   7.817  0.1472  2.9328  0.7865
   25DOPE   H2Y 3131   6.876  -0.579   7.884 -0.7370  0.4126  4.2712
   25DOPE   C23 3132   6.707   0.065   7.687 -0.2748 -0.1117 -0.2999
   25DOPE   H3R 3133   6.815   0.044   7.670 -0.5602 -0.7809 -1.3445
   25DOPE   H3S 3134   6.695   0.172   7.716 -1.5305 -0.3714  0.2265
   25DOPE   C24 3135   6.646   0.048   7.549  0.3468  0.0308 -1.0500
   25DOPE   H4R 3136   6.535   0.058   7.550  0.1430 -1.9354  0.3058
   25DOPE   H4S 3137   6.668  -0.053   7.509  2.2661  0.5492 -1.4049
   25DOPE   C25 3138   6.708   0.146   7.453  0.0038  0.0707  0.1057
   25DOPE   H5R 3139   6.818   0.147   7.467  0.0005  1.0599  0.1150
   25DOPE   H5S 3140   6.676   0.249   7.480  0.4583 -0.4746  3.1647
   25DOPE   C26 3141   6.664   0.112   7.311  0.5480  0.0242  0.5576
   25DOPE   H6R 3142   6.711   0.015   7.283  1.2342  0.3772  0.4473
   25DOPE   H6S 3143   6.710   0.177   7.233  0.3569 -0.9741 -0.4176
   25DOPE   C27 3144   6.511   0.113   7.292 -0.5448 -0.2266  0.2810
   25DOPE   H7R 3145   6.469   0.200   7.349  1.9182  0.2090  1.5522
   25DOPE   H7S 3146   6.473   0.019   7.338  1.3612 -0.9928  0.3702
   25DOPE   C28 3147   6.470   0.133   7.142 -0.4311  0.5107  0.0256
   25DOPE   H8R 3148   6.477   0.030   7.102 -0.0117  1.2005 -1.8231
   25DOPE   H8S 3149   6.551   0.198   7.100  0.9497 -0.1320  1.5882
   25DOPE   C29 3150   6.340   0.188   7.103  0.3141  0.1394  0.5177
   25DOPE   H9R 3151   6.293   0.256   7.174  1.2999 -0.3290  1.6495
   25DOPE  C210 3152   6.281   0.145   6.989 -0.4237 -0.2728  0.7498
   25DOPE  H10R 3153   6.183   0.181   6.955 -0.5254  1.0603  2.3475
   25DOPE  C211 3154   6.340   0.050   6.889 -0.3166  0.5513 -0.7445
   25DOPE  H11R 3155   6.349  -0.051   6.935 -1.7785 -0.4831 -2.5897
   25DOPE  H11S 3156   6.437   0.080   6.844  0.3133 -1.3655 -0.7795
   25DOPE  C212 3157   6.249   0.035   6.768  0.5561  0.3173  0.2483
   25DOPE  H12R 3158   6.223   0.134   6.724 -0.2050 -0.2922 -0.7155
   25DOPE  H12S 3159   6.147  -0.005   6.787  0.4450  0.4020 -0.1454
   25DOPE  C213 3160   6.316  -0.055   6.646 -0.0049 -0.6643  0.2184
   25DOPE  H13R 3161   6.335  -0.162   6.670 -1.1223 -0.8332  0.4232
   25DOPE  H13S 3162   6.412  -0.001   6.635  0.8082 -1.6787  1.8918
   25DOPE  C214 3163   6.236  -0.034   6.521 -0.2749  0.1217  0.3343
   25DOPE  H14R 3164   6.231   0.072   6.490  0.1221  0.1144  0.2346
   25DOPE  H14S 3165   6.134  -0.075   6.539  0.8342 -3.0135  0.2019
   25DOPE  C215 3166   6.295  -0.119   6.400 -0.8484 -0.4998  1.0231
   25DOPE  H15R 3167   6.273  -0.224   6.430 -1.0876 -0.8047 -0.1390
   25DOPE  H15S 3168   6.404  -0.108   6.387 -1.2116  0.6167 -1.6533
   25DOPE  C216 3169   6.233  -0.071   6.268 -0.2913  0.2656  0.4315
   25DOPE  H16R 3170   6.270  -0.125   6.179  2.5661  1.7426  0.6101
   25DOPE  H16S 3171   6.256   0.035   6.244  1.3191 -0.0043  0.6847
   25DOPE  C217 3172   6.075  -0.084   6.251 -0.6076 -0.2909 -1.2199
   25DOPE  H17R 3173   6.024  -0.035   6.336  0.6728 -0.4924 -0.3056
   25DOPE  H17S 3174   6.059  -0.194   6.254  0.7633 -0.5090 -1.1371
   25DOPE  C218 3175   6.017  -0.034   6.119  0.1127  0.3078 -0.1456
   25DOPE  H18R 3176   6.079  -0.082   6.040  0.1195 -0.9820  0.6232
   25DOPE  H18S 3177   6.027   0.076   6.106  1.2843  0.0529 -1.6725
   25DOPE  H18T 3178   5.917  -0.073   6.091  0.7945 -1.3752 -0.3660
   25DOPE   C33 3179   6.747  -0.424   7.793 -0.0788  0.2786 -1.0922
   25DOPE   H3X 3180   6.735  -0.314   7.804  0.5499  0.3916 -1.4608
   25DOPE   H3Y 3181   6.657  -0.464   7.845  0.2964  1.3141  0.4317
   25DOPE   C34 3182   6.747  -0.450   7.651  1.6554  0.5438 -0.3969
   25DOPE   H4X 3183   6.752  -0.558   7.626  0.5550 -0.0993  1.8746
   25DOPE   H4Y 3184   6.652  -0.403   7.618  0.6174 -0.9028  0.4547
   25DOPE   C35 3185   6.864  -0.370   7.581  0.1306  0.6144 -0.2009
   25DOPE   H5X 3186   6.961  -0.415   7.613 -0.5507 -1.2498 -0.6324
   25DOPE   H5Y 3187   6.866  -0.266   7.618  0.9675  0.3860  0.4292
   25DOPE   C36 3188   6.851  -0.393   7.429 -0.5862 -0.1688 -1.0457
   25DOPE   H6X 3189   6.856  -0.501   7.406 -1.7057 -0.6641  0.8591
   25DOPE   H6Y 3190   6.942  -0.347   7.383 -0.7860  0.6075 -0.6862
   25DOPE   C37 3191   6.727  -0.325   7.371 -0.3988  0.5705  0.3003
   25DOPE   H7X 3192   6.637  -0.380   7.407  0.6031 -0.9881  0.4843
   25DOPE   H7Y 3193   6.734  -0.221   7.410 -0.8961  1.2510 -1.3285
   25DOPE   C38 3194   6.723  -0.330   7.213 -0.0902  0.5641 -0.3169
   25DOPE   H8X 3195   6.722  -0.438   7.186 -0.9821  0.0264  1.6079
   25DOPE   H8Y 3196   6.821  -0.291   7.177 -0.3685 -1.4712 -3.5959
   25DOPE   C39 3197   6.610  -0.261   7.149 -0.6042 -0.6184  0.5215
   25DOPE   H9X 3198   6.539  -0.206   7.211 -2.0403  0.0387 -1.5830
   25DOPE  C310 3199   6.602  -0.252   7.012  0.5197  0.7543 -0.4594
   25DOPE  H10X 3200   6.522  -0.188   6.972 -2.1481 -1.5826  0.8268
   25DOPE  C311 3201   6.684  -0.332   6.911 -0.4342  0.4802 -0.5176
   25DOPE  H11X 3202   6.783  -0.365   6.950 -0.4464 -0.1621 -1.0227
   25DOPE  H11Y 3203   6.630  -0.424   6.882 -1.8072  1.3924 -0.9226
   25DOPE  C312 3204   6.727  -0.253   6.787 -0.5449  0.3453 -0.9421
   25DOPE  H12X 3205   6.781  -0.159   6.808  1.2407 -1.0345  1.0781
   25DOPE  H12Y 3206   6.631  -0.219   6.742 -0.6962  1.7823  0.3816
   25DOPE  C313 3207   6.811  -0.335   6.685 -0.2462 -0.1755 -0.1721
   25DOPE  H13X 3208   6.907  -0.366   6.733 -1.1146  1.3870  2.8823
   25DOPE  H13Y 3209   6.757  -0.424   6.648  1.1128  0.0444 -2.9250
   25DOPE  C314 3210   6.851  -0.241   6.565  0.4190  0.2804  0.1245
   25DOPE  H14X 3211   6.907  -0.151   6.600  0.8546 -0.3776  1.1507
   25DOPE  H14Y 3212   6.754  -0.208   6.524 -1.5941 -2.9533  1.9064
   25DOPE  C315 3213   6.929  -0.306   6.451 -0.3657  0.8791 -0.6187
   25DOPE  H15X 3214   6.876  -0.395   6.411 -1.2521  0.8665  0.5146
   25DOPE  H15Y 3215   7.026  -0.338   6.493  0.1497  3.3848  0.3035
   25DOPE  C316 3216   6.958  -0.216   6.332  0.1879 -0.7796 -0.5076
   25DOPE  H16X 3217   6.998  -0.124   6.381  0.7741 -0.5576 -1.3773
   25DOPE  H16Y 3218   6.873  -0.178   6.272  1.1260  2.0347 -0.2128
   25DOPE  C317 3219   7.078  -0.267   6.249 -0.6217 -0.2198 -0.1565
   25DOPE  H17X 3220   7.118  -0.172   6.208 -1.1144 -0.0073 -0.1577
   25DOPE  H17Y 3221   7.150  -0.312   6.320 -0.6815 -3.1289 -1.8006
   25DOPE  C318 3222   7.056  -0.358   6.125 -0.0914 -0.4166  0.5150
   25DOPE  H18X 3223   7.029  -0.298   6.036  2.3070  1.2914  0.8518
   25DOPE  H18Y 3224   7.148  -0.415   6.098 -0.8196 -0.5650 -1.8238
   25DOPE  H18Z 3225   6.973  -0.429   6.145 -1.3750  0.6422 -0.8640
   26DOPE     N 3226   0.179   1.172   8.868 -0.1652 -0.5163  0.1338
   26DOPE   HN1 3227   0.119   1.150   8.786 -0.5438 -0.4006  0.3798
   26DOPE   HN2 3228   0.146   1.269   8.886  0.2126 -0.3989  0.2168
   26DOPE   HN3 3229   0.276   1.165   8.830  0.0469  3.3117 -0.4281
   26DOPE   C12 3230   0.148   1.091   8.990 -0.7218  0.3036  0.8749
   26DOPE  H12A 3231   0.048   1.117   9.029 -0.0471  0.9349  2.2260
   26DOPE  H12B 3232   0.231   1.115   9.060  0.6862  0.8776 -0.8892
   26DOPE   C11 3233   0.163   0.940   8.966  0.1324 -0.0682 -0.6294
   26DOPE  H11A 3234   0.125   0.894   9.059  1.2418  0.9270  0.3487
   26DOPE  H11B 3235   0.273   0.923   8.958 -0.2132 -2.8728 -0.3743
   26DOPE     P 3236   0.092   0.748   8.808  0.0079  0.4623 -0.2532
   26DOPE   O13 3237  -0.043   0.718   8.763  0.3013 -0.0448  0.2394
   26DOPE   O14 3238   0.150   0.660   8.918 -0.6766  0.3187  0.2611
   26DOPE   O11 3239   0.180   0.751   8.685 -0.5287  0.0498 -0.8603
   26DOPE   O12 3240   0.093   0.901   8.849  0.3620  0.1968 -0.1496
   26DOPE    C1 3241   0.235   0.870   8.630 -0.0113 -0.3875  0.9778
   26DOPE    HA 3242   0.326   0.900   8.687  2.9717 -3.4042 -1.7128
   26DOPE    HB 3243   0.161   0.952   8.615  2.1553  1.8731  1.9386
   26DOPE    C2 3244   0.281   0.849   8.484  0.0308  0.0740 -0.4165
   26DOPE    HS 3245   0.188   0.823   8.429 -2.0997  2.5907  1.7528
   26DOPE   O21 3246   0.370   0.731   8.491 -0.4414 -0.2778 -0.4778
   26DOPE   C21 3247   0.356   0.643   8.391 -0.2683  0.1578 -0.2926
   26DOPE   O22 3248   0.267   0.638   8.307  0.1961  0.2949  0.1293
   26DOPE   C22 3249   0.474   0.546   8.407  0.4550  0.2445  0.0378
   26DOPE   H2R 3250   0.465   0.451   8.350 -1.5650  0.0940  0.5477
   26DOPE   H2S 3251   0.464   0.509   8.512 -2.6648 -0.8457 -0.5491
   26DOPE    C3 3252   0.354   0.975   8.433 -0.2047  0.1264 -0.0465
   26DOPE    HX 3253   0.429   1.013   8.506 -2.0194 -0.7333  2.4059
   26DOPE    HY 3254   0.279   1.057   8.424  0.9306  1.1284 -0.7458
   26DOPE   O31 3255   0.417   0.943   8.309 -0.0630  0.3576  0.1156
   26DOPE   C31 3256   0.329   0.950   8.201  0.1098  0.1835 -0.9590
   26DOPE   O32 3257   0.212   0.976   8.212  0.5413  0.1911 -0.2274
   26DOPE   C32 3258   0.405   0.946   8.068  0.1119 -1.2982 -0.1773
   26DOPE   H2X 3259   0.429   1.051   8.042 -2.4509 -1.0811 -2.0683
   26DOPE   H2Y 3260   0.492   0.882   8.095  0.8986  0.5080  1.8631
   26DOPE   C23 3261   0.619   0.608   8.390  0.5425  0.5957  1.0808
   26DOPE   H3R 3262   0.685   0.525   8.422  0.7553  0.4069  0.1883
   26DOPE   H3S 3263   0.635   0.690   8.464 -2.0663  1.9960  0.2170
   26DOPE   C24 3264   0.643   0.652   8.245  0.2853  0.4596  0.0554
   26DOPE   H4R 3265   0.576   0.739   8.230  1.3515  1.5382  1.2723
   26DOPE   H4S 3266   0.604   0.573   8.178 -1.3334 -0.0226  1.4879
   26DOPE   C25 3267   0.796   0.688   8.208  0.5867 -0.1516  0.3192
   26DOPE   H5R 3268   0.854   0.594   8.223 -0.5745 -1.2764 -1.8209
   26DOPE   H5S 3269   0.840   0.762   8.278  0.2435 -0.4078  0.8145
   26DOPE   C26 3270   0.804   0.731   8.065  0.4568 -1.0458  0.1788
   26DOPE   H6R 3271   0.903   0.778   8.046 -0.2498  0.1476 -0.6738
   26DOPE   H6S 3272   0.738   0.819   8.059  2.9218  0.8588 -0.9152
   26DOPE   C27 3273   0.774   0.624   7.957  0.2907  0.0385  0.9994
   26DOPE   H7R 3274   0.668   0.592   7.965 -0.6195  1.5138 -3.0854
   26DOPE   H7S 3275   0.840   0.534   7.957  0.8491  0.4362 -0.3166
   26DOPE   C28 3276   0.784   0.687   7.813  0.7957 -0.3340 -0.0035
   26DOPE   H8R 3277   0.881   0.738   7.793 -0.1627  0.7219 -2.3228
   26DOPE   H8S 3278   0.699   0.758   7.817  0.6616 -0.3333 -1.8847
   26DOPE   C29 3279   0.746   0.586   7.700 -0.6508  0.5009  0.4053
   26DOPE   H9R 3280   0.713   0.488   7.738  0.2286  0.8948  2.3265
   26DOPE  C210 3281   0.758   0.606   7.567 -0.5656 -0.6586  0.7691
   26DOPE  H10R 3282   0.736   0.527   7.494  1.8169  0.3211 -1.1263
   26DOPE  C211 3283   0.809   0.730   7.501 -0.1176  0.0984  0.9890
   26DOPE  H11R 3284   0.909   0.757   7.541  0.0733  0.3888  0.3309
   26DOPE  H11S 3285   0.738   0.814   7.517 -1.9973 -0.8023 -1.9034
   26DOPE  C212 3286   0.810   0.726   7.349  0.1723 -0.4493  0.5349
   26DOPE  H12R 3287   0.885   0.651   7.316 -0.9460 -1.6985  0.7657
   26DOPE  H12S 3288   0.834   0.829   7.314 -1.6013 -0.3367 -0.4879
   26DOPE  C213 3289   0.672   0.707   7.283 -0.3394 -0.0510 -0.0292
   26DOPE  H13R 3290   0.584   0.756   7.330 -0.3475  0.1157 -0.2207
   26DOPE  H13S 3291   0.657   0.598   7.301  2.3814 -0.5322 -0.2298
   26DOPE  C214 3292   0.670   0.742   7.129 -0.1630 -1.0255  0.5226
   26DOPE  H14R 3293   0.773   0.720   7.092  0.3553  0.6496  0.8359
   26DOPE  H14S 3294   0.653   0.851   7.111 -0.2728 -1.0584  0.4323
   26DOPE  C215 3295   0.571   0.659   7.051  0.7434  0.0840 -0.3298
   26DOPE  H15R 3296   0.468   0.696   7.071  0.6426 -0.7639  0.8518
   26DOPE  H15S 3297   0.588   0.551   7.070 -0.9539  0.1596  2.0972
   26DOPE  C216 3298   0.589   0.650   6.900 -0.3541  0.0111  0.3440
   26DOPE  H16R 3299   0.694   0.629   6.869 -0.3885  0.1819  0.1095
   26DOPE  H16S 3300   0.566   0.753   6.866  0.6831 -0.2062 -1.1029
   26DOPE  C217 3301   0.499   0.553   6.827  0.0531  0.6729 -0.5994
   26DOPE  H17R 3302   0.392   0.578   6.846 -0.0222 -0.4481  0.5398
   26DOPE  H17S 3303   0.521   0.458   6.880 -1.1937  0.7069  0.0075
   26DOPE  C218 3304   0.526   0.537   6.674  0.2071 -0.6955 -0.0405
   26DOPE  H18R 3305   0.502   0.621   6.605  1.1459 -2.2240 -2.3508
   26DOPE  H18S 3306   0.460   0.454   6.642 -1.0350  0.1545  0.2366
   26DOPE  H18T 3307   0.630   0.508   6.649  0.1177  1.4466 -3.5324
   26DOPE   C33 3308   0.312   0.897   7.955  0.0145 -0.7709  0.1302
   26DOPE   H3X 3309   0.223   0.963   7.945  0.4214 -0.4380 -1.5133
   26DOPE   H3Y 3310   0.283   0.793   7.982  0.1214 -1.0019 -0.6417
   26DOPE   C34 3311   0.388   0.887   7.824 -0.5551  0.2780 -0.5350
   26DOPE   H4X 3312   0.434   0.984   7.796  0.0202 -0.6523 -3.1497
   26DOPE   H4Y 3313   0.468   0.814   7.849  0.0232 -0.1795 -3.3709
   26DOPE   C35 3314   0.299   0.863   7.700  0.3518  0.0909 -0.1127
   26DOPE   H5X 3315   0.373   0.852   7.617  0.4788  0.4791 -0.0510
   26DOPE   H5Y 3316   0.242   0.956   7.680 -1.1072 -0.1421  2.5922
   26DOPE   C36 3317   0.203   0.737   7.693  0.7694  0.2038  0.7252
   26DOPE   H6X 3318   0.129   0.748   7.775  2.0649  1.8745  1.7278
   26DOPE   H6Y 3319   0.264   0.644   7.696  1.1258  0.4519  1.4179
   26DOPE   C37 3320   0.121   0.742   7.562  0.2100 -0.0332 -0.2162
   26DOPE   H7X 3321   0.052   0.656   7.564 -1.1285  0.9912 -0.7970
   26DOPE   H7Y 3322   0.042   0.820   7.555 -1.2357 -1.5188 -1.3673
   26DOPE   C38 3323   0.208   0.733   7.433  0.2358  0.0392 -0.0746
   26DOPE   H8X 3324   0.301   0.685   7.469 -0.6912 -1.5213  0.3347
   26DOPE   H8Y 3325   0.217   0.840   7.404 -1.6321 -0.1692 -1.6095
   26DOPE   C39 3326   0.147   0.657   7.312  0.0362 -0.0288  0.0457
   26DOPE   H9X 3327   0.137   0.549   7.327  0.9880 -0.5370 -2.4030
   26DOPE  C310 3328   0.118   0.710   7.192 -0.5222  0.2137  0.0010
   26DOPE  H10X 3329   0.074   0.647   7.113 -1.9463  1.4008 -0.2067
   26DOPE  C311 3330   0.129   0.851   7.145 -0.2081 -0.4816  0.0872
   26DOPE  H11X 3331   0.211   0.906   7.197 -0.1401 -2.0440  1.7285
   26DOPE  H11Y 3332   0.163   0.833   7.041  0.0652 -3.2417  0.5777
   26DOPE  C312 3333   0.006   0.942   7.144  0.2016  0.0914 -0.5084
   26DOPE  H12X 3334  -0.082   0.898   7.094  0.7094 -0.1688 -1.1869
   26DOPE  H12Y 3335   0.033   1.043   7.104 -1.5153  1.5112  1.6678
   26DOPE  C313 3336  -0.037   0.982   7.283  0.6104 -0.4589 -0.6263
   26DOPE  H13X 3337  -0.007   0.917   7.368 -0.8779  2.6951  2.6256
   26DOPE  H13Y 3338   0.022   1.072   7.315  0.7347 -0.5475 -0.6032
   26DOPE  C314 3339  -0.186   1.003   7.299  0.0868 -0.1804 -0.1023
   26DOPE  H14X 3340  -0.247   0.922   7.253  0.3364  0.1139 -0.9603
   26DOPE  H14Y 3341  -0.217   1.094   7.244 -1.4288 -0.6054 -0.0081
   26DOPE  C315 3342  -0.217   1.021   7.447  1.0246  0.0418 -0.6027
   26DOPE  H15X 3343  -0.178   1.121   7.476 -1.5502  0.6691  1.0603
   26DOPE  H15Y 3344  -0.178   0.947   7.520 -2.7316  0.0042  1.6208
   26DOPE  C316 3345  -0.374   1.031   7.472 -0.6627  0.2644 -0.3668
   26DOPE  H16X 3346  -0.426   0.940   7.434  0.9949  0.7346 -4.3007
   26DOPE  H16Y 3347  -0.414   1.116   7.412  0.0097 -0.8163 -2.4619
   26DOPE  C317 3348  -0.406   1.054   7.618  0.0405  0.9024  0.4806
   26DOPE  H17X 3349  -0.368   1.154   7.647 -1.0087  1.1761  0.9319
   26DOPE  H17Y 3350  -0.517   1.060   7.616 -0.0366 -0.1376  1.0120
   26DOPE  C318 3351  -0.348   0.957   7.721  0.2976  0.2653  0.7496
   26DOPE  H18X 3352  -0.357   0.993   7.825  2.7361  1.4605  0.6296
   26DOPE  H18Y 3353  -0.390   0.854   7.715  1.6387 -0.2729  0.1506
   26DOPE  H18Z 3354  -0.238   0.954   7.703  0.2434 -0.4901  0.4901
   27DOPE     N 3355   4.672   6.675   8.615 -0.1821 -0.4295 -0.2910
   27DOPE   HN1 3356   4.712   6.663   8.520 -0.9668 -0.7687 -0.5929
   27DOPE   HN2 3357   4.642   6.585   8.657 -0.8997  0.1352  0.4458
   27DOPE   HN3 3358   4.587   6.735   8.622 -0.8039 -1.2477 -0.6691
   27DOPE   C12 3359   4.782   6.742   8.697 -0.2111  0.6428 -0.2929
   27DOPE  H12A 3360   4.805   6.674   8.782 -0.2250 -2.1905 -2.4037
   27DOPE  H12B 3361   4.750   6.839   8.741 -0.9587  0.4287 -0.3445
   27DOPE   C11 3362   4.910   6.749   8.605  0.3063  0.5762 -0.2505
   27DOPE  H11A 3363   4.935   6.650   8.563  2.0793  1.2972 -1.0063
   27DOPE  H11B 3364   4.989   6.781   8.676 -0.4459  0.4558  0.6647
   27DOPE     P 3365   4.970   6.956   8.457  0.3453  0.1176 -0.4402
   27DOPE   O13 3366   5.106   6.904   8.481 -0.2081 -1.0229  0.4762
   27DOPE   O14 3367   4.936   7.087   8.519  0.2582  0.3305  0.3609
   27DOPE   O11 3368   4.945   6.964   8.304 -0.2282  0.2199 -0.0577
   27DOPE   O12 3369   4.869   6.840   8.501  0.2652  0.5416 -0.2004
   27DOPE    C1 3370   4.959   6.846   8.219 -0.3564  0.2344 -0.5499
   27DOPE    HA 3371   4.865   6.787   8.211 -0.7569  0.8230 -0.2311
   27DOPE    HB 3372   5.016   6.766   8.271 -1.3817  0.8230  1.6073
   27DOPE    C2 3373   5.023   6.881   8.083 -0.1543 -0.2784  0.4128
   27DOPE    HS 3374   5.133   6.883   8.100 -0.2781  0.3743  1.2156
   27DOPE   O21 3375   4.971   7.004   8.033 -0.1924 -0.1582  0.4336
   27DOPE   C21 3376   5.031   7.111   8.081 -0.0889 -0.3762  0.4680
   27DOPE   O22 3377   5.141   7.113   8.132  0.0447  0.3330  0.3666
   27DOPE   C22 3378   4.948   7.236   8.052  0.0128 -0.5694  0.5891
   27DOPE   H2R 3379   4.961   7.300   8.142 -1.9286  0.5928  0.1160
   27DOPE   H2S 3380   4.843   7.202   8.036 -0.3827 -0.1449  2.1350
   27DOPE    C3 3381   4.993   6.766   7.981  0.4852 -0.6164 -0.2682
   27DOPE    HX 3382   4.899   6.723   8.024  0.5522 -0.3327  0.1712
   27DOPE    HY 3383   5.065   6.682   7.992  1.1309 -0.2115 -1.2836
   27DOPE   O31 3384   4.996   6.809   7.846  0.0350  0.1839 -0.5265
   27DOPE   C31 3385   4.890   6.880   7.796  0.3041  1.2965 -0.2374
   27DOPE   O32 3386   4.786   6.902   7.854  0.3774 -0.6996 -0.3057
   27DOPE   C32 3387   4.922   6.925   7.662 -1.2512  0.3279  0.9706
   27DOPE   H2X 3388   4.916   7.036   7.662  0.6328  0.5951 -2.8991
   27DOPE   H2Y 3389   5.026   6.910   7.627 -1.7449 -0.8720 -0.0545
   27DOPE   C23 3390   4.994   7.322   7.930 -1.1952 -0.7992  0.1469
   27DOPE   H3R 3391   5.099   7.355   7.941 -0.7499 -0.5915 -3.5202
   27DOPE   H3S 3392   4.944   7.421   7.936  0.9094  0.2976  5.3175
   27DOPE   C24 3393   4.991   7.269   7.782  0.0682  0.4687 -0.2233
   27DOPE   H4R 3394   4.894   7.222   7.754 -0.1412  0.5380  0.3776
   27DOPE   H4S 3395   5.060   7.182   7.779  0.8757  1.1117 -0.7011
   27DOPE   C25 3396   5.023   7.379   7.676 -0.3991  0.0832  0.3323
   27DOPE   H5R 3397   5.124   7.415   7.706 -0.9572  1.2822  0.8376
   27DOPE   H5S 3398   4.955   7.465   7.694 -2.7601 -0.8846 -2.9539
   27DOPE   C26 3399   5.017   7.328   7.537  0.1655 -0.2195  0.5787
   27DOPE   H6R 3400   4.916   7.308   7.497  0.5786 -0.7888 -0.2177
   27DOPE   H6S 3401   5.055   7.224   7.544 -1.8144 -1.0275  0.0452
   27DOPE   C27 3402   5.098   7.416   7.435  0.2893  0.2245  0.3011
   27DOPE   H7R 3403   5.203   7.420   7.472  0.5171 -2.3926  0.0741
   27DOPE   H7S 3404   5.067   7.522   7.423 -0.8514  0.0125  1.0788
   27DOPE   C28 3405   5.088   7.350   7.300 -0.7849 -0.2745  0.0047
   27DOPE   H8R 3406   4.983   7.367   7.266  0.2119 -0.6281 -3.7713
   27DOPE   H8S 3407   5.109   7.241   7.299 -0.4400 -0.2099 -0.4691
   27DOPE   C29 3408   5.187   7.404   7.198 -0.2761  0.8240  0.0524
   27DOPE   H9R 3409   5.294   7.392   7.221 -0.5822 -3.0979  0.0345
   27DOPE  C210 3410   5.155   7.435   7.072  0.3117 -0.1424 -1.0147
   27DOPE  H10R 3411   5.237   7.470   7.008 -1.0087  1.7120 -1.7688
   27DOPE  C211 3412   5.020   7.422   6.999 -0.6186 -0.1053 -0.4610
   27DOPE  H11R 3413   4.955   7.512   7.000 -0.1024  0.2730  0.2248
   27DOPE  H11S 3414   4.960   7.339   7.043  1.3727 -0.1744  2.4927
   27DOPE  C212 3415   5.030   7.395   6.844 -0.3942  0.2665  0.2215
   27DOPE  H12R 3416   4.927   7.404   6.804  0.4007  0.5488 -1.8536
   27DOPE  H12S 3417   5.068   7.295   6.816 -0.2820  0.4194 -0.1766
   27DOPE  C213 3418   5.127   7.500   6.770  0.4464  0.5625 -0.6282
   27DOPE  H13R 3419   5.223   7.449   6.749 -0.3539 -0.9794 -0.7311
   27DOPE  H13S 3420   5.149   7.588   6.834 -1.1809  0.5889 -0.0410
   27DOPE  C214 3421   5.067   7.543   6.635  0.2100 -0.0073 -0.0576
   27DOPE  H14R 3422   5.117   7.635   6.598  0.7438  0.9674  2.8853
   27DOPE  H14S 3423   4.960   7.571   6.649  0.0306 -0.8412  0.2260
   27DOPE  C215 3424   5.076   7.428   6.538 -0.1919 -0.3329 -0.7381
   27DOPE  H15R 3425   5.035   7.332   6.574  1.9731 -1.6236 -1.5819
   27DOPE  H15S 3426   5.179   7.435   6.497  0.0584  1.8769  0.1161
   27DOPE  C216 3427   4.979   7.456   6.423 -0.3064  0.1134  0.7590
   27DOPE  H16R 3428   5.015   7.547   6.370  1.6118 -1.0490 -0.0213
   27DOPE  H16S 3429   4.874   7.457   6.461 -0.7004 -0.7713 -0.2840
   27DOPE  C217 3430   4.983   7.343   6.321  0.0652  0.4232  0.1117
   27DOPE  H17R 3431   4.946   7.248   6.365  2.2100 -0.3434  0.3508
   27DOPE  H17S 3432   5.087   7.335   6.284  0.0065  0.4812 -0.0661
   27DOPE  C218 3433   4.908   7.367   6.192 -0.4748 -0.2077 -0.1502
   27DOPE  H18R 3434   4.899   7.277   6.127  0.0665 -1.3328  1.2808
   27DOPE  H18S 3435   4.979   7.438   6.144  0.5289  0.1484  1.7660
   27DOPE  H18T 3436   4.806   7.406   6.208  0.1598  2.5221 -2.0871
   27DOPE   C33 3437   4.817   6.895   7.550  0.1894 -0.2264  0.4504
   27DOPE   H3X 3438   4.715   6.887   7.595  1.1291 -0.5630  2.6578
   27DOPE   H3Y 3439   4.831   6.803   7.490  0.8607  1.5343 -2.2582
   27DOPE   C34 3440   4.805   7.006   7.445 -1.1591 -0.6986  0.3659
   27DOPE   H4X 3441   4.707   7.003   7.392 -0.7662  4.0135 -1.0395
   27DOPE   H4Y 3442   4.810   7.106   7.493 -0.9505 -1.1038  1.1955
   27DOPE   C35 3443   4.921   6.996   7.341  0.2471 -0.0635  0.6955
   27DOPE   H5X 3444   4.928   6.889   7.312  2.5866 -0.2421  1.7215
   27DOPE   H5Y 3445   5.020   7.027   7.379  0.9739  0.4078 -1.4438
   27DOPE   C36 3446   4.895   7.075   7.203 -0.7233  0.5166  0.3211
   27DOPE   H6X 3447   4.995   7.080   7.154 -1.2247  3.5684 -0.6365
   27DOPE   H6Y 3448   4.872   7.179   7.236 -2.8204 -0.6015  2.6493
   27DOPE   C37 3449   4.798   7.008   7.107 -0.1391 -0.4878  0.5133
   27DOPE   H7X 3450   4.819   6.901   7.086 -2.0712 -0.3454 -2.7668
   27DOPE   H7Y 3451   4.704   7.014   7.166 -0.0085 -1.1848  0.8096
   27DOPE   C38 3452   4.802   7.075   6.973 -0.0777  0.2589 -0.2896
   27DOPE   H8X 3453   4.904   7.067   6.931 -0.1456 -2.3691 -0.1113
   27DOPE   H8Y 3454   4.768   7.181   6.973  0.2223  0.3565 -0.3938
   27DOPE   C39 3455   4.708   7.004   6.876  0.7046 -0.3038 -0.3802
   27DOPE   H9X 3456   4.608   6.992   6.922 -0.0361  0.3955 -1.7325
   27DOPE  C310 3457   4.725   6.980   6.749 -0.2864  0.1716  0.4013
   27DOPE  H10X 3458   4.646   6.928   6.693  0.3304 -1.2845  0.8610
   27DOPE  C311 3459   4.837   7.037   6.670  0.0802 -0.5165 -0.2932
   27DOPE  H11X 3460   4.806   7.137   6.632  0.1775 -0.5392 -0.4329
   27DOPE  H11Y 3461   4.927   7.048   6.735 -0.3168  0.6763  0.0942
   27DOPE  C312 3462   4.887   6.969   6.539  0.0114  0.0404 -0.1024
   27DOPE  H12X 3463   4.928   6.875   6.580 -0.1254 -0.4409 -1.0439
   27DOPE  H12Y 3464   4.964   7.034   6.491 -0.4925  0.6604 -0.0895
   27DOPE  C313 3465   4.783   6.934   6.436  0.0914 -0.9392  0.1165
   27DOPE  H13X 3466   4.706   6.872   6.486  1.3562 -1.5332  1.4213
   27DOPE  H13Y 3467   4.734   7.030   6.409  2.5877  0.3136 -0.3219
   27DOPE  C314 3468   4.845   6.863   6.318  0.2000 -0.0684  0.1308
   27DOPE  H14X 3469   4.878   6.766   6.361 -0.8601  0.1017  1.3980
   27DOPE  H14Y 3470   4.933   6.919   6.280  0.1173  0.1118  0.2023
   27DOPE  C315 3471   4.750   6.845   6.203 -0.2711  0.3568  0.6358
   27DOPE  H15X 3472   4.696   6.940   6.180  0.8163  0.7944 -0.2374
   27DOPE  H15Y 3473   4.675   6.774   6.245  1.6621 -0.4295  2.9750
   27DOPE  C316 3474   4.804   6.779   6.073  0.3878 -0.2419 -0.1886
   27DOPE  H16X 3475   4.855   6.684   6.098  0.0219  0.4174  3.7372
   27DOPE  H16Y 3476   4.868   6.853   6.019  0.7078 -1.1906 -1.1550
   27DOPE  C317 3477   4.681   6.763   5.972 -0.0079  0.2147 -0.3228
   27DOPE  H17X 3478   4.626   6.859   5.966 -2.4949 -1.1084 -0.0347
   27DOPE  H17Y 3479   4.736   6.746   5.877  2.1957  0.1778  0.8847
   27DOPE  C318 3480   4.583   6.646   5.999 -0.4855  0.8982 -0.2946
   27DOPE  H18X 3481   4.636   6.556   6.038  2.9244  2.4271 -1.0165
   27DOPE  H18Y 3482   4.513   6.673   6.081  0.7332  1.1001  0.7115
   27DOPE  H18Z 3483   4.536   6.619   5.902 -0.3221  1.3859 -0.5127
   28DOPE     N 3484   5.325   0.340   8.326  0.2790 -0.1322 -0.3290
   28DOPE   HN1 3485   5.412   0.304   8.282  0.1005 -0.4436 -0.4330
   28DOPE   HN2 3486   5.254   0.270   8.357 -0.7222  0.3793 -1.3647
   28DOPE   HN3 3487   5.280   0.390   8.246 -3.6165 -2.3082  0.2494
   28DOPE   C12 3488   5.349   0.434   8.434  0.7954 -0.0441 -0.2074
   28DOPE  H12A 3489   5.425   0.394   8.505  0.6408  2.0950  1.2788
   28DOPE  H12B 3490   5.254   0.445   8.491  0.1616 -2.3981 -0.7111
   28DOPE   C11 3491   5.397   0.565   8.374 -0.8274 -0.2955  0.1016
   28DOPE  H11A 3492   5.499   0.546   8.335 -0.2056 -1.6868  2.2155
   28DOPE  H11B 3493   5.409   0.632   8.462 -0.3312  0.2237 -0.3536
   28DOPE     P 3494   5.275   0.764   8.241  0.2084 -0.1108  0.1738
   28DOPE   O13 3495   5.394   0.835   8.292 -0.0320 -0.0591  0.1134
   28DOPE   O14 3496   5.147   0.799   8.302 -0.3361  0.2415  0.0989
   28DOPE   O11 3497   5.270   0.763   8.085  0.2107 -0.2229  0.0834
   28DOPE   O12 3498   5.307   0.612   8.275  0.7532  0.0598  0.0789
   28DOPE    C1 3499   5.333   0.670   8.002 -0.3330 -0.1073  0.6732
   28DOPE    HA 3500   5.313   0.699   7.896 -1.4222 -0.3489  0.7934
   28DOPE    HB 3501   5.291   0.568   8.021 -3.7814  0.5954 -1.9440
   28DOPE    C2 3502   5.488   0.661   8.017 -0.7390  0.0906  0.2810
   28DOPE    HS 3503   5.514   0.645   8.124 -1.5432  0.9177  0.6109
   28DOPE   O21 3504   5.551   0.787   7.982  0.2117 -0.2656 -0.2050
   28DOPE   C21 3505   5.651   0.829   8.059  1.0459 -0.1733 -0.5479
   28DOPE   O22 3506   5.706   0.762   8.147  0.2328  0.0119 -0.0376
   28DOPE   C22 3507   5.695   0.973   8.034 -0.6233 -0.0443 -0.9432
   28DOPE   H2R 3508   5.805   0.970   8.050 -0.8696  0.9172  1.4830
   28DOPE   H2S 3509   5.650   1.036   8.114 -1.9209 -0.6834 -1.1358
   28DOPE    C3 3510   5.555   0.553   7.918 -0.0620 -0.3915 -0.0037
   28DOPE    HX 3511   5.523   0.450   7.941 -1.7427 -1.2591 -5.0146
   28DOPE    HY 3512   5.665   0.557   7.935  0.1692  0.7719 -1.5304
   28DOPE   O31 3513   5.510   0.576   7.789  0.1332  0.3721  0.1496
   28DOPE   C31 3514   5.601   0.622   7.705  0.0269 -0.8821 -0.4306
   28DOPE   O32 3515   5.719   0.626   7.728  0.5423  0.0927  0.2114
   28DOPE   C32 3516   5.533   0.649   7.565 -0.0917 -0.5917 -0.5147
   28DOPE   H2X 3517   5.461   0.567   7.545 -0.0611 -0.9211  0.6406
   28DOPE   H2Y 3518   5.480   0.746   7.576  0.3238 -0.3778 -0.3423
   28DOPE   C23 3519   5.651   1.038   7.902 -0.1028 -0.7745  0.6258
   28DOPE   H3R 3520   5.541   1.032   7.891 -0.0973 -1.9421  1.0808
   28DOPE   H3S 3521   5.698   0.986   7.815 -0.1056 -0.9844  0.7486
   28DOPE   C24 3522   5.692   1.185   7.901 -0.5303 -0.3691  0.0812
   28DOPE   H4R 3523   5.796   1.204   7.935 -0.4056 -1.0326  0.0830
   28DOPE   H4S 3524   5.622   1.238   7.970 -2.2189  0.0516 -1.8451
   28DOPE   C25 3525   5.680   1.249   7.759 -0.1818  0.4753  0.4531
   28DOPE   H5R 3526   5.693   1.359   7.773  0.0137  0.3127  1.6257
   28DOPE   H5S 3527   5.584   1.223   7.710 -0.0518  0.1716  0.3579
   28DOPE   C26 3528   5.799   1.213   7.665 -0.6109 -0.0302 -0.3157
   28DOPE   H6R 3529   5.796   1.102   7.653  0.5808 -0.1111 -0.0088
   28DOPE   H6S 3530   5.893   1.230   7.722  0.1488  0.5550 -1.7136
   28DOPE   C27 3531   5.791   1.288   7.541  0.4840 -0.4386  0.6445
   28DOPE   H7R 3532   5.856   1.378   7.546  0.3717 -0.2674 -0.6591
   28DOPE   H7S 3533   5.686   1.323   7.537  0.3698 -0.8347 -0.0353
   28DOPE   C28 3534   5.825   1.218   7.409 -0.1701  0.2773 -0.0971
   28DOPE   H8R 3535   5.759   1.253   7.326  2.6245  1.6927 -1.8763
   28DOPE   H8S 3536   5.807   1.109   7.416  2.7175 -0.3098 -0.4882
   28DOPE   C29 3537   5.972   1.246   7.369  0.0804 -0.0097 -0.5760
   28DOPE   H9R 3538   6.044   1.219   7.448  0.0545 -1.8211 -1.1268
   28DOPE  C210 3539   6.018   1.272   7.247 -0.4529 -0.4523  0.3529
   28DOPE  H10R 3540   6.127   1.267   7.238 -0.4197  1.5307 -0.9506
   28DOPE  C211 3541   5.938   1.294   7.126 -0.1258 -0.1242 -1.1226
   28DOPE  H11R 3542   5.927   1.404   7.115  0.0785 -0.1884 -2.0287
   28DOPE  H11S 3543   5.840   1.243   7.133  0.2610 -0.6615  1.3202
   28DOPE  C212 3544   5.998   1.243   6.995  0.3774 -0.4015 -0.2853
   28DOPE  H12R 3545   6.011   1.136   7.022 -2.0649 -0.6125  0.3088
   28DOPE  H12S 3546   6.096   1.293   6.977 -1.3186  2.8132 -1.4152
   28DOPE  C213 3547   5.894   1.258   6.878 -0.4425  0.1848  0.2914
   28DOPE  H13R 3548   5.868   1.366   6.872 -1.8990 -0.0143  2.4234
   28DOPE  H13S 3549   5.798   1.203   6.889 -0.3006 -0.0899  0.1839
   28DOPE  C214 3550   5.956   1.205   6.748 -0.5935 -0.2358 -0.0695
   28DOPE  H14R 3551   5.939   1.095   6.752 -0.7920 -0.1913  0.2846
   28DOPE  H14S 3552   6.065   1.225   6.750 -0.8849  1.5451 -0.7562
   28DOPE  C215 3553   5.904   1.275   6.627 -0.2353 -0.3006 -0.7271
   28DOPE  H15R 3554   5.951   1.376   6.621 -0.2849 -0.1007  1.3956
   28DOPE  H15S 3555   5.794   1.282   6.640 -0.0662  0.7150  0.3340
   28DOPE  C216 3556   5.931   1.188   6.507 -0.9042  0.6321  0.0547
   28DOPE  H16R 3557   5.862   1.101   6.515  0.0964 -0.3436 -1.4843
   28DOPE  H16S 3558   6.038   1.159   6.511 -0.6572  1.5190  0.0637
   28DOPE  C217 3559   5.901   1.247   6.368  0.0530  0.2673  0.4082
   28DOPE  H17R 3560   5.951   1.345   6.356  0.2961 -0.1460 -2.5725
   28DOPE  H17S 3561   5.793   1.269   6.360  0.0528 -0.1068 -0.7419
   28DOPE  C218 3562   5.959   1.165   6.254  0.5709  0.6114  0.2041
   28DOPE  H18R 3563   5.923   1.060   6.256 -2.0740  1.4655  0.9317
   28DOPE  H18S 3564   6.070   1.163   6.260  0.6065 -0.1293 -0.5200
   28DOPE  H18T 3565   5.942   1.218   6.158 -0.5077 -1.0624 -0.5735
   28DOPE   C33 3566   5.633   0.651   7.449  0.4577 -0.3659  0.0830
   28DOPE   H3X 3567   5.717   0.580   7.470  1.5031  0.3862 -1.4077
   28DOPE   H3Y 3568   5.672   0.754   7.434  0.8456 -0.3629  1.0070
   28DOPE   C34 3569   5.566   0.608   7.317 -0.1645 -0.3742  0.5264
   28DOPE   H4X 3570   5.547   0.500   7.340 -1.7964  0.5599  4.4606
   28DOPE   H4Y 3571   5.473   0.667   7.311 -0.5912 -0.9223  1.4778
   28DOPE   C35 3572   5.651   0.626   7.192 -0.2717  0.0849 -0.1563
   28DOPE   H5X 3573   5.756   0.593   7.211 -0.6978  0.1787  2.7110
   28DOPE   H5Y 3574   5.653   0.734   7.168 -2.6854  0.4585  1.0953
   28DOPE   C36 3575   5.591   0.547   7.078 -0.3855  0.1462  0.6630
   28DOPE   H6X 3576   5.484   0.577   7.080 -0.6020 -0.6152  2.3657
   28DOPE   H6Y 3577   5.606   0.439   7.099  0.0834  0.2148  0.6906
   28DOPE   C37 3578   5.648   0.579   6.939  0.7643 -0.3830 -0.9092
   28DOPE   H7X 3579   5.624   0.685   6.917  0.6332 -0.5652 -1.6466
   28DOPE   H7Y 3580   5.759   0.581   6.928  0.7998 -0.2471 -0.5358
   28DOPE   C38 3581   5.573   0.500   6.831  0.1872 -0.6248  0.4335
   28DOPE   H8X 3582   5.465   0.503   6.853  0.2838  0.8639  0.7841
   28DOPE   H8Y 3583   5.605   0.394   6.843 -1.8662 -1.1927  1.2489
   28DOPE   C39 3584   5.614   0.537   6.690  0.0510 -0.4208 -0.1799
   28DOPE   H9X 3585   5.719   0.560   6.668  0.4946 -1.7812  0.3938
   28DOPE  C310 3586   5.535   0.562   6.583  0.3177  0.0552  0.0075
   28DOPE  H10X 3587   5.570   0.588   6.482  0.8367 -0.9453 -0.0859
   28DOPE  C311 3588   5.386   0.540   6.571 -0.7140  0.2221 -0.1855
   28DOPE  H11X 3589   5.354   0.478   6.657  0.7450 -0.0617  0.1824
   28DOPE  H11Y 3590   5.331   0.636   6.580 -2.4899 -0.9238  3.5163
   28DOPE  C312 3591   5.335   0.470   6.439  0.3313 -0.2227 -0.2571
   28DOPE  H12X 3592   5.351   0.534   6.349  0.7241 -0.6330 -0.4861
   28DOPE  H12Y 3593   5.225   0.472   6.450  0.3521 -0.3047 -0.0259
   28DOPE  C313 3594   5.386   0.327   6.418  0.7391  0.0342 -0.3349
   28DOPE  H13X 3595   5.496   0.316   6.426  0.7630 -1.1136 -1.7702
   28DOPE  H13Y 3596   5.342   0.269   6.502  0.4099  1.9733  0.8757
   28DOPE  C314 3597   5.317   0.262   6.289  0.1327 -0.2946 -0.1708
   28DOPE  H14X 3598   5.346   0.320   6.199  0.7985  1.6182  1.1980
   28DOPE  H14Y 3599   5.208   0.275   6.302  0.3121 -0.8671  2.5932
   28DOPE  C315 3600   5.374   0.124   6.247  0.0758 -0.7901 -0.4161
   28DOPE  H15X 3601   5.348   0.058   6.332  0.0395  0.5065  0.6236
   28DOPE  H15Y 3602   5.484   0.123   6.228 -0.1296  0.3246 -1.8607
   28DOPE  C316 3603   5.319   0.071   6.106 -0.2135  0.7102 -0.1029
   28DOPE  H16X 3604   5.359   0.140   6.029  1.0030 -0.9661 -1.0357
   28DOPE  H16Y 3605   5.208   0.071   6.111 -0.2003 -0.9854  2.5578
   28DOPE  C317 3606   5.375  -0.066   6.063  0.5778 -0.9100 -0.4572
   28DOPE  H17X 3607   5.321  -0.136   6.130 -0.7414  0.7663  0.2992
   28DOPE  H17Y 3608   5.332  -0.087   5.962  0.2093 -1.8488 -0.1182
   28DOPE  C318 3609   5.519  -0.091   6.081  0.0045 -0.0065  1.0849
   28DOPE  H18X 3610   5.542  -0.184   6.025 -1.7820  1.0532 -1.6685
   28DOPE  H18Y 3611   5.595  -0.020   6.042  0.9977 -1.8635 -0.5386
   28DOPE  H18Z 3612   5.546  -0.109   6.187  1.3475 -0.7350  0.6365
   29DOPE     N 3613   0.624   1.751   8.732 -0.2486 -0.3463  0.2470
   29DOPE   HN1 3614   0.572   1.686   8.794 -0.5380  1.0572  1.5427
   29DOPE   HN2 3615   0.724   1.731   8.711  0.4306  1.7831  1.2397
   29DOPE   HN3 3616   0.633   1.835   8.792 -0.0537  0.2982 -0.6728
   29DOPE   C12 3617   0.553   1.775   8.601  0.1769  0.0634  0.4562
   29DOPE  H12A 3618   0.444   1.787   8.618  0.2560  1.1540  0.2583
   29DOPE  H12B 3619   0.571   1.687   8.537 -0.1620  0.5529 -0.3206
   29DOPE   C11 3620   0.605   1.902   8.534  0.2187 -0.5559  0.4973
   29DOPE  H11A 3621   0.575   1.986   8.601  0.2811  0.0344 -0.2042
   29DOPE  H11B 3622   0.552   1.915   8.437  1.1908 -3.3751 -0.4817
   29DOPE     P 3623   0.809   2.027   8.458  0.2373  0.1871 -0.2075
   29DOPE   O13 3624   0.939   1.984   8.408  0.7389  0.4751 -0.0191
   29DOPE   O14 3625   0.802   2.135   8.566  0.5331  0.3688  0.2463
   29DOPE   O11 3626   0.716   2.065   8.345  0.2780  0.3438 -0.0948
   29DOPE   O12 3627   0.742   1.892   8.517 -0.4437  0.1328  0.2135
   29DOPE    C1 3628   0.625   2.176   8.357 -1.2425 -0.1972 -0.4298
   29DOPE    HA 3629   0.681   2.272   8.359  1.8378 -1.8985  1.3548
   29DOPE    HB 3630   0.574   2.164   8.455  0.2038 -0.9383  0.2622
   29DOPE    C2 3631   0.528   2.176   8.244  0.2472  0.1951  0.5511
   29DOPE    HS 3632   0.475   2.078   8.237 -0.6987  0.7422 -0.2299
   29DOPE   O21 3633   0.603   2.215   8.127  0.1959 -0.3292 -0.1334
   29DOPE   C21 3634   0.565   2.157   8.018  0.3300 -0.1422 -0.6573
   29DOPE   O22 3635   0.462   2.085   8.013 -0.2803  0.5356 -0.2954
   29DOPE   C22 3636   0.654   2.179   7.898 -0.1964  0.1327 -0.4669
   29DOPE   H2R 3637   0.688   2.076   7.875 -1.0768 -0.6828  1.7005
   29DOPE   H2S 3638   0.724   2.261   7.926 -0.5377  1.0863 -2.2070
   29DOPE    C3 3639   0.421   2.284   8.266  0.1075 -0.1649  0.1358
   29DOPE    HX 3640   0.471   2.383   8.256  1.3352 -0.7539  0.2937
   29DOPE    HY 3641   0.373   2.272   8.365  2.6514 -1.7753  1.2500
   29DOPE   O31 3642   0.316   2.272   8.160  0.1114  0.1803 -0.1116
   29DOPE   C31 3643   0.228   2.366   8.172  0.3428  0.1680  1.8401
   29DOPE   O32 3644   0.211   2.451   8.257 -0.0347 -0.5635 -0.0427
   29DOPE   C32 3645   0.131   2.354   8.049  0.0266  0.2129 -0.1696
   29DOPE   H2X 3646   0.074   2.259   8.052 -0.7002  0.5071 -2.5017
   29DOPE   H2Y 3647   0.050   2.429   8.065 -0.3206  0.1887 -1.6622
   29DOPE   C23 3648   0.587   2.235   7.778  0.0929  0.2775 -0.6649
   29DOPE   H3R 3649   0.557   2.340   7.800  0.4449  0.2259  0.1000
   29DOPE   H3S 3650   0.496   2.173   7.759  0.1979  0.3944 -1.5778
   29DOPE   C24 3651   0.679   2.239   7.652  0.2333 -0.1734 -0.0171
   29DOPE   H4R 3652   0.714   2.136   7.632 -1.4941 -0.6140 -0.9487
   29DOPE   H4S 3653   0.765   2.306   7.675  0.9946  0.1764 -3.3142
   29DOPE   C25 3654   0.605   2.282   7.520  0.7458 -0.3003 -1.0156
   29DOPE   H5R 3655   0.547   2.376   7.532  1.6218  0.0305  1.0506
   29DOPE   H5S 3656   0.525   2.206   7.502 -0.3396 -0.1098  2.1899
   29DOPE   C26 3657   0.698   2.281   7.405 -0.6618  0.2232 -0.2948
   29DOPE   H6R 3658   0.753   2.186   7.417 -0.7437  0.0927 -0.9060
   29DOPE   H6S 3659   0.775   2.357   7.430 -1.6006  0.4495  2.2570
   29DOPE   C27 3660   0.637   2.277   7.269 -0.4923 -0.8546  0.7864
   29DOPE   H7R 3661   0.567   2.194   7.247 -0.6986 -0.9013  1.5902
   29DOPE   H7S 3662   0.724   2.271   7.201 -1.5976  0.1319 -0.7903
   29DOPE   C28 3663   0.553   2.405   7.223 -0.1491  0.2702  0.2943
   29DOPE   H8R 3664   0.610   2.500   7.221 -0.8111  0.6751 -1.8163
   29DOPE   H8S 3665   0.473   2.431   7.296 -0.8286 -1.1153  0.0795
   29DOPE   C29 3666   0.489   2.395   7.085  0.1126 -0.3497  0.6720
   29DOPE   H9R 3667   0.383   2.366   7.083  0.5046 -1.9118  0.7324
   29DOPE  C210 3668   0.551   2.416   6.964  0.5720  0.0791 -0.2856
   29DOPE  H10R 3669   0.489   2.425   6.873  1.7735  0.2105 -1.1159
   29DOPE  C211 3670   0.694   2.446   6.948 -0.1676  0.0598  0.0897
   29DOPE  H11R 3671   0.768   2.386   7.005  2.4115  0.3004 -2.7633
   29DOPE  H11S 3672   0.720   2.552   6.967 -0.1425 -0.1059  1.0255
   29DOPE  C212 3673   0.739   2.425   6.804  0.7597  0.1017 -0.3467
   29DOPE  H12R 3674   0.836   2.479   6.799  0.5791  0.3659 -1.3562
   29DOPE  H12S 3675   0.671   2.483   6.738 -0.5239 -0.8709  0.0669
   29DOPE  C213 3676   0.749   2.277   6.763  0.2655  0.2026 -0.5686
   29DOPE  H13R 3677   0.646   2.237   6.754  0.7218 -1.3517  0.7769
   29DOPE  H13S 3678   0.803   2.211   6.834  1.0012 -0.6074 -1.8433
   29DOPE  C214 3679   0.822   2.257   6.624  0.4243 -0.4704 -0.0344
   29DOPE  H14R 3680   0.815   2.147   6.611  1.5257 -0.7712  1.6607
   29DOPE  H14S 3681   0.924   2.302   6.627  0.3287 -0.2289  3.4059
   29DOPE  C215 3682   0.750   2.331   6.501 -0.0734 -0.2940  0.4810
   29DOPE  H15R 3683   0.774   2.437   6.475 -3.1646  0.7627  1.4706
   29DOPE  H15S 3684   0.640   2.317   6.499 -0.2553  1.0207 -1.3768
   29DOPE  C216 3685   0.810   2.265   6.372  0.7832  0.3893 -0.6768
   29DOPE  H16R 3686   0.746   2.309   6.291  0.4962 -3.0403 -2.5205
   29DOPE  H16S 3687   0.777   2.159   6.362  1.1473  0.0882  1.0427
   29DOPE  C217 3688   0.955   2.293   6.340 -0.1138 -0.2889  0.0954
   29DOPE  H17R 3689   1.019   2.233   6.409 -0.7683 -0.8798  0.1999
   29DOPE  H17S 3690   0.972   2.402   6.351 -1.1241 -0.0440 -0.6074
   29DOPE  C218 3691   1.002   2.263   6.196 -0.2091  0.0837 -0.0274
   29DOPE  H18R 3692   1.108   2.295   6.190 -0.5102  0.9277 -1.7562
   29DOPE  H18S 3693   0.959   2.326   6.114  0.6851 -0.1987 -0.7329
   29DOPE  H18T 3694   1.002   2.153   6.186 -1.5831  0.1615 -1.3080
   29DOPE   C33 3695   0.197   2.351   7.908 -0.1322  0.8156 -0.1172
   29DOPE   H3X 3696   0.294   2.296   7.917 -0.6269  0.1782  1.7277
   29DOPE   H3Y 3697   0.233   2.454   7.888  1.8237  0.3598  0.7475
   29DOPE   C34 3698   0.124   2.287   7.788 -0.1512  0.5932 -0.0345
   29DOPE   H4X 3699   0.105   2.182   7.820  1.0223  1.3423  3.6217
   29DOPE   H4Y 3700   0.021   2.328   7.780 -0.7776 -0.6737  1.1685
   29DOPE   C35 3701   0.200   2.304   7.655  0.4025  0.3601 -0.8265
   29DOPE   H5X 3702   0.296   2.248   7.650 -0.0807 -0.3827 -2.3232
   29DOPE   H5Y 3703   0.219   2.411   7.634 -0.8604  0.2939 -2.4398
   29DOPE   C36 3704   0.126   2.258   7.529 -0.5711  0.4328  0.0978
   29DOPE   H6X 3705   0.041   2.326   7.508  0.9137  1.9181 -1.4341
   29DOPE   H6Y 3706   0.099   2.153   7.554  0.3629  0.0540 -0.4512
   29DOPE   C37 3707   0.212   2.265   7.398  0.3219  0.4219 -0.0087
   29DOPE   H7X 3708   0.222   2.369   7.359  1.1084  0.5492  0.5266
   29DOPE   H7Y 3709   0.317   2.236   7.417  0.2373  0.8675  1.2491
   29DOPE   C38 3710   0.141   2.195   7.284  0.4791 -0.1930 -0.1134
   29DOPE   H8X 3711   0.036   2.228   7.279  0.0965 -1.4217 -0.5151
   29DOPE   H8Y 3712   0.138   2.088   7.315 -0.1267 -0.9343 -2.5698
   29DOPE   C39 3713   0.203   2.208   7.147 -0.1952 -0.2663 -0.3532
   29DOPE   H9X 3714   0.312   2.196   7.147  0.1634  1.8912  2.3356
   29DOPE  C310 3715   0.141   2.230   7.027 -0.0252  0.2696 -0.7297
   29DOPE  H10X 3716   0.202   2.228   6.935 -0.0120 -0.9278 -0.7066
   29DOPE  C311 3717  -0.005   2.246   7.006  0.3426  0.2481  0.3099
   29DOPE  H11X 3718  -0.058   2.161   7.053  1.9529 -0.4855  0.8817
   29DOPE  H11Y 3719  -0.038   2.338   7.057 -0.7252 -0.9959  1.9504
   29DOPE  C312 3720  -0.025   2.260   6.849  0.0427 -0.8821  0.2276
   29DOPE  H12X 3721  -0.127   2.254   6.807  0.2498  0.9044 -0.6183
   29DOPE  H12Y 3722   0.025   2.173   6.801  1.6571 -1.3158  2.5016
   29DOPE  C313 3723   0.045   2.393   6.805 -0.7259 -0.2382  0.2959
   29DOPE  H13X 3724   0.042   2.471   6.884  0.3746  0.3951 -0.2690
   29DOPE  H13Y 3725   0.151   2.366   6.788 -0.5371  1.5029 -1.6893
   29DOPE  C314 3726  -0.008   2.456   6.670 -0.4082 -0.6422  0.6689
   29DOPE  H14X 3727  -0.031   2.368   6.607 -1.4185  0.3724 -0.4125
   29DOPE  H14Y 3728   0.079   2.503   6.619  1.1451 -3.2944  0.7120
   29DOPE  C315 3729  -0.122   2.554   6.680  0.2675  0.1612  0.1524
   29DOPE  H15X 3730  -0.080   2.650   6.716 -0.4755  0.6704 -0.3285
   29DOPE  H15Y 3731  -0.191   2.512   6.757  1.7785 -1.4208  0.7282
   29DOPE  C316 3732  -0.192   2.567   6.549 -0.0150 -0.5786 -0.3852
   29DOPE  H16X 3733  -0.226   2.466   6.515 -1.7917 -0.3232  0.5230
   29DOPE  H16Y 3734  -0.121   2.621   6.482 -0.5042  1.8556  0.9526
   29DOPE  C317 3735  -0.310   2.658   6.570  0.6665  0.0313 -0.4339
   29DOPE  H17X 3736  -0.365   2.636   6.664  2.4781  0.2368  0.7051
   29DOPE  H17Y 3737  -0.275   2.762   6.588  0.7782 -0.3835  2.0548
   29DOPE  C318 3738  -0.419   2.652   6.463  0.3136 -0.3481 -0.2936
   29DOPE  H18X 3739  -0.375   2.678   6.364  0.0406 -2.3996 -0.9931
   29DOPE  H18Y 3740  -0.459   2.551   6.439  0.3397 -0.0794 -1.5325
   29DOPE  H18Z 3741  -0.506   2.718   6.486 -0.8272 -1.4737 -1.2713
   30DOPE     N 3742   6.056   0.868   8.506  0.1813  0.0912 -0.4297
   30DOPE   HN1 3743   6.133   0.808   8.469  1.3854 -0.2883  2.4301
   30DOPE   HN2 3744   6.099   0.954   8.546  1.2531 -0.5508 -0.1566
   30DOPE   HN3 3745   6.019   0.814   8.587 -0.3380 -0.4154 -0.9907
   30DOPE   C12 3746   5.948   0.912   8.402 -0.4462 -0.3350 -0.0502
   30DOPE  H12A 3747   5.876   0.980   8.453  1.5648  1.3998  0.6140
   30DOPE  H12B 3748   5.890   0.822   8.373  1.5632 -2.2252  1.5186
   30DOPE   C11 3749   6.006   0.994   8.292  0.0856 -1.1840 -0.5537
   30DOPE  H11A 3750   5.929   1.046   8.232 -2.1472  0.1555  3.2095
   30DOPE  H11B 3751   6.064   0.930   8.221 -0.0505 -2.9686  0.8674
   30DOPE     P 3752   6.054   1.249   8.357 -0.0604 -0.4338 -0.0883
   30DOPE   O13 3753   6.169   1.315   8.412 -0.0334 -0.2703  0.2053
   30DOPE   O14 3754   5.928   1.263   8.433 -0.0136 -0.3115 -0.2001
   30DOPE   O11 3755   6.046   1.302   8.207 -0.0896 -0.0351  0.3184
   30DOPE   O12 3756   6.093   1.097   8.351 -0.4199 -0.1177  0.9245
   30DOPE    C1 3757   6.125   1.249   8.100  0.1867 -0.4085 -0.0604
   30DOPE    HA 3758   6.064   1.179   8.038 -0.7596  0.2670  0.0763
   30DOPE    HB 3759   6.216   1.193   8.128 -1.0452 -1.7764  1.4393
   30DOPE    C2 3760   6.157   1.354   7.990 -0.1862  0.4125 -0.5741
   30DOPE    HS 3761   6.224   1.435   8.028 -2.3394  1.3750  1.5086
   30DOPE   O21 3762   6.036   1.419   7.952 -0.4095  0.0955  0.3006
   30DOPE   C21 3763   6.033   1.554   7.950  0.3477  0.2678  0.4156
   30DOPE   O22 3764   6.119   1.625   8.000  0.5278 -0.5351  0.3390
   30DOPE   C22 3765   5.897   1.599   7.895 -0.0688 -0.4561  0.1070
   30DOPE   H2R 3766   5.861   1.661   7.980  1.3017 -0.1333  0.4710
   30DOPE   H2S 3767   5.836   1.508   7.874 -1.9519  1.4787 -4.0538
   30DOPE    C3 3768   6.225   1.285   7.864 -0.5011  0.0047 -0.5355
   30DOPE    HX 3769   6.154   1.226   7.803  1.5885 -1.4453 -1.6697
   30DOPE    HY 3770   6.297   1.207   7.898 -1.5937  0.0873  2.2588
   30DOPE   O31 3771   6.297   1.380   7.785  0.5829  0.3009 -0.0530
   30DOPE   C31 3772   6.239   1.446   7.688  0.0399 -0.2985 -0.0837
   30DOPE   O32 3773   6.133   1.423   7.632 -0.3488 -0.3020  0.7742
   30DOPE   C32 3774   6.325   1.571   7.656  0.6022 -0.0479 -0.5361
   30DOPE   H2X 3775   6.280   1.656   7.712 -0.7508  0.1889 -1.9100
   30DOPE   H2Y 3776   6.429   1.552   7.689  0.1772 -2.0191 -0.1973
   30DOPE   C23 3777   5.892   1.694   7.767  0.3622 -0.0899 -0.3872
   30DOPE   H3R 3778   5.956   1.643   7.691 -0.1056  0.5273 -1.2177
   30DOPE   H3S 3779   5.944   1.790   7.786  1.4444 -0.9550  1.2035
   30DOPE   C24 3780   5.754   1.717   7.702 -0.8197  0.7256 -0.0133
   30DOPE   H4R 3781   5.688   1.781   7.765 -1.0138 -0.0935  0.6288
   30DOPE   H4S 3782   5.708   1.616   7.698  1.6440 -0.7576  3.7476
   30DOPE   C25 3783   5.767   1.779   7.563  0.4862 -0.1348 -0.2468
   30DOPE   H5R 3784   5.798   1.886   7.559 -0.8731  0.2386 -1.7639
   30DOPE   H5S 3785   5.663   1.802   7.533  0.8512  2.8505  0.4975
   30DOPE   C26 3786   5.834   1.704   7.450 -0.1718 -0.3776  0.4474
   30DOPE   H6R 3787   5.798   1.599   7.450 -1.6310  0.0933  0.8612
   30DOPE   H6S 3788   5.940   1.708   7.484 -0.1108 -0.8458  0.3194
   30DOPE   C27 3789   5.813   1.770   7.308 -0.1912  0.7320 -0.5029
   30DOPE   H7R 3790   5.852   1.874   7.311  0.5808  0.4433  1.6110
   30DOPE   H7S 3791   5.704   1.772   7.287 -0.2697 -1.4603 -0.4967
   30DOPE   C28 3792   5.893   1.704   7.199 -0.2577  0.2631  0.5532
   30DOPE   H8R 3793   5.868   1.597   7.187 -2.7963  1.0068 -1.6974
   30DOPE   H8S 3794   5.997   1.705   7.240 -0.6105  0.0327  1.4931
   30DOPE   C29 3795   5.878   1.775   7.070  0.2894  0.6471 -0.3775
   30DOPE   H9R 3796   5.789   1.838   7.061 -0.0841  0.0103 -1.3107
   30DOPE  C210 3797   5.967   1.773   6.971 -0.4569  0.0320 -0.0884
   30DOPE  H10R 3798   5.939   1.833   6.883 -0.8168  0.3988  0.2709
   30DOPE  C211 3799   6.097   1.692   6.973 -0.4877 -1.1063 -0.4459
   30DOPE  H11R 3800   6.067   1.587   6.992 -0.9193 -0.9666 -0.3467
   30DOPE  H11S 3801   6.153   1.722   7.064 -0.9178  0.4237 -0.6553
   30DOPE  C212 3802   6.188   1.685   6.846  0.1208  0.7865 -0.6101
   30DOPE  H12R 3803   6.263   1.604   6.855 -2.2839 -1.6768 -1.4482
   30DOPE  H12S 3804   6.242   1.781   6.835  0.9116  0.4358  0.1399
   30DOPE  C213 3805   6.108   1.664   6.716  0.4297 -0.7120  0.0862
   30DOPE  H13R 3806   6.028   1.738   6.696  0.4090 -1.0782 -1.2380
   30DOPE  H13S 3807   6.052   1.569   6.728  0.7195 -0.9838 -0.6748
   30DOPE  C214 3808   6.191   1.670   6.593 -0.3997  0.1941  0.0352
   30DOPE  H14R 3809   6.282   1.725   6.624  0.6725 -2.3964  1.8009
   30DOPE  H14S 3810   6.126   1.730   6.526 -2.1135  0.3938  1.7790
   30DOPE  C215 3811   6.233   1.540   6.533 -0.6424  0.1618  0.5545
   30DOPE  H15R 3812   6.137   1.484   6.523 -0.6012  0.3396 -1.1716
   30DOPE  H15S 3813   6.306   1.488   6.598  1.2639  0.3480 -1.3099
   30DOPE  C216 3814   6.313   1.569   6.405  0.0403  0.2306  1.0899
   30DOPE  H16R 3815   6.397   1.635   6.434  1.2281 -0.1124 -1.2912
   30DOPE  H16S 3816   6.247   1.628   6.338 -0.4577  0.2793  1.6184
   30DOPE  C217 3817   6.363   1.445   6.334  0.3919 -0.1133 -0.2384
   30DOPE  H17R 3818   6.401   1.383   6.418  0.1021 -0.8989 -0.6787
   30DOPE  H17S 3819   6.443   1.472   6.262 -0.3160 -0.2129 -1.0795
   30DOPE  C218 3820   6.258   1.364   6.261  0.0463  0.2203 -0.0923
   30DOPE  H18R 3821   6.185   1.341   6.341  0.1275  1.3369  0.3268
   30DOPE  H18S 3822   6.289   1.269   6.214 -0.1166  0.5459 -0.8761
   30DOPE  H18T 3823   6.190   1.421   6.193 -1.3065 -1.6863 -0.4128
   30DOPE   C33 3824   6.319   1.600   7.496  0.1831  0.4492 -0.0546
   30DOPE   H3X 3825   6.371   1.697   7.479 -0.7953  0.6316 -2.1958
   30DOPE   H3Y 3826   6.213   1.609   7.465  0.1537 -1.3017 -0.5496
   30DOPE   C34 3827   6.386   1.488   7.416 -0.2657 -0.0665 -0.4287
   30DOPE   H4X 3828   6.487   1.461   7.453 -0.9097 -0.4499  1.1035
   30DOPE   H4Y 3829   6.314   1.404   7.425  0.1789 -0.4207 -0.1569
   30DOPE   C35 3830   6.379   1.524   7.270  0.0847 -0.3085 -0.0040
   30DOPE   H5X 3831   6.432   1.619   7.251  0.4406 -0.3304  0.8339
   30DOPE   H5Y 3832   6.277   1.533   7.226  0.9511  0.4055 -1.9911
   30DOPE   C36 3833   6.434   1.410   7.185 -0.0504  0.5670  0.9544
   30DOPE   H6X 3834   6.396   1.310   7.216  1.2169  0.0237  0.8460
   30DOPE   H6Y 3835   6.545   1.408   7.179 -0.0327  1.3938  0.8557
   30DOPE   C37 3836   6.393   1.423   7.030  0.3300 -0.0657 -0.3627
   30DOPE   H7X 3837   6.284   1.442   7.017  0.5716 -0.2312 -3.2767
   30DOPE   H7Y 3838   6.440   1.515   6.989  0.8656  0.1349  0.6684
   30DOPE   C38 3839   6.420   1.293   6.948 -0.3503 -1.0055 -0.1528
   30DOPE   H8X 3840   6.369   1.211   7.002 -0.7495 -0.4530  0.3261
   30DOPE   H8Y 3841   6.528   1.273   6.963 -0.4147 -0.5239  1.0490
   30DOPE   C39 3842   6.376   1.296   6.802 -0.0501 -0.2514 -0.0513
   30DOPE   H9X 3843   6.310   1.379   6.775 -0.8809 -1.1651 -0.8898
   30DOPE  C310 3844   6.387   1.199   6.709 -0.1447  0.1733 -0.6609
   30DOPE  H10X 3845   6.351   1.233   6.610  0.9567  3.1747 -0.1300
   30DOPE  C311 3846   6.461   1.065   6.707 -0.2084 -0.2616 -0.5409
   30DOPE  H11X 3847   6.566   1.081   6.673 -0.6397  2.4239 -0.7682
   30DOPE  H11Y 3848   6.452   1.010   6.803 -1.3741 -2.4426 -1.7973
   30DOPE  C312 3849   6.381   0.982   6.607 -0.4581  0.6766  0.1471
   30DOPE  H12X 3850   6.272   0.975   6.628 -0.1023  0.3181  1.9989
   30DOPE  H12Y 3851   6.420   0.881   6.628  2.0875  1.6160  0.2175
   30DOPE  C313 3852   6.421   1.003   6.454  0.4085  0.7557  0.2733
   30DOPE  H13X 3853   6.423   1.108   6.418  0.4902  0.7827  0.3566
   30DOPE  H13Y 3854   6.527   0.971   6.444 -0.8263 -3.8641 -0.4973
   30DOPE  C314 3855   6.328   0.918   6.359 -0.3094 -0.3516  0.2027
   30DOPE  H14X 3856   6.230   0.968   6.349  1.0633  2.5162  0.2258
   30DOPE  H14Y 3857   6.319   0.809   6.382 -1.8473 -0.3760 -0.4157
   30DOPE  C315 3858   6.388   0.914   6.212  0.2294  1.0196  0.3743
   30DOPE  H15X 3859   6.487   0.863   6.207 -0.2075  0.1222  0.6841
   30DOPE  H15Y 3860   6.402   1.019   6.177  0.8764  1.3731  1.6457
   30DOPE  C316 3861   6.283   0.854   6.104 -0.8062 -0.1980 -0.3541
   30DOPE  H16X 3862   6.185   0.897   6.134  0.3391  1.4350  1.2804
   30DOPE  H16Y 3863   6.279   0.745   6.120 -0.0647 -0.0872  0.7093
   30DOPE  C317 3864   6.317   0.885   5.953  0.1332 -0.4224  0.1260
   30DOPE  H17X 3865   6.227   0.842   5.904 -1.3553 -0.4134  2.7061
   30DOPE  H17Y 3866   6.309   0.992   5.926  2.5315 -0.8612 -2.9320
   30DOPE  C318 3867   6.447   0.838   5.904  0.9848 -0.1592 -0.6575
   30DOPE  H18X 3868   6.528   0.884   5.965  1.8627 -1.6499 -0.6242
   30DOPE  H18Y 3869   6.472   0.732   5.927  2.5568  0.4362  0.6064
   30DOPE  H18Z 3870   6.475   0.867   5.801 -0.3556  2.8218 -0.2916
   31DOPE     N 3871   4.202   4.121   4.207  0.0603 -0.2972 -0.0486
   31DOPE   HN1 3872   4.214   4.025   4.246 -0.9057 -0.0912  0.7848
   31DOPE   HN2 3873   4.280   4.125   4.137  0.0236  0.3995 -0.0494
   31DOPE   HN3 3874   4.228   4.190   4.280 -0.8803  0.4122 -0.3755
   31DOPE   C12 3875   4.072   4.176   4.153 -0.5105  0.4096  0.6926
   31DOPE  H12A 3876   4.104   4.256   4.083  0.4042  1.0326  1.7874
   31DOPE  H12B 3877   4.011   4.221   4.235  1.2965  1.8166  1.3174
   31DOPE   C11 3878   3.985   4.067   4.076 -0.3366 -0.3269  0.3826
   31DOPE  H11A 3879   4.047   4.030   3.992 -0.2909  0.2261  0.1651
   31DOPE  H11B 3880   3.898   4.105   4.019 -0.9803 -1.8440  0.3173
   31DOPE     P 3881   3.807   3.921   4.187  0.1211 -0.1614  0.2863
   31DOPE   O13 3882   3.764   3.837   4.075 -0.1406  0.2366 -0.3226
   31DOPE   O14 3883   3.722   4.035   4.228  0.3305  0.2820  0.8140
   31DOPE   O11 3884   3.823   3.822   4.309 -0.1058  0.6663  0.3419
   31DOPE   O12 3885   3.950   3.962   4.158 -0.3169  0.3019  0.6979
   31DOPE    C1 3886   3.891   3.867   4.420 -0.8303  0.6169  1.1193
   31DOPE    HA 3887   3.958   3.954   4.402 -0.1193 -0.2409 -0.5960
   31DOPE    HB 3888   3.942   3.773   4.452  0.2154  0.7199 -0.1510
   31DOPE    C2 3889   3.784   3.906   4.529 -0.2903  1.1420  0.3115
   31DOPE    HS 3890   3.733   3.994   4.484  2.4242  1.1063 -3.2574
   31DOPE   O21 3891   3.850   3.922   4.659  0.0957  0.1586 -0.3660
   31DOPE   C21 3892   3.929   4.025   4.674 -0.4090  0.4606  0.0935
   31DOPE   O22 3893   3.960   4.105   4.588 -0.4406  0.3493 -0.0680
   31DOPE   C22 3894   3.978   4.030   4.819 -0.3786 -0.5105 -0.0611
   31DOPE   H2R 3895   4.040   3.940   4.839 -0.5176 -0.3993  0.8938
   31DOPE   H2S 3896   3.890   4.022   4.886 -0.1491  0.3626  0.3523
   31DOPE    C3 3897   3.667   3.803   4.539 -0.0623 -0.1692  0.0842
   31DOPE    HX 3898   3.723   3.711   4.567  0.1015 -0.1817 -0.2896
   31DOPE    HY 3899   3.616   3.793   4.441 -0.5476  0.2185  0.2895
   31DOPE   O31 3900   3.583   3.827   4.654 -0.8196  0.1064 -0.6376
   31DOPE   C31 3901   3.497   3.927   4.635 -0.3735 -0.1551 -0.0727
   31DOPE   O32 3902   3.482   3.985   4.530  0.1846 -0.0189  0.9766
   31DOPE   C32 3903   3.411   3.939   4.761 -0.0071 -0.6097  0.6747
   31DOPE   H2X 3904   3.319   3.999   4.745  0.2767  0.0164  1.3217
   31DOPE   H2Y 3905   3.378   3.835   4.784 -1.2344  0.0348  2.0210
   31DOPE   C23 3906   4.059   4.158   4.856 -0.2035  0.2168  0.0099
   31DOPE   H3R 3907   3.999   4.244   4.820 -1.6814 -1.5443 -1.9467
   31DOPE   H3S 3908   4.154   4.178   4.801  0.7493 -1.7120  0.8838
   31DOPE   C24 3909   4.067   4.174   5.015  0.3501  0.2998 -0.1887
   31DOPE   H4R 3910   4.110   4.083   5.062  0.6649  1.2753  1.4593
   31DOPE   H4S 3911   3.959   4.176   5.039  0.1188  2.2030 -1.2155
   31DOPE   C25 3912   4.125   4.307   5.066  0.3104  0.2458 -0.6654
   31DOPE   H5R 3913   4.075   4.392   5.015 -0.1629  0.5168  0.2139
   31DOPE   H5S 3914   4.227   4.317   5.023  0.6334 -2.6831 -0.7448
   31DOPE   C26 3915   4.122   4.316   5.219  0.7438  0.3063  0.5979
   31DOPE   H6R 3916   4.015   4.319   5.245 -0.4801 -1.8974 -3.2803
   31DOPE   H6S 3917   4.162   4.415   5.250 -0.7097  1.5011 -1.1265
   31DOPE   C27 3918   4.189   4.198   5.285 -0.3827  0.5351  0.9067
   31DOPE   H7R 3919   4.293   4.187   5.247 -0.4646 -0.2353  0.8861
   31DOPE   H7S 3920   4.141   4.100   5.266  2.9317 -0.9167 -0.8990
   31DOPE   C28 3921   4.194   4.219   5.438  0.0644  0.6904 -0.7196
   31DOPE   H8R 3922   4.233   4.316   5.475  0.6010 -0.2898  1.4728
   31DOPE   H8S 3923   4.273   4.155   5.484  1.2946  1.6799 -1.3716
   31DOPE   C29 3924   4.055   4.179   5.496  0.1074  0.4926 -0.1846
   31DOPE   H9R 3925   4.014   4.084   5.459  2.6044 -0.8571  0.2527
   31DOPE  C210 3926   3.971   4.257   5.571 -0.4720  0.6345  0.7459
   31DOPE  H10R 3927   3.873   4.213   5.593  0.5535 -1.7994  0.7931
   31DOPE  C211 3928   3.994   4.393   5.616 -0.1193  0.0124 -0.1920
   31DOPE  H11R 3929   3.937   4.462   5.549  1.6887  0.5049 -1.2838
   31DOPE  H11S 3930   4.098   4.423   5.591 -0.6669 -0.0114 -2.6919
   31DOPE  C212 3931   3.971   4.432   5.761  0.0881  0.1303  0.2613
   31DOPE  H12R 3932   4.043   4.379   5.826 -0.1746  0.0970  0.5266
   31DOPE  H12S 3933   3.866   4.403   5.783  0.5383 -2.3459 -0.5381
   31DOPE  C213 3934   3.984   4.585   5.785  0.4626 -0.1274 -0.8524
   31DOPE  H13R 3935   3.945   4.649   5.703  0.7890  2.1194  0.6425
   31DOPE  H13S 3936   4.088   4.614   5.808 -0.2983  0.5310  2.2580
   31DOPE  C214 3937   3.897   4.651   5.897 -0.3541 -0.0024  0.7739
   31DOPE  H14R 3938   3.789   4.633   5.880 -0.1113 -2.0905  1.1627
   31DOPE  H14S 3939   3.920   4.760   5.897  0.0393 -0.0417 -1.5142
   31DOPE  C215 3940   3.925   4.600   6.038 -0.4131  0.5852 -0.5075
   31DOPE  H15R 3941   4.034   4.610   6.059 -0.2627  1.1697 -1.5134
   31DOPE  H15S 3942   3.911   4.490   6.037 -0.9259  0.6153  1.3494
   31DOPE  C216 3943   3.840   4.650   6.155 -0.2743 -0.2210 -0.2316
   31DOPE  H16R 3944   3.734   4.619   6.148 -0.6985  0.1749  2.9357
   31DOPE  H16S 3945   3.833   4.760   6.162  0.9043 -0.1990  1.2182
   31DOPE  C217 3946   3.868   4.589   6.291 -0.3000  0.0556  0.2362
   31DOPE  H17R 3947   3.820   4.649   6.371 -0.7552 -2.3307  1.8559
   31DOPE  H17S 3948   3.979   4.596   6.298 -0.2554  0.7725 -0.9060
   31DOPE  C218 3949   3.827   4.441   6.310  0.2169  0.4254  0.0267
   31DOPE  H18R 3950   3.877   4.402   6.401  0.5108 -0.3240 -0.4486
   31DOPE  H18S 3951   3.882   4.399   6.224  0.5926 -0.2005  0.5680
   31DOPE  H18T 3952   3.719   4.412   6.314  0.5350 -0.7688  0.2814
   31DOPE   C33 3953   3.484   3.974   4.894 -0.1658  0.4068 -0.2307
   31DOPE   H3X 3954   3.541   4.068   4.882  0.3381  0.5046  2.4574
   31DOPE   H3Y 3955   3.562   3.897   4.909 -0.3370  0.4932  1.2392
   31DOPE   C34 3956   3.386   3.992   5.003 -0.0952  0.5072 -0.6738
   31DOPE   H4X 3957   3.441   4.062   5.069 -1.2215  1.5118 -0.7620
   31DOPE   H4Y 3958   3.309   4.053   4.952  1.5968  1.9249 -1.6364
   31DOPE   C35 3959   3.362   3.862   5.073  0.4272  0.2689 -0.1815
   31DOPE   H5X 3960   3.456   3.816   5.110  0.5249  0.2916 -0.4044
   31DOPE   H5Y 3961   3.316   3.791   5.001 -1.6723  1.3885 -0.0199
   31DOPE   C36 3962   3.276   3.889   5.199  0.5708  0.1540 -0.4266
   31DOPE   H6X 3963   3.172   3.911   5.167  0.5408  0.1061 -0.3632
   31DOPE   H6Y 3964   3.320   3.970   5.260  0.8021 -0.7413  0.6279
   31DOPE   C37 3965   3.285   3.766   5.294 -0.1219  0.2749  0.0070
   31DOPE   H7X 3966   3.205   3.777   5.371 -1.2226 -0.7199 -0.9579
   31DOPE   H7Y 3967   3.253   3.671   5.246 -2.3582 -0.1279  2.0940
   31DOPE   C38 3968   3.418   3.754   5.373 -0.2982 -0.3071  0.6459
   31DOPE   H8X 3969   3.445   3.853   5.417  3.3470 -1.1930  0.7560
   31DOPE   H8Y 3970   3.502   3.727   5.305 -0.6726  1.0655 -0.4152
   31DOPE   C39 3971   3.403   3.644   5.469 -0.1234  0.7476  0.3481
   31DOPE   H9X 3972   3.406   3.545   5.422  0.0208  1.0876 -0.3743
   31DOPE  C310 3973   3.411   3.654   5.603 -0.4570 -0.5758 -0.0003
   31DOPE  H10X 3974   3.429   3.563   5.662 -1.8318  0.0997  1.5378
   31DOPE  C311 3975   3.423   3.774   5.687  0.7899  0.1769  0.1336
   31DOPE  H11X 3976   3.512   3.765   5.752  1.8277  3.0592 -0.7028
   31DOPE  H11Y 3977   3.446   3.861   5.621 -1.0856  0.3797 -0.2971
   31DOPE  C312 3978   3.299   3.823   5.762  0.0514  0.2937 -0.3164
   31DOPE  H12X 3979   3.209   3.842   5.700  0.5485  3.1248 -0.2937
   31DOPE  H12Y 3980   3.321   3.925   5.799  0.0537  0.5581 -1.0231
   31DOPE  C313 3981   3.255   3.736   5.874  0.4980  0.3631 -0.2469
   31DOPE  H13X 3982   3.241   3.631   5.839 -0.6688  0.2686  0.4462
   31DOPE  H13Y 3983   3.349   3.727   5.933  0.6050 -0.4357 -0.5281
   31DOPE  C314 3984   3.129   3.783   5.957 -0.7871 -0.5613  0.4965
   31DOPE  H14X 3985   3.103   3.696   6.020 -1.3374  0.8398  2.2971
   31DOPE  H14Y 3986   3.046   3.795   5.884 -0.2418 -1.7436 -0.3559
   31DOPE  C315 3987   3.159   3.911   6.047  0.4547 -0.9738  0.6247
   31DOPE  H15X 3988   3.076   3.929   6.118  0.1122 -2.0485  0.5064
   31DOPE  H15Y 3989   3.168   3.986   5.965 -0.7327 -0.3842  1.0093
   31DOPE  C316 3990   3.298   3.920   6.118  0.6125 -0.1539  0.2629
   31DOPE  H16X 3991   3.381   3.917   6.044 -0.1590 -0.9028 -0.5930
   31DOPE  H16Y 3992   3.311   3.826   6.175  1.0976 -1.5487 -2.0454
   31DOPE  C317 3993   3.304   4.047   6.208  0.2054 -0.1523 -0.0070
   31DOPE  H17X 3994   3.300   4.126   6.130 -0.0647  2.1494  2.1739
   31DOPE  H17Y 3995   3.215   4.066   6.272  0.1958  2.0146 -0.5736
   31DOPE  C318 3996   3.429   4.052   6.295 -0.1726 -0.5664  0.8790
   31DOPE  H18X 3997   3.423   3.975   6.375  0.3257 -3.7004 -1.8582
   31DOPE  H18Y 3998   3.515   4.019   6.234 -0.3405  0.5420  0.0077
   31DOPE  H18Z 3999   3.460   4.153   6.329 -0.4743  0.8628 -2.6700
   32DOPE     N 4000   5.899   4.384   3.528 -0.2567 -0.0079  0.0045
   32DOPE   HN1 4001   5.869   4.311   3.461 -0.4805 -1.3776  1.5215
   32DOPE   HN2 4002   5.919   4.474   3.480 -0.0075 -0.3997 -0.6280
   32DOPE   HN3 4003   5.991   4.352   3.565 -0.8447 -0.6554  0.9670
   32DOPE   C12 4004   5.807   4.375   3.645 -0.0221  0.6155  0.3522
   32DOPE  H12A 4005   5.849   4.300   3.715 -1.1699 -0.6030 -0.2154
   32DOPE  H12B 4006   5.703   4.344   3.619 -0.5402  2.5591 -0.0627
   32DOPE   C11 4007   5.799   4.502   3.727  0.1251 -0.4851 -0.4870
   32DOPE  H11A 4008   5.903   4.535   3.747  0.8040  1.2508 -5.4178
   32DOPE  H11B 4009   5.749   4.480   3.823  0.1301  1.5440  0.0242
   32DOPE     P 4010   5.733   4.757   3.708 -0.1814 -0.2015 -0.1709
   32DOPE   O13 4011   5.635   4.836   3.631 -0.0398 -0.5568  0.0690
   32DOPE   O14 4012   5.875   4.800   3.722 -0.5627  0.1364  0.5976
   32DOPE   O11 4013   5.668   4.729   3.848  0.1186  0.4137 -0.5159
   32DOPE   O12 4014   5.732   4.609   3.653 -0.3100 -0.2819  0.0603
   32DOPE    C1 4015   5.530   4.696   3.866 -0.6676 -0.3574 -0.6720
   32DOPE    HA 4016   5.520   4.631   3.956  1.0394  0.3709  0.0833
   32DOPE    HB 4017   5.487   4.646   3.777 -2.2468  2.0050 -1.3342
   32DOPE    C2 4018   5.451   4.824   3.897 -0.0294 -0.1155 -0.6468
   32DOPE    HS 4019   5.511   4.903   3.847  0.9832 -0.0349  0.6475
   32DOPE   O21 4020   5.442   4.847   4.039  0.0188  0.0479  0.6834
   32DOPE   C21 4021   5.432   4.975   4.077  0.0247  0.4757  0.0898
   32DOPE   O22 4022   5.452   5.076   4.013  0.5799  0.3005 -0.0867
   32DOPE   C22 4023   5.395   4.968   4.225  0.0221  0.4105  0.0749
   32DOPE   H2R 4024   5.426   5.063   4.272  1.5177 -0.2241  0.4192
   32DOPE   H2S 4025   5.471   4.898   4.266  1.5352  0.4491 -2.4579
   32DOPE    C3 4026   5.309   4.829   3.835  0.0848  0.4439  0.4138
   32DOPE    HX 4027   5.309   4.779   3.735 -0.0723  1.8272 -0.3044
   32DOPE    HY 4028   5.278   4.935   3.834 -0.0095  0.4805  2.5405
   32DOPE   O31 4029   5.209   4.751   3.914 -0.0146  0.5064 -0.4758
   32DOPE   C31 4030   5.115   4.811   3.980 -0.8269  0.1570 -0.0639
   32DOPE   O32 4031   5.093   4.930   3.984 -0.0867  0.6060 -0.3396
   32DOPE   C32 4032   5.037   4.699   4.056  0.1137  0.3236  0.1310
   32DOPE   H2X 4033   4.993   4.633   3.978 -0.9833  0.7785  0.3488
   32DOPE   H2Y 4034   5.108   4.635   4.112  2.6334  1.4616 -1.5874
   32DOPE   C23 4035   5.246   4.947   4.263  0.1343 -0.1094  0.3869
   32DOPE   H3R 4036   5.214   4.845   4.231  0.4053 -0.1683  0.2965
   32DOPE   H3S 4037   5.181   5.024   4.217  0.0739 -0.6369 -0.4521
   32DOPE   C24 4038   5.221   4.953   4.412  0.5359  0.4554  0.4291
   32DOPE   H4R 4039   5.261   5.042   4.465 -1.3507  1.3985  0.3374
   32DOPE   H4S 4040   5.275   4.867   4.458 -2.1015 -0.5262  1.9288
   32DOPE   C25 4041   5.077   4.955   4.450  0.1667  0.8394  0.9021
   32DOPE   H5R 4042   5.037   4.855   4.420  1.9145  1.0865 -2.8971
   32DOPE   H5S 4043   5.021   5.032   4.393  0.1855  1.3631  1.5804
   32DOPE   C26 4044   5.045   4.985   4.596 -0.5027 -0.0001  0.0265
   32DOPE   H6R 4045   4.935   4.967   4.604 -0.5856  0.0553 -0.8687
   32DOPE   H6S 4046   5.070   5.090   4.622 -0.8294  0.3223 -0.9034
   32DOPE   C27 4047   5.116   4.891   4.690 -0.0651  0.1799  0.9715
   32DOPE   H7R 4048   5.215   4.935   4.715 -0.7061  0.6127  2.9905
   32DOPE   H7S 4049   5.124   4.787   4.652  0.1008  0.1416  1.1124
   32DOPE   C28 4050   5.025   4.885   4.825 -0.9957 -0.6031  0.1886
   32DOPE   H8R 4051   5.066   4.799   4.882 -0.1247  0.4033  1.1450
   32DOPE   H8S 4052   4.921   4.856   4.799 -0.4818 -0.9656 -1.5607
   32DOPE   C29 4053   5.033   5.013   4.910 -0.0962 -0.0298 -0.7291
   32DOPE   H9R 4054   5.045   5.104   4.849  0.2915 -0.0525 -0.6887
   32DOPE  C210 4055   5.040   5.017   5.047 -0.2521 -0.4959  0.1407
   32DOPE  H10R 4056   5.047   5.111   5.104  0.3078 -0.9311  0.8066
   32DOPE  C211 4057   5.021   4.905   5.143 -0.5282 -0.6798 -0.6162
   32DOPE  H11R 4058   4.994   4.813   5.087 -1.4094 -1.9404  1.6886
   32DOPE  H11S 4059   4.929   4.921   5.204  0.3352  3.1994 -0.1096
   32DOPE  C212 4060   5.130   4.875   5.249  0.3828  0.6402  0.5294
   32DOPE  H12R 4061   5.229   4.849   5.205  0.0069 -1.9393  1.0110
   32DOPE  H12S 4062   5.101   4.787   5.310  3.2312  0.2706  1.5389
   32DOPE  C213 4063   5.152   4.985   5.352  0.2912 -0.4568 -0.1306
   32DOPE  H13R 4064   5.185   5.074   5.294  1.0635 -0.0795  0.8727
   32DOPE  H13S 4065   5.245   4.962   5.407  0.7935 -1.6592 -1.4163
   32DOPE  C214 4066   5.037   5.027   5.451 -0.7882  0.0079  0.4064
   32DOPE  H14R 4067   4.948   5.063   5.396  0.7035  0.7406 -1.6619
   32DOPE  H14S 4068   5.073   5.107   5.519  0.0369  0.3700 -0.4357
   32DOPE  C215 4069   4.988   4.912   5.534  0.2144  0.1613  0.1331
   32DOPE  H15R 4070   5.072   4.888   5.603  0.0827  0.7459  0.4990
   32DOPE  H15S 4071   4.970   4.823   5.470 -2.6596  0.1914  0.7840
   32DOPE  C216 4072   4.867   4.928   5.623  0.2424 -0.0732  0.3310
   32DOPE  H16R 4073   4.814   4.831   5.633 -0.7065  0.3206 -0.6602
   32DOPE  H16S 4074   4.792   4.991   5.571 -2.1664 -1.4770  1.8961
   32DOPE  C217 4075   4.890   4.980   5.762  0.6009  0.1622  0.4653
   32DOPE  H17R 4076   4.980   5.044   5.767  1.2761 -0.8531  2.0518
   32DOPE  H17S 4077   4.909   4.890   5.824  0.1977 -0.5524 -0.4158
   32DOPE  C218 4078   4.772   5.063   5.814 -0.6863 -0.1442  0.1567
   32DOPE  H18R 4079   4.683   4.997   5.804 -0.2678 -0.4561 -2.2188
   32DOPE  H18S 4080   4.750   5.156   5.758 -1.3981 -0.5086 -0.1836
   32DOPE  H18T 4081   4.802   5.092   5.917 -1.0657  1.1218 -0.0696
   32DOPE   C33 4082   4.939   4.757   4.161 -0.5068  0.4734 -0.3406
   32DOPE   H3X 4083   4.971   4.856   4.201 -3.1046  1.1560  0.2485
   32DOPE   H3Y 4084   4.932   4.694   4.253  0.8473  0.7286 -0.0365
   32DOPE   C34 4085   4.794   4.774   4.112 -0.4843  0.8647  0.6003
   32DOPE   H4X 4086   4.800   4.803   4.005 -0.4845  0.1301  0.3924
   32DOPE   H4Y 4087   4.757   4.669   4.111 -0.1381  0.7282  1.3382
   32DOPE   C35 4088   4.704   4.854   4.202 -0.1493  0.7561  0.8914
   32DOPE   H5X 4089   4.754   4.941   4.249  2.1572 -1.4722  2.8268
   32DOPE   H5Y 4090   4.677   4.796   4.293 -0.7492 -1.1161 -0.4174
   32DOPE   C36 4091   4.574   4.905   4.138 -0.5261 -0.0449  0.4226
   32DOPE   H6X 4092   4.591   4.961   4.043  0.5693 -0.0230  0.6253
   32DOPE   H6Y 4093   4.527   4.970   4.215  2.4725  0.5793  1.8521
   32DOPE   C37 4094   4.469   4.802   4.114  0.5205  0.6682 -0.4810
   32DOPE   H7X 4095   4.481   4.761   4.011  2.5790 -0.1680  0.0455
   32DOPE   H7Y 4096   4.481   4.713   4.180 -1.0316  0.4150 -0.4997
   32DOPE   C38 4097   4.322   4.845   4.142  0.4292 -0.1124 -0.0682
   32DOPE   H8X 4098   4.289   4.891   4.047  0.1385 -1.5015 -0.6691
   32DOPE   H8Y 4099   4.321   4.935   4.208  2.0300  1.7680 -2.4512
   32DOPE   C39 4100   4.224   4.737   4.185 -0.0425 -0.3712  0.4486
   32DOPE   H9X 4101   4.192   4.672   4.102  1.9444 -0.7847 -0.0598
   32DOPE  C310 4102   4.170   4.726   4.305  0.1604  0.0885 -0.2381
   32DOPE  H10X 4103   4.084   4.658   4.307 -0.4416  0.6677 -3.0909
   32DOPE  C311 4104   4.192   4.823   4.423 -0.0956 -0.1511  0.1206
   32DOPE  H11X 4105   4.296   4.859   4.419  0.4974 -1.8520 -1.3267
   32DOPE  H11Y 4106   4.126   4.912   4.418  0.9791  0.6671  0.1847
   32DOPE  C312 4107   4.174   4.738   4.544 -0.3675  0.1570 -0.7486
   32DOPE  H12X 4108   4.246   4.654   4.549 -1.2081 -0.6713  5.0807
   32DOPE  H12Y 4109   4.073   4.691   4.538 -0.8291  1.1071 -0.6541
   32DOPE  C313 4110   4.160   4.820   4.677  0.1419 -0.7509 -0.3674
   32DOPE  H13X 4111   4.256   4.874   4.691  0.9306 -1.8471 -1.3002
   32DOPE  H13Y 4112   4.086   4.897   4.647 -0.7872 -1.2102  0.7126
   32DOPE  C314 4113   4.100   4.756   4.803  0.4327 -0.5251  0.0993
   32DOPE  H14X 4114   4.164   4.674   4.840 -0.1376 -0.8807  0.3179
   32DOPE  H14Y 4115   4.004   4.718   4.761  1.1493 -0.5165 -1.6224
   32DOPE  C315 4116   4.062   4.863   4.909 -0.0834  0.7085 -0.3616
   32DOPE  H15X 4117   3.985   4.808   4.967  0.0129  1.4413  0.4788
   32DOPE  H15Y 4118   4.009   4.949   4.862 -1.5114 -0.9971 -2.0194
   32DOPE  C316 4119   4.180   4.906   5.001  0.1789 -0.3370  0.1517
   32DOPE  H16X 4120   4.134   4.983   5.067  1.1886  0.2713  0.1807
   32DOPE  H16Y 4121   4.255   4.947   4.930 -0.4859  0.5243 -0.0795
   32DOPE  C317 4122   4.230   4.798   5.101 -0.3618  0.1637  0.1017
   32DOPE  H17X 4123   4.237   4.701   5.047 -0.5117  1.0250 -1.5097
   32DOPE  H17Y 4124   4.332   4.815   5.142 -0.4211  0.2559  0.2100
   32DOPE  C318 4125   4.134   4.778   5.221 -0.0210  0.1248  0.3694
   32DOPE  H18X 4126   4.181   4.705   5.291  1.0856 -0.5488 -1.0326
   32DOPE  H18Y 4127   4.110   4.877   5.264  2.9790  1.1763 -0.1386
   32DOPE  H18Z 4128   4.038   4.744   5.177 -0.0242 -0.9187  1.1300
   33DOPE     N 4129   4.248   2.780   4.243  0.0548 -0.0010  0.0383
   33DOPE   HN1 4130   4.207   2.688   4.217  3.0592 -3.0443  4.5563
   33DOPE   HN2 4131   4.179   2.852   4.214 -1.1960 -0.9796  0.4528
   33DOPE   HN3 4132   4.323   2.794   4.173  0.0822  0.9147  0.2368
   33DOPE   C12 4133   4.269   2.767   4.391  0.1111 -0.0566  0.5047
   33DOPE  H12A 4134   4.356   2.700   4.407  2.1552  2.0275 -1.0675
   33DOPE  H12B 4135   4.179   2.723   4.439  0.4242 -0.3019  0.8654
   33DOPE   C11 4136   4.299   2.910   4.447  0.2507  0.0634  0.4191
   33DOPE  H11A 4137   4.399   2.940   4.410 -0.2366  1.9986  0.5734
   33DOPE  H11B 4138   4.306   2.903   4.558 -0.4924  1.0066  0.5411
   33DOPE     P 4139   4.234   3.161   4.398  0.2265 -0.0676  0.5633
   33DOPE   O13 4140   4.205   3.193   4.253 -0.2355 -0.1291  0.1567
   33DOPE   O14 4141   4.368   3.190   4.445 -0.1803  0.3725 -0.3701
   33DOPE   O11 4142   4.133   3.228   4.498 -0.5914 -0.6239 -0.3720
   33DOPE   O12 4143   4.198   3.003   4.403 -0.1534  0.4645 -0.5610
   33DOPE    C1 4144   3.995   3.213   4.462 -0.6949 -0.1741  0.3906
   33DOPE    HA 4145   3.972   3.113   4.419 -1.4855  0.0764  0.2201
   33DOPE    HB 4146   3.959   3.298   4.400  2.0888  1.9596  1.5210
   33DOPE    C2 4147   3.902   3.206   4.582 -0.5542  0.2306  0.1212
   33DOPE    HS 4148   3.796   3.182   4.559 -0.0592 -0.4929 -1.4930
   33DOPE   O21 4149   3.922   3.312   4.672  0.2206  0.2209 -0.3769
   33DOPE   C21 4150   3.866   3.419   4.635  0.2203  0.3603  0.2937
   33DOPE   O22 4151   3.796   3.436   4.536 -0.1358 -0.5623  0.0582
   33DOPE   C22 4152   3.905   3.533   4.730  0.6035 -0.5178  0.4509
   33DOPE   H2R 4153   3.896   3.623   4.666 -0.1125 -1.3653 -0.6627
   33DOPE   H2S 4154   4.010   3.510   4.757  1.6637 -0.7943 -3.3727
   33DOPE    C3 4155   3.940   3.073   4.659 -0.3325  0.7880 -0.1179
   33DOPE    HX 4156   4.050   3.059   4.648 -0.4874 -0.3814 -0.3792
   33DOPE    HY 4157   3.895   2.995   4.594 -0.9648  0.6232  0.5011
   33DOPE   O31 4158   3.882   3.081   4.791 -0.0863  0.2935 -0.0174
   33DOPE   C31 4159   3.968   3.099   4.891 -0.4239 -0.1111 -0.0176
   33DOPE   O32 4160   4.081   3.149   4.872  0.5527 -0.2151 -0.5871
   33DOPE   C32 4161   3.918   3.046   5.024 -0.0029 -0.1527 -0.3021
   33DOPE   H2X 4162   3.870   2.947   5.005 -0.3533 -0.0730  0.1568
   33DOPE   H2Y 4163   3.998   3.028   5.099 -1.8283 -0.0442  1.7688
   33DOPE   C23 4164   3.811   3.548   4.852  0.1047  0.5263  0.2376
   33DOPE   H3R 4165   3.813   3.449   4.904  0.5458  1.1146  1.3893
   33DOPE   H3S 4166   3.713   3.573   4.806 -0.1835  0.2528  0.6851
   33DOPE   C24 4167   3.836   3.658   4.955 -0.1495 -0.1257  0.1325
   33DOPE   H4R 4168   3.834   3.753   4.898  2.0681 -0.0013  0.2042
   33DOPE   H4S 4169   3.939   3.653   4.994  0.3041  0.5165 -0.9357
   33DOPE   C25 4170   3.729   3.657   5.062 -0.4495  0.4742  0.5408
   33DOPE   H5R 4171   3.714   3.555   5.104 -0.1180  0.2785  0.1827
   33DOPE   H5S 4172   3.629   3.693   5.028 -0.7133 -1.2950 -0.6626
   33DOPE   C26 4173   3.777   3.750   5.174  0.0907 -0.3893 -0.1622
   33DOPE   H6R 4174   3.887   3.737   5.188 -0.1360 -0.8001  1.4687
   33DOPE   H6S 4175   3.741   3.712   5.272  1.0866  0.5670  0.5891
   33DOPE   C27 4176   3.749   3.894   5.151  0.5812  0.3629 -0.2479
   33DOPE   H7R 4177   3.640   3.913   5.137  0.9920  2.0355 -1.5337
   33DOPE   H7S 4178   3.803   3.912   5.056  1.5950 -2.2671 -0.2472
   33DOPE   C28 4179   3.812   3.980   5.261 -0.0204 -0.4009  0.1837
   33DOPE   H8R 4180   3.819   4.087   5.230  0.2115 -0.7683 -1.0954
   33DOPE   H8S 4181   3.914   3.943   5.284 -1.0589 -2.5973  1.5436
   33DOPE   C29 4182   3.726   3.968   5.389  0.2894 -0.5232  0.8135
   33DOPE   H9R 4183   3.631   4.023   5.382 -0.2037 -1.4242  0.2391
   33DOPE  C210 4184   3.758   3.904   5.501 -0.4126 -0.1949 -0.2765
   33DOPE  H10R 4185   3.679   3.904   5.578 -1.8274 -0.1594 -1.6733
   33DOPE  C211 4186   3.886   3.828   5.538  0.5445 -0.2855  0.9140
   33DOPE  H11R 4187   3.968   3.862   5.472  1.2373  1.2647  2.4904
   33DOPE  H11S 4188   3.866   3.720   5.522  0.2379  0.0207 -0.9632
   33DOPE  C212 4189   3.938   3.836   5.682  0.3258 -0.8440 -0.4287
   33DOPE  H12R 4190   3.960   3.941   5.713  3.5206 -1.4779 -0.1806
   33DOPE  H12S 4191   4.034   3.782   5.696  0.4541 -0.2565  1.1285
   33DOPE  C213 4192   3.832   3.779   5.781 -0.1035  0.3737  0.4705
   33DOPE  H13R 4193   3.806   3.679   5.739 -1.0978  0.7379  0.1989
   33DOPE  H13S 4194   3.749   3.852   5.778  0.5528  1.1535  1.0146
   33DOPE  C214 4195   3.883   3.769   5.928 -0.7501  0.0010  0.4009
   33DOPE  H14R 4196   3.948   3.680   5.941 -1.9855 -1.3471 -1.9482
   33DOPE  H14S 4197   3.792   3.753   5.989 -1.8991  0.7653 -1.0418
   33DOPE  C215 4198   3.976   3.881   5.981  0.2560 -0.1290 -0.1163
   33DOPE  H15R 4199   4.062   3.892   5.912  1.1484  1.2270  1.1487
   33DOPE  H15S 4200   4.011   3.848   6.082 -0.7149 -2.4575 -0.4752
   33DOPE  C216 4201   3.903   4.020   6.003  0.0048  0.5926 -0.3845
   33DOPE  H16R 4202   3.799   4.005   6.040 -0.1840  0.5898 -0.9093
   33DOPE  H16S 4203   3.906   4.078   5.909  1.0811  0.6995 -0.2912
   33DOPE  C217 4204   3.980   4.105   6.102  0.1785  0.0820  0.4224
   33DOPE  H17R 4205   3.961   4.212   6.078 -0.1160 -0.7091 -3.5893
   33DOPE  H17S 4206   4.084   4.075   6.074  0.4705 -0.1520  1.7168
   33DOPE  C218 4207   3.957   4.083   6.250  0.3461 -0.4161  0.6706
   33DOPE  H18R 4208   3.857   4.123   6.279  0.9712  0.5858  1.5486
   33DOPE  H18S 4209   4.030   4.147   6.305 -1.0171  2.4755 -0.6482
   33DOPE  H18T 4210   3.974   3.979   6.286  0.7993  0.3983  3.0102
   33DOPE   C33 4211   3.819   3.135   5.087  1.4331  0.4516 -0.2894
   33DOPE   H3X 4212   3.756   3.082   5.162  1.0146 -1.1981 -1.7332
   33DOPE   H3Y 4213   3.750   3.175   5.009  2.1119  2.4394  0.0863
   33DOPE   C34 4214   3.889   3.242   5.165 -0.4697 -0.3254  0.3150
   33DOPE   H4X 4215   3.976   3.203   5.223 -0.8088  0.1111  1.1307
   33DOPE   H4Y 4216   3.932   3.309   5.088 -1.5861 -1.9947 -1.8410
   33DOPE   C35 4217   3.791   3.324   5.247  0.6159 -0.1861 -0.3598
   33DOPE   H5X 4218   3.692   3.348   5.202  0.1304 -0.8855  0.3216
   33DOPE   H5Y 4219   3.826   3.427   5.269 -1.2546  0.5033 -0.4675
   33DOPE   C36 4220   3.761   3.257   5.382  0.1499  0.7686 -0.2598
   33DOPE   H6X 4221   3.846   3.233   5.449 -1.4552 -2.8385  0.7613
   33DOPE   H6Y 4222   3.724   3.157   5.349 -2.1178  0.9881  1.4063
   33DOPE   C37 4223   3.643   3.318   5.463  0.1827  0.7106 -0.3671
   33DOPE   H7X 4224   3.666   3.422   5.496  2.1332  0.4019 -0.6155
   33DOPE   H7Y 4225   3.551   3.329   5.402 -0.6342 -2.1985  0.1911
   33DOPE   C38 4226   3.593   3.226   5.581 -0.5419  0.6624  0.3723
   33DOPE   H8X 4227   3.569   3.121   5.554 -0.4311  0.7746 -0.1713
   33DOPE   H8Y 4228   3.503   3.272   5.628 -0.9112  0.8516 -0.4955
   33DOPE   C39 4229   3.700   3.224   5.692 -0.1624  0.3150  0.0174
   33DOPE   H9X 4230   3.769   3.309   5.686 -2.7211  2.4720 -0.7209
   33DOPE  C310 4231   3.715   3.127   5.788  0.3228 -0.1657 -0.2456
   33DOPE  H10X 4232   3.793   3.144   5.864  0.1991  1.2698 -0.4170
   33DOPE  C311 4233   3.628   3.009   5.809 -0.7582 -0.1904  0.9525
   33DOPE  H11X 4234   3.576   2.980   5.715  2.4096 -0.9925 -0.6912
   33DOPE  H11Y 4235   3.695   2.923   5.832  0.7966  0.6116 -0.3821
   33DOPE  C312 4236   3.523   3.035   5.918  0.2432 -0.2123 -0.1671
   33DOPE  H12X 4237   3.449   2.952   5.917 -0.9837  0.8422 -0.8924
   33DOPE  H12Y 4238   3.471   3.131   5.897  0.3159 -0.1927 -0.2586
   33DOPE  C313 4239   3.588   3.052   6.058 -0.8756 -0.3483 -0.4566
   33DOPE  H13X 4240   3.633   2.957   6.095  0.7274 -0.1282 -1.7534
   33DOPE  H13Y 4241   3.681   3.110   6.045 -1.0836 -0.3269 -1.9912
   33DOPE  C314 4242   3.490   3.118   6.159 -0.4056 -0.8956 -0.0784
   33DOPE  H14X 4243   3.469   3.220   6.120 -1.0426 -0.6837  0.7916
   33DOPE  H14Y 4244   3.540   3.128   6.258  0.6189 -2.8086 -0.3430
   33DOPE  C315 4245   3.358   3.044   6.169  0.5633  0.8318 -0.0299
   33DOPE  H15X 4246   3.390   2.942   6.200 -0.3621  0.5692  0.0770
   33DOPE  H15Y 4247   3.321   3.045   6.065 -0.5873 -1.3361  0.3003
   33DOPE  C316 4248   3.251   3.110   6.251 -0.2385  0.1283  0.0693
   33DOPE  H16X 4249   3.222   3.210   6.211  0.6480 -0.1574 -1.3273
   33DOPE  H16Y 4250   3.283   3.127   6.356 -0.9545  0.5146  0.2325
   33DOPE  C317 4251   3.111   3.031   6.260 -0.6074 -1.2500  1.4162
   33DOPE  H17X 4252   3.123   2.945   6.330 -0.9817 -1.1933  1.5546
   33DOPE  H17Y 4253   3.044   3.115   6.287  0.1872 -0.4469  0.9259
   33DOPE  C318 4254   3.071   2.973   6.126  0.2243 -0.0139 -0.2196
   33DOPE  H18X 4255   2.973   2.921   6.138  0.6364 -0.4287  1.6098
   33DOPE  H18Y 4256   3.059   3.046   6.043  0.0533  0.1496 -0.0515
   33DOPE  H18Z 4257   3.145   2.898   6.089 -1.0208 -1.1906 -0.4139
   34DOPE     N 4258   3.112   5.765   3.633 -0.0051  0.0557  0.1843
   34DOPE   HN1 4259   3.124   5.841   3.563  2.9966 -0.6441 -0.1475
   34DOPE   HN2 4260   3.143   5.676   3.590 -2.8806 -0.8253 -0.2972
   34DOPE   HN3 4261   3.009   5.756   3.650 -0.2801  1.9749 -0.1821
   34DOPE   C12 4262   3.174   5.793   3.770  0.0410 -1.4518  0.1045
   34DOPE  H12A 4263   3.116   5.878   3.812 -1.8506 -1.3752 -2.3832
   34DOPE  H12B 4264   3.279   5.825   3.751 -0.9540  1.1965 -1.5078
   34DOPE   C11 4265   3.147   5.682   3.872  0.1486 -0.3387  0.0305
   34DOPE  H11A 4266   3.042   5.685   3.911  0.4869 -1.0266  1.0450
   34DOPE  H11B 4267   3.205   5.705   3.964 -2.6702  1.1688  1.5663
   34DOPE     P 4268   3.325   5.500   3.804  0.1140  0.2597 -0.1508
   34DOPE   O13 4269   3.401   5.598   3.722 -0.5037  0.3339  0.2037
   34DOPE   O14 4270   3.334   5.360   3.754  0.0304  0.0326  0.1116
   34DOPE   O11 4271   3.385   5.510   3.946 -0.3086  0.4802  0.0581
   34DOPE   O12 4272   3.176   5.546   3.816  0.0107 -0.1218 -0.3498
   34DOPE    C1 4273   3.430   5.393   4.015 -0.0583 -0.4523 -0.5853
   34DOPE    HA 4274   3.491   5.427   4.102  1.1497 -1.0150 -1.1857
   34DOPE    HB 4275   3.500   5.336   3.950  1.0155 -0.0986  0.2218
   34DOPE    C2 4276   3.312   5.315   4.072 -0.5806 -0.2831  0.0487
   34DOPE    HS 4277   3.241   5.293   3.989 -1.0284 -2.9236  1.0311
   34DOPE   O21 4278   3.249   5.399   4.167 -0.3899  0.6260 -0.3522
   34DOPE   C21 4279   3.114   5.403   4.156 -0.1598  0.5617 -0.4706
   34DOPE   O22 4280   3.047   5.343   4.080  0.2899  0.3508  0.3655
   34DOPE   C22 4281   3.052   5.485   4.270 -0.3063  0.7725  0.1222
   34DOPE   H2R 4282   2.942   5.471   4.266  0.0115 -3.3387  1.1241
   34DOPE   H2S 4283   3.078   5.592   4.272 -0.7742  0.9226 -1.0150
   34DOPE    C3 4284   3.366   5.189   4.147 -0.2401  0.0492  0.3988
   34DOPE    HX 4285   3.424   5.143   4.064  0.0591  0.3022  0.4656
   34DOPE    HY 4286   3.280   5.126   4.178  0.4645 -0.8010  0.6594
   34DOPE   O31 4287   3.463   5.212   4.251 -0.1340 -0.3805 -0.2393
   34DOPE   C31 4288   3.410   5.205   4.372 -0.3235 -0.4810  0.1831
   34DOPE   O32 4289   3.296   5.176   4.400  0.1659 -0.4379  0.1183
   34DOPE   C32 4290   3.519   5.234   4.475  0.2723 -0.4042  0.2558
   34DOPE   H2X 4291   3.590   5.150   4.490  0.4094 -0.4015 -0.3517
   34DOPE   H2Y 4292   3.580   5.318   4.436  0.1208  0.1059  1.1075
   34DOPE   C23 4293   3.102   5.423   4.403 -0.7387 -0.2349 -0.8721
   34DOPE   H3R 4294   3.213   5.424   4.410 -0.7839 -1.5045  0.4719
   34DOPE   H3S 4295   3.059   5.321   4.406 -0.7157 -0.2525  2.2431
   34DOPE   C24 4296   3.053   5.501   4.529  0.4932 -0.3610  0.3949
   34DOPE   H4R 4297   2.942   5.501   4.533  0.4184  1.8789 -0.0304
   34DOPE   H4S 4298   3.082   5.608   4.519 -0.1335 -0.3032 -1.1475
   34DOPE   C25 4299   3.102   5.449   4.668  0.1433 -0.4968  0.2607
   34DOPE   H5R 4300   3.209   5.422   4.653  0.3858  1.1483 -1.3821
   34DOPE   H5S 4301   3.043   5.356   4.687 -2.9511  0.7514 -2.3310
   34DOPE   C26 4302   3.070   5.546   4.783  0.0108 -0.1927 -0.0802
   34DOPE   H6R 4303   2.963   5.542   4.812  0.0831 -2.0386  0.0609
   34DOPE   H6S 4304   3.096   5.649   4.750 -1.5047  0.9369  2.0410
   34DOPE   C27 4305   3.167   5.524   4.902  0.8050  0.0703  0.1290
   34DOPE   H7R 4306   3.269   5.525   4.858 -0.2744  0.8591 -2.5906
   34DOPE   H7S 4307   3.137   5.421   4.932  4.0436 -1.2722 -0.8414
   34DOPE   C28 4308   3.155   5.633   5.007 -0.3114 -0.0954 -0.2199
   34DOPE   H8R 4309   3.162   5.726   4.948  0.0734 -0.3985 -0.6606
   34DOPE   H8S 4310   3.238   5.636   5.082 -2.0773  1.4583  1.7829
   34DOPE   C29 4311   3.026   5.639   5.083  0.6827 -0.3191  0.5086
   34DOPE   H9R 4312   2.938   5.667   5.024  0.7506 -0.7885  0.1828
   34DOPE  C210 4313   3.003   5.625   5.212  0.0703  0.3048  0.1492
   34DOPE  H10R 4314   2.900   5.625   5.252  0.9985  0.3947  2.7123
   34DOPE  C211 4315   3.094   5.585   5.327  0.0440  0.1188  0.2450
   34DOPE  H11R 4316   3.192   5.563   5.281  0.3282  1.9502 -0.1309
   34DOPE  H11S 4317   3.049   5.500   5.383  0.0592 -0.2949 -0.3639
   34DOPE  C212 4318   3.106   5.695   5.434 -0.2161  0.4537  0.2444
   34DOPE  H12R 4319   3.005   5.714   5.476  0.3810  2.8129  0.7425
   34DOPE  H12S 4320   3.141   5.796   5.401  2.1955  0.0212  1.2947
   34DOPE  C213 4321   3.189   5.655   5.554  0.5408  0.0195 -0.0323
   34DOPE  H13R 4322   3.296   5.632   5.535  0.6668 -0.5006  1.2191
   34DOPE  H13S 4323   3.145   5.558   5.586  2.0079 -0.4090  0.7763
   34DOPE  C214 4324   3.194   5.765   5.661 -0.0284 -0.5948  0.0581
   34DOPE  H14R 4325   3.089   5.793   5.682  0.4513  2.4225 -1.0304
   34DOPE  H14S 4326   3.258   5.847   5.623  2.8901 -2.7248  0.0559
   34DOPE  C215 4327   3.259   5.721   5.798  0.5265  0.1969 -0.0873
   34DOPE  H15R 4328   3.322   5.635   5.767  2.1814  1.4921 -0.4645
   34DOPE  H15S 4329   3.181   5.683   5.868 -0.3760  2.7183  0.4055
   34DOPE  C216 4330   3.347   5.822   5.869 -0.8135 -0.6188 -0.1323
   34DOPE  H16R 4331   3.409   5.870   5.791 -1.2819  1.7054  0.8306
   34DOPE  H16S 4332   3.418   5.768   5.936  0.1617 -0.8296 -1.3124
   34DOPE  C217 4333   3.263   5.922   5.952  0.3406 -0.0748 -0.2397
   34DOPE  H17R 4334   3.197   5.864   6.020  0.1260 -0.9373 -1.1464
   34DOPE  H17S 4335   3.203   5.974   5.874 -0.1615 -1.4489 -0.8181
   34DOPE  C218 4336   3.332   6.025   6.035 -0.1892  0.7015 -0.3557
   34DOPE  H18R 4337   3.354   5.990   6.138 -1.5537  0.1110 -0.2347
   34DOPE  H18S 4338   3.261   6.111   6.044 -1.2349 -0.2856  1.2219
   34DOPE  H18T 4339   3.421   6.079   5.996 -0.1407  0.8863  0.0141
   34DOPE   C33 4340   3.461   5.264   4.617 -0.4924 -0.5412 -0.3874
   34DOPE   H3X 4341   3.382   5.193   4.651 -0.5346 -0.0306  0.6257
   34DOPE   H3Y 4342   3.417   5.365   4.606 -2.1540 -1.5198 -4.3646
   34DOPE   C34 4343   3.569   5.276   4.724  0.7211 -0.4912  1.0356
   34DOPE   H4X 4344   3.627   5.181   4.717 -0.5251 -1.3973  2.4234
   34DOPE   H4Y 4345   3.644   5.354   4.701  1.1693 -1.3298 -0.5290
   34DOPE   C35 4346   3.500   5.292   4.860  0.3482  0.2897 -0.1441
   34DOPE   H5X 4347   3.425   5.212   4.877  0.3459  0.3785  0.2699
   34DOPE   H5Y 4348   3.448   5.389   4.841  1.6520  0.7451 -1.5905
   34DOPE   C36 4349   3.596   5.292   4.985  0.0482  0.3937  0.1269
   34DOPE   H6X 4350   3.680   5.363   4.973  3.0705 -2.8768  0.3425
   34DOPE   H6Y 4351   3.633   5.188   4.994  2.9192  1.3586  0.5673
   34DOPE   C37 4352   3.505   5.326   5.107 -0.6274 -0.3598  0.1217
   34DOPE   H7X 4353   3.476   5.433   5.118 -0.4289 -0.0518 -1.9540
   34DOPE   H7Y 4354   3.404   5.282   5.095 -1.2385  0.5599  1.7174
   34DOPE   C38 4355   3.576   5.289   5.239 -0.5090  0.0822  0.0080
   34DOPE   H8X 4356   3.652   5.370   5.246 -0.9206  0.4553  0.2000
   34DOPE   H8Y 4357   3.624   5.189   5.235 -0.4566  0.0301  1.4286
   34DOPE   C39 4358   3.480   5.285   5.355 -0.3456  0.4553  0.2620
   34DOPE   H9X 4359   3.392   5.222   5.337 -0.7425  1.0322  0.1513
   34DOPE  C310 4360   3.508   5.339   5.478 -0.9016 -0.1542 -0.1509
   34DOPE  H10X 4361   3.433   5.330   5.559  0.4000  1.6036  1.3454
   34DOPE  C311 4362   3.632   5.415   5.508  0.3445  0.6125 -0.2201
   34DOPE  H11X 4363   3.725   5.354   5.500  0.2276  0.6436 -2.6769
   34DOPE  H11Y 4364   3.647   5.494   5.431  0.5439  0.0460 -0.7735
   34DOPE  C312 4365   3.638   5.486   5.645 -0.0924  0.5253 -1.0797
   34DOPE  H12X 4366   3.575   5.578   5.643 -2.6579 -0.9045  2.7612
   34DOPE  H12Y 4367   3.741   5.519   5.670 -0.5481 -0.9710  3.9862
   34DOPE  C313 4368   3.582   5.396   5.759  0.0175  0.6276  0.3839
   34DOPE  H13X 4369   3.471   5.397   5.755  0.0297 -0.0370 -2.1157
   34DOPE  H13Y 4370   3.612   5.290   5.743  0.5927  0.7622  0.5431
   34DOPE  C314 4371   3.615   5.446   5.900 -0.5206 -0.2399 -0.9923
   34DOPE  H14X 4372   3.575   5.548   5.915 -0.3969 -0.2592 -0.5231
   34DOPE  H14Y 4373   3.723   5.438   5.924 -0.4160  0.8274 -1.0858
   34DOPE  C315 4374   3.551   5.371   6.013  0.0398 -0.1223 -0.1578
   34DOPE  H15X 4375   3.567   5.261   6.005 -1.1873 -0.3023 -0.3112
   34DOPE  H15Y 4376   3.443   5.380   5.989 -0.0773 -0.1737  0.3365
   34DOPE  C316 4377   3.579   5.427   6.156  0.6274 -0.2559 -0.9217
   34DOPE  H16X 4378   3.547   5.533   6.166 -2.1910 -1.0615 -0.4143
   34DOPE  H16Y 4379   3.687   5.418   6.181  1.1723  1.2279 -2.5651
   34DOPE  C317 4380   3.496   5.370   6.267  0.1762  0.9584 -0.2621
   34DOPE  H17X 4381   3.412   5.311   6.224  1.6995 -0.1545 -1.8635
   34DOPE  H17Y 4382   3.556   5.297   6.324  0.9388  1.6795 -0.1315
   34DOPE  C318 4383   3.448   5.475   6.367 -0.2767  0.2787 -1.0034
   34DOPE  H18X 4384   3.543   5.515   6.410 -0.0210 -0.0062 -1.3034
   34DOPE  H18Y 4385   3.395   5.562   6.323  2.7841  1.8825 -1.7886
   34DOPE  H18Z 4386   3.384   5.437   6.450  1.1481 -2.2563 -0.9845
   35DOPE     N 4387   5.543   4.016   4.160  0.2026  0.3580 -0.2356
   35DOPE   HN1 4388   5.480   3.933   4.162  1.9447 -0.9889  1.0111
   35DOPE   HN2 4389   5.512   4.075   4.081 -0.7374 -0.8388 -0.7946
   35DOPE   HN3 4390   5.638   3.976   4.149 -0.0547 -0.0087 -1.2803
   35DOPE   C12 4391   5.520   4.079   4.298 -0.6848 -0.8207  0.0340
   35DOPE  H12A 4392   5.602   4.152   4.317 -0.9347 -1.0634  2.3788
   35DOPE  H12B 4393   5.540   3.997   4.371 -1.6280 -1.9087 -0.8895
   35DOPE   C11 4394   5.383   4.148   4.325 -0.5255  1.1618  0.3442
   35DOPE  H11A 4395   5.371   4.177   4.432 -1.8090 -1.4657  1.0008
   35DOPE  H11B 4396   5.312   4.064   4.311 -0.3999  1.1587 -0.2813
   35DOPE     P 4397   5.219   4.308   4.194 -0.1271 -0.2183  0.0608
   35DOPE   O13 4398   5.130   4.191   4.176  0.3610  0.4089 -0.1537
   35DOPE   O14 4399   5.234   4.405   4.080 -0.4906  0.0421  0.2908
   35DOPE   O11 4400   5.185   4.387   4.324 -0.6034 -0.0825 -0.0586
   35DOPE   O12 4401   5.364   4.250   4.228  0.5242  0.4682 -0.5852
   35DOPE    C1 4402   5.053   4.381   4.380  0.2098 -0.6664  0.6724
   35DOPE    HA 4403   5.015   4.277   4.388 -0.2480 -0.5166  0.4714
   35DOPE    HB 4404   4.982   4.441   4.319 -0.2462 -0.0392  1.7890
   35DOPE    C2 4405   5.057   4.450   4.518 -0.0964 -0.6273 -0.3617
   35DOPE    HS 4406   5.093   4.555   4.508  0.5511 -0.6668  1.1899
   35DOPE   O21 4407   5.151   4.375   4.608  0.7427  0.2365  0.1450
   35DOPE   C21 4408   5.257   4.436   4.645 -0.1542  0.5374 -0.1749
   35DOPE   O22 4409   5.292   4.544   4.608 -0.6130 -0.1745  0.3229
   35DOPE   C22 4410   5.334   4.333   4.735 -0.2838 -0.0955 -0.5043
   35DOPE   H2R 4411   5.369   4.250   4.670 -1.5002 -0.2798 -0.9625
   35DOPE   H2S 4412   5.250   4.293   4.797 -1.0033 -0.0684 -1.4397
   35DOPE    C3 4413   4.918   4.463   4.583  0.2402  0.2945 -0.0948
   35DOPE    HX 4414   4.866   4.366   4.594 -3.1439  1.9681 -0.1708
   35DOPE    HY 4415   4.861   4.523   4.509  1.3816 -0.0177 -1.2819
   35DOPE   O31 4416   4.925   4.537   4.712 -0.0565 -0.3779  0.2659
   35DOPE   C31 4417   4.931   4.468   4.818  0.1904  0.5351  0.4494
   35DOPE   O32 4418   4.896   4.348   4.827  0.3351 -0.0190  0.0107
   35DOPE   C32 4419   4.992   4.544   4.934  0.1561 -0.1825 -0.0404
   35DOPE   H2X 4420   5.079   4.601   4.894  0.5104 -1.1662 -0.7209
   35DOPE   H2Y 4421   4.911   4.613   4.967 -0.7446 -0.8631 -0.7552
   35DOPE   C23 4422   5.446   4.401   4.815  0.2117  0.5177 -0.5125
   35DOPE   H3R 4423   5.490   4.480   4.750 -1.7587 -0.0349 -2.6531
   35DOPE   H3S 4424   5.529   4.330   4.835  1.4698  1.6105 -1.6847
   35DOPE   C24 4425   5.397   4.442   4.953 -0.3547 -0.6375 -0.1663
   35DOPE   H4R 4426   5.366   4.346   4.999  2.5017 -0.6385  2.0504
   35DOPE   H4S 4427   5.313   4.512   4.935  1.2561  0.8546 -2.6205
   35DOPE   C25 4428   5.503   4.516   5.037  0.6008 -0.4176 -0.0162
   35DOPE   H5R 4429   5.549   4.596   4.975  0.6685  0.4964  1.1748
   35DOPE   H5S 4430   5.583   4.439   5.043  1.5132  0.4166 -1.1003
   35DOPE   C26 4431   5.459   4.566   5.176 -0.4179 -0.2667 -0.3746
   35DOPE   H6R 4432   5.387   4.492   5.216 -1.1033 -1.1612 -3.0334
   35DOPE   H6S 4433   5.398   4.659   5.167 -2.3989 -1.5987 -1.7052
   35DOPE   C27 4434   5.576   4.597   5.267 -0.6087  0.5212 -0.2928
   35DOPE   H7R 4435   5.637   4.678   5.222 -1.2694  1.1497 -0.0902
   35DOPE   H7S 4436   5.638   4.505   5.269 -1.6818 -0.2199 -0.5639
   35DOPE   C28 4437   5.541   4.632   5.408  0.9140  0.3178  0.0745
   35DOPE   H8R 4438   5.450   4.696   5.409  0.0433 -0.8989 -0.4024
   35DOPE   H8S 4439   5.617   4.702   5.449  0.9628 -0.8805  2.2210
   35DOPE   C29 4440   5.516   4.502   5.484  0.1695 -0.6774  0.5807
   35DOPE   H9R 4441   5.483   4.415   5.425 -0.1870  0.5308 -1.0803
   35DOPE  C210 4442   5.522   4.490   5.620 -0.4284 -0.7468  0.2650
   35DOPE  H10R 4443   5.518   4.390   5.664 -1.0267 -0.8019  0.0966
   35DOPE  C211 4444   5.565   4.591   5.724  0.1240  1.0845  0.6178
   35DOPE  H11R 4445   5.600   4.683   5.673 -1.5583  1.1561 -0.4764
   35DOPE  H11S 4446   5.654   4.552   5.779  0.6395 -1.6847 -1.9128
   35DOPE  C212 4447   5.460   4.633   5.830 -0.4322  0.6383  0.4427
   35DOPE  H12R 4448   5.366   4.671   5.784 -0.1523 -1.7598 -2.4850
   35DOPE  H12S 4449   5.500   4.706   5.903 -1.5715 -0.4055  2.1910
   35DOPE  C213 4450   5.421   4.517   5.928 -0.2995  0.0948  0.0735
   35DOPE  H13R 4451   5.511   4.482   5.984  0.2507  2.4809  0.7665
   35DOPE  H13S 4452   5.377   4.428   5.877 -1.0324  0.2624  0.4108
   35DOPE  C214 4453   5.319   4.556   6.041  0.5596  0.6672 -0.0089
   35DOPE  H14R 4454   5.278   4.458   6.073  0.8344  0.5058 -0.1447
   35DOPE  H14S 4455   5.247   4.615   5.981  2.6589 -0.7223 -4.2936
   35DOPE  C215 4456   5.377   4.638   6.161  0.4377  0.0903  0.3960
   35DOPE  H15R 4457   5.414   4.731   6.114  1.3506 -0.2530  0.4178
   35DOPE  H15S 4458   5.458   4.571   6.195 -0.7611 -1.4822  0.2937
   35DOPE  C216 4459   5.276   4.669   6.274  0.4708  0.3970 -0.4551
   35DOPE  H16R 4460   5.181   4.697   6.225 -0.9203 -0.3216  1.7139
   35DOPE  H16S 4461   5.324   4.752   6.331  1.7289  0.1427 -1.1059
   35DOPE  C217 4462   5.250   4.548   6.374 -0.0291 -0.0532 -0.4100
   35DOPE  H17R 4463   5.339   4.544   6.440 -0.5653 -0.9641  0.2665
   35DOPE  H17S 4464   5.259   4.455   6.314  2.2015  0.4661 -0.9980
   35DOPE  C218 4465   5.119   4.563   6.448  0.5279 -0.1993  0.5579
   35DOPE  H18R 4466   5.076   4.462   6.463 -0.5238 -0.1913 -1.8981
   35DOPE  H18S 4467   5.049   4.636   6.402  2.2973  0.9315 -0.4481
   35DOPE  H18T 4468   5.143   4.609   6.546  1.7288 -1.6122  0.9646
   35DOPE   C33 4469   5.052   4.450   5.048 -0.2958  0.0843  0.5028
   35DOPE   H3X 4470   5.128   4.508   5.104  0.4218  0.1085 -0.4700
   35DOPE   H3Y 4471   5.104   4.366   4.997  0.0771 -0.0027  1.0190
   35DOPE   C34 4472   4.944   4.403   5.145 -0.0505 -0.6053  0.1072
   35DOPE   H4X 4473   4.919   4.495   5.201  2.2078 -0.1873  0.5276
   35DOPE   H4Y 4474   4.859   4.369   5.083  0.5716  1.2607 -1.8637
   35DOPE   C35 4475   4.994   4.289   5.238  0.0991 -0.0294  0.6523
   35DOPE   H5X 4476   5.048   4.223   5.168  2.5024  1.3246  1.1090
   35DOPE   H5Y 4477   4.912   4.237   5.292 -0.2717  0.2984  0.4156
   35DOPE   C36 4478   5.099   4.330   5.336 -0.3165  0.1060 -0.1231
   35DOPE   H6X 4479   5.183   4.370   5.275  0.2691  3.2587  2.4877
   35DOPE   H6Y 4480   5.138   4.243   5.393  2.5314  0.0275 -1.9525
   35DOPE   C37 4481   5.071   4.442   5.436  0.2087  0.3062  0.4208
   35DOPE   H7X 4482   5.154   4.452   5.508  0.3776  0.2172  0.2414
   35DOPE   H7Y 4483   5.060   4.540   5.386  0.2687 -0.5640 -1.4018
   35DOPE   C38 4484   4.936   4.419   5.508  0.7690 -0.4657 -0.2380
   35DOPE   H8X 4485   4.933   4.325   5.567 -1.5196 -0.3565 -0.1278
   35DOPE   H8Y 4486   4.851   4.408   5.437 -0.6906  1.5812  1.0951
   35DOPE   C39 4487   4.893   4.535   5.590 -0.6780 -0.4635 -0.4891
   35DOPE   H9X 4488   4.837   4.615   5.540  0.0210  0.0847 -0.3979
   35DOPE  C310 4489   4.918   4.559   5.720 -0.5011 -0.1875 -0.4810
   35DOPE  H10X 4490   4.883   4.659   5.750 -1.1823 -1.0454  1.7447
   35DOPE  C311 4491   4.994   4.487   5.829  0.3127 -0.2169  0.4877
   35DOPE  H11X 4492   5.033   4.389   5.793  0.1186  0.2492 -1.0511
   35DOPE  H11Y 4493   5.076   4.549   5.873  0.6633 -1.9953  2.5380
   35DOPE  C312 4494   4.893   4.466   5.944 -0.1851  0.4754 -0.2895
   35DOPE  H12X 4495   4.916   4.380   6.011  2.6767  2.8007  1.9894
   35DOPE  H12Y 4496   4.797   4.425   5.906 -0.6321  0.0446  1.2243
   35DOPE  C313 4497   4.859   4.584   6.034 -0.0839 -0.3831  0.3180
   35DOPE  H13X 4498   4.952   4.639   6.062 -0.3835  0.3181 -0.0348
   35DOPE  H13Y 4499   4.800   4.637   5.957 -1.7749 -2.2851  0.2378
   35DOPE  C314 4500   4.762   4.549   6.149 -0.7560 -0.1422 -0.2763
   35DOPE  H14X 4501   4.801   4.455   6.193 -0.2897 -0.6531 -1.7119
   35DOPE  H14Y 4502   4.662   4.525   6.107 -1.1027 -1.6709  1.3170
   35DOPE  C315 4503   4.759   4.648   6.266 -0.4959  0.3747 -1.3522
   35DOPE  H15X 4504   4.857   4.652   6.318 -1.2361 -0.8143  0.2488
   35DOPE  H15Y 4505   4.686   4.602   6.337  0.5823  0.0597 -0.4128
   35DOPE  C316 4506   4.715   4.793   6.232  0.1586 -0.0819 -0.2249
   35DOPE  H16X 4507   4.621   4.779   6.174  0.1136  1.1257 -0.4772
   35DOPE  H16Y 4508   4.793   4.822   6.159  1.0519 -2.3645 -0.2508
   35DOPE  C317 4509   4.690   4.879   6.353  0.7923 -0.5054 -0.1258
   35DOPE  H17X 4510   4.610   4.842   6.421  1.6449 -0.4585  0.9444
   35DOPE  H17Y 4511   4.771   4.875   6.428 -0.4426  1.3489  1.4140
   35DOPE  C318 4512   4.664   5.027   6.321 -0.0995 -0.0103  0.1800
   35DOPE  H18X 4513   4.673   5.086   6.414  1.8914 -0.5249  0.3701
   35DOPE  H18Y 4514   4.743   5.053   6.248  0.7854  0.5442  1.3043
   35DOPE  H18Z 4515   4.572   5.043   6.262 -0.3465  3.6877  1.3057
   36DOPE     N 4516   5.878   5.202   3.926 -0.2168  0.0550 -0.1414
   36DOPE   HN1 4517   5.940   5.141   3.870  1.5718  0.3004  1.4825
   36DOPE   HN2 4518   5.807   5.252   3.868 -1.3361 -1.5972 -0.2718
   36DOPE   HN3 4519   5.932   5.267   3.988 -1.0769 -0.1828  0.9028
   36DOPE   C12 4520   5.797   5.097   3.993 -0.3865  0.5728 -0.3736
   36DOPE  H12A 4521   5.787   5.013   3.921  0.5843  1.7717 -1.9572
   36DOPE  H12B 4522   5.691   5.129   4.005 -0.1245  1.6008 -0.7448
   36DOPE   C11 4523   5.852   5.059   4.129 -0.1835  0.0380  0.0196
   36DOPE  H11A 4524   5.803   4.968   4.170 -1.1521  1.1499  1.4080
   36DOPE  H11B 4525   5.833   5.140   4.201 -1.4222 -1.5645  1.5837
   36DOPE     P 4526   6.075   4.928   4.187 -0.9020 -0.1795  0.2757
   36DOPE   O13 4527   6.215   4.961   4.174 -0.2207  0.2087  0.1642
   36DOPE   O14 4528   6.032   4.798   4.124  0.1192 -0.0577 -0.3364
   36DOPE   O11 4529   6.055   4.931   4.341  0.7440 -0.3452  0.0692
   36DOPE   O12 4530   5.990   5.045   4.120 -0.0551  0.4071 -0.0503
   36DOPE    C1 4531   6.097   5.042   4.417  0.2987 -0.4903 -0.2180
   36DOPE    HA 4532   6.068   5.140   4.374  0.3441  0.0207  0.8778
   36DOPE    HB 4533   6.207   5.035   4.433  0.3326  1.5899  0.8484
   36DOPE    C2 4534   6.036   5.034   4.561  0.3783  0.7731 -0.1312
   36DOPE    HS 4535   6.076   4.943   4.611 -2.8611 -0.7360 -0.0724
   36DOPE   O21 4536   5.898   5.031   4.550  0.1009 -0.8441 -0.2574
   36DOPE   C21 4537   5.838   4.946   4.634 -0.0919 -0.4250 -0.3894
   36DOPE   O22 4538   5.881   4.886   4.727 -0.6551 -0.3644  0.3646
   36DOPE   C22 4539   5.688   4.943   4.591  0.4457  0.1737 -0.1822
   36DOPE   H2R 4540   5.695   4.917   4.483  0.7759 -1.3846  0.1929
   36DOPE   H2S 4541   5.657   5.049   4.606 -0.2238  0.1701 -1.4130
   36DOPE    C3 4542   6.088   5.150   4.649  0.2855  0.2843  0.1707
   36DOPE    HX 4543   6.032   5.235   4.604  1.1072 -0.2275 -1.9505
   36DOPE    HY 4544   6.199   5.158   4.650  0.3997 -0.7399  2.6223
   36DOPE   O31 4545   6.051   5.122   4.785  0.6479 -0.1061 -0.1458
   36DOPE   C31 4546   6.147   5.071   4.860 -0.4676 -0.2525 -0.3153
   36DOPE   O32 4547   6.260   5.040   4.825 -0.0598 -1.0438  0.3848
   36DOPE   C32 4548   6.102   5.033   5.006 -0.2369  0.2116  0.1605
   36DOPE   H2X 4549   5.992   5.017   5.011 -0.6739  1.9938 -2.0009
   36DOPE   H2Y 4550   6.128   4.926   5.024 -1.0212 -0.3259 -1.6726
   36DOPE   C23 4551   5.585   4.852   4.654  0.4886  0.7759 -0.1879
   36DOPE   H3R 4552   5.616   4.750   4.623  0.1959  0.3947  0.7203
   36DOPE   H3S 4553   5.486   4.859   4.604  1.0828  0.5066 -1.4319
   36DOPE   C24 4554   5.561   4.859   4.805 -1.0231 -0.0010  0.8008
   36DOPE   H4R 4555   5.656   4.815   4.844  0.1704 -1.1385 -2.9471
   36DOPE   H4S 4556   5.479   4.793   4.840  2.1229 -3.7341  1.8286
   36DOPE   C25 4557   5.543   4.999   4.862  0.0056  0.4853  0.9058
   36DOPE   H5R 4558   5.436   5.022   4.844  0.0826 -0.1309 -0.4125
   36DOPE   H5S 4559   5.601   5.086   4.825  3.1272 -1.1768  1.5468
   36DOPE   C26 4560   5.568   5.001   5.013 -0.1826 -0.2427  0.4455
   36DOPE   H6R 4561   5.534   4.904   5.055 -0.3444  0.3053  1.6053
   36DOPE   H6S 4562   5.520   5.090   5.060 -0.6320 -0.7329  0.9213
   36DOPE   C27 4563   5.721   5.006   5.046  0.5266 -0.0599  0.0522
   36DOPE   H7R 4564   5.749   5.105   5.005  1.0763 -0.1563  0.1890
   36DOPE   H7S 4565   5.776   4.930   4.986 -1.3375 -0.2586 -1.5210
   36DOPE   C28 4566   5.752   5.019   5.201  0.3758 -0.8229 -0.9540
   36DOPE   H8R 4567   5.859   5.041   5.219  0.0221 -1.2027  2.1642
   36DOPE   H8S 4568   5.733   4.918   5.244  0.3320 -0.5993 -0.4454
   36DOPE   C29 4569   5.682   5.131   5.272 -0.0009  0.4479 -0.1504
   36DOPE   H9R 4570   5.654   5.218   5.211 -0.9323  0.6667  0.5706
   36DOPE  C210 4571   5.652   5.124   5.401 -0.8618 -0.0100  0.4831
   36DOPE  H10R 4572   5.609   5.211   5.451 -1.7246 -0.6555  0.8860
   36DOPE  C211 4573   5.683   5.015   5.500 -0.0309  0.7472  0.2510
   36DOPE  H11R 4574   5.760   5.047   5.574  0.8018  0.5849 -0.5195
   36DOPE  H11S 4575   5.723   4.925   5.447 -0.3684  0.5272  0.3692
   36DOPE  C212 4576   5.562   4.956   5.577  0.0166 -0.2295  0.1017
   36DOPE  H12R 4577   5.588   4.867   5.638 -1.2372  0.3429  1.5357
   36DOPE  H12S 4578   5.498   4.903   5.503 -1.7761 -0.0851  1.4751
   36DOPE  C213 4579   5.489   5.056   5.660 -0.0743 -0.0642 -0.9987
   36DOPE  H13R 4580   5.446   5.135   5.594  1.5073 -1.2740 -3.6315
   36DOPE  H13S 4581   5.572   5.102   5.717 -1.8347  2.2809 -0.1214
   36DOPE  C214 4582   5.390   4.980   5.751 -0.2583  0.1782  0.4741
   36DOPE  H14R 4583   5.442   4.896   5.803 -0.6634  0.5900  1.5560
   36DOPE  H14S 4584   5.310   4.933   5.690  0.0963 -0.1918  0.2843
   36DOPE  C215 4585   5.320   5.061   5.849 -0.2717  0.1119 -0.0912
   36DOPE  H15R 4586   5.277   5.154   5.808  0.9990  1.2364  1.0439
   36DOPE  H15S 4587   5.402   5.103   5.911  1.4290  0.6215 -2.5468
   36DOPE  C216 4588   5.219   4.984   5.934  0.4455 -0.3308  0.6171
   36DOPE  H16R 4589   5.248   4.891   5.988 -0.7910 -1.8652 -1.2579
   36DOPE  H16S 4590   5.141   4.957   5.861  1.4426 -0.4430 -0.4359
   36DOPE  C217 4591   5.139   5.064   6.042  0.3397  0.3658 -0.6170
   36DOPE  H17R 4592   5.117   5.170   6.015  1.8506  0.3457 -2.1175
   36DOPE  H17S 4593   5.209   5.077   6.126 -1.0269  3.8967  0.1595
   36DOPE  C218 4594   5.015   4.995   6.098 -0.1230  0.6065  0.1117
   36DOPE  H18R 4595   4.943   4.969   6.018  1.1010 -0.9139 -0.5568
   36DOPE  H18S 4596   4.956   5.057   6.169  0.7770 -0.3401  1.7538
   36DOPE  H18T 4597   5.050   4.907   6.155  1.3192  1.4664  0.6174
   36DOPE   C33 4598   6.150   5.144   5.103 -0.6784 -0.5037 -0.2590
   36DOPE   H3X 4599   6.101   5.240   5.077 -0.2186 -0.1233  0.2559
   36DOPE   H3Y 4600   6.259   5.152   5.084 -1.0374 -1.0707 -2.9905
   36DOPE   C34 4601   6.132   5.129   5.255 -0.7654  0.1955  0.9932
   36DOPE   H4X 4602   6.072   5.038   5.278 -1.0111  0.0511 -0.1753
   36DOPE   H4Y 4603   6.232   5.111   5.299  0.2212  0.1344 -1.1955
   36DOPE   C35 4604   6.054   5.243   5.318 -0.6238  0.1811  0.0418
   36DOPE   H5X 4605   5.954   5.261   5.275 -0.8184 -0.3440  0.2661
   36DOPE   H5Y 4606   6.126   5.328   5.312 -0.0569 -0.3339 -0.6311
   36DOPE   C36 4607   6.030   5.212   5.471  0.6724  0.1868  0.3304
   36DOPE   H6X 4608   6.103   5.132   5.498 -0.6204 -0.7352  1.2167
   36DOPE   H6Y 4609   5.927   5.173   5.481  0.8889 -0.3214  0.6058
   36DOPE   C37 4610   6.041   5.336   5.552  0.0587 -0.1483  0.2794
   36DOPE   H7X 4611   6.149   5.359   5.545 -0.0076 -0.3330 -2.4706
   36DOPE   H7Y 4612   5.984   5.416   5.499 -1.4415 -0.3899  1.4550
   36DOPE   C38 4613   5.994   5.326   5.698 -0.3672 -0.1404 -0.4623
   36DOPE   H8X 4614   6.024   5.419   5.751 -1.5732  1.4212 -2.4095
   36DOPE   H8Y 4615   6.054   5.242   5.739 -1.1601 -0.2704  0.4713
   36DOPE   C39 4616   5.840   5.306   5.713 -0.4650  0.7691  0.6118
   36DOPE   H9X 4617   5.783   5.278   5.622  0.6314 -1.9344  0.6692
   36DOPE  C310 4618   5.770   5.331   5.834 -0.6573  0.4426  0.1503
   36DOPE  H10X 4619   5.662   5.350   5.837 -0.2817  2.9692  0.1105
   36DOPE  C311 4620   5.848   5.370   5.962 -0.1080  0.0568 -0.0799
   36DOPE  H11X 4621   5.796   5.345   6.057  1.3530 -1.4996  0.3517
   36DOPE  H11Y 4622   5.947   5.320   5.963 -0.3706 -0.4712  0.6948
   36DOPE  C312 4623   5.865   5.521   5.969  0.2692 -0.9530 -0.1943
   36DOPE  H12X 4624   5.767   5.570   5.957  0.8074  0.6145  1.3609
   36DOPE  H12Y 4625   5.922   5.560   5.882 -0.4993 -2.0970 -1.2444
   36DOPE  C313 4626   5.944   5.570   6.095  0.2078  0.2606  0.2300
   36DOPE  H13X 4627   5.894   5.545   6.191 -0.0847 -1.1268 -0.2609
   36DOPE  H13Y 4628   6.048   5.529   6.090 -0.1467 -0.9668  2.0462
   36DOPE  C314 4629   5.955   5.723   6.094 -0.1426 -0.2276  0.1169
   36DOPE  H14X 4630   5.930   5.766   5.995  1.4057  0.2621 -0.0908
   36DOPE  H14Y 4631   6.061   5.754   6.111 -0.1522  0.1697 -0.5200
   36DOPE  C315 4632   5.853   5.785   6.191  0.1637  0.2083 -0.4238
   36DOPE  H15X 4633   5.880   5.766   6.297 -0.4459 -2.4662 -0.6910
   36DOPE  H15Y 4634   5.755   5.739   6.171 -1.1923  2.5897  0.2905
   36DOPE  C316 4635   5.824   5.929   6.162  0.1018 -0.0532  0.2476
   36DOPE  H16X 4636   5.808   5.937   6.053 -0.6402 -1.7985  0.1996
   36DOPE  H16Y 4637   5.911   5.992   6.192 -0.5489  0.1457  1.8155
   36DOPE  C317 4638   5.693   5.989   6.231  0.0366  0.0819  0.9853
   36DOPE  H17X 4639   5.611   5.914   6.240  0.0245  0.2241  2.1686
   36DOPE  H17Y 4640   5.718   6.018   6.335  1.2761  0.1546  0.6821
   36DOPE  C318 4641   5.633   6.111   6.154  0.4802 -0.2715 -0.2429
   36DOPE  H18X 4642   5.700   6.199   6.171  1.4249 -1.1011  0.4474
   36DOPE  H18Y 4643   5.636   6.078   6.048  1.1334 -1.9166  0.2581
   36DOPE  H18Z 4644   5.528   6.131   6.184 -0.0120 -0.2531 -1.8591
   37DOPE     N 4645   3.142   4.969   3.618  0.4986 -0.4128  0.5445
   37DOPE   HN1 4646   3.047   4.994   3.650 -0.1861 -0.2309 -1.5136
   37DOPE   HN2 4647   3.215   5.036   3.650 -0.2955  0.2108  1.0601
   37DOPE   HN3 4648   3.141   4.976   3.514  0.1164 -1.6247  0.4526
   37DOPE   C12 4649   3.169   4.829   3.659  0.0052  0.1852  0.0030
   37DOPE  H12A 4650   3.257   4.793   3.602 -1.8369 -3.6442 -0.7457
   37DOPE  H12B 4651   3.076   4.776   3.627 -1.2718  1.8529  0.7563
   37DOPE   C11 4652   3.195   4.837   3.808  0.9008  0.8076 -0.1830
   37DOPE  H11A 4653   3.113   4.889   3.863 -0.5817  1.4852 -2.8687
   37DOPE  H11B 4654   3.280   4.906   3.825  0.5076  1.7590 -1.8828
   37DOPE     P 4655   3.350   4.647   3.886 -0.0397  0.2984 -0.4498
   37DOPE   O13 4656   3.432   4.646   3.759  0.5863 -0.3597  0.1499
   37DOPE   O14 4657   3.334   4.517   3.939  0.1150  0.3509 -0.5953
   37DOPE   O11 4658   3.428   4.736   3.989  0.4740 -0.3298  0.0211
   37DOPE   O12 4659   3.208   4.706   3.867  0.1062 -0.2267 -0.6318
   37DOPE    C1 4660   3.375   4.780   4.118  0.1066 -0.5883  0.3244
   37DOPE    HA 4661   3.278   4.830   4.097  0.8268  1.5570  1.7536
   37DOPE    HB 4662   3.435   4.865   4.155  1.0542 -0.8401 -0.5707
   37DOPE    C2 4663   3.381   4.677   4.224  0.0695  0.4461 -0.1300
   37DOPE    HS 4664   3.300   4.603   4.206  1.1913 -1.4912  2.1762
   37DOPE   O21 4665   3.372   4.734   4.354 -0.6697 -0.3277  0.1542
   37DOPE   C21 4666   3.252   4.778   4.388 -0.6113 -0.6749  0.2769
   37DOPE   O22 4667   3.156   4.793   4.315  0.5746  0.0701  0.0675
   37DOPE   C22 4668   3.251   4.825   4.536  0.1527 -0.0736  0.5414
   37DOPE   H2R 4669   3.310   4.918   4.532  0.4987 -0.3212 -1.0145
   37DOPE   H2S 4670   3.317   4.757   4.594  0.1532  1.1454  2.0262
   37DOPE    C3 4671   3.515   4.598   4.213  0.3147 -0.7173 -0.1878
   37DOPE    HX 4672   3.597   4.672   4.217 -0.6364  0.3453  0.1185
   37DOPE    HY 4673   3.520   4.542   4.117  1.3201 -0.1150 -0.5006
   37DOPE   O31 4674   3.537   4.514   4.330  0.0699 -0.1952  0.0447
   37DOPE   C31 4675   3.484   4.398   4.319  0.1475 -0.3157 -0.5954
   37DOPE   O32 4676   3.403   4.361   4.235 -0.1000  0.1058 -0.8239
   37DOPE   C32 4677   3.552   4.304   4.424  0.5209  0.0252 -0.7891
   37DOPE   H2X 4678   3.499   4.207   4.435  0.3167  0.3979  2.7021
   37DOPE   H2Y 4679   3.651   4.264   4.391  1.0826  0.7065  0.0188
   37DOPE   C23 4680   3.117   4.849   4.593 -0.0962  0.0598  0.3182
   37DOPE   H3R 4681   3.094   4.756   4.649 -0.7132 -0.2569 -0.4316
   37DOPE   H3S 4682   3.028   4.853   4.526  0.0401 -2.1358 -0.0700
   37DOPE   C24 4683   3.120   4.969   4.699  0.4129  0.6699 -0.2484
   37DOPE   H4R 4684   3.022   4.983   4.748 -0.3304  1.2555 -1.8309
   37DOPE   H4S 4685   3.137   5.059   4.637  2.7548 -0.9187 -2.1163
   37DOPE   C25 4686   3.218   4.947   4.809 -0.3532  0.2684 -0.3142
   37DOPE   H5R 4687   3.323   4.958   4.774 -0.7039  0.5454 -1.3068
   37DOPE   H5S 4688   3.211   4.846   4.857  1.1998 -0.5967 -1.7969
   37DOPE   C26 4689   3.186   5.044   4.928 -0.5335  0.7499  0.6256
   37DOPE   H6R 4690   3.081   5.028   4.961 -1.0988  2.1665 -0.3959
   37DOPE   H6S 4691   3.197   5.149   4.895 -3.2565  0.9048 -0.0250
   37DOPE   C27 4692   3.282   5.015   5.048  0.1513 -0.3660  0.2829
   37DOPE   H7R 4693   3.380   5.064   5.030  1.0107 -0.9103  3.0998
   37DOPE   H7S 4694   3.300   4.907   5.067  2.7725 -0.4387 -1.8935
   37DOPE   C28 4695   3.212   5.052   5.183 -0.2841 -0.6252 -0.5848
   37DOPE   H8R 4696   3.279   5.044   5.271 -1.6789  1.4379  0.7491
   37DOPE   H8S 4697   3.141   4.967   5.190  0.3698 -1.2932 -1.7489
   37DOPE   C29 4698   3.135   5.184   5.189  0.1458  0.0795 -0.1523
   37DOPE   H9R 4699   3.185   5.263   5.132  2.1485 -0.0540  1.3029
   37DOPE  C210 4700   3.045   5.220   5.285  0.5795 -0.0370 -0.1146
   37DOPE  H10R 4701   2.995   5.318   5.282 -0.8871 -0.7089  0.9512
   37DOPE  C211 4702   3.000   5.120   5.388 -0.1285  0.6350 -0.7016
   37DOPE  H11R 4703   3.057   5.025   5.379 -1.0999 -0.0169 -0.1964
   37DOPE  H11S 4704   2.892   5.102   5.372 -0.5452  0.7444  1.6118
   37DOPE  C212 4705   3.019   5.173   5.538  0.4240  0.1408  0.6197
   37DOPE  H12R 4706   2.970   5.109   5.615  0.7155 -0.6325  0.1703
   37DOPE  H12S 4707   2.961   5.267   5.550  0.7730  0.3281  0.8200
   37DOPE  C213 4708   3.165   5.205   5.580 -0.1187  0.3838  0.5050
   37DOPE  H13R 4709   3.210   5.275   5.506 -1.5844 -1.7611 -2.6803
   37DOPE  H13S 4710   3.221   5.109   5.572 -1.2852 -0.2163 -0.8303
   37DOPE  C214 4711   3.185   5.265   5.727 -0.0438  0.0503  0.8981
   37DOPE  H14R 4712   3.127   5.359   5.716 -2.3362 -1.5195 -2.3695
   37DOPE  H14S 4713   3.290   5.296   5.740  0.2190 -0.1179 -0.6381
   37DOPE  C215 4714   3.138   5.192   5.856 -0.2882  0.2955 -0.0112
   37DOPE  H15R 4715   3.194   5.096   5.861 -2.9820 -1.3814  0.3795
   37DOPE  H15S 4716   3.030   5.165   5.851 -0.1143 -0.4697  0.2507
   37DOPE  C216 4717   3.164   5.270   5.983  0.3899 -0.1531  0.3946
   37DOPE  H16R 4718   3.272   5.293   5.992  0.7631 -1.5616 -0.2764
   37DOPE  H16S 4719   3.128   5.204   6.065 -2.1062  2.2479  1.3920
   37DOPE  C217 4720   3.084   5.401   5.988 -0.2113 -0.0733  0.0200
   37DOPE  H17R 4721   2.975   5.380   5.990 -1.0087  3.1182 -1.6000
   37DOPE  H17S 4722   3.106   5.459   5.895  0.2598  0.2837  0.3483
   37DOPE  C218 4723   3.118   5.491   6.107  0.1551  0.1348 -0.0548
   37DOPE  H18R 4724   3.222   5.530   6.108  0.3449 -0.3612  0.2336
   37DOPE  H18S 4725   3.117   5.426   6.198  0.9082 -0.6166 -0.5678
   37DOPE  H18T 4726   3.047   5.576   6.113 -1.3517 -1.1664  1.5695
   37DOPE   C33 4727   3.552   4.373   4.562  0.1015 -0.2896  0.4405
   37DOPE   H3X 4728   3.449   4.375   4.605  0.2233  0.0376  0.7218
   37DOPE   H3Y 4729   3.582   4.479   4.562 -2.5518  0.5764  2.2738
   37DOPE   C34 4730   3.640   4.304   4.662 -0.5723  0.9805  0.0670
   37DOPE   H4X 4731   3.586   4.211   4.692 -1.4616  1.0980 -1.0742
   37DOPE   H4Y 4732   3.743   4.287   4.625 -0.4714  0.7444  0.4536
   37DOPE   C35 4733   3.657   4.394   4.783 -0.4185 -0.6770 -0.3205
   37DOPE   H5X 4734   3.579   4.473   4.784  0.4713  0.2237 -0.1605
   37DOPE   H5Y 4735   3.754   4.448   4.770 -0.4082 -0.7283 -0.4603
   37DOPE   C36 4736   3.660   4.319   4.919  0.8202  0.7403 -0.2241
   37DOPE   H6X 4737   3.746   4.250   4.928 -1.1568 -1.5798  3.3207
   37DOPE   H6Y 4738   3.566   4.259   4.923  0.6177  1.0991  0.4476
   37DOPE   C37 4739   3.662   4.414   5.036  0.1196  0.5434 -0.1061
   37DOPE   H7X 4740   3.744   4.488   5.025 -0.4095  1.0020 -1.0943
   37DOPE   H7Y 4741   3.570   4.475   5.038 -0.6921 -0.5640 -1.3178
   37DOPE   C38 4742   3.691   4.348   5.175  0.1105 -0.4854  0.1348
   37DOPE   H8X 4743   3.786   4.293   5.155  1.0511  1.1340  0.0165
   37DOPE   H8Y 4744   3.615   4.272   5.203 -1.9745  1.7980  1.0308
   37DOPE   C39 4745   3.716   4.443   5.293 -0.1904  0.9300 -0.3054
   37DOPE   H9X 4746   3.821   4.477   5.288  0.7079 -1.6797 -0.5823
   37DOPE  C310 4747   3.627   4.494   5.377  0.2953  0.1040  0.3278
   37DOPE  H10X 4748   3.656   4.568   5.453  2.9719 -1.3302  0.8449
   37DOPE  C311 4749   3.478   4.457   5.374  0.1139 -0.5145  0.0864
   37DOPE  H11X 4750   3.424   4.552   5.393 -1.6658 -0.9026 -2.4978
   37DOPE  H11Y 4751   3.434   4.439   5.273 -0.7233 -2.0028  0.6716
   37DOPE  C312 4752   3.443   4.339   5.466  0.1381  0.2445  0.2759
   37DOPE  H12X 4753   3.484   4.250   5.414 -1.1854 -0.0220 -0.3522
   37DOPE  H12Y 4754   3.333   4.329   5.464  0.3399 -3.3449  1.1218
   37DOPE  C313 4755   3.490   4.358   5.607  0.0531  0.3865  0.1721
   37DOPE  H13X 4756   3.601   4.353   5.606  0.1292  1.5457 -1.9080
   37DOPE  H13Y 4757   3.458   4.458   5.643 -0.1051  1.1636 -1.9797
   37DOPE  C314 4758   3.439   4.242   5.693  0.0947  0.2242  0.3440
   37DOPE  H14X 4759   3.507   4.157   5.669  1.5863  1.5378 -0.2587
   37DOPE  H14Y 4760   3.340   4.202   5.660 -0.1904  1.2460 -0.0640
   37DOPE  C315 4761   3.423   4.283   5.842  0.0924 -0.7391  0.1669
   37DOPE  H15X 4762   3.371   4.208   5.904 -2.1841  1.0242  0.5183
   37DOPE  H15Y 4763   3.357   4.371   5.855  0.2380 -0.8709  1.9894
   37DOPE  C316 4764   3.557   4.331   5.902  0.8193 -0.0049  0.0291
   37DOPE  H16X 4765   3.579   4.434   5.867  3.1864  0.8647  3.5095
   37DOPE  H16Y 4766   3.634   4.259   5.867 -0.2058 -1.4450  0.6768
   37DOPE  C317 4767   3.545   4.311   6.060  0.5809  0.2503 -1.0943
   37DOPE  H17X 4768   3.523   4.205   6.083  0.9515  0.5240  0.6373
   37DOPE  H17Y 4769   3.647   4.321   6.103  0.1639  2.5347 -0.5331
   37DOPE  C318 4770   3.442   4.401   6.135  0.1330  0.4952 -0.2718
   37DOPE  H18X 4771   3.481   4.497   6.096  1.7275 -1.0717 -2.8261
   37DOPE  H18Y 4772   3.341   4.385   6.092  0.2318 -0.4404 -0.1829
   37DOPE  H18Z 4773   3.442   4.395   6.246 -0.5037  0.9680 -0.2430
   38DOPE     N 4774   5.486   5.875   3.225 -0.1200  0.6056 -0.6779
   38DOPE   HN1 4775   5.387   5.878   3.257 -0.2787 -0.3546 -1.0354
   38DOPE   HN2 4776   5.528   5.963   3.260 -1.7120  0.4108  2.0087
   38DOPE   HN3 4777   5.490   5.858   3.122  1.2570 -2.1417 -0.2664
   38DOPE   C12 4778   5.562   5.757   3.287  0.0016 -0.7914 -0.9313
   38DOPE  H12A 4779   5.668   5.774   3.259 -0.0114  1.4386  0.1316
   38DOPE  H12B 4780   5.523   5.665   3.238 -2.2778  0.2394 -1.2096
   38DOPE   C11 4781   5.550   5.744   3.443  0.3166  0.0331 -0.1181
   38DOPE  H11A 4782   5.546   5.843   3.494 -0.4940  1.1403 -2.2068
   38DOPE  H11B 4783   5.644   5.693   3.473  1.1886  1.2154 -0.7384
   38DOPE     P 4784   5.423   5.565   3.595 -0.0561  0.1128 -0.1667
   38DOPE   O13 4785   5.525   5.462   3.563 -0.2288 -0.5658 -0.2800
   38DOPE   O14 4786   5.285   5.522   3.597  0.1679  0.0761 -0.4490
   38DOPE   O11 4787   5.453   5.650   3.724 -0.4490  0.6127  0.0561
   38DOPE   O12 4788   5.433   5.671   3.474  0.7719  0.3078  0.3908
   38DOPE    C1 4789   5.362   5.755   3.765 -0.2068  0.3322  0.1139
   38DOPE    HA 4790   5.258   5.716   3.768  0.2576 -0.9018  0.6513
   38DOPE    HB 4791   5.360   5.835   3.688 -1.9592 -0.0489 -0.2879
   38DOPE    C2 4792   5.395   5.827   3.896 -0.0096  0.7190  0.6911
   38DOPE    HS 4793   5.485   5.888   3.876  3.2229 -4.3887 -2.5676
   38DOPE   O21 4794   5.409   5.738   4.000  0.3915  0.0971  0.5367
   38DOPE   C21 4795   5.528   5.683   4.014 -0.0682  0.3983  0.0075
   38DOPE   O22 4796   5.630   5.722   3.952  0.2731  0.3838  0.0358
   38DOPE   C22 4797   5.524   5.557   4.104 -0.3179  0.0670  0.6711
   38DOPE   H2R 4798   5.542   5.469   4.040 -0.3998  1.0198 -0.7152
   38DOPE   H2S 4799   5.422   5.551   4.147 -0.1441 -0.2515  1.0445
   38DOPE    C3 4800   5.285   5.928   3.935  0.4386  0.6418  0.0794
   38DOPE    HX 4801   5.204   5.860   3.969  2.4402 -1.2667  1.2819
   38DOPE    HY 4802   5.255   5.976   3.839 -1.7708  0.4959  0.6252
   38DOPE   O31 4803   5.341   6.027   4.033  0.1912  0.3961  0.2685
   38DOPE   C31 4804   5.245   6.096   4.087  1.0032 -0.4861  0.4047
   38DOPE   O32 4805   5.126   6.078   4.065  0.1303  0.4144  0.1676
   38DOPE   C32 4806   5.299   6.196   4.182 -0.4144 -0.1059  0.1752
   38DOPE   H2X 4807   5.211   6.255   4.215  0.9110  2.2027 -0.2533
   38DOPE   H2Y 4808   5.338   6.140   4.270 -0.6974 -0.9189 -0.2097
   38DOPE   C23 4809   5.623   5.553   4.223  0.5904 -0.1412  0.1131
   38DOPE   H3R 4810   5.585   5.617   4.305 -0.1301  1.8142 -1.6650
   38DOPE   H3S 4811   5.727   5.585   4.200  0.2296  1.0640  0.0595
   38DOPE   C24 4812   5.631   5.412   4.276  0.7348 -0.2082 -0.5417
   38DOPE   H4R 4813   5.650   5.348   4.187  0.2849 -1.5583  0.3042
   38DOPE   H4S 4814   5.530   5.378   4.308  0.3978  1.0787 -0.1880
   38DOPE   C25 4815   5.729   5.380   4.388 -0.0000 -0.4950 -0.3973
   38DOPE   H5R 4816   5.835   5.404   4.364  0.0110  1.1228  1.0556
   38DOPE   H5S 4817   5.721   5.270   4.403  0.8873 -0.3157  1.7412
   38DOPE   C26 4818   5.692   5.459   4.512  0.9152  0.4652 -0.0105
   38DOPE   H6R 4819   5.593   5.424   4.550  0.8350  2.4985  1.8227
   38DOPE   H6S 4820   5.671   5.564   4.483  1.0021  0.6012  0.4102
   38DOPE   C27 4821   5.802   5.461   4.614  0.3306  0.0802 -0.3436
   38DOPE   H7R 4822   5.884   5.517   4.565 -1.6877  3.1060 -0.5546
   38DOPE   H7S 4823   5.832   5.355   4.630 -1.6760 -0.5866 -0.7263
   38DOPE   C28 4824   5.766   5.536   4.745  0.7674 -0.8056  0.1941
   38DOPE   H8R 4825   5.717   5.633   4.721  1.3280 -0.9979 -1.9274
   38DOPE   H8S 4826   5.867   5.558   4.787 -0.9142  3.6069  2.5252
   38DOPE   C29 4827   5.670   5.447   4.815  0.7908 -0.7449  0.3432
   38DOPE   H9R 4828   5.568   5.447   4.774  0.7108  2.8733  0.2440
   38DOPE  C210 4829   5.682   5.386   4.937 -0.2288  0.1549 -0.1804
   38DOPE  H10R 4830   5.601   5.332   4.989  2.2229 -2.8492  0.8548
   38DOPE  C211 4831   5.809   5.390   5.021 -0.9091  0.0165  1.0749
   38DOPE  H11R 4832   5.895   5.407   4.953 -0.9073 -0.1004  1.0466
   38DOPE  H11S 4833   5.833   5.293   5.071  0.7440  0.3373  0.9694
   38DOPE  C212 4834   5.806   5.505   5.122 -0.1864 -0.1009  0.4350
   38DOPE  H12R 4835   5.782   5.592   5.057 -0.6580 -2.5208 -2.8979
   38DOPE  H12S 4836   5.906   5.529   5.163 -0.4485 -2.7757  3.0543
   38DOPE  C213 4837   5.733   5.482   5.251 -0.4624 -0.0229 -0.0674
   38DOPE  H13R 4838   5.762   5.385   5.296 -0.8576 -0.5372 -0.9000
   38DOPE  H13S 4839   5.623   5.488   5.236 -0.7144  0.1204  1.6132
   38DOPE  C214 4840   5.764   5.611   5.338  0.4348 -0.1445 -0.6302
   38DOPE  H14R 4841   5.717   5.699   5.288  1.2698  2.2833  2.5715
   38DOPE  H14S 4842   5.873   5.625   5.350  0.8157 -2.5034 -0.8386
   38DOPE  C215 4843   5.680   5.604   5.470  0.6547 -0.0992  0.1484
   38DOPE  H15R 4844   5.727   5.516   5.519 -1.7740 -3.0758 -2.4280
   38DOPE  H15S 4845   5.574   5.572   5.459  0.7273  0.1737 -1.7694
   38DOPE  C216 4846   5.693   5.723   5.565 -0.3121  0.5256 -0.6594
   38DOPE  H16R 4847   5.661   5.819   5.518  0.2387  1.4939  0.8682
   38DOPE  H16S 4848   5.800   5.741   5.588 -0.0907  0.4870 -1.6079
   38DOPE  C217 4849   5.637   5.689   5.700  0.2461 -0.5851 -0.4065
   38DOPE  H17R 4850   5.665   5.585   5.727 -1.7334 -1.3625 -1.1161
   38DOPE  H17S 4851   5.526   5.689   5.702  0.2535 -1.0768  0.7644
   38DOPE  C218 4852   5.675   5.786   5.809  0.3250 -0.3880  0.2327
   38DOPE  H18R 4853   5.605   5.767   5.894  1.3353 -1.6903  0.8075
   38DOPE  H18S 4854   5.662   5.890   5.774 -1.6997  0.0615  2.0632
   38DOPE  H18T 4855   5.776   5.767   5.851  0.1425 -1.0910  0.3778
   38DOPE   C33 4856   5.403   6.278   4.115 -0.1899 -0.3935  0.2765
   38DOPE   H3X 4857   5.352   6.330   4.031 -0.3713  1.0250  1.2256
   38DOPE   H3Y 4858   5.491   6.220   4.080  0.4546  0.5180  0.3387
   38DOPE   C34 4859   5.465   6.383   4.208 -0.8368 -0.7801  0.2152
   38DOPE   H4X 4860   5.551   6.438   4.165 -1.3047 -0.1909  0.0144
   38DOPE   H4Y 4861   5.390   6.461   4.233  0.6509 -0.1797  3.2328
   38DOPE   C35 4862   5.514   6.337   4.351  0.2271 -0.9125 -0.0468
   38DOPE   H5X 4863   5.570   6.241   4.344  2.9383  0.4820  0.9217
   38DOPE   H5Y 4864   5.428   6.303   4.413  0.5587 -1.0280  0.3586
   38DOPE   C36 4865   5.597   6.427   4.436 -0.1199 -0.3988 -0.1783
   38DOPE   H6X 4866   5.532   6.517   4.442  2.4575  1.5242  0.6728
   38DOPE   H6Y 4867   5.690   6.467   4.390 -0.2353 -1.1635 -1.1394
   38DOPE   C37 4868   5.627   6.363   4.576  0.4127  0.0770 -0.4100
   38DOPE   H7X 4869   5.532   6.334   4.626  0.3395  0.0470 -0.5638
   38DOPE   H7Y 4870   5.679   6.268   4.549  2.7914  1.7531 -2.0720
   38DOPE   C38 4871   5.716   6.452   4.664 -0.1041 -0.3526  0.4218
   38DOPE   H8X 4872   5.661   6.545   4.691 -0.6791 -0.4027 -0.5254
   38DOPE   H8Y 4873   5.793   6.498   4.597 -1.6526  2.1431  0.2159
   38DOPE   C39 4874   5.778   6.384   4.781 -0.1023  0.4214  0.8009
   38DOPE   H9X 4875   5.866   6.324   4.753 -0.7620 -0.5570  0.7942
   38DOPE  C310 4876   5.760   6.418   4.905 -0.4057  0.8506 -0.7255
   38DOPE  H10X 4877   5.832   6.382   4.980 -0.2597  1.6060 -0.4926
   38DOPE  C311 4878   5.666   6.507   4.977  0.2045 -0.6438  1.0418
   38DOPE  H11X 4879   5.712   6.520   5.077  1.4023  0.3028  0.4034
   38DOPE  H11Y 4880   5.664   6.608   4.930 -0.3825 -0.8921  0.5211
   38DOPE  C312 4881   5.526   6.443   4.991  0.4518  0.1300  0.5305
   38DOPE  H12X 4882   5.540   6.341   5.031  1.9663  0.0911 -0.0143
   38DOPE  H12Y 4883   5.488   6.433   4.887  3.4970 -1.0437 -0.5857
   38DOPE  C313 4884   5.421   6.511   5.080 -0.2279  0.4204  0.2169
   38DOPE  H13X 4885   5.419   6.622   5.076 -1.0022  0.3906 -0.6876
   38DOPE  H13Y 4886   5.316   6.488   5.050 -0.5712 -2.7388  3.1696
   38DOPE  C314 4887   5.433   6.478   5.232 -0.3135  0.4014 -0.2279
   38DOPE  H14X 4888   5.535   6.486   5.275 -0.1886 -1.3936 -0.0897
   38DOPE  H14Y 4889   5.415   6.368   5.230  1.1636  0.0920  1.2437
   38DOPE  C315 4890   5.328   6.544   5.326 -0.7968 -0.1755  0.7172
   38DOPE  H15X 4891   5.234   6.577   5.278  0.6309  0.1929 -2.0296
   38DOPE  H15Y 4892   5.366   6.642   5.363  0.2176 -0.7550  1.2589
   38DOPE  C316 4893   5.294   6.454   5.439 -0.2186 -0.1919  0.5591
   38DOPE  H16X 4894   5.251   6.362   5.393  0.7099 -0.2179 -0.2988
   38DOPE  H16Y 4895   5.222   6.507   5.504  0.8097  0.9978  0.7654
   38DOPE  C317 4896   5.419   6.425   5.534 -0.4524  0.0587  0.7074
   38DOPE  H17X 4897   5.392   6.350   5.611  1.8143  0.1180  1.6450
   38DOPE  H17Y 4898   5.508   6.386   5.479 -0.7444  2.4419 -1.6712
   38DOPE  C318 4899   5.468   6.544   5.613 -0.2766 -0.7338  0.1546
   38DOPE  H18X 4900   5.524   6.612   5.546  0.8758 -1.7071  0.0890
   38DOPE  H18Y 4901   5.397   6.608   5.669  1.5140  0.8881  0.6711
   38DOPE  H18Z 4902   5.544   6.510   5.687 -0.1276  0.4619  0.5727
   39DOPE     N 4903   2.158   5.966   3.642 -0.0371  0.1095  0.2338
   39DOPE   HN1 4904   2.116   5.965   3.737  0.4071 -0.6698  0.4246
   39DOPE   HN2 4905   2.134   5.876   3.597  0.3729 -0.1493  0.5232
   39DOPE   HN3 4906   2.261   5.966   3.652 -0.1739 -0.8676  2.0439
   39DOPE   C12 4907   2.103   6.083   3.567 -0.3400 -0.5219 -0.3983
   39DOPE  H12A 4908   2.028   6.130   3.634  0.8706 -1.8720  2.0632
   39DOPE  H12B 4909   2.035   6.044   3.489 -0.7853  0.4746 -0.5136
   39DOPE   C11 4910   2.216   6.176   3.515  0.6046  0.6522 -0.1704
   39DOPE  H11A 4911   2.172   6.215   3.420 -2.5166  0.5712  1.1211
   39DOPE  H11B 4912   2.307   6.116   3.489 -0.5026  0.3808 -4.2035
   39DOPE     P 4913   2.339   6.286   3.714  0.1917 -0.0149  0.2334
   39DOPE   O13 4914   2.362   6.431   3.748  0.3601  0.5026  0.0371
   39DOPE   O14 4915   2.461   6.211   3.675 -0.3785  0.4454 -0.1521
   39DOPE   O11 4916   2.267   6.207   3.841  0.1273  0.6823  0.4477
   39DOPE   O12 4917   2.231   6.280   3.601 -0.4068 -0.4242 -0.2860
   39DOPE    C1 4918   2.147   6.269   3.895 -0.3412 -0.2053 -0.8237
   39DOPE    HA 4919   2.056   6.218   3.856 -1.7761  0.3420  1.6102
   39DOPE    HB 4920   2.156   6.379   3.887  1.3925 -0.1843  0.6750
   39DOPE    C2 4921   2.144   6.221   4.038 -0.0672 -0.3485  0.1385
   39DOPE    HS 4922   2.047   6.243   4.088  0.5817  1.2969  0.7561
   39DOPE   O21 4923   2.256   6.288   4.102  0.1317 -0.4500  0.4814
   39DOPE   C21 4924   2.235   6.420   4.117  0.9715  0.2844 -0.0144
   39DOPE   O22 4925   2.125   6.473   4.112  0.6558  0.4510  0.6522
   39DOPE   C22 4926   2.372   6.492   4.138 -0.2843 -0.4647  0.2156
   39DOPE   H2R 4927   2.392   6.522   4.033 -2.0112 -1.8405 -0.5728
   39DOPE   H2S 4928   2.448   6.422   4.179  0.6912  1.3895  1.6858
   39DOPE    C3 4929   2.153   6.068   4.058  1.4486  0.3911 -0.2573
   39DOPE    HX 4930   2.255   6.031   4.035  0.8880 -0.7568 -1.0110
   39DOPE    HY 4931   2.085   6.022   3.983  0.7539  1.0750 -0.0648
   39DOPE   O31 4932   2.129   6.019   4.196  0.2377 -0.8041 -0.0230
   39DOPE   C31 4933   2.101   5.891   4.208 -0.0484 -0.0861  0.1864
   39DOPE   O32 4934   2.095   5.813   4.113  0.6697  0.0291  0.7002
   39DOPE   C32 4935   2.082   5.857   4.355 -0.0897 -0.1783 -0.1525
   39DOPE   H2X 4936   2.172   5.904   4.401  0.0164 -0.1866 -0.3480
   39DOPE   H2Y 4937   1.991   5.905   4.397 -0.4079 -2.7938  2.4220
   39DOPE   C23 4938   2.359   6.611   4.228  0.2425 -0.0326 -0.8235
   39DOPE   H3R 4939   2.265   6.666   4.207 -0.6819 -1.8360 -1.5803
   39DOPE   H3S 4940   2.444   6.679   4.204 -0.8200  2.4468  1.7709
   39DOPE   C24 4941   2.345   6.576   4.384 -0.3302 -0.0969  0.0294
   39DOPE   H4R 4942   2.437   6.517   4.403 -0.1940 -0.4742 -1.6429
   39DOPE   H4S 4943   2.253   6.522   4.414  0.3618 -0.3909  1.6844
   39DOPE   C25 4944   2.349   6.702   4.478  0.1364 -0.2773  0.0412
   39DOPE   H5R 4945   2.258   6.762   4.459  1.5124  1.5172 -1.2942
   39DOPE   H5S 4946   2.434   6.770   4.454 -0.8380  1.7008  1.8386
   39DOPE   C26 4947   2.358   6.659   4.626  0.2708  0.5140 -0.0342
   39DOPE   H6R 4948   2.458   6.613   4.642  0.5361  0.7151 -1.0513
   39DOPE   H6S 4949   2.279   6.582   4.644 -1.0727  2.1203  1.3619
   39DOPE   C27 4950   2.339   6.765   4.733  0.1803 -0.6652 -0.1370
   39DOPE   H7R 4951   2.247   6.821   4.707  0.0524  0.1176  1.8076
   39DOPE   H7S 4952   2.421   6.840   4.731  0.6680 -1.1730  0.3238
   39DOPE   C28 4953   2.327   6.700   4.875 -0.3699  0.6601  0.2889
   39DOPE   H8R 4954   2.421   6.653   4.909 -0.7760 -0.9504 -0.7372
   39DOPE   H8S 4955   2.245   6.626   4.878 -2.2907  2.6961  1.3227
   39DOPE   C29 4956   2.289   6.801   4.985 -0.4239 -0.5556 -0.3985
   39DOPE   H9R 4957   2.278   6.904   4.948 -1.7390 -0.7129 -0.4937
   39DOPE  C210 4958   2.264   6.778   5.113 -0.1805  0.3786  0.3557
   39DOPE  H10R 4959   2.224   6.863   5.170  0.4207 -1.2887  3.4858
   39DOPE  C211 4960   2.265   6.645   5.185 -0.6285 -0.6977  0.1037
   39DOPE  H11R 4961   2.359   6.589   5.166  1.0561  1.9571 -0.0334
   39DOPE  H11S 4962   2.177   6.589   5.148 -0.7111  0.5988 -1.8025
   39DOPE  C212 4963   2.245   6.670   5.332 -0.2655 -0.3321  0.3429
   39DOPE  H12R 4964   2.152   6.726   5.356 -1.5448 -1.4874 -1.5943
   39DOPE  H12S 4965   2.328   6.738   5.361 -0.3883  0.1318 -0.3587
   39DOPE  C213 4966   2.255   6.546   5.418 -0.1148  0.1271  0.4525
   39DOPE  H13R 4967   2.346   6.486   5.395 -0.0786  0.8343 -1.3815
   39DOPE  H13S 4968   2.158   6.498   5.394 -0.6121  1.4490 -0.3083
   39DOPE  C214 4969   2.261   6.573   5.570 -0.7829  0.2408 -0.3001
   39DOPE  H14R 4970   2.243   6.679   5.598  1.4556  0.3067  1.1410
   39DOPE  H14S 4971   2.367   6.550   5.595 -0.9264 -0.8223 -0.5845
   39DOPE  C215 4972   2.164   6.491   5.650  0.3625 -0.6658 -0.2613
   39DOPE  H15R 4973   2.196   6.386   5.637  0.4809 -0.6388 -0.1887
   39DOPE  H15S 4974   2.068   6.492   5.594 -0.5881  0.6874  1.3100
   39DOPE  C216 4975   2.161   6.527   5.797 -0.0082 -0.1906 -0.5450
   39DOPE  H16R 4976   2.266   6.519   5.833 -0.2253 -2.0771 -0.2240
   39DOPE  H16S 4977   2.104   6.440   5.836  2.5696 -2.5645 -1.7075
   39DOPE  C217 4978   2.089   6.655   5.838 -0.3624  0.2232 -0.1406
   39DOPE  H17R 4979   1.995   6.653   5.779 -0.8530  1.7988  0.5372
   39DOPE  H17S 4980   2.149   6.743   5.805  0.6417 -0.4827 -0.2562
   39DOPE  C218 4981   2.060   6.668   5.988 -0.3471 -0.3966  0.6735
   39DOPE  H18R 4982   2.063   6.777   6.010  1.9871 -0.4224  0.7422
   39DOPE  H18S 4983   2.135   6.615   6.052 -1.7535 -2.4212  0.7229
   39DOPE  H18T 4984   1.960   6.626   6.010 -0.2707 -0.1029  1.6325
   39DOPE   C33 4985   2.075   5.700   4.383 -0.3165 -0.3231 -0.9109
   39DOPE   H3X 4986   2.160   5.654   4.328  0.3677 -0.9216  0.6020
   39DOPE   H3Y 4987   1.983   5.649   4.348 -0.2673 -0.7228 -0.4592
   39DOPE   C34 4988   2.103   5.672   4.533 -0.6179  0.3530 -0.0795
   39DOPE   H4X 4989   2.024   5.701   4.606 -0.8497  0.3274 -0.3176
   39DOPE   H4Y 4990   2.094   5.561   4.532 -1.0880  0.3886 -0.5819
   39DOPE   C35 4991   2.247   5.718   4.582  0.1677  0.6467  0.2133
   39DOPE   H5X 4992   2.261   5.826   4.603 -0.4815  0.6028  0.8998
   39DOPE   H5Y 4993   2.313   5.693   4.497 -0.7902 -0.7916 -0.1417
   39DOPE   C36 4994   2.306   5.629   4.698 -0.6689 -0.8216  0.0992
   39DOPE   H6X 4995   2.412   5.659   4.708 -0.1543 -2.3688 -0.3364
   39DOPE   H6Y 4996   2.294   5.523   4.666  0.2037 -0.3368 -2.0164
   39DOPE   C37 4997   2.230   5.636   4.829  0.3462 -0.2109 -0.0678
   39DOPE   H7X 4998   2.196   5.739   4.851 -1.2590 -0.7850  0.2630
   39DOPE   H7Y 4999   2.141   5.570   4.833  0.3521 -0.1460  2.2383
   39DOPE   C38 5000   2.322   5.610   4.949 -0.7589  0.5278 -0.1354
   39DOPE   H8X 5001   2.369   5.707   4.974  0.8212 -0.0839 -0.5882
   39DOPE   H8Y 5002   2.404   5.543   4.916 -1.4250 -0.0137 -0.7237
   39DOPE   C39 5003   2.242   5.550   5.064 -0.1966 -0.1023  0.3539
   39DOPE   H9X 5004   2.210   5.446   5.048  1.5270 -1.0458  2.5524
   39DOPE  C310 5005   2.192   5.606   5.175  0.3770 -0.5433 -0.6340
   39DOPE  H10X 5006   2.145   5.542   5.252 -0.1970 -0.6279 -1.0437
   39DOPE  C311 5007   2.228   5.741   5.231 -0.1321 -0.1206 -0.2411
   39DOPE  H11X 5008   2.314   5.787   5.177  0.9784 -0.3099  1.3027
   39DOPE  H11Y 5009   2.145   5.814   5.231 -1.0680 -1.1472  0.7820
   39DOPE  C312 5010   2.275   5.731   5.374  0.2027 -0.4627 -0.3985
   39DOPE  H12X 5011   2.307   5.829   5.416  3.1310 -0.2233 -2.8642
   39DOPE  H12Y 5012   2.363   5.664   5.380  0.7552  0.3759  2.6573
   39DOPE  C313 5013   2.170   5.686   5.484 -0.7402 -0.4806  0.2848
   39DOPE  H13X 5014   2.081   5.752   5.477 -0.8627 -0.3688  2.2747
   39DOPE  H13Y 5015   2.133   5.584   5.461  0.0515 -1.3494  2.5794
   39DOPE  C314 5016   2.218   5.679   5.633 -0.3218  0.0453  0.4746
   39DOPE  H14X 5017   2.235   5.783   5.668  2.0065 -0.0575 -0.1537
   39DOPE  H14Y 5018   2.313   5.621   5.628 -0.3412 -0.1150  1.7388
   39DOPE  C315 5019   2.112   5.617   5.724  0.4810  0.3022 -0.4074
   39DOPE  H15X 5020   2.111   5.507   5.712 -2.0223  0.2245 -0.0189
   39DOPE  H15Y 5021   2.009   5.644   5.693  0.0650 -0.5207  0.2262
   39DOPE  C316 5022   2.135   5.639   5.870  0.1764  0.2322 -0.0563
   39DOPE  H16X 5023   2.121   5.747   5.892  1.6298  0.2979  0.7153
   39DOPE  H16Y 5024   2.241   5.616   5.898  0.0875  1.1565  1.1333
   39DOPE  C317 5025   2.042   5.575   5.969  0.0319  1.1364 -0.2180
   39DOPE  H17X 5026   1.937   5.608   5.951 -0.2836  0.0020 -0.5557
   39DOPE  H17Y 5027   2.034   5.465   5.956  2.4827  1.1310 -2.5762
   39DOPE  C318 5028   2.080   5.603   6.113  0.6516 -0.2346  0.6042
   39DOPE  H18X 5029   1.990   5.618   6.177 -0.5216 -0.2162 -0.9956
   39DOPE  H18Y 5030   2.132   5.515   6.157 -0.1412 -1.0997 -0.1424
   39DOPE  H18Z 5031   2.143   5.694   6.124 -0.2735  0.5574 -0.4357
   40DOPE     N 5032   2.826   6.634   3.628 -0.8235  0.1583 -0.3059
   40DOPE   HN1 5033   2.799   6.569   3.552 -1.4607  1.1800 -0.9770
   40DOPE   HN2 5034   2.795   6.612   3.725 -2.7526  0.2503 -0.8609
   40DOPE   HN3 5035   2.775   6.720   3.600  0.8653  0.9297 -1.1777
   40DOPE   C12 5036   2.977   6.658   3.639 -0.0483 -0.2355 -0.3485
   40DOPE  H12A 5037   2.985   6.756   3.692 -2.3671 -0.8368  1.2610
   40DOPE  H12B 5038   2.992   6.677   3.531 -0.6895  2.4111 -0.0552
   40DOPE   C11 5039   3.056   6.554   3.710 -0.2314 -0.0524 -0.3097
   40DOPE  H11A 5040   3.014   6.545   3.813  1.1427  1.8489  0.4686
   40DOPE  H11B 5041   3.162   6.587   3.714 -0.1499 -0.0867 -1.7789
   40DOPE     P 5042   3.019   6.292   3.729  0.1991 -0.1411  0.1642
   40DOPE   O13 5043   3.050   6.171   3.645  0.7316 -0.0052 -0.0126
   40DOPE   O14 5044   2.883   6.311   3.775  0.7767  0.5052  0.0290
   40DOPE   O11 5045   3.108   6.295   3.857 -0.0301  0.0891  0.2776
   40DOPE   O12 5046   3.049   6.423   3.644 -0.1142 -0.0831 -0.2740
   40DOPE    C1 5047   3.249   6.264   3.843  0.6082 -0.0947  1.0441
   40DOPE    HA 5048   3.294   6.299   3.748  1.2125 -1.3239  0.8598
   40DOPE    HB 5049   3.257   6.153   3.839  0.9984 -0.0241 -1.0424
   40DOPE    C2 5050   3.330   6.306   3.967  0.0496  0.6981 -0.2060
   40DOPE    HS 5051   3.427   6.253   3.969  0.9754  2.3493  0.3987
   40DOPE   O21 5052   3.256   6.296   4.091 -0.4299 -0.0375  0.7546
   40DOPE   C21 5053   3.243   6.177   4.139 -0.1839  1.1158 -0.2210
   40DOPE   O22 5054   3.279   6.072   4.091 -0.7409 -0.3466 -0.3221
   40DOPE   C22 5055   3.158   6.184   4.260  0.2673 -0.2972  0.1292
   40DOPE   H2R 5056   3.055   6.199   4.222  0.7557  1.2792 -0.6650
   40DOPE   H2S 5057   3.184   6.271   4.324 -0.3371  1.0739 -1.4367
   40DOPE    C3 5058   3.370   6.456   3.963 -0.1699 -0.6145  0.0448
   40DOPE    HX 5059   3.293   6.528   3.928  0.7607 -0.3792 -1.6690
   40DOPE    HY 5060   3.461   6.458   3.900  1.3015  0.7275  2.0726
   40DOPE   O31 5061   3.416   6.488   4.094 -0.3976 -0.1322  0.3144
   40DOPE   C31 5062   3.335   6.565   4.172  0.3412 -0.5443 -0.1303
   40DOPE   O32 5063   3.230   6.612   4.135 -0.3976 -0.0815 -0.0158
   40DOPE   C32 5064   3.402   6.575   4.302 -0.1002 -0.0062  0.6685
   40DOPE   H2X 5065   3.471   6.491   4.325 -0.2043 -0.6375 -1.2242
   40DOPE   H2Y 5066   3.471   6.662   4.290 -1.9674  1.5141  0.5029
   40DOPE   C23 5067   3.149   6.051   4.333 -0.6136 -0.4021  0.2356
   40DOPE   H3R 5068   3.110   5.979   4.257  1.1003 -1.2097  0.0715
   40DOPE   H3S 5069   3.079   6.072   4.416  0.5172  1.2056  0.8307
   40DOPE   C24 5070   3.283   6.012   4.398 -0.1702  0.1371 -0.5854
   40DOPE   H4R 5071   3.355   5.976   4.321  0.2729  0.1649 -0.1871
   40DOPE   H4S 5072   3.256   5.924   4.460 -1.4347 -0.4650 -1.9129
   40DOPE   C25 5073   3.348   6.130   4.476 -0.1613  0.1267 -0.6289
   40DOPE   H5R 5074   3.386   6.216   4.416 -0.1736  1.5347  1.2859
   40DOPE   H5S 5075   3.445   6.086   4.506 -0.0361  0.8056 -0.0136
   40DOPE   C26 5076   3.268   6.192   4.595 -0.4417  0.2169 -0.5143
   40DOPE   H6R 5077   3.190   6.251   4.543 -0.2505 -1.3605 -2.7246
   40DOPE   H6S 5078   3.322   6.261   4.664 -1.4483 -1.4043  2.0343
   40DOPE   C27 5079   3.213   6.074   4.689 -0.2603 -0.6804  0.7812
   40DOPE   H7R 5080   3.305   6.018   4.718  1.4610  2.2036  1.3001
   40DOPE   H7S 5081   3.147   6.007   4.630 -0.8834  0.6346 -0.0348
   40DOPE   C28 5082   3.155   6.130   4.817 -0.2354  0.3036 -1.1423
   40DOPE   H8R 5083   3.068   6.193   4.790 -1.3157 -1.2703 -1.4488
   40DOPE   H8S 5084   3.224   6.210   4.849 -1.0486  1.0722 -1.2807
   40DOPE   C29 5085   3.133   6.028   4.921  0.6977  0.4436 -0.1856
   40DOPE   H9R 5086   3.064   5.949   4.888 -0.0533  0.7021  0.7256
   40DOPE  C210 5087   3.171   6.030   5.055 -0.2227 -0.3823 -0.0609
   40DOPE  H10R 5088   3.163   5.940   5.117 -0.8941 -0.3780 -0.1322
   40DOPE  C211 5089   3.249   6.147   5.116 -0.0149  0.9085 -0.8341
   40DOPE  H11R 5090   3.222   6.245   5.071 -0.8173  1.0251 -0.1363
   40DOPE  H11S 5091   3.357   6.127   5.102  0.4166  0.5225  2.2855
   40DOPE  C212 5092   3.221   6.159   5.276 -0.1490 -0.3106 -0.0850
   40DOPE  H12R 5093   3.294   6.233   5.316 -1.4039  0.4129  0.9356
   40DOPE  H12S 5094   3.242   6.061   5.325 -1.3059 -0.6560 -0.2347
   40DOPE  C213 5095   3.074   6.188   5.310 -0.2684 -0.4660 -0.0771
   40DOPE  H13R 5096   3.014   6.113   5.255 -1.3006  0.6570 -0.5186
   40DOPE  H13S 5097   3.043   6.289   5.277  0.0016 -0.7329 -1.1998
   40DOPE  C214 5098   3.053   6.191   5.464  0.0680 -0.9643  0.0601
   40DOPE  H14R 5099   3.108   6.101   5.498  0.3906 -1.2525 -1.1717
   40DOPE  H14S 5100   2.945   6.164   5.474  0.1294 -0.9682  0.7473
   40DOPE  C215 5101   3.080   6.324   5.531  0.1075  0.4305  0.2496
   40DOPE  H15R 5102   3.013   6.408   5.499 -0.7126  0.8088  2.7612
   40DOPE  H15S 5103   3.182   6.354   5.499  0.6505 -0.2872  1.2800
   40DOPE  C216 5104   3.082   6.316   5.686 -0.2137  0.0177  0.1421
   40DOPE  H16R 5105   2.980   6.289   5.721 -0.2552  0.1131  0.0928
   40DOPE  H16S 5106   3.103   6.420   5.720  0.9178 -0.6113  1.4976
   40DOPE  C217 5107   3.183   6.213   5.738 -0.1405  0.5403  0.0640
   40DOPE  H17R 5108   3.166   6.108   5.708  0.6469  0.4322 -0.0282
   40DOPE  H17S 5109   3.190   6.216   5.849  1.3221 -0.7319  0.0431
   40DOPE  C218 5110   3.326   6.235   5.705 -0.7035  0.0549  0.5528
   40DOPE  H18R 5111   3.384   6.150   5.749 -0.1212  1.1506  1.9821
   40DOPE  H18S 5112   3.372   6.325   5.752  0.4070  1.5198 -3.0446
   40DOPE  H18T 5113   3.352   6.243   5.598  0.8316  1.0997  0.9693
   40DOPE   C33 5114   3.313   6.587   4.415  0.7329  0.2221 -0.2510
   40DOPE   H3X 5115   3.245   6.500   4.406  2.7312 -1.3194 -1.3525
   40DOPE   H3Y 5116   3.252   6.680   4.413 -2.6210 -1.8247 -0.1003
   40DOPE   C34 5117   3.385   6.579   4.554 -0.2812 -1.0240  0.1732
   40DOPE   H4X 5118   3.441   6.483   4.559  2.4489  0.5384  3.3498
   40DOPE   H4Y 5119   3.458   6.661   4.570  0.4348 -1.9239  1.7714
   40DOPE   C35 5120   3.298   6.573   4.677  1.1352  0.1406 -0.0229
   40DOPE   H5X 5121   3.216   6.500   4.659  0.7237 -0.4593  3.4765
   40DOPE   H5Y 5122   3.244   6.667   4.700 -1.0199 -0.9593 -0.3455
   40DOPE   C36 5123   3.369   6.528   4.803  0.1347 -0.6780 -0.9700
   40DOPE   H6X 5124   3.460   6.590   4.817  0.4720 -1.3702 -0.0042
   40DOPE   H6Y 5125   3.408   6.424   4.800  1.4019 -0.1953 -2.4395
   40DOPE   C37 5126   3.276   6.546   4.936 -0.0379  0.0071 -0.8253
   40DOPE   H7X 5127   3.218   6.640   4.936  0.1113  0.1019 -0.5215
   40DOPE   H7Y 5128   3.203   6.463   4.928  2.9099 -2.7886 -0.9237
   40DOPE   C38 5129   3.362   6.535   5.064 -0.4298  0.6977  0.1574
   40DOPE   H8X 5130   3.425   6.626   5.070 -2.3816  2.0667  0.7435
   40DOPE   H8Y 5131   3.426   6.445   5.055  0.7811  1.6299 -0.8170
   40DOPE   C39 5132   3.271   6.509   5.183 -0.6579  0.3559 -0.2861
   40DOPE   H9X 5133   3.188   6.438   5.170  0.5773 -1.2394  0.1956
   40DOPE  C310 5134   3.279   6.583   5.294 -0.0738 -0.0029  0.0761
   40DOPE  H10X 5135   3.209   6.562   5.377 -2.7640  2.2647 -1.4236
   40DOPE  C311 5136   3.385   6.684   5.320  0.4008  0.6840  0.6248
   40DOPE  H11X 5137   3.485   6.656   5.282  0.0825  0.2263  0.1179
   40DOPE  H11Y 5138   3.365   6.781   5.269 -0.2009  0.6412  0.7654
   40DOPE  C312 5139   3.390   6.725   5.475 -0.0888  0.1673  0.3438
   40DOPE  H12X 5140   3.294   6.771   5.508 -0.0414  1.3118 -1.0182
   40DOPE  H12Y 5141   3.456   6.814   5.475 -2.2116  1.8741 -1.4494
   40DOPE  C313 5142   3.446   6.613   5.569  0.3400  0.4496  0.2963
   40DOPE  H13X 5143   3.370   6.532   5.566 -0.3876  1.1460 -0.8268
   40DOPE  H13Y 5144   3.537   6.567   5.525 -1.6740 -1.7066 -1.9324
   40DOPE  C314 5145   3.477   6.674   5.707  0.0123  0.7739 -1.0381
   40DOPE  H14X 5146   3.399   6.749   5.735  0.0241  0.0476  1.0722
   40DOPE  H14Y 5147   3.573   6.729   5.709  1.3175 -1.4146 -0.3635
   40DOPE  C315 5148   3.486   6.566   5.817 -0.3806 -0.0441 -0.3206
   40DOPE  H15X 5149   3.553   6.479   5.799  1.0539  1.3554 -2.2947
   40DOPE  H15Y 5150   3.388   6.515   5.817 -0.3292 -0.2314 -2.2503
   40DOPE  C316 5151   3.492   6.630   5.957  0.6419 -0.2433 -0.9423
   40DOPE  H16X 5152   3.423   6.717   5.952 -0.3367 -0.7460  2.0196
   40DOPE  H16Y 5153   3.593   6.672   5.976 -0.0593  0.8363  0.5658
   40DOPE  C317 5154   3.451   6.530   6.070 -0.2613 -0.7425  0.1357
   40DOPE  H17X 5155   3.357   6.476   6.044 -0.6036  0.0058 -0.2061
   40DOPE  H17Y 5156   3.527   6.450   6.058  0.6256 -0.1790  1.7644
   40DOPE  C318 5157   3.457   6.578   6.218 -0.5070  0.4860 -0.1565
   40DOPE  H18X 5158   3.562   6.612   6.232  0.6844 -2.4426 -1.1343
   40DOPE  H18Y 5159   3.385   6.661   6.234  0.6349  1.1819  1.6998
   40DOPE  H18Z 5160   3.440   6.507   6.301 -0.8650  1.2452  0.4301
   41DOPE     N 5161   2.713   0.720   3.197  0.1704  0.1369 -0.0759
   41DOPE   HN1 5162   2.611   0.737   3.209  0.2675  1.3376 -0.8147
   41DOPE   HN2 5163   2.756   0.798   3.251 -0.2147  0.9572 -0.9174
   41DOPE   HN3 5164   2.735   0.731   3.096  0.8710  0.4794  0.1067
   41DOPE   C12 5165   2.731   0.593   3.271 -0.4186  0.0059  0.2729
   41DOPE  H12A 5166   2.832   0.554   3.245 -0.1718 -0.0263  1.2604
   41DOPE  H12B 5167   2.660   0.519   3.229 -0.6911 -0.9411  2.3228
   41DOPE   C11 5168   2.714   0.605   3.417 -0.1044  0.4498  0.3377
   41DOPE  H11A 5169   2.730   0.517   3.483  0.0307 -0.2760 -0.6480
   41DOPE  H11B 5170   2.607   0.630   3.432 -0.3797 -0.5779  0.1842
   41DOPE     P 5171   2.926   0.684   3.551  0.3535  0.2925  0.2114
   41DOPE   O13 5172   2.992   0.813   3.565  0.0181  0.3884  0.2514
   41DOPE   O14 5173   3.014   0.586   3.489 -0.3601  0.0450 -0.0490
   41DOPE   O11 5174   2.879   0.632   3.686 -0.0993  0.4781  0.0318
   41DOPE   O12 5175   2.792   0.712   3.468 -0.7814 -0.0796  0.1950
   41DOPE    C1 5176   2.815   0.708   3.784  0.3416  0.3824 -0.1496
   41DOPE    HA 5177   2.739   0.781   3.747  1.7630  2.9383  1.6379
   41DOPE    HB 5178   2.888   0.775   3.834  0.5017 -1.3699  2.0872
   41DOPE    C2 5179   2.749   0.623   3.902  0.0655  0.4006  0.8851
   41DOPE    HS 5180   2.737   0.695   3.985  2.1506  2.1377 -0.1916
   41DOPE   O21 5181   2.818   0.507   3.943 -0.7202 -0.1077 -0.0502
   41DOPE   C21 5182   2.950   0.524   3.966  0.3364  0.2184 -0.1858
   41DOPE   O22 5183   3.010   0.624   3.984  0.3336 -0.8347 -0.2637
   41DOPE   C22 5184   3.015   0.386   3.995 -0.7614  0.1373 -0.6188
   41DOPE   H2R 5185   3.109   0.380   3.937 -0.4804  0.2135 -0.1786
   41DOPE   H2S 5186   2.940   0.305   3.983 -0.8857 -0.1251  1.4885
   41DOPE    C3 5187   2.611   0.569   3.850 -0.6137 -0.5826 -0.3126
   41DOPE    HX 5188   2.637   0.531   3.749  0.6842  1.7498 -0.9306
   41DOPE    HY 5189   2.542   0.656   3.844  2.0736  1.8874  1.5536
   41DOPE   O31 5190   2.547   0.463   3.929 -0.7091  0.1950 -0.1119
   41DOPE   C31 5191   2.459   0.507   4.018  0.5068 -0.7699 -0.8475
   41DOPE   O32 5192   2.414   0.618   4.020 -0.5432 -0.2564 -0.2690
   41DOPE   C32 5193   2.438   0.390   4.117 -0.5642 -0.8152 -0.1315
   41DOPE   H2X 5194   2.335   0.403   4.154 -0.1360 -0.7422  1.0800
   41DOPE   H2Y 5195   2.441   0.300   4.051 -1.2695 -1.7281  1.0458
   41DOPE   C23 5196   3.064   0.363   4.145  0.0596 -0.0899 -0.1924
   41DOPE   H3R 5197   3.130   0.448   4.171  0.5634  0.0938 -1.9307
   41DOPE   H3S 5198   3.111   0.262   4.147 -0.4303 -0.3128  1.5929
   41DOPE   C24 5199   2.948   0.347   4.248  0.2554  0.1620  0.0874
   41DOPE   H4R 5200   2.918   0.241   4.263 -2.0179  0.8819  1.1534
   41DOPE   H4S 5201   2.855   0.397   4.213  0.5831 -1.1472 -2.9623
   41DOPE   C25 5202   2.982   0.406   4.389  0.1936  0.4396 -0.2715
   41DOPE   H5R 5203   3.008   0.513   4.371  0.4297  0.8179  1.9972
   41DOPE   H5S 5204   3.071   0.349   4.423 -0.5948 -0.1636  0.8533
   41DOPE   C26 5205   2.854   0.414   4.481  0.6116  0.5212  0.0621
   41DOPE   H6R 5206   2.764   0.455   4.431  0.8821  0.6760 -0.3029
   41DOPE   H6S 5207   2.885   0.498   4.547  0.4522  0.2419  0.4979
   41DOPE   C27 5208   2.816   0.286   4.567 -0.2774 -0.2589  0.7672
   41DOPE   H7R 5209   2.910   0.277   4.625  0.3370  1.2371  0.0480
   41DOPE   H7S 5210   2.794   0.193   4.511 -0.5207  0.4682 -0.3746
   41DOPE   C28 5211   2.698   0.304   4.678 -0.5971  0.3484  0.7484
   41DOPE   H8R 5212   2.663   0.205   4.715 -1.4242 -0.3083 -1.5949
   41DOPE   H8S 5213   2.622   0.352   4.613  2.4572  1.7951 -2.0442
   41DOPE   C29 5214   2.737   0.408   4.783  0.0120  0.2568 -1.3713
   41DOPE   H9R 5215   2.777   0.502   4.741  3.4337 -0.6496 -0.4699
   41DOPE  C210 5216   2.712   0.405   4.920  0.0594 -0.0762 -0.7634
   41DOPE  H10R 5217   2.743   0.490   4.983  1.9380 -2.2716  1.4718
   41DOPE  C211 5218   2.655   0.296   5.011  0.1107 -0.4380  0.6210
   41DOPE  H11R 5219   2.732   0.216   5.022 -0.9942 -1.9525 -1.8347
   41DOPE  H11S 5220   2.572   0.241   4.962  0.0321  0.3181 -0.0999
   41DOPE  C212 5221   2.612   0.364   5.140 -0.6430  0.2158  0.4518
   41DOPE  H12R 5222   2.529   0.437   5.129 -2.5046 -1.5364  2.0875
   41DOPE  H12S 5223   2.699   0.422   5.178  1.5897 -2.0016 -0.9289
   41DOPE  C213 5224   2.593   0.269   5.258  0.2700  0.1308 -0.3193
   41DOPE  H13R 5225   2.682   0.203   5.273 -0.1917 -0.2057  1.0374
   41DOPE  H13S 5226   2.521   0.193   5.222  2.6141 -1.6089 -1.6730
   41DOPE  C214 5227   2.554   0.346   5.386  0.6032 -0.2811 -0.2372
   41DOPE  H14R 5228   2.462   0.404   5.365  0.1663 -0.9736 -0.2665
   41DOPE  H14S 5229   2.628   0.421   5.419 -1.9839  1.2472  2.5020
   41DOPE  C215 5230   2.494   0.257   5.497 -0.6008  0.7170  0.4498
   41DOPE  H15R 5231   2.564   0.174   5.518 -0.3681  0.8439  0.1718
   41DOPE  H15S 5232   2.401   0.214   5.453 -0.9719 -0.3292  2.1564
   41DOPE  C216 5233   2.467   0.328   5.631 -0.7405  0.2715  0.5989
   41DOPE  H16R 5234   2.405   0.417   5.607 -1.7208 -0.3206  0.8510
   41DOPE  H16S 5235   2.567   0.351   5.672 -0.3802 -0.1449 -0.0299
   41DOPE  C217 5236   2.399   0.240   5.739  0.2095 -0.2074  0.2139
   41DOPE  H17R 5237   2.304   0.204   5.693 -0.3677  1.1818  0.2378
   41DOPE  H17S 5238   2.374   0.313   5.820  2.2927 -0.4050  1.0846
   41DOPE  C218 5239   2.484   0.121   5.777  0.1572  0.0097  0.7746
   41DOPE  H18R 5240   2.589   0.147   5.806  0.2931  0.2704  0.0667
   41DOPE  H18S 5241   2.484   0.052   5.691  1.0646  3.5791 -2.3484
   41DOPE  H18T 5242   2.449   0.077   5.873 -0.9504  1.4166  1.0561
   41DOPE   C33 5243   2.525   0.380   4.243 -0.4545  0.0379 -0.4841
   41DOPE   H3X 5244   2.586   0.471   4.264 -0.9964  0.3773 -0.3785
   41DOPE   H3Y 5245   2.605   0.307   4.218  0.1692  0.4626  0.2063
   41DOPE   C34 5246   2.458   0.325   4.368  0.8126 -0.4163 -0.3156
   41DOPE   H4X 5247   2.376   0.255   4.339 -0.0132  0.0474  0.8144
   41DOPE   H4Y 5248   2.526   0.271   4.438  1.4369  0.6239 -0.1091
   41DOPE   C35 5249   2.382   0.443   4.436  0.0063 -0.2855 -0.3152
   41DOPE   H5X 5250   2.317   0.496   4.363  1.4629 -0.7478 -2.0159
   41DOPE   H5Y 5251   2.461   0.512   4.473  0.3263 -0.5770 -0.4512
   41DOPE   C36 5252   2.299   0.399   4.557  0.5053 -0.9054 -0.5565
   41DOPE   H6X 5253   2.364   0.396   4.648  1.7958  0.3311 -1.4002
   41DOPE   H6Y 5254   2.247   0.302   4.541 -3.3869  0.9686 -0.4771
   41DOPE   C37 5255   2.191   0.502   4.587 -0.0635 -0.0844 -0.4935
   41DOPE   H7X 5256   2.228   0.606   4.600 -0.6086 -0.1125  1.6421
   41DOPE   H7Y 5257   2.123   0.515   4.500  1.2097 -0.8397 -1.6349
   41DOPE   C38 5258   2.126   0.454   4.716  0.9068  0.0419 -0.9666
   41DOPE   H8X 5259   2.191   0.437   4.805  1.1295 -0.9011 -1.2957
   41DOPE   H8Y 5260   2.074   0.357   4.699 -2.2405  1.0168  2.0997
   41DOPE   C39 5261   2.006   0.551   4.746 -0.6991 -0.0620 -0.3307
   41DOPE   H9X 5262   1.925   0.555   4.671 -2.3722 -0.8134  1.3706
   41DOPE  C310 5263   1.991   0.627   4.856  0.0622  0.3035  0.0378
   41DOPE  H10X 5264   1.891   0.668   4.876 -0.1936 -0.3168  0.0476
   41DOPE  C311 5265   2.092   0.657   4.963 -0.4196  0.7850  0.2225
   41DOPE  H11X 5266   2.196   0.661   4.924 -0.6896 -0.4485 -0.6803
   41DOPE  H11Y 5267   2.072   0.756   5.010  0.9498  0.3211  1.8989
   41DOPE  C312 5268   2.089   0.553   5.073 -0.0413  0.0929  0.0896
   41DOPE  H12X 5269   2.116   0.453   5.033 -1.6645 -1.0260  1.6181
   41DOPE  H12Y 5270   1.985   0.563   5.112 -1.6595  0.9643 -3.9101
   41DOPE  C313 5271   2.198   0.581   5.182  0.1234  0.6635  0.0071
   41DOPE  H13X 5272   2.298   0.568   5.136  0.7532  1.9547  0.9433
   41DOPE  H13Y 5273   2.182   0.687   5.213  3.0019  1.3821 -0.6968
   41DOPE  C314 5274   2.218   0.488   5.305  0.0657 -0.3711 -0.4476
   41DOPE  H14X 5275   2.301   0.532   5.364  1.2727  2.0546 -3.7176
   41DOPE  H14Y 5276   2.243   0.383   5.281 -1.0422 -0.4069 -1.5474
   41DOPE  C315 5277   2.093   0.490   5.402 -0.4868  0.2295 -0.1265
   41DOPE  H15X 5278   2.006   0.445   5.350  0.6936 -2.6047  0.1434
   41DOPE  H15Y 5279   2.076   0.596   5.429 -0.7187  0.2131 -0.2128
   41DOPE  C316 5280   2.118   0.411   5.526  0.0855 -0.9300 -0.8905
   41DOPE  H16X 5281   2.190   0.478   5.577  0.7387 -1.1418 -1.5144
   41DOPE  H16Y 5282   2.166   0.312   5.507 -1.3701 -2.2575  1.7212
   41DOPE  C317 5283   1.993   0.388   5.605  0.1786  0.4058 -0.2934
   41DOPE  H17X 5284   1.922   0.472   5.612 -0.9386 -0.5987  0.9752
   41DOPE  H17Y 5285   1.930   0.307   5.563 -1.1165  0.5357  1.2861
   41DOPE  C318 5286   2.019   0.334   5.746  0.0565 -0.2222  0.2997
   41DOPE  H18X 5287   2.095   0.404   5.787  0.6320  0.9832 -2.5736
   41DOPE  H18Y 5288   1.925   0.353   5.802 -1.1380  0.3485 -1.7961
   41DOPE  H18Z 5289   2.044   0.226   5.744  0.2617 -0.1947 -2.8334
   42DOPE     N 5290   1.587   5.107   3.428 -0.0410 -0.2388  0.9220
   42DOPE   HN1 5291   1.610   5.160   3.342 -0.3398 -1.8324 -0.1966
   42DOPE   HN2 5292   1.541   5.020   3.392 -3.0328  0.9327  1.6202
   42DOPE   HN3 5293   1.521   5.165   3.483 -1.2621 -0.0732 -0.6427
   42DOPE   C12 5294   1.704   5.096   3.525  0.2839 -0.2145  0.1477
   42DOPE  H12A 5295   1.798   5.075   3.469  2.8000  3.0168  2.7750
   42DOPE  H12B 5296   1.685   5.014   3.598 -0.0508 -0.6976 -0.4713
   42DOPE   C11 5297   1.752   5.231   3.589 -0.7506 -0.2892  0.1910
   42DOPE  H11A 5298   1.777   5.303   3.507 -1.7499  0.7608  0.7804
   42DOPE  H11B 5299   1.844   5.213   3.647 -0.6146  0.4186  0.2133
   42DOPE     P 5300   1.614   5.251   3.821 -0.0129  0.1576  0.2061
   42DOPE   O13 5301   1.713   5.147   3.867  0.5064  0.0204 -0.6550
   42DOPE   O14 5302   1.474   5.207   3.830  0.0752  0.5372 -0.2707
   42DOPE   O11 5303   1.636   5.388   3.887 -0.1617 -0.0699 -0.1288
   42DOPE   O12 5304   1.650   5.283   3.671 -0.1801 -0.0453 -0.2060
   42DOPE    C1 5305   1.763   5.454   3.880  0.2214  0.4640 -0.3861
   42DOPE    HA 5306   1.751   5.562   3.904 -0.9800  0.7108 -1.9291
   42DOPE    HB 5307   1.818   5.449   3.784 -0.6428 -0.6390 -0.8455
   42DOPE    C2 5308   1.853   5.404   4.003 -0.0661  0.1411  0.1434
   42DOPE    HS 5309   1.899   5.306   3.979  0.5098  0.4027  0.1815
   42DOPE   O21 5310   1.772   5.408   4.125 -0.6196 -0.0446  0.6689
   42DOPE   C21 5311   1.796   5.305   4.201 -0.0907  0.2055 -0.0161
   42DOPE   O22 5312   1.877   5.214   4.188  0.0758 -0.3776  0.5519
   42DOPE   C22 5313   1.708   5.326   4.331  0.8712  0.1452 -0.4245
   42DOPE   H2R 5314   1.602   5.332   4.300  0.5040 -0.4332  0.6422
   42DOPE   H2S 5315   1.732   5.424   4.378 -2.1193  0.6465  0.2939
   42DOPE    C3 5316   1.980   5.493   4.035 -0.5397  0.0032  0.1058
   42DOPE    HX 5317   1.944   5.591   4.073  1.1962  0.6025  0.3168
   42DOPE    HY 5318   2.040   5.519   3.945  2.1548 -1.6220  1.3215
   42DOPE   O31 5319   2.070   5.427   4.135 -0.3197 -0.0668  0.4531
   42DOPE   C31 5320   2.157   5.344   4.087 -0.2182 -0.8631  0.3622
   42DOPE   O32 5321   2.181   5.323   3.969  0.1994  0.1983 -0.3494
   42DOPE   C32 5322   2.234   5.272   4.200 -0.3194  0.5556 -0.2311
   42DOPE   H2X 5323   2.161   5.209   4.256 -0.2374 -1.3737 -2.1327
   42DOPE   H2Y 5324   2.306   5.204   4.150  1.2328  0.6439  1.7558
   42DOPE   C23 5325   1.717   5.219   4.441 -0.1908 -0.3017 -1.0477
   42DOPE   H3R 5326   1.708   5.120   4.393  0.9038 -0.4949 -0.8628
   42DOPE   H3S 5327   1.623   5.222   4.501  0.2276 -0.9532 -0.3511
   42DOPE   C24 5328   1.840   5.244   4.520 -0.0514  0.0864 -0.3527
   42DOPE   H4R 5329   1.852   5.345   4.565 -0.6610  0.4880 -1.0683
   42DOPE   H4S 5330   1.929   5.242   4.455  1.5680  1.7208  1.6616
   42DOPE   C25 5331   1.863   5.128   4.615 -0.4146  0.4003  0.0988
   42DOPE   H5R 5332   1.967   5.135   4.653 -0.1211 -0.7713 -0.4484
   42DOPE   H5S 5333   1.862   5.037   4.552 -2.3431  0.0018  0.6152
   42DOPE   C26 5334   1.770   5.117   4.732 -0.1673 -0.0109 -0.0144
   42DOPE   H6R 5335   1.804   5.037   4.801 -0.4831  0.4371  0.6723
   42DOPE   H6S 5336   1.668   5.089   4.700 -0.1371 -0.7328  0.4819
   42DOPE   C27 5337   1.758   5.248   4.814  0.0149  0.3169  0.3125
   42DOPE   H7R 5338   1.684   5.242   4.896  1.0258 -0.7286  1.2009
   42DOPE   H7S 5339   1.717   5.322   4.743 -0.1110 -0.1136 -0.0731
   42DOPE   C28 5340   1.891   5.300   4.871  0.2842 -0.4235  0.2770
   42DOPE   H8R 5341   1.882   5.406   4.901  0.0222  0.5251 -2.8170
   42DOPE   H8S 5342   1.949   5.307   4.776 -1.2361  0.8360 -0.6161
   42DOPE   C29 5343   1.951   5.213   4.971  0.4719  0.8056 -0.5876
   42DOPE   H9R 5344   1.995   5.119   4.934 -0.0679  1.2772 -2.4997
   42DOPE  C210 5345   1.965   5.247   5.100  0.4475 -0.0141 -0.0103
   42DOPE  H10R 5346   2.002   5.167   5.166  1.2002 -1.0179 -1.5777
   42DOPE  C211 5347   1.905   5.365   5.175  0.9891  0.1083 -0.1343
   42DOPE  H11R 5348   1.833   5.419   5.110 -0.3359  0.3908  1.5057
   42DOPE  H11S 5349   1.981   5.443   5.197  2.0500 -1.7356  3.4396
   42DOPE  C212 5350   1.820   5.315   5.299  0.5446 -0.3655  0.2292
   42DOPE  H12R 5351   1.753   5.227   5.288 -1.0957  0.5473  2.1956
   42DOPE  H12S 5352   1.762   5.409   5.316  2.6576  1.0284  0.1912
   42DOPE  C213 5353   1.918   5.285   5.422 -0.4325  0.1291 -0.2371
   42DOPE  H13R 5354   1.990   5.369   5.416 -1.0995  0.6875 -0.5356
   42DOPE  H13S 5355   1.965   5.186   5.407  0.7800  0.5349  0.7804
   42DOPE  C214 5356   1.849   5.287   5.557 -0.1530  0.3446  0.5331
   42DOPE  H14R 5357   1.764   5.217   5.551 -0.4387  0.6287  1.2788
   42DOPE  H14S 5358   1.806   5.388   5.572  1.2879  1.1588 -0.4988
   42DOPE  C215 5359   1.944   5.244   5.666 -0.4789 -0.0889 -0.2594
   42DOPE  H15R 5360   2.021   5.324   5.670 -1.6906  1.0805  1.1211
   42DOPE  H15S 5361   1.995   5.148   5.642 -0.8150 -1.0575  2.5449
   42DOPE  C216 5362   1.889   5.242   5.809 -0.5456  0.6563 -0.0935
   42DOPE  H16R 5363   1.790   5.192   5.820 -1.1110  2.2414  3.1205
   42DOPE  H16S 5364   1.869   5.345   5.844 -0.6743 -0.0120  1.9218
   42DOPE  C217 5365   1.987   5.163   5.897 -0.2432 -0.1467 -0.1735
   42DOPE  H17R 5366   2.091   5.199   5.878  0.0119 -0.2407  0.9867
   42DOPE  H17S 5367   1.984   5.056   5.866  1.0025 -0.3298  0.2642
   42DOPE  C218 5368   1.947   5.177   6.050 -0.8736  0.1814 -0.2797
   42DOPE  H18R 5369   1.836   5.172   6.058 -1.1209  3.0106 -0.7693
   42DOPE  H18S 5370   1.968   5.283   6.074 -0.6928  0.3153 -1.0276
   42DOPE  H18T 5371   1.994   5.099   6.114  2.7895  1.6578 -0.9153
   42DOPE   C33 5372   2.321   5.364   4.288  0.1890 -0.5498  0.1582
   42DOPE   H3X 5373   2.270   5.458   4.318  1.4548  0.0290  0.5625
   42DOPE   H3Y 5374   2.408   5.391   4.224  0.8193  0.2065  1.3050
   42DOPE   C34 5375   2.369   5.298   4.419 -0.4600 -0.3013  0.2363
   42DOPE   H4X 5376   2.428   5.213   4.378  1.0601  1.1160 -0.6509
   42DOPE   H4Y 5377   2.450   5.366   4.452 -0.9720  0.3971  0.0703
   42DOPE   C35 5378   2.272   5.261   4.528 -0.1559  0.6353  0.1736
   42DOPE   H5X 5379   2.207   5.180   4.489  1.3325  0.4699 -2.1588
   42DOPE   H5Y 5380   2.214   5.349   4.562  0.0155  1.0503 -0.5887
   42DOPE   C36 5381   2.349   5.214   4.658  0.5090 -0.2452 -0.0171
   42DOPE   H6X 5382   2.403   5.297   4.707  0.5727 -0.3063  0.0155
   42DOPE   H6Y 5383   2.416   5.134   4.619  0.2364 -0.0466 -0.9343
   42DOPE   C37 5384   2.260   5.152   4.763 -0.3724 -0.3067  0.3919
   42DOPE   H7X 5385   2.188   5.227   4.802 -1.5818 -0.6009 -1.1916
   42DOPE   H7Y 5386   2.202   5.069   4.716 -0.8937  0.6146 -0.6392
   42DOPE   C38 5387   2.339   5.103   4.883  0.3335 -0.6107 -0.2556
   42DOPE   H8X 5388   2.395   5.193   4.915 -0.3499 -0.4167  0.4264
   42DOPE   H8Y 5389   2.414   5.033   4.840  0.9225  0.6338 -1.3350
   42DOPE   C39 5390   2.262   5.034   4.993  0.3021 -0.0444  0.0309
   42DOPE   H9X 5391   2.203   4.949   4.957  1.2277 -0.7302  0.1027
   42DOPE  C310 5392   2.250   5.079   5.123 -0.4158 -0.5200  0.2773
   42DOPE  H10X 5393   2.184   5.033   5.197  1.2065 -0.1046  2.0581
   42DOPE  C311 5394   2.325   5.199   5.174  0.3088 -0.6258  0.7783
   42DOPE  H11X 5395   2.427   5.161   5.194  0.4444  0.0623  1.4710
   42DOPE  H11Y 5396   2.336   5.275   5.094  1.4765 -0.6847  0.8754
   42DOPE  C312 5397   2.263   5.269   5.300  0.4585 -0.1675 -0.5885
   42DOPE  H12X 5398   2.156   5.246   5.286  0.9992 -2.3816 -1.4022
   42DOPE  H12Y 5399   2.276   5.380   5.295 -3.4302  0.4370 -0.5368
   42DOPE  C313 5400   2.334   5.207   5.426  0.8001 -0.3436  0.0046
   42DOPE  H13X 5401   2.299   5.102   5.435  1.6472 -0.6673 -0.3930
   42DOPE  H13Y 5402   2.444   5.207   5.409  1.2731  1.2823  2.4848
   42DOPE  C314 5403   2.318   5.293   5.553 -0.0731  0.7168 -0.2322
   42DOPE  H14X 5404   2.209   5.315   5.555 -0.3593 -0.2968 -2.1977
   42DOPE  H14Y 5405   2.366   5.392   5.535 -0.7855  0.9942 -0.6717
   42DOPE  C315 5406   2.388   5.222   5.676 -0.3542 -0.0400 -0.2788
   42DOPE  H15X 5407   2.493   5.212   5.643 -0.4321  0.0694 -0.5655
   42DOPE  H15Y 5408   2.341   5.121   5.686 -1.7870  0.6905  0.6590
   42DOPE  C316 5409   2.373   5.289   5.810  0.8619  0.2377  0.4292
   42DOPE  H16X 5410   2.270   5.327   5.826 -0.1470 -1.6454 -1.2562
   42DOPE  H16Y 5411   2.442   5.377   5.807  0.4118  0.5838  0.0274
   42DOPE  C317 5412   2.424   5.221   5.933  1.0766 -0.2263  0.3552
   42DOPE  H17X 5413   2.361   5.133   5.958 -2.8799  1.6063 -2.1285
   42DOPE  H17Y 5414   2.531   5.192   5.921  1.3287  0.3306  1.1906
   42DOPE  C318 5415   2.431   5.304   6.062 -0.0263  0.5636 -0.1507
   42DOPE  H18X 5416   2.330   5.319   6.105  0.2125  0.4023  0.4755
   42DOPE  H18Y 5417   2.489   5.248   6.137 -0.4180  0.9379  0.4394
   42DOPE  H18Z 5418   2.483   5.400   6.043 -0.1989  0.7700  0.4122
   43DOPE     N 5419   1.766   4.169   4.591 -0.3449 -0.2586 -0.3417
   43DOPE   HN1 5420   1.689   4.208   4.648  0.2431 -1.6513  1.5032
   43DOPE   HN2 5421   1.830   4.106   4.643  1.0089  0.4900 -1.0195
   43DOPE   HN3 5422   1.815   4.255   4.558 -2.4700  0.4959 -1.7271
   43DOPE   C12 5423   1.703   4.112   4.468 -0.1012  0.5158 -0.1789
   43DOPE  H12A 5424   1.773   4.117   4.382  1.3220  0.1070  0.9145
   43DOPE  H12B 5425   1.613   4.171   4.442 -0.9012 -1.7459 -3.0916
   43DOPE   C11 5426   1.665   3.960   4.476  0.5345  0.2981 -0.2333
   43DOPE  H11A 5427   1.758   3.904   4.499  0.3185 -0.2954 -0.7831
   43DOPE  H11B 5428   1.635   3.926   4.375  1.4700  0.4370 -0.5691
   43DOPE     P 5429   1.435   3.848   4.561 -0.1006 -0.3341  0.1625
   43DOPE   O13 5430   1.439   3.802   4.419 -0.7882  0.7643 -0.0604
   43DOPE   O14 5431   1.317   3.925   4.607  0.0948 -0.2673 -0.0753
   43DOPE   O11 5432   1.449   3.728   4.654 -0.1123  0.0089 -1.0418
   43DOPE   O12 5433   1.571   3.928   4.582  0.0261  0.3997 -0.2050
   43DOPE    C1 5434   1.567   3.645   4.657 -0.2415 -0.6796 -0.2075
   43DOPE    HA 5435   1.650   3.681   4.592 -0.1030 -0.4866  0.0739
   43DOPE    HB 5436   1.540   3.545   4.618 -0.2426 -1.8390  2.5046
   43DOPE    C2 5437   1.610   3.620   4.802 -0.0303  0.0472  0.3042
   43DOPE    HS 5438   1.707   3.567   4.806 -0.8588 -1.4344  2.3051
   43DOPE   O21 5439   1.503   3.549   4.863  0.0608  1.1403 -0.1700
   43DOPE   C21 5440   1.522   3.417   4.876 -0.3441 -0.4842 -0.0956
   43DOPE   O22 5441   1.627   3.368   4.834  0.5260 -0.0618  0.5064
   43DOPE   C22 5442   1.411   3.344   4.958  0.6526  0.9119  0.2300
   43DOPE   H2R 5443   1.364   3.277   4.883 -1.3102  3.2889 -0.8180
   43DOPE   H2S 5444   1.327   3.409   4.991 -3.1220 -1.4662 -3.6525
   43DOPE    C3 5445   1.619   3.761   4.883  0.5704  0.4680  0.9105
   43DOPE    HX 5446   1.514   3.796   4.879  1.1661  2.2143 -0.9164
   43DOPE    HY 5447   1.672   3.834   4.818  0.2889  0.3789  0.5829
   43DOPE   O31 5448   1.671   3.757   5.018 -0.4153 -0.0923 -0.9277
   43DOPE   C31 5449   1.789   3.804   5.034  1.0945 -0.1876  0.2588
   43DOPE   O32 5450   1.861   3.856   4.953 -0.0217 -0.3559  0.1881
   43DOPE   C32 5451   1.834   3.773   5.180 -0.6472 -0.4784 -0.5893
   43DOPE   H2X 5452   1.751   3.804   5.248  0.6286 -2.0984  1.8564
   43DOPE   H2Y 5453   1.851   3.665   5.199 -1.3802 -0.6330 -0.7836
   43DOPE   C23 5454   1.471   3.263   5.082  0.1574  0.0000 -0.3565
   43DOPE   H3R 5455   1.566   3.213   5.054  0.2099 -0.2921  0.3190
   43DOPE   H3S 5456   1.392   3.199   5.128  1.5355 -0.5569  1.3505
   43DOPE   C24 5457   1.521   3.359   5.191 -0.5047 -0.5754 -0.1594
   43DOPE   H4R 5458   1.444   3.428   5.232  1.8049  1.7501  0.5666
   43DOPE   H4S 5459   1.598   3.423   5.143  1.5362 -1.6844  1.4965
   43DOPE   C25 5460   1.593   3.290   5.307 -0.5514  0.0043 -0.6203
   43DOPE   H5R 5461   1.677   3.227   5.273  0.7334  1.2742  0.0993
   43DOPE   H5S 5462   1.514   3.232   5.359  0.3108 -0.0867  0.6296
   43DOPE   C26 5463   1.659   3.392   5.409 -0.0903 -0.4821 -0.3453
   43DOPE   H6R 5464   1.583   3.465   5.444  0.1123 -0.3437 -0.1914
   43DOPE   H6S 5465   1.741   3.440   5.351  0.4977  0.7917  1.4707
   43DOPE   C27 5466   1.725   3.309   5.524 -0.3128  0.1865  0.0847
   43DOPE   H7R 5467   1.804   3.248   5.475  0.7294  1.5675 -0.0053
   43DOPE   H7S 5468   1.646   3.240   5.562 -0.4737 -0.4672 -1.3503
   43DOPE   C28 5469   1.793   3.392   5.629 -0.0164 -0.4049 -1.1238
   43DOPE   H8R 5470   1.857   3.470   5.581  0.1881  0.9682  1.2254
   43DOPE   H8S 5471   1.871   3.331   5.680  1.6757  2.3972 -0.1008
   43DOPE   C29 5472   1.699   3.456   5.731  0.1495 -0.3420  0.6212
   43DOPE   H9R 5473   1.612   3.503   5.685  0.8241  0.9443  0.6326
   43DOPE  C210 5474   1.705   3.444   5.864  0.6870 -0.1439 -0.8898
   43DOPE  H10R 5475   1.630   3.493   5.929  2.0039  1.5612 -0.5707
   43DOPE  C211 5476   1.804   3.369   5.951 -0.1621 -0.8533 -0.1385
   43DOPE  H11R 5477   1.902   3.369   5.900 -0.0352  0.2092  0.0834
   43DOPE  H11S 5478   1.776   3.263   5.968  0.7672 -1.3770 -1.6812
   43DOPE  C212 5479   1.816   3.434   6.092 -0.2049  0.5966  0.2530
   43DOPE  H12R 5480   1.716   3.435   6.142 -0.2680 -2.8000  0.4564
   43DOPE  H12S 5481   1.846   3.539   6.072 -0.2510  0.4999 -0.3309
   43DOPE  C213 5482   1.930   3.375   6.175 -0.2717  0.2544 -0.0246
   43DOPE  H13R 5483   2.026   3.425   6.149  0.9114 -0.4730  2.6445
   43DOPE  H13S 5484   1.947   3.268   6.150  1.5240  0.0509  1.8105
   43DOPE  C214 5485   1.917   3.392   6.326 -0.3517  0.2674 -0.3085
   43DOPE  H14R 5486   1.837   3.322   6.359 -0.0012 -0.4871 -1.0113
   43DOPE  H14S 5487   1.887   3.495   6.355 -1.2861 -0.9195  3.4216
   43DOPE  C215 5488   2.040   3.340   6.408  0.2655  0.2071 -0.1925
   43DOPE  H15R 5489   2.131   3.393   6.373  0.2929 -0.1661 -0.7014
   43DOPE  H15S 5490   2.058   3.233   6.385  0.2072 -0.2365  1.6659
   43DOPE  C216 5491   2.025   3.361   6.562 -0.4113  0.0847  0.0811
   43DOPE  H16R 5492   1.925   3.316   6.583 -0.1120 -1.0610 -0.7822
   43DOPE  H16S 5493   2.024   3.467   6.593  2.9710  0.4788 -0.7088
   43DOPE  C217 5494   2.124   3.300   6.652 -0.2872  0.6477  0.3626
   43DOPE  H17R 5495   2.227   3.342   6.642 -0.4812  1.0132 -0.1122
   43DOPE  H17S 5496   2.130   3.192   6.629 -0.6189  0.4146  1.3063
   43DOPE  C218 5497   2.084   3.326   6.799 -0.3108 -0.3423 -0.0994
   43DOPE  H18R 5498   1.982   3.293   6.827 -1.1542  0.2395 -2.2581
   43DOPE  H18S 5499   2.078   3.433   6.829 -1.6460  0.4731 -2.9926
   43DOPE  H18T 5500   2.150   3.276   6.873  0.2027  1.9112  1.0628
   43DOPE   C33 5501   1.966   3.852   5.211 -0.1230 -0.3789 -0.3454
   43DOPE   H3X 5502   1.944   3.961   5.209 -1.0494 -0.5535 -2.4525
   43DOPE   H3Y 5503   2.044   3.826   5.136  0.9658  0.3260  0.5108
   43DOPE   C34 5504   2.017   3.805   5.347  0.0692  0.0661 -0.4275
   43DOPE   H4X 5505   2.050   3.699   5.335 -0.8680  0.0339 -4.1375
   43DOPE   H4Y 5506   2.106   3.863   5.379 -0.3634  0.0746  0.7966
   43DOPE   C35 5507   1.922   3.824   5.463  0.3321  0.0282 -0.8802
   43DOPE   H5X 5508   1.837   3.751   5.465 -0.6320  1.0624  2.7621
   43DOPE   H5Y 5509   1.877   3.924   5.477 -1.3178 -0.4191 -2.5831
   43DOPE   C36 5510   1.995   3.784   5.587 -0.1257 -0.0583 -0.0913
   43DOPE   H6X 5511   2.086   3.846   5.603  0.6949 -1.4038  0.5347
   43DOPE   H6Y 5512   2.033   3.680   5.590 -0.1841 -0.1076 -0.8449
   43DOPE   C37 5513   1.912   3.801   5.718 -0.1682 -0.3001 -0.3531
   43DOPE   H7X 5514   1.890   3.909   5.732 -0.6922 -0.4974  0.3882
   43DOPE   H7Y 5515   1.814   3.749   5.716 -0.1437 -0.3289 -1.0164
   43DOPE   C38 5516   1.974   3.750   5.849 -0.4736 -0.0973 -0.8884
   43DOPE   H8X 5517   2.011   3.645   5.850  0.0158  0.0597  0.7170
   43DOPE   H8Y 5518   1.882   3.740   5.911 -0.4217 -2.7296 -1.1255
   43DOPE   C39 5519   2.060   3.861   5.906 -0.2183  0.1185 -0.5032
   43DOPE   H9X 5520   2.101   3.938   5.839 -1.1367 -0.5459 -1.8652
   43DOPE  C310 5521   2.104   3.871   6.032  0.0898  0.1662  0.7121
   43DOPE  H10X 5522   2.180   3.948   6.052  0.6635  0.2366 -1.5114
   43DOPE  C311 5523   2.081   3.779   6.148  0.0874 -0.1655 -0.3012
   43DOPE  H11X 5524   2.037   3.684   6.112  1.3494 -0.7868 -0.2356
   43DOPE  H11Y 5525   2.183   3.769   6.190  0.5826  3.3097 -0.3586
   43DOPE  C312 5526   1.971   3.841   6.225 -0.2651  0.0027  0.2844
   43DOPE  H12X 5527   1.943   3.767   6.304  0.4881 -2.3026 -1.4922
   43DOPE  H12Y 5528   1.878   3.875   6.176 -1.3699  0.5714  2.6055
   43DOPE  C313 5529   2.020   3.968   6.302 -0.7997  0.0834 -0.7499
   43DOPE  H13X 5530   2.110   3.925   6.352 -2.7055 -1.0081  1.9460
   43DOPE  H13Y 5531   2.047   4.057   6.240 -0.4605  1.4116  1.2058
   43DOPE  C314 5532   1.922   4.012   6.415 -0.2130  0.5019  0.3820
   43DOPE  H14X 5533   1.880   3.920   6.461 -2.3406  0.7908 -0.8353
   43DOPE  H14Y 5534   1.837   4.067   6.369  0.1029 -0.6990 -1.8050
   43DOPE  C315 5535   2.003   4.095   6.518  0.0681  0.4876  0.0375
   43DOPE  H15X 5536   2.049   4.184   6.471  1.2240 -0.6177 -1.0053
   43DOPE  H15Y 5537   2.083   4.033   6.565  0.3413  2.2575  2.0173
   43DOPE  C316 5538   1.925   4.137   6.645 -0.2512 -1.1217 -0.9941
   43DOPE  H16X 5539   1.869   4.049   6.684 -1.5076 -0.5382 -1.4144
   43DOPE  H16Y 5540   1.847   4.214   6.623  1.1908  0.1454 -1.9070
   43DOPE  C317 5541   2.018   4.184   6.758  0.4493 -0.7757  0.6923
   43DOPE  H17X 5542   1.951   4.233   6.832  1.7163  2.3121 -0.0435
   43DOPE  H17Y 5543   2.075   4.094   6.791  1.6804  0.1261  1.0792
   43DOPE  C318 5544   2.114   4.299   6.714 -0.2350  0.4728  0.4942
   43DOPE  H18X 5545   2.125   4.370   6.799 -1.5745  0.8380  0.3952
   43DOPE  H18Y 5546   2.217   4.264   6.695 -0.4305  1.4956 -3.0869
   43DOPE  H18Z 5547   2.089   4.345   6.616  0.8934 -2.5095 -1.3399
   44DOPE     N 5548   3.279   3.379   4.346  0.1261 -0.0484  0.4822
   44DOPE   HN1 5549   3.372   3.413   4.377 -0.2958  1.7133 -0.0651
   44DOPE   HN2 5550   3.222   3.465   4.335  0.5134  0.2424  0.7074
   44DOPE   HN3 5551   3.241   3.330   4.430  0.1058  0.0876  0.5535
   44DOPE   C12 5552   3.292   3.292   4.228  1.0297 -0.4663 -0.0273
   44DOPE  H12A 5553   3.357   3.205   4.250 -1.4489 -1.7754  2.8409
   44DOPE  H12B 5554   3.329   3.348   4.139 -0.6866 -1.7965 -1.6640
   44DOPE   C11 5555   3.151   3.239   4.175 -0.6534 -0.7164 -0.3659
   44DOPE  H11A 5556   3.110   3.175   4.256 -0.1976 -0.1981  0.2794
   44DOPE  H11B 5557   3.168   3.180   4.082  0.8744 -0.1825 -0.4454
   44DOPE     P 5558   2.907   3.311   4.101 -0.4099  0.0006 -0.1283
   44DOPE   O13 5559   2.903   3.190   4.020 -0.2277 -0.3002 -0.2904
   44DOPE   O14 5560   2.865   3.435   4.035 -0.6206 -0.0269  0.3213
   44DOPE   O11 5561   2.832   3.283   4.232  0.0103 -0.4267 -0.4810
   44DOPE   O12 5562   3.055   3.343   4.137  0.4003 -0.1614 -0.2932
   44DOPE    C1 5563   2.809   3.374   4.340 -0.4260 -0.2991  0.5003
   44DOPE    HA 5564   2.712   3.346   4.386 -0.9575 -1.6978 -1.3401
   44DOPE    HB 5565   2.801   3.479   4.304 -0.9405  0.4049  2.5119
   44DOPE    C2 5566   2.915   3.365   4.452  0.7197  0.6300  0.0917
   44DOPE    HS 5567   3.011   3.388   4.400  0.5248  0.0654 -0.5195
   44DOPE   O21 5568   2.908   3.232   4.501  0.5078 -0.5008 -0.5689
   44DOPE   C21 5569   3.020   3.192   4.555  0.3787  0.3656  0.6564
   44DOPE   O22 5570   3.127   3.252   4.555  0.8708  0.3616  0.4191
   44DOPE   C22 5571   2.988   3.058   4.615 -0.2473 -0.1536 -0.1964
   44DOPE   H2R 5572   3.083   3.000   4.615 -0.2127 -0.0962 -0.1678
   44DOPE   H2S 5573   2.912   3.002   4.555 -0.9002  0.2200  0.2642
   44DOPE    C3 5574   2.890   3.480   4.559 -0.1034  0.4170  0.0581
   44DOPE    HX 5575   2.790   3.477   4.607 -0.9314  0.9668 -1.5780
   44DOPE    HY 5576   2.886   3.573   4.498 -1.0826  0.4904  0.2284
   44DOPE   O31 5577   3.010   3.501   4.640 -0.6245 -0.8271  0.3770
   44DOPE   C31 5578   2.994   3.485   4.772 -0.0592 -0.0866 -0.9791
   44DOPE   O32 5579   2.887   3.477   4.829 -0.1001  0.1092  0.1634
   44DOPE   C32 5580   3.125   3.477   4.840 -0.1408  0.5191  0.5222
   44DOPE   H2X 5581   3.186   3.442   4.754 -2.3080  1.1775 -1.4087
   44DOPE   H2Y 5582   3.164   3.580   4.855 -2.6143  1.4836  0.7544
   44DOPE   C23 5583   2.921   3.062   4.754 -0.4428  0.0692 -0.4520
   44DOPE   H3R 5584   2.836   3.133   4.751 -0.4959  0.0603  0.4108
   44DOPE   H3S 5585   2.992   3.110   4.825 -1.1146 -1.0764  1.0475
   44DOPE   C24 5586   2.858   2.926   4.799 -0.0195  0.3291  0.6768
   44DOPE   H4R 5587   2.939   2.850   4.789  0.8091  1.2840 -0.2197
   44DOPE   H4S 5588   2.781   2.915   4.720  0.5003 -0.9868  0.3306
   44DOPE   C25 5589   2.787   2.943   4.932 -0.3146 -0.0189  0.2594
   44DOPE   H5R 5590   2.750   2.840   4.955 -1.1480  0.2839  0.3257
   44DOPE   H5S 5591   2.706   3.019   4.930  0.2415  0.6180  1.1875
   44DOPE   C26 5592   2.881   2.978   5.053 -0.4901 -0.7709  0.1230
   44DOPE   H6R 5593   2.896   3.087   5.038  1.5685 -0.9090  0.8242
   44DOPE   H6S 5594   2.988   2.948   5.044 -0.2651  0.0611 -0.0403
   44DOPE   C27 5595   2.806   2.952   5.189  0.2947  0.1206  0.1555
   44DOPE   H7R 5596   2.705   2.999   5.181 -0.0253 -0.8410 -2.2980
   44DOPE   H7S 5597   2.845   3.011   5.275 -2.1632 -0.1748  1.5718
   44DOPE   C28 5598   2.799   2.802   5.229  0.4814  0.6668 -0.1363
   44DOPE   H8R 5599   2.752   2.746   5.146 -0.5182  1.0629  0.1535
   44DOPE   H8S 5600   2.733   2.795   5.317  2.4722  0.3962  1.4053
   44DOPE   C29 5601   2.935   2.755   5.262 -0.9395 -0.6860  1.0055
   44DOPE   H9R 5602   3.006   2.765   5.178 -0.1431  1.8360  1.8870
   44DOPE  C210 5603   2.980   2.699   5.375  0.1365  0.4902 -0.2417
   44DOPE  H10R 5604   3.088   2.681   5.382  0.2175  1.2311  0.7034
   44DOPE  C211 5605   2.911   2.683   5.508  0.2124 -0.4973 -0.1599
   44DOPE  H11R 5606   2.801   2.697   5.495  0.4806  0.2927 -1.8128
   44DOPE  H11S 5607   2.944   2.760   5.581  1.2076 -0.3782 -0.7321
   44DOPE  C212 5608   2.945   2.546   5.573  0.0152 -0.4052 -0.2391
   44DOPE  H12R 5609   3.053   2.556   5.594  0.3537  0.2747 -2.1042
   44DOPE  H12S 5610   2.927   2.457   5.509  0.0911  0.2274 -1.1751
   44DOPE  C213 5611   2.881   2.526   5.713  0.0173 -0.0199 -0.0781
   44DOPE  H13R 5612   2.771   2.515   5.703  0.0950 -0.7355 -0.1916
   44DOPE  H13S 5613   2.910   2.616   5.772 -2.6706  0.2548  0.9748
   44DOPE  C214 5614   2.935   2.396   5.769  0.2590  0.4686  0.1433
   44DOPE  H14R 5615   3.043   2.391   5.747 -0.3669 -0.7220 -3.2946
   44DOPE  H14S 5616   2.899   2.304   5.718 -2.0356  1.2067  0.2992
   44DOPE  C215 5617   2.917   2.365   5.927  0.5578 -0.2460  0.2601
   44DOPE  H15R 5618   2.809   2.341   5.937  0.6839 -2.0181 -1.8526
   44DOPE  H15S 5619   2.941   2.453   5.990 -0.0909 -1.7846  2.7859
   44DOPE  C216 5620   2.991   2.244   5.978  0.2231  0.0813 -0.1361
   44DOPE  H16R 5621   3.098   2.269   5.962 -0.0915  0.4174 -1.9583
   44DOPE  H16S 5622   2.976   2.170   5.896 -0.9384  0.4889 -0.3173
   44DOPE  C217 5623   2.946   2.199   6.116  0.2461 -0.0275 -0.4649
   44DOPE  H17R 5624   2.838   2.174   6.108 -0.0718  1.4081 -1.2311
   44DOPE  H17S 5625   2.955   2.286   6.185 -0.0728 -0.7659  0.5200
   44DOPE  C218 5626   3.019   2.078   6.176 -0.0701 -0.0123 -0.4185
   44DOPE  H18R 5627   2.970   2.043   6.270 -0.4505  0.5439 -0.4023
   44DOPE  H18S 5628   3.126   2.096   6.199  0.5417 -3.1028 -0.3814
   44DOPE  H18T 5629   3.040   1.999   6.101 -0.4641  0.4079 -0.9809
   44DOPE   C33 5630   3.129   3.395   4.965  0.2143  0.3089  0.1092
   44DOPE   H3X 5631   3.136   3.289   4.932  1.7014  0.5724 -0.5146
   44DOPE   H3Y 5632   3.030   3.409   5.013 -0.6663  0.0341 -1.5632
   44DOPE   C34 5633   3.248   3.436   5.053 -1.2088  0.0511 -0.5951
   44DOPE   H4X 5634   3.341   3.451   4.994 -0.1369 -0.4700  0.9088
   44DOPE   H4Y 5635   3.224   3.534   5.099 -0.1468 -0.4354  1.0854
   44DOPE   C35 5636   3.281   3.330   5.161 -0.7053 -0.7404 -0.4326
   44DOPE   H5X 5637   3.388   3.339   5.190 -0.7435 -1.8172  0.0904
   44DOPE   H5Y 5638   3.267   3.226   5.124 -1.3365 -1.8105  2.5769
   44DOPE   C36 5639   3.188   3.358   5.285 -0.4097  0.3260  0.1921
   44DOPE   H6X 5640   3.092   3.381   5.235 -1.5277  0.0965  2.1500
   44DOPE   H6Y 5641   3.227   3.458   5.317  1.2216 -0.2393  0.0717
   44DOPE   C37 5642   3.203   3.252   5.390 -0.3898  0.9491 -0.5918
   44DOPE   H7X 5643   3.203   3.151   5.345 -0.5894  0.6231  0.1247
   44DOPE   H7Y 5644   3.303   3.251   5.438 -0.3304  1.3379 -0.6984
   44DOPE   C38 5645   3.091   3.260   5.496 -0.4748 -0.3057  0.2154
   44DOPE   H8X 5646   2.988   3.256   5.454 -0.9591  0.9286  1.2098
   44DOPE   H8Y 5647   3.097   3.362   5.539 -3.8705 -0.2401  0.8524
   44DOPE   C39 5648   3.094   3.153   5.601  0.1204  0.4177  0.4208
   44DOPE   H9X 5649   3.052   3.057   5.569 -2.0436  1.4114  0.0908
   44DOPE  C310 5650   3.150   3.158   5.724  0.4552  0.2420  0.1717
   44DOPE  H10X 5651   3.128   3.071   5.788  1.1217  0.1965  0.3558
   44DOPE  C311 5652   3.222   3.276   5.783  0.5355 -0.0729  0.0012
   44DOPE  H11X 5653   3.320   3.255   5.831 -0.3963  0.6159  2.3438
   44DOPE  H11Y 5654   3.239   3.356   5.708  0.0582 -0.6000 -0.6822
   44DOPE  C312 5655   3.144   3.335   5.902 -0.1691 -0.3078 -0.3160
   44DOPE  H12X 5656   3.183   3.434   5.935 -2.5797 -0.0055  1.8992
   44DOPE  H12Y 5657   3.147   3.263   5.986  1.9244 -0.4206 -0.4338
   44DOPE  C313 5658   2.996   3.371   5.881 -0.1142  0.6897  0.3697
   44DOPE  H13X 5659   2.981   3.431   5.788 -0.9278 -0.9282 -0.5865
   44DOPE  H13Y 5660   2.938   3.279   5.856 -0.9393  1.1546  0.5434
   44DOPE  C314 5661   2.922   3.427   5.996 -0.3820 -1.0485 -0.1506
   44DOPE  H14X 5662   2.819   3.451   5.963 -0.0732  1.2768  0.4506
   44DOPE  H14Y 5663   2.962   3.525   6.028 -1.9081  0.7896 -3.4264
   44DOPE  C315 5664   2.920   3.334   6.118 -0.1558 -0.1482 -0.2710
   44DOPE  H15X 5665   3.022   3.335   6.163 -0.3006  1.6248  0.0761
   44DOPE  H15Y 5666   2.898   3.231   6.083  0.7859 -0.3632 -0.2646
   44DOPE  C316 5667   2.816   3.383   6.218  0.4185  0.0655 -0.0283
   44DOPE  H16X 5668   2.727   3.418   6.163  0.2154 -1.4645 -0.6917
   44DOPE  H16Y 5669   2.849   3.467   6.283 -0.0870 -0.8686  1.4909
   44DOPE  C317 5670   2.771   3.273   6.310  0.8472 -0.5841 -0.0918
   44DOPE  H17X 5671   2.661   3.257   6.305  0.8589 -0.3658 -1.5282
   44DOPE  H17Y 5672   2.813   3.173   6.285  0.0565 -1.3792  1.6189
   44DOPE  C318 5673   2.823   3.294   6.453 -0.2263  1.1580 -0.8405
   44DOPE  H18X 5674   2.779   3.215   6.517  0.3144 -0.0186 -1.8889
   44DOPE  H18Y 5675   2.933   3.296   6.465 -0.4567  0.6198  1.8969
   44DOPE  H18Z 5676   2.786   3.389   6.499  2.3395  0.3241  3.4936
   45DOPE     N 5677   4.142   1.513   3.488  0.3230  0.1228  0.1611
   45DOPE   HN1 5678   4.139   1.412   3.465  1.7626 -0.3048  1.6591
   45DOPE   HN2 5679   4.060   1.561   3.447 -0.8822 -0.8229  1.3779
   45DOPE   HN3 5680   4.228   1.558   3.450 -0.4137  0.5765 -1.0598
   45DOPE   C12 5681   4.138   1.523   3.638  0.6753  0.0015 -0.5152
   45DOPE  H12A 5682   4.139   1.628   3.674 -0.0021 -0.3758  0.6524
   45DOPE  H12B 5683   4.217   1.461   3.685  0.5066 -0.2674 -0.5844
   45DOPE   C11 5684   4.007   1.453   3.681 -0.0201 -0.4189 -0.4220
   45DOPE  H11A 5685   3.999   1.456   3.792  0.8787 -0.0155 -0.3610
   45DOPE  H11B 5686   4.003   1.347   3.648 -0.2971 -0.1837 -1.1402
   45DOPE     P 5687   3.749   1.499   3.669  0.1199 -0.0902 -0.1016
   45DOPE   O13 5688   3.715   1.357   3.634 -0.2522  0.0055  0.1826
   45DOPE   O14 5689   3.658   1.604   3.620  0.0411 -0.0362 -0.0385
   45DOPE   O11 5690   3.763   1.507   3.827 -0.4382 -0.3126 -0.3416
   45DOPE   O12 5691   3.897   1.528   3.627  0.4427  0.0465  0.0006
   45DOPE    C1 5692   3.755   1.630   3.903  0.4258 -0.2427  0.6065
   45DOPE    HA 5693   3.720   1.603   4.005 -0.1657 -0.8161  0.2546
   45DOPE    HB 5694   3.689   1.702   3.850  2.5790  0.5230 -1.2325
   45DOPE    C2 5695   3.890   1.694   3.917  0.7039 -0.2427 -0.2322
   45DOPE    HS 5696   3.925   1.700   3.812  2.1540 -3.5458 -0.0514
   45DOPE   O21 5697   3.969   1.605   3.998  0.2228  0.5877  0.4525
   45DOPE   C21 5698   4.096   1.639   4.022 -0.0387 -0.1299  0.2191
   45DOPE   O22 5699   4.141   1.744   3.975  0.3258  0.4319  0.3655
   45DOPE   C22 5700   4.169   1.546   4.116  0.0960  0.1654  0.3126
   45DOPE   H2R 5701   4.221   1.468   4.057  0.6982 -0.0127  1.0534
   45DOPE   H2S 5702   4.109   1.488   4.190  0.5867  0.4036  0.9106
   45DOPE    C3 5703   3.866   1.835   3.975 -0.2106 -0.0240 -0.3606
   45DOPE    HX 5704   3.788   1.877   3.908  0.1262 -0.4058 -0.9969
   45DOPE    HY 5705   3.960   1.892   3.961  0.4723 -0.9781  0.2939
   45DOPE   O31 5706   3.835   1.835   4.118 -0.4369  0.4353  0.5866
   45DOPE   C31 5707   3.844   1.955   4.169  0.0572 -0.1442  0.1967
   45DOPE   O32 5708   3.858   2.056   4.106  0.1901 -0.6413  0.4644
   45DOPE   C32 5709   3.839   1.942   4.322  0.4468 -0.4615 -0.5331
   45DOPE   H2X 5710   3.846   1.835   4.350 -1.0364 -0.0744  1.5133
   45DOPE   H2Y 5711   3.927   2.003   4.352 -0.9117  1.1133  0.4123
   45DOPE   C23 5712   4.278   1.634   4.186 -0.0330  0.0546  0.1976
   45DOPE   H3R 5713   4.338   1.699   4.119 -0.3270  0.2270  0.1000
   45DOPE   H3S 5714   4.355   1.567   4.229  1.3360  1.0815 -0.5627
   45DOPE   C24 5715   4.213   1.715   4.306  0.4947  0.5470  0.0203
   45DOPE   H4R 5716   4.135   1.789   4.278 -0.6982  0.2454  2.3179
   45DOPE   H4S 5717   4.301   1.769   4.348  2.7935 -2.7656 -0.1075
   45DOPE   C25 5718   4.144   1.632   4.414  0.2885  0.5874 -0.2939
   45DOPE   H5R 5719   4.214   1.551   4.445 -1.9089 -1.5635 -0.5780
   45DOPE   H5S 5720   4.056   1.588   4.363  0.1472 -1.0183  1.2259
   45DOPE   C26 5721   4.105   1.717   4.530  0.8012  0.1377  0.1827
   45DOPE   H6R 5722   4.070   1.815   4.491  1.4480  0.4029  0.2600
   45DOPE   H6S 5723   4.199   1.734   4.586  1.6320  0.1659 -1.1675
   45DOPE   C27 5724   4.013   1.643   4.630 -0.6286 -0.5210 -0.2283
   45DOPE   H7R 5725   4.057   1.548   4.667 -0.2602  0.2727  1.4437
   45DOPE   H7S 5726   3.916   1.611   4.587 -0.4844 -0.2307 -0.7744
   45DOPE   C28 5727   3.968   1.720   4.753  0.1137 -0.1347 -0.3333
   45DOPE   H8R 5728   3.893   1.668   4.816 -0.1518  3.3621  2.5958
   45DOPE   H8S 5729   3.920   1.818   4.731 -2.0104 -0.6801  1.5180
   45DOPE   C29 5730   4.082   1.744   4.848 -0.5405 -0.0326 -0.3704
   45DOPE   H9R 5731   4.134   1.840   4.830 -2.3063  0.9802 -0.3448
   45DOPE  C210 5732   4.103   1.680   4.963 -0.4582  0.7587  0.0004
   45DOPE  H10R 5733   4.198   1.703   5.015  1.1513 -4.4724 -0.1302
   45DOPE  C211 5734   4.023   1.559   5.010  0.7336  0.3625 -0.2644
   45DOPE  H11R 5735   4.093   1.484   5.052  3.1391  2.1564 -0.8259
   45DOPE  H11S 5736   3.975   1.509   4.923  0.5924 -0.5200  0.3025
   45DOPE  C212 5737   3.903   1.600   5.094  0.5710 -0.7115  0.5634
   45DOPE  H12R 5738   3.828   1.518   5.096 -0.3698  0.0587 -0.7546
   45DOPE  H12S 5739   3.843   1.679   5.044  2.4654 -0.2902 -1.1970
   45DOPE  C213 5740   3.943   1.641   5.232  0.1121 -0.0000 -0.3808
   45DOPE  H13R 5741   3.853   1.690   5.276  0.6133  1.0014 -0.4451
   45DOPE  H13S 5742   4.017   1.723   5.239  0.3996 -0.1541 -1.4788
   45DOPE  C214 5743   3.990   1.525   5.326  0.0879 -0.1920  0.4501
   45DOPE  H14R 5744   4.072   1.479   5.266 -1.0738 -0.7244 -0.7914
   45DOPE  H14S 5745   3.912   1.446   5.328  0.5353 -0.7822 -1.9417
   45DOPE  C215 5746   4.037   1.580   5.457 -0.0797  0.5378 -0.1968
   45DOPE  H15R 5747   3.950   1.591   5.524 -0.3113 -1.3071 -0.1471
   45DOPE  H15S 5748   4.085   1.680   5.447 -1.7401  1.3209 -0.6809
   45DOPE  C216 5749   4.117   1.472   5.524 -0.1891  0.6562 -0.4197
   45DOPE  H16R 5750   4.212   1.451   5.471 -0.9089 -0.3431 -1.3619
   45DOPE  H16S 5751   4.065   1.375   5.535  0.5282  0.4451  1.6209
   45DOPE  C217 5752   4.158   1.520   5.673 -0.0502 -0.3202  0.9987
   45DOPE  H17R 5753   4.068   1.548   5.731  0.6502  2.1411  1.0086
   45DOPE  H17S 5754   4.210   1.617   5.662 -0.6429 -0.1714 -0.7020
   45DOPE  C218 5755   4.248   1.432   5.758 -0.7872  0.2340  0.3209
   45DOPE  H18R 5756   4.209   1.329   5.774  2.1088 -0.7399  1.7127
   45DOPE  H18S 5757   4.255   1.481   5.857 -2.6116 -1.4705  1.3796
   45DOPE  H18T 5758   4.350   1.420   5.716 -0.7697 -0.9322  0.6408
   45DOPE   C33 5759   3.716   2.003   4.391 -0.1122  0.0452 -0.2785
   45DOPE   H3X 5760   3.627   1.939   4.370 -1.3909  1.6700 -0.0211
   45DOPE   H3Y 5761   3.681   2.099   4.347 -1.5842 -2.1135 -4.3915
   45DOPE   C34 5762   3.726   2.008   4.543 -0.0580 -0.2931  0.6082
   45DOPE   H4X 5763   3.746   1.908   4.588  0.6058  0.8283  2.9407
   45DOPE   H4Y 5764   3.797   2.086   4.578 -0.5000  0.1869  0.4478
   45DOPE   C35 5765   3.590   2.049   4.599 -0.0226 -0.2366  0.2469
   45DOPE   H5X 5766   3.513   1.974   4.571 -0.2533  0.3786 -0.8549
   45DOPE   H5Y 5767   3.555   2.147   4.562  0.5919 -0.2069 -0.2882
   45DOPE   C36 5768   3.598   2.052   4.747 -0.3142  0.8169  0.4852
   45DOPE   H6X 5769   3.704   2.067   4.777 -0.2676  0.0282  0.7221
   45DOPE   H6Y 5770   3.572   1.960   4.803  0.7369  1.2916  1.8234
   45DOPE   C37 5771   3.515   2.160   4.807  0.4364 -0.5416 -0.5214
   45DOPE   H7X 5772   3.564   2.252   4.769  1.1856 -1.7247 -2.5937
   45DOPE   H7Y 5773   3.412   2.160   4.766  0.7451 -0.2500 -1.3059
   45DOPE   C38 5774   3.513   2.172   4.955 -0.3521  0.5845  0.1960
   45DOPE   H8X 5775   3.482   2.273   4.988  0.1719  1.6952 -2.4600
   45DOPE   H8Y 5776   3.618   2.152   4.985 -0.5086 -1.1185 -0.2872
   45DOPE   C39 5777   3.412   2.066   5.008 -0.0916  0.0648 -0.5638
   45DOPE   H9X 5778   3.323   2.032   4.953 -0.6661 -1.8320  1.3848
   45DOPE  C310 5779   3.422   2.009   5.130  0.1834 -0.0523 -0.2828
   45DOPE  H10X 5780   3.343   1.941   5.164  0.4512 -0.8260 -1.1676
   45DOPE  C311 5781   3.530   2.037   5.231  0.5272  0.1107 -0.2878
   45DOPE  H11X 5782   3.628   2.040   5.181 -0.1056  2.5413 -1.5573
   45DOPE  H11Y 5783   3.520   2.137   5.279  0.5463  0.0666 -0.1902
   45DOPE  C312 5784   3.511   1.937   5.350 -0.1084 -0.0479 -0.5516
   45DOPE  H12X 5785   3.412   1.963   5.394 -0.0056  0.8734 -0.8386
   45DOPE  H12Y 5786   3.589   1.968   5.422 -2.0191  0.1919  1.5140
   45DOPE  C313 5787   3.524   1.792   5.311 -0.0691 -0.0636  0.2437
   45DOPE  H13X 5788   3.423   1.765   5.271 -0.1094  0.5283 -0.0579
   45DOPE  H13Y 5789   3.598   1.781   5.229 -1.4854  0.0859 -1.0980
   45DOPE  C314 5790   3.571   1.706   5.436  0.8993  0.5841  0.1422
   45DOPE  H14X 5791   3.676   1.731   5.459  0.6746  0.7107  1.0799
   45DOPE  H14Y 5792   3.574   1.598   5.410  0.2552  0.7116 -0.5142
   45DOPE  C315 5793   3.472   1.728   5.549 -0.5709 -0.1345  0.4436
   45DOPE  H15X 5794   3.377   1.688   5.506  0.2558  1.7450 -3.6610
   45DOPE  H15Y 5795   3.455   1.834   5.577 -1.1374 -0.2296  0.4697
   45DOPE  C316 5796   3.503   1.647   5.679  0.4952  0.0113  0.0650
   45DOPE  H16X 5797   3.483   1.538   5.678 -1.6101  0.3630 -0.5180
   45DOPE  H16Y 5798   3.422   1.669   5.752 -0.8772 -0.7474 -1.1730
   45DOPE  C317 5799   3.638   1.659   5.749 -0.2887  0.2372 -0.5197
   45DOPE  H17X 5800   3.724   1.635   5.684 -1.0387 -3.6291 -0.3002
   45DOPE  H17Y 5801   3.656   1.766   5.772  1.1881  0.0992 -0.9591
   45DOPE  C318 5802   3.643   1.580   5.876 -0.0306 -0.1599 -0.1777
   45DOPE  H18X 5803   3.551   1.603   5.934 -0.4578 -0.5341 -0.7077
   45DOPE  H18Y 5804   3.651   1.471   5.856  1.9851 -0.3987  1.5121
   45DOPE  H18Z 5805   3.725   1.607   5.946 -0.3413  1.3941 -0.3865
   46DOPE     N 5806   3.772   0.342   3.644 -0.2083 -0.3517  0.3303
   46DOPE   HN1 5807   3.735   0.317   3.738 -1.9303 -2.9210 -0.9178
   46DOPE   HN2 5808   3.864   0.297   3.632 -0.2945 -0.6472  0.7835
   46DOPE   HN3 5809   3.795   0.444   3.643 -0.9782 -0.1607 -1.1813
   46DOPE   C12 5810   3.667   0.314   3.542  0.3374 -0.2662  0.0680
   46DOPE  H12A 5811   3.716   0.323   3.442  0.0057 -1.7180 -0.2551
   46DOPE  H12B 5812   3.594   0.397   3.556  1.5330  1.0294 -1.0166
   46DOPE   C11 5813   3.600   0.184   3.572 -0.1318 -0.5263  0.9562
   46DOPE  H11A 5814   3.672   0.101   3.588  0.8391  0.3155  1.0587
   46DOPE  H11B 5815   3.527   0.158   3.492  1.1357 -0.8512 -0.1316
   46DOPE     P 5816   3.447   0.096   3.762  0.3410 -0.2478 -0.2793
   46DOPE   O13 5817   3.500  -0.041   3.739 -0.2867 -0.1318  0.4634
   46DOPE   O14 5818   3.307   0.114   3.720 -0.9347  0.4012  0.4380
   46DOPE   O11 5819   3.453   0.134   3.911 -0.2343  0.3488 -0.5966
   46DOPE   O12 5820   3.547   0.203   3.699  0.0328 -1.1500 -0.2223
   46DOPE    C1 5821   3.430   0.258   3.980  0.4592 -0.4123 -0.1126
   46DOPE    HA 5822   3.381   0.242   4.078 -1.8294  1.4384 -0.8540
   46DOPE    HB 5823   3.363   0.315   3.913 -0.3505 -0.4328  0.6588
   46DOPE    C2 5824   3.568   0.332   4.009  0.8272  0.2163  0.4625
   46DOPE    HS 5825   3.618   0.363   3.914 -0.7610  1.7476  0.0747
   46DOPE   O21 5826   3.642   0.241   4.092 -0.2676  0.5174 -0.1700
   46DOPE   C21 5827   3.736   0.176   4.021  0.9629 -0.5886 -0.3520
   46DOPE   O22 5828   3.767   0.203   3.908  0.0629  0.1755  0.4589
   46DOPE   C22 5829   3.811   0.071   4.110 -0.6638  0.2810  0.3918
   46DOPE   H2R 5830   3.916   0.099   4.087 -1.2045 -0.0829 -3.1478
   46DOPE   H2S 5831   3.782  -0.023   4.057  0.7077  2.0405 -3.9832
   46DOPE    C3 5832   3.541   0.468   4.077  0.0271 -0.3103 -0.1753
   46DOPE    HX 5833   3.497   0.535   4.000  1.7044  1.1887  0.1021
   46DOPE    HY 5834   3.634   0.524   4.100 -1.5512  1.7678  1.6455
   46DOPE   O31 5835   3.446   0.443   4.183  0.0517 -0.1535  0.4741
   46DOPE   C31 5836   3.470   0.488   4.302  0.4335  0.4265  0.2821
   46DOPE   O32 5837   3.559   0.563   4.334 -0.3165  0.2999 -0.4038
   46DOPE   C32 5838   3.363   0.433   4.402 -0.1780  0.6997  0.2627
   46DOPE   H2X 5839   3.268   0.480   4.368 -0.6220 -1.0508 -1.0938
   46DOPE   H2Y 5840   3.345   0.323   4.395 -1.6750  0.9862 -1.0636
   46DOPE   C23 5841   3.773   0.076   4.258 -0.8716  0.3054 -0.4137
   46DOPE   H3R 5842   3.663   0.062   4.261 -0.8783 -0.1418 -1.9036
   46DOPE   H3S 5843   3.802   0.175   4.300  0.6869  0.4915 -1.8214
   46DOPE   C24 5844   3.824  -0.037   4.347 -0.6628 -0.3245 -0.8574
   46DOPE   H4R 5845   3.935  -0.031   4.350 -0.4478 -3.2263 -0.3929
   46DOPE   H4S 5846   3.802  -0.132   4.294  1.6792 -1.1128 -0.5404
   46DOPE   C25 5847   3.756  -0.045   4.488  0.2767 -0.1039  0.0232
   46DOPE   H5R 5848   3.793  -0.140   4.532 -3.2652 -1.8988 -0.4935
   46DOPE   H5S 5849   3.647  -0.060   4.472  0.9808 -3.5031 -2.8307
   46DOPE   C26 5850   3.790   0.077   4.583  0.2467  0.8371 -0.7962
   46DOPE   H6R 5851   3.799   0.173   4.528 -1.8433  1.7820  0.3642
   46DOPE   H6S 5852   3.881   0.041   4.636  0.1735 -1.1947 -1.9650
   46DOPE   C27 5853   3.682   0.102   4.696 -0.0976  0.3284  0.2817
   46DOPE   H7R 5854   3.660   0.010   4.754  1.0386 -0.9004 -1.1600
   46DOPE   H7S 5855   3.590   0.133   4.641 -0.3580  1.4526  1.2944
   46DOPE   C28 5856   3.717   0.213   4.794  0.0746  0.2932 -0.1057
   46DOPE   H8R 5857   3.636   0.230   4.867 -0.6605 -2.7535 -0.0540
   46DOPE   H8S 5858   3.731   0.307   4.737  0.8603  0.0134 -0.4035
   46DOPE   C29 5859   3.842   0.186   4.868 -0.3681  0.0224  0.0053
   46DOPE   H9R 5860   3.926   0.223   4.807 -2.7469  2.5733 -1.9801
   46DOPE  C210 5861   3.853   0.134   4.993 -0.2904  0.1626 -0.2993
   46DOPE  H10R 5862   3.954   0.117   5.033 -2.0131  0.0950  4.5778
   46DOPE  C211 5863   3.733   0.074   5.068 -0.7135  0.2961 -0.8345
   46DOPE  H11R 5864   3.703  -0.024   5.025  1.5183 -1.0468  0.4845
   46DOPE  H11S 5865   3.646   0.143   5.067 -0.2973  0.8848  0.9521
   46DOPE  C212 5866   3.787   0.034   5.210  0.0818 -0.9626 -0.0512
   46DOPE  H12R 5867   3.874  -0.035   5.200  1.2912  0.7896 -2.5425
   46DOPE  H12S 5868   3.704  -0.022   5.258  0.8260 -0.0755  2.4598
   46DOPE  C213 5869   3.816   0.157   5.303 -0.1483  0.8799 -0.3914
   46DOPE  H13R 5870   3.729   0.226   5.307 -2.0463 -1.4492  1.9656
   46DOPE  H13S 5871   3.909   0.203   5.263  0.1755  1.4195  0.9421
   46DOPE  C214 5872   3.839   0.107   5.450 -0.2493  0.0668  0.1731
   46DOPE  H14R 5873   3.916   0.028   5.463  1.2695  1.6165  0.9729
   46DOPE  H14S 5874   3.737   0.065   5.464 -0.5386  0.2661 -1.1730
   46DOPE  C215 5875   3.862   0.219   5.554 -0.6140  0.4791  0.4813
   46DOPE  H15R 5876   3.824   0.185   5.653  1.7270  1.8686  1.9417
   46DOPE  H15S 5877   3.804   0.310   5.529  0.5999  1.6899  1.9208
   46DOPE  C216 5878   4.015   0.252   5.567 -0.2404 -0.2196 -0.5667
   46DOPE  H16R 5879   4.063   0.284   5.472  1.2542  3.1965  1.1133
   46DOPE  H16S 5880   4.080   0.166   5.594 -0.2137  0.3966  1.5210
   46DOPE  C217 5881   4.039   0.369   5.668 -0.4301  1.1807  0.0059
   46DOPE  H17R 5882   4.015   0.333   5.771 -3.5330 -1.4300 -1.4668
   46DOPE  H17S 5883   3.966   0.448   5.642 -2.8523 -1.0135 -0.2674
   46DOPE  C218 5884   4.182   0.424   5.662 -0.1216 -0.2060 -0.1540
   46DOPE  H18R 5885   4.216   0.460   5.563 -1.1339  3.1099  0.5848
   46DOPE  H18S 5886   4.267   0.367   5.706  1.1478  3.2378  2.3002
   46DOPE  H18T 5887   4.179   0.519   5.720  1.4561 -0.6334  0.6844
   46DOPE   C33 5888   3.390   0.475   4.553 -0.0893 -0.0305  1.1545
   46DOPE   H3X 5889   3.391   0.586   4.549 -0.6097  0.0795  3.0741
   46DOPE   H3Y 5890   3.491   0.450   4.593 -0.3265 -1.5481  0.8835
   46DOPE   C34 5891   3.285   0.432   4.653  0.5288  0.0441 -0.0235
   46DOPE   H4X 5892   3.277   0.507   4.734  0.5406  1.4926 -1.3123
   46DOPE   H4Y 5893   3.183   0.433   4.609  1.0217 -2.0103 -1.3674
   46DOPE   C35 5894   3.310   0.296   4.723 -0.3110  0.2067  0.3345
   46DOPE   H5X 5895   3.401   0.316   4.783  2.2134 -1.2752 -2.6920
   46DOPE   H5Y 5896   3.353   0.232   4.643 -0.4424  0.7062 -0.1452
   46DOPE   C36 5897   3.185   0.243   4.795 -0.6268 -0.2553  0.1326
   46DOPE   H6X 5898   3.212   0.149   4.848 -0.6392 -1.1384 -1.3936
   46DOPE   H6Y 5899   3.107   0.210   4.723 -1.8781  0.6792  1.0063
   46DOPE   C37 5900   3.132   0.341   4.906 -0.0429  1.1614  0.4447
   46DOPE   H7X 5901   3.205   0.390   4.974 -1.2223  4.5557 -0.5374
   46DOPE   H7Y 5902   3.078   0.427   4.860 -1.4190  0.0185 -0.1467
   46DOPE   C38 5903   3.035   0.261   4.996 -0.5536  0.1408 -0.2583
   46DOPE   H8X 5904   2.978   0.183   4.940 -0.3205 -1.3018  1.4449
   46DOPE   H8Y 5905   2.960   0.333   5.033  1.9522  1.5430  2.4560
   46DOPE   C39 5906   3.110   0.186   5.106  0.7072 -0.1840  0.8792
   46DOPE   H9X 5907   3.182   0.110   5.072  0.0892  0.4376 -2.1315
   46DOPE  C310 5908   3.097   0.204   5.242  0.6608  0.0085  0.6901
   46DOPE  H10X 5909   3.161   0.137   5.302 -0.8832 -2.0383  0.1673
   46DOPE  C311 5910   3.013   0.306   5.304  0.0550  0.0162  0.0510
   46DOPE  H11X 5911   2.976   0.385   5.236 -2.7296 -0.9929  0.2799
   46DOPE  H11Y 5912   2.920   0.251   5.331  0.3238 -0.3358  0.2749
   46DOPE  C312 5913   3.065   0.379   5.427  0.1497  0.0700 -0.1195
   46DOPE  H12X 5914   3.132   0.464   5.403 -1.0687  1.1699  0.2583
   46DOPE  H12Y 5915   3.109   0.300   5.491 -2.4253 -1.2763  0.1306
   46DOPE  C313 5916   2.942   0.446   5.503 -0.3555 -0.4933  0.3819
   46DOPE  H13X 5917   2.902   0.533   5.448  0.4844 -0.8151 -0.8008
   46DOPE  H13Y 5918   2.860   0.372   5.517 -1.4201  0.2989 -1.3083
   46DOPE  C314 5919   2.993   0.491   5.641 -0.8328  0.5345  0.2700
   46DOPE  H14X 5920   3.080   0.559   5.635  0.2425 -0.5865  2.2746
   46DOPE  H14Y 5921   3.033   0.402   5.694 -3.4764 -0.6840  0.3942
   46DOPE  C315 5922   2.884   0.543   5.732  0.1557 -0.0544 -0.4532
   46DOPE  H15X 5923   2.796   0.476   5.726 -0.4650  0.8806 -3.0103
   46DOPE  H15Y 5924   2.849   0.638   5.686 -0.3391  0.4513  0.9144
   46DOPE  C316 5925   2.937   0.567   5.877 -0.3656 -0.2005 -0.4488
   46DOPE  H16X 5926   2.925   0.676   5.896 -2.3546 -0.4067 -0.2366
   46DOPE  H16Y 5927   3.041   0.535   5.895 -0.3652 -0.4481 -0.8937
   46DOPE  C317 5928   2.868   0.486   5.990 -0.0112 -0.0454  0.3300
   46DOPE  H17X 5929   2.757   0.488   5.987  0.0103  1.6608 -0.4731
   46DOPE  H17Y 5930   2.889   0.379   5.970  0.8113  0.3368 -0.9615
   46DOPE  C318 5931   2.932   0.520   6.126 -0.4938  0.1255 -0.0850
   46DOPE  H18X 5932   3.038   0.551   6.112 -0.7930  1.2747  0.1242
   46DOPE  H18Y 5933   2.887   0.609   6.174  0.4824  0.3526  0.4247
   46DOPE  H18Z 5934   2.925   0.433   6.195 -0.7558  0.1067 -0.1345
   47DOPE     N 5935   1.465   6.614   3.481  0.5681 -0.1411 -0.0826
   47DOPE   HN1 5936   1.519   6.579   3.563  0.1734 -0.9565 -0.1692
   47DOPE   HN2 5937   1.450   6.716   3.497  0.0637 -0.1926 -0.2232
   47DOPE   HN3 5938   1.375   6.564   3.480  0.9038 -0.8047 -2.0682
   47DOPE   C12 5939   1.550   6.581   3.362  0.0040  0.6228 -0.0841
   47DOPE  H12A 5940   1.639   6.648   3.360 -0.6188  1.4658 -0.3818
   47DOPE  H12B 5941   1.488   6.608   3.273  2.0927  0.2331 -1.7430
   47DOPE   C11 5942   1.598   6.437   3.362 -0.3903 -0.3108 -0.6352
   47DOPE  H11A 5943   1.665   6.417   3.275 -0.0730 -0.3640 -0.3800
   47DOPE  H11B 5944   1.505   6.377   3.354 -2.2488  1.8602  2.5404
   47DOPE     P 5945   1.705   6.251   3.520  0.2520 -0.1105  0.2236
   47DOPE   O13 5946   1.769   6.268   3.650  0.3519 -0.0858  0.9907
   47DOPE   O14 5947   1.794   6.204   3.411 -0.3918  0.0706 -0.1270
   47DOPE   O11 5948   1.569   6.168   3.523 -0.6719 -0.0368  0.3911
   47DOPE   O12 5949   1.652   6.401   3.488  0.4091  0.5485  0.0303
   47DOPE    C1 5950   1.457   6.211   3.604  0.5057 -0.0961 -0.0620
   47DOPE    HA 5951   1.362   6.164   3.569  0.8293  0.1772 -1.3660
   47DOPE    HB 5952   1.442   6.320   3.589  1.8833  0.2812  1.0871
   47DOPE    C2 5953   1.482   6.192   3.753  0.4549 -1.2682  0.2245
   47DOPE    HS 5954   1.565   6.262   3.778 -0.0656  0.4336 -2.4233
   47DOPE   O21 5955   1.503   6.055   3.776  0.5972  0.5638  0.4400
   47DOPE   C21 5956   1.571   6.031   3.888 -0.7151  0.0345  0.5590
   47DOPE   O22 5957   1.621   6.116   3.963  0.4118  0.3982  0.6654
   47DOPE   C22 5958   1.574   5.878   3.916  0.6793 -0.1151  0.0042
   47DOPE   H2R 5959   1.620   5.839   3.823  1.2305  1.0101 -0.2185
   47DOPE   H2S 5960   1.470   5.840   3.911  1.0016 -0.9639 -0.4243
   47DOPE    C3 5961   1.358   6.243   3.838  0.1858  0.1743  0.0306
   47DOPE    HX 5962   1.274   6.173   3.821 -0.8273  1.2333  0.5184
   47DOPE    HY 5963   1.326   6.336   3.786 -0.3487 -1.5870 -3.0488
   47DOPE   O31 5964   1.379   6.257   3.981  0.2891  0.2276 -0.2054
   47DOPE   C31 5965   1.426   6.380   4.012  0.2739  0.8829 -0.0534
   47DOPE   O32 5966   1.435   6.469   3.930 -0.3777 -0.0607 -0.1987
   47DOPE   C32 5967   1.419   6.390   4.168 -0.5292  0.2237  0.3305
   47DOPE   H2X 5968   1.320   6.436   4.191 -0.3235  1.2449 -0.7275
   47DOPE   H2Y 5969   1.434   6.288   4.209 -0.3950  0.4046  0.7392
   47DOPE   C23 5970   1.658   5.846   4.040  0.4575 -0.2800 -0.2805
   47DOPE   H3R 5971   1.754   5.903   4.035  1.6026 -2.2122 -1.9057
   47DOPE   H3S 5972   1.688   5.740   4.028 -1.2882 -0.8256  0.0379
   47DOPE   C24 5973   1.589   5.855   4.176 -0.1536  0.2382  0.1276
   47DOPE   H4R 5974   1.493   5.799   4.176  1.3081 -2.4742  1.7107
   47DOPE   H4S 5975   1.566   5.963   4.189 -1.0382  0.6207 -3.5562
   47DOPE   C25 5976   1.681   5.800   4.287  0.3261 -0.0701  0.0281
   47DOPE   H5R 5977   1.784   5.828   4.257  1.0401 -1.4915  1.0468
   47DOPE   H5S 5978   1.678   5.689   4.287  1.5989 -0.1747  2.9264
   47DOPE   C26 5979   1.654   5.852   4.426  0.5913 -0.1092 -0.3870
   47DOPE   H6R 5980   1.546   5.838   4.448  0.3164 -0.0228 -1.6394
   47DOPE   H6S 5981   1.674   5.961   4.438  0.9075 -0.3807  2.1325
   47DOPE   C27 5982   1.739   5.778   4.524 -0.3572  0.0785  0.3852
   47DOPE   H7R 5983   1.846   5.794   4.501 -0.8593  0.3732 -2.0197
   47DOPE   H7S 5984   1.740   5.668   4.509  0.1066  0.1736 -0.3628
   47DOPE   C28 5985   1.708   5.802   4.673  0.0639 -0.8065 -0.0132
   47DOPE   H8R 5986   1.761   5.726   4.734  0.1403 -0.2427  0.6407
   47DOPE   H8S 5987   1.601   5.782   4.698  0.0768  1.7677  2.6584
   47DOPE   C29 5988   1.743   5.943   4.717 -0.0278 -0.0535 -0.4687
   47DOPE   H9R 5989   1.677   6.018   4.671  3.4558  2.2502 -2.1399
   47DOPE  C210 5990   1.827   5.976   4.807  0.1134  0.4481 -0.0590
   47DOPE  H10R 5991   1.839   6.084   4.823  3.8756 -0.1781  2.9505
   47DOPE  C211 5992   1.918   5.881   4.879 -0.0665  0.5046 -0.1649
   47DOPE  H11R 5993   2.021   5.923   4.882 -0.1996  0.7872  1.1572
   47DOPE  H11S 5994   1.922   5.780   4.833 -1.2922  1.6708 -3.0189
   47DOPE  C212 5995   1.854   5.864   5.026  0.1936 -0.6913  0.5222
   47DOPE  H12R 5996   1.855   5.962   5.079  1.0904 -0.1639 -0.4205
   47DOPE  H12S 5997   1.931   5.822   5.095  2.0134 -0.2674 -1.1522
   47DOPE  C213 5998   1.727   5.779   5.038  0.1119  0.2528  0.1971
   47DOPE  H13R 5999   1.747   5.672   5.017 -0.3697  0.0472  0.7531
   47DOPE  H13S 6000   1.650   5.818   4.967  1.0741 -0.5840 -1.3421
   47DOPE  C214 6001   1.659   5.804   5.176 -0.5012  0.6137 -0.0575
   47DOPE  H14R 6002   1.555   5.765   5.172 -1.3577  2.5455  1.6325
   47DOPE  H14S 6003   1.653   5.912   5.202 -0.6017  0.2075  1.8044
   47DOPE  C215 6004   1.716   5.728   5.291 -0.1078  0.2031  0.6601
   47DOPE  H15R 6005   1.824   5.709   5.274 -0.6807 -0.6880 -2.8348
   47DOPE  H15S 6006   1.665   5.629   5.289 -0.3535  0.3348 -0.4862
   47DOPE  C216 6007   1.706   5.801   5.418 -0.4862 -0.5449  0.4603
   47DOPE  H16R 6008   1.618   5.869   5.415  0.3538  0.6482  1.7456
   47DOPE  H16S 6009   1.801   5.858   5.423 -1.4977  1.1462  1.0843
   47DOPE  C217 6010   1.694   5.693   5.537  0.2220  0.0451  0.4245
   47DOPE  H17R 6011   1.759   5.605   5.526 -1.8469 -1.5651  0.4141
   47DOPE  H17S 6012   1.588   5.660   5.538 -0.3593  1.7857  1.1253
   47DOPE  C218 6013   1.717   5.761   5.673  0.5809  0.1332 -0.6515
   47DOPE  H18R 6014   1.751   5.686   5.746  1.4625  0.5169 -0.6556
   47DOPE  H18S 6015   1.621   5.797   5.717  1.1195  0.0316  0.6229
   47DOPE  H18T 6016   1.794   5.841   5.668 -0.4486  1.0953 -2.3339
   47DOPE   C33 6017   1.540   6.471   4.225 -0.1896  0.6187 -0.7911
   47DOPE   H3X 6018   1.534   6.580   4.203  0.4538  1.2962  2.0406
   47DOPE   H3Y 6019   1.633   6.429   4.182  0.6147 -1.5510  2.7005
   47DOPE   C34 6020   1.554   6.468   4.381 -0.1677  0.6407 -0.5392
   47DOPE   H4X 6021   1.606   6.373   4.407 -0.3633  0.0894 -2.0735
   47DOPE   H4Y 6022   1.612   6.553   4.422 -0.2091  0.9222 -1.0628
   47DOPE   C35 6023   1.418   6.468   4.454 -0.4096 -0.4821 -0.0492
   47DOPE   H5X 6024   1.353   6.385   4.420  0.3341 -0.4610 -1.6222
   47DOPE   H5Y 6025   1.351   6.556   4.440  0.5901  0.3714  0.3554
   47DOPE   C36 6026   1.434   6.476   4.604  0.7130 -0.2870  0.1811
   47DOPE   H6X 6027   1.329   6.470   4.642  0.4167  0.2368 -0.5310
   47DOPE   H6Y 6028   1.497   6.561   4.637  0.5056 -0.2471  0.4892
   47DOPE   C37 6029   1.510   6.356   4.660  0.0880 -0.3465 -0.0777
   47DOPE   H7X 6030   1.476   6.273   4.596  0.4447  0.0197 -0.7601
   47DOPE   H7Y 6031   1.619   6.361   4.638  0.0715  0.7572  0.0064
   47DOPE   C38 6032   1.495   6.310   4.812  0.7637  0.6046  0.8016
   47DOPE   H8X 6033   1.543   6.210   4.827 -1.6388 -1.0817 -1.6674
   47DOPE   H8Y 6034   1.390   6.277   4.828  1.4183 -0.7166  2.7397
   47DOPE   C39 6035   1.547   6.419   4.905  0.1790 -0.5456 -0.3294
   47DOPE   H9X 6036   1.497   6.515   4.888  0.6684  0.0733  1.4760
   47DOPE  C310 6037   1.663   6.416   4.976  0.2757 -0.2786  0.1390
   47DOPE  H10X 6038   1.699   6.503   5.032 -0.0978 -0.8237  1.2405
   47DOPE  C311 6039   1.749   6.301   4.995  0.2515  0.9262 -0.3220
   47DOPE  H11X 6040   1.761   6.281   5.103 -0.0192  0.0507 -0.4509
   47DOPE  H11Y 6041   1.694   6.212   4.957 -0.7801  0.6069  1.7467
   47DOPE  C312 6042   1.891   6.302   4.929  0.5983 -0.9412 -0.1114
   47DOPE  H12X 6043   1.940   6.202   4.931 -1.2308 -1.8736  0.1712
   47DOPE  H12Y 6044   1.952   6.385   4.970 -2.6455  1.7065 -0.1873
   47DOPE  C313 6045   1.890   6.332   4.775  0.2427 -0.8430 -0.2103
   47DOPE  H13X 6046   1.800   6.291   4.722  0.2152  2.0106 -2.6162
   47DOPE  H13Y 6047   1.886   6.443   4.767  5.0215 -0.5943 -1.7824
   47DOPE  C314 6048   2.018   6.306   4.699 -0.3752  0.0495 -0.2711
   47DOPE  H14X 6049   2.047   6.203   4.729 -0.2337  0.9563  3.0563
   47DOPE  H14Y 6050   2.109   6.354   4.741 -0.2800  0.2115 -0.6544
   47DOPE  C315 6051   2.019   6.329   4.551 -0.8487 -0.0461 -0.3566
   47DOPE  H15X 6052   2.120   6.325   4.506 -1.2587 -1.7838 -1.2177
   47DOPE  H15Y 6053   1.982   6.430   4.525  0.2175 -0.0479 -1.9939
   47DOPE  C316 6054   1.940   6.227   4.469 -0.2201 -0.3811  0.1578
   47DOPE  H16X 6055   1.863   6.190   4.541 -0.0987  0.1426  0.5602
   47DOPE  H16Y 6056   1.992   6.129   4.460  0.6478 -0.0549  1.3760
   47DOPE  C317 6057   1.887   6.280   4.338  0.7568  0.2875 -0.1474
   47DOPE  H17X 6058   1.836   6.378   4.346 -0.2454 -0.2001 -0.3525
   47DOPE  H17Y 6059   1.984   6.298   4.288  0.9827  1.0184  0.5275
   47DOPE  C318 6060   1.799   6.177   4.266  0.0613 -0.1492  0.0933
   47DOPE  H18X 6061   1.694   6.188   4.300 -0.0531 -1.0202  0.0302
   47DOPE  H18Y 6062   1.795   6.193   4.156 -1.4966 -0.4853  0.0745
   47DOPE  H18Z 6063   1.834   6.074   4.287  0.1173  0.0088  0.8265
   48DOPE     N 6064   6.111   3.150   4.434  0.0229 -0.2483  0.7865
   48DOPE   HN1 6065   6.035   3.101   4.486 -2.4485  1.8730 -0.6237
   48DOPE   HN2 6066   6.090   3.251   4.445  2.6106  0.3335  1.0568
   48DOPE   HN3 6067   6.111   3.125   4.334 -0.6443  0.2990  0.6446
   48DOPE   C12 6068   6.246   3.113   4.496  0.6638  0.2069  0.3105
   48DOPE  H12A 6069   6.235   3.151   4.600  0.6733 -3.2504  1.6959
   48DOPE  H12B 6070   6.320   3.171   4.437  0.5276 -1.2924 -1.3917
   48DOPE   C11 6071   6.280   2.969   4.482 -0.3379 -0.7052 -1.3156
   48DOPE  H11A 6072   6.222   2.918   4.562  0.8139  1.8962  1.3549
   48DOPE  H11B 6073   6.383   2.950   4.521 -1.2067  0.3447  1.7110
   48DOPE     P 6074   6.169   2.812   4.299 -0.2506  0.0100  0.1164
   48DOPE   O13 6075   6.199   2.763   4.162 -0.3404 -0.0948 -0.5631
   48DOPE   O14 6076   6.039   2.871   4.326 -0.5418  0.0150 -0.4570
   48DOPE   O11 6077   6.178   2.699   4.414  0.4865  0.2353 -0.5473
   48DOPE   O12 6078   6.276   2.917   4.349 -0.2207 -0.2083  0.5031
   48DOPE    C1 6079   6.302   2.633   4.460  0.4987 -0.1847  0.1660
   48DOPE    HA 6080   6.384   2.700   4.493  0.5156 -1.2393  2.5104
   48DOPE    HB 6081   6.337   2.591   4.364 -1.0383  0.3251 -0.6621
   48DOPE    C2 6082   6.283   2.509   4.549 -0.0136  0.1943  0.2002
   48DOPE    HS 6083   6.176   2.479   4.556  0.3514 -1.6337 -1.1903
   48DOPE   O21 6084   6.333   2.547   4.683 -1.0162  0.0398 -0.5660
   48DOPE   C21 6085   6.261   2.623   4.770  0.3877  0.5696  0.9111
   48DOPE   O22 6086   6.153   2.669   4.754 -0.1468  0.1972  0.1370
   48DOPE   C22 6087   6.333   2.612   4.905  0.4347 -0.2274 -0.1969
   48DOPE   H2R 6088   6.431   2.662   4.907  0.7900 -0.9086  1.1953
   48DOPE   H2S 6089   6.348   2.506   4.935 -1.0319 -0.5825 -0.6010
   48DOPE    C3 6090   6.368   2.393   4.496 -0.0829 -0.3400 -0.1121
   48DOPE    HX 6091   6.468   2.440   4.485 -0.2327 -0.1159 -0.5275
   48DOPE    HY 6092   6.339   2.344   4.400 -2.4542  0.4994  0.1064
   48DOPE   O31 6093   6.356   2.290   4.593  0.2943  0.3325 -0.2919
   48DOPE   C31 6094   6.464   2.233   4.642  0.4943 -0.3627  0.5358
   48DOPE   O32 6095   6.580   2.263   4.633  0.6651 -0.2423 -0.1973
   48DOPE   C32 6096   6.418   2.102   4.708  0.1518 -0.3794  0.1121
   48DOPE   H2X 6097   6.315   2.080   4.671 -0.9369  1.2525  1.9503
   48DOPE   H2Y 6098   6.484   2.020   4.673  1.0066  0.8411 -1.2429
   48DOPE   C23 6099   6.248   2.678   5.016  0.9053 -0.2997  0.9047
   48DOPE   H3R 6100   6.147   2.632   5.007  0.9592 -0.2414 -0.1006
   48DOPE   H3S 6101   6.243   2.788   5.006 -1.7104 -0.5598 -2.2799
   48DOPE   C24 6102   6.292   2.653   5.161 -0.5172 -0.6345  0.2109
   48DOPE   H4R 6103   6.395   2.692   5.176 -0.6925 -0.7094  1.7190
   48DOPE   H4S 6104   6.302   2.543   5.179  1.6275 -0.5461 -0.2386
   48DOPE   C25 6105   6.195   2.717   5.264 -0.0499  0.1236  0.3080
   48DOPE   H5R 6106   6.099   2.662   5.268  1.3967 -2.5166  0.4378
   48DOPE   H5S 6107   6.184   2.827   5.249 -0.7979  0.1844  1.2529
   48DOPE   C26 6108   6.262   2.701   5.404  0.3240 -0.0118 -0.3261
   48DOPE   H6R 6109   6.356   2.759   5.406  1.1971 -1.3648  1.7062
   48DOPE   H6S 6110   6.284   2.593   5.417 -2.2451 -0.5025  0.4534
   48DOPE   C27 6111   6.175   2.750   5.520 -0.8928  0.9279  0.0265
   48DOPE   H7R 6112   6.074   2.705   5.518 -0.3568 -0.3119 -0.0151
   48DOPE   H7S 6113   6.170   2.860   5.533 -1.4442  0.5240  5.4032
   48DOPE   C28 6114   6.235   2.713   5.659  0.3910  0.3308 -0.0949
   48DOPE   H8R 6115   6.330   2.770   5.671  1.1260 -1.1423  1.5975
   48DOPE   H8S 6116   6.272   2.608   5.651 -2.9199 -0.8420 -2.7285
   48DOPE   C29 6117   6.141   2.736   5.781 -0.0752 -0.1425 -0.0129
   48DOPE   H9R 6118   6.041   2.690   5.779 -0.9660  1.6825 -2.4914
   48DOPE  C210 6119   6.178   2.785   5.903  0.6552 -0.3910 -0.1931
   48DOPE  H10R 6120   6.100   2.819   5.972  1.6205 -0.1021  0.7930
   48DOPE  C211 6121   6.319   2.826   5.946 -0.1603  0.4003  0.0053
   48DOPE  H11R 6122   6.319   2.914   6.013  1.7729 -0.4016  1.1601
   48DOPE  H11S 6123   6.393   2.843   5.865  2.1388 -0.1036  1.9056
   48DOPE  C212 6124   6.393   2.709   6.028 -0.1301 -0.1317  0.9859
   48DOPE  H12R 6125   6.426   2.631   5.957 -1.3425 -1.2066  1.5636
   48DOPE  H12S 6126   6.327   2.673   6.110  0.3055  1.7758  2.2331
   48DOPE  C213 6127   6.524   2.753   6.105 -0.2813 -0.3409 -0.2512
   48DOPE  H13R 6128   6.614   2.758   6.039 -0.2151 -3.4205 -0.5762
   48DOPE  H13S 6129   6.547   2.654   6.150 -1.8108 -1.0361 -0.9104
   48DOPE  C214 6130   6.510   2.868   6.208  0.2494 -0.2184 -0.0904
   48DOPE  H14R 6131   6.416   2.859   6.267 -0.5661  0.9762 -1.1666
   48DOPE  H14S 6132   6.498   2.966   6.157  2.6085  0.5277  0.6460
   48DOPE  C215 6133   6.639   2.873   6.295  0.3515 -0.3129 -0.6369
   48DOPE  H15R 6134   6.725   2.904   6.233  0.3685  0.9287 -0.0385
   48DOPE  H15S 6135   6.659   2.770   6.332  0.6791  0.1470  0.5370
   48DOPE  C216 6136   6.630   2.952   6.434  0.4841 -0.2648  0.6251
   48DOPE  H16R 6137   6.546   2.915   6.498 -0.2841 -0.0622 -0.2462
   48DOPE  H16S 6138   6.613   3.060   6.414 -1.4290 -0.4844  0.8425
   48DOPE  C217 6139   6.765   2.932   6.510  0.7840  0.0381  0.4668
   48DOPE  H17R 6140   6.846   2.998   6.472 -1.8133  1.8995 -2.3203
   48DOPE  H17S 6141   6.781   2.823   6.522  1.6017 -0.0026 -0.7625
   48DOPE  C218 6142   6.745   2.983   6.650 -0.1488 -0.8522  0.7472
   48DOPE  H18R 6143   6.655   2.947   6.705  0.0658 -0.5917  1.2807
   48DOPE  H18S 6144   6.726   3.092   6.644  0.6574 -0.7808 -3.4937
   48DOPE  H18T 6145   6.834   2.966   6.715  1.1686 -1.4154 -1.1085
   48DOPE   C33 6146   6.405   2.115   4.860 -0.3135 -0.5102  0.0621
   48DOPE   H3X 6147   6.341   2.200   4.890 -2.3697 -1.5159 -1.2447
   48DOPE   H3Y 6148   6.508   2.141   4.893  0.8854 -1.4220 -2.6297
   48DOPE   C34 6149   6.362   1.988   4.929  0.0330  0.4909  0.6190
   48DOPE   H4X 6150   6.278   1.941   4.874  0.6194  0.5230 -0.3373
   48DOPE   H4Y 6151   6.447   1.920   4.905 -0.7883 -0.9155  1.5972
   48DOPE   C35 6152   6.349   2.006   5.082  0.1749 -0.2939  0.3769
   48DOPE   H5X 6153   6.297   2.099   5.113  0.1588  0.4388 -1.6905
   48DOPE   H5Y 6154   6.454   2.028   5.111  0.3656  0.5292 -0.8840
   48DOPE   C36 6155   6.284   1.891   5.145  0.6803  0.0041 -0.4338
   48DOPE   H6X 6156   6.331   1.795   5.114  0.9049  0.1363 -0.5120
   48DOPE   H6Y 6157   6.176   1.873   5.129  0.8689 -1.4421 -0.2366
   48DOPE   C37 6158   6.313   1.899   5.303  0.5535 -1.2212  0.2285
   48DOPE   H7X 6159   6.291   2.000   5.342 -4.2424 -1.9380  0.0306
   48DOPE   H7Y 6160   6.240   1.830   5.352 -0.0769 -1.7738 -1.4112
   48DOPE   C38 6161   6.449   1.849   5.355 -1.1125 -0.4515 -0.1805
   48DOPE   H8X 6162   6.527   1.873   5.280 -1.0158 -0.4311 -0.0746
   48DOPE   H8Y 6163   6.451   1.738   5.353 -2.3708 -0.4885 -0.2404
   48DOPE   C39 6164   6.493   1.898   5.490  0.2593 -0.4356  0.5694
   48DOPE   H9X 6165   6.559   1.986   5.481  0.9189 -1.1514 -2.7158
   48DOPE  C310 6166   6.446   1.866   5.612 -0.6213  0.6876  0.9869
   48DOPE  H10X 6167   6.485   1.928   5.694  0.8122  2.0684 -0.6223
   48DOPE  C311 6168   6.346   1.758   5.638  0.3794  0.5271 -0.2689
   48DOPE  H11X 6169   6.270   1.808   5.701  0.7126 -0.8954  1.3212
   48DOPE  H11Y 6170   6.304   1.715   5.544  1.7134 -4.0255  0.9482
   48DOPE  C312 6171   6.403   1.644   5.726 -0.3016 -0.9057  0.8168
   48DOPE  H12X 6172   6.485   1.593   5.670  0.6360  0.8710  0.5033
   48DOPE  H12Y 6173   6.324   1.571   5.753 -0.7608 -0.5806  0.3764
   48DOPE  C313 6174   6.469   1.690   5.852  0.2474  0.3213 -0.4663
   48DOPE  H13X 6175   6.470   1.592   5.904 -0.3586 -0.5275 -1.9690
   48DOPE  H13Y 6176   6.572   1.730   5.844  0.1428  0.4400 -1.4167
   48DOPE  C314 6177   6.389   1.772   5.951  0.7155 -0.2669 -0.2224
   48DOPE  H14X 6178   6.381   1.874   5.908 -0.6495 -0.1132  0.3436
   48DOPE  H14Y 6179   6.449   1.791   6.042 -1.1582 -0.7095  1.1721
   48DOPE  C315 6180   6.258   1.710   5.995  0.3680  0.2913  0.3893
   48DOPE  H15X 6181   6.282   1.611   6.040 -1.0710  0.5323  1.7771
   48DOPE  H15Y 6182   6.178   1.694   5.920 -0.5540  1.4055  1.1034
   48DOPE  C316 6183   6.193   1.789   6.115 -0.2185  0.3702 -0.0968
   48DOPE  H16X 6184   6.193   1.896   6.087  0.4487  0.8024  1.4425
   48DOPE  H16Y 6185   6.258   1.779   6.205 -1.3517 -1.6386  0.5769
   48DOPE  C317 6186   6.049   1.747   6.147 -0.0610  0.2107 -0.1886
   48DOPE  H17X 6187   5.981   1.750   6.058  0.2655  1.5576 -0.4144
   48DOPE  H17Y 6188   6.057   1.646   6.191 -0.7861  1.0328  1.9493
   48DOPE  C318 6189   5.995   1.844   6.245 -0.2947 -0.2443 -0.2946
   48DOPE  H18X 6190   6.004   1.951   6.218  2.8374 -0.5721 -0.9310
   48DOPE  H18Y 6191   5.886   1.822   6.250 -0.0587 -1.5203 -0.3077
   48DOPE  H18Z 6192   6.047   1.830   6.343  0.6540  0.0735 -0.7425
   49DOPE     N 6193   1.022   0.962   3.503  0.0737  0.3455  0.4291
   49DOPE   HN1 6194   0.929   1.004   3.523  0.0800  1.5898 -1.7859
   49DOPE   HN2 6195   1.081   1.029   3.555  1.2970 -0.1017 -0.3330
   49DOPE   HN3 6196   1.034   0.949   3.400 -0.7049 -0.6413  0.4446
   49DOPE   C12 6197   1.040   0.826   3.563 -0.3401 -0.1591 -0.8301
   49DOPE  H12A 6198   0.973   0.758   3.507 -0.2241 -0.2708 -0.8322
   49DOPE  H12B 6199   1.019   0.823   3.672  0.6060 -0.5356 -0.6433
   49DOPE   C11 6200   1.182   0.768   3.540  0.3439  0.5072  0.3996
   49DOPE  H11A 6201   1.204   0.743   3.434  1.7353  1.3604  0.4683
   49DOPE  H11B 6202   1.186   0.667   3.586 -3.1272 -0.7618 -1.6982
   49DOPE     P 6203   1.369   0.824   3.717  0.2588  0.3209 -0.1660
   49DOPE   O13 6204   1.472   0.930   3.725 -0.2091 -0.1481  0.1532
   49DOPE   O14 6205   1.420   0.688   3.705 -0.2127  0.1755  0.0951
   49DOPE   O11 6206   1.269   0.839   3.834  0.1394  0.1006 -0.1886
   49DOPE   O12 6207   1.286   0.851   3.585 -0.0292 -0.5869  0.6616
   49DOPE    C1 6208   1.203   0.954   3.879  0.9937  0.1224 -0.2240
   49DOPE    HA 6209   1.099   0.951   3.838  0.6078 -0.5873  0.7511
   49DOPE    HB 6210   1.253   1.043   3.837  0.9036  0.9390  1.3333
   49DOPE    C2 6211   1.221   0.969   4.033  0.2108 -0.4777  0.3873
   49DOPE    HS 6212   1.182   1.068   4.065  1.7584 -0.3380  2.0211
   49DOPE   O21 6213   1.361   0.964   4.063  0.0935 -0.2332 -0.6904
   49DOPE   C21 6214   1.428   1.073   4.042 -0.0599 -0.1262  0.7367
   49DOPE   O22 6215   1.388   1.178   3.996 -0.1008  0.2892 -0.5980
   49DOPE   C22 6216   1.576   1.040   4.058 -0.3853  0.3865 -0.0333
   49DOPE   H2R 6217   1.638   1.126   4.026  0.9857 -0.6455 -0.2202
   49DOPE   H2S 6218   1.595   0.956   3.989 -1.0319  0.8404 -0.7756
   49DOPE    C3 6219   1.153   0.857   4.115  0.0225  0.1503  0.7467
   49DOPE    HX 6220   1.204   0.761   4.092  0.6822  0.6475  0.0722
   49DOPE    HY 6221   1.046   0.846   4.088 -0.1752  1.5539  0.8675
   49DOPE   O31 6222   1.150   0.898   4.254 -0.3496  0.0812  0.5364
   49DOPE   C31 6223   1.251   0.849   4.329  0.0647  0.8155 -0.8555
   49DOPE   O32 6224   1.320   0.746   4.315 -0.3959 -0.3927 -0.1161
   49DOPE   C32 6225   1.242   0.923   4.464  0.1250 -0.3702  0.1973
   49DOPE   H2X 6226   1.306   1.013   4.456 -0.5954  0.2160  0.8759
   49DOPE   H2Y 6227   1.138   0.955   4.488  0.4474  1.0783 -0.2340
   49DOPE   C23 6228   1.614   0.998   4.200  0.6477 -0.1822  0.1186
   49DOPE   H3R 6229   1.716   0.954   4.195  0.8372  0.2939 -0.1930
   49DOPE   H3S 6230   1.547   0.918   4.240  1.5260 -0.6508  0.6912
   49DOPE   C24 6231   1.625   1.113   4.304 -0.3480  0.4386 -0.9301
   49DOPE   H4R 6232   1.669   1.076   4.399 -0.8157  2.8351  0.3026
   49DOPE   H4S 6233   1.527   1.152   4.339 -0.2593 -0.2569  0.1662
   49DOPE   C25 6234   1.718   1.232   4.268  0.4461 -0.0744  0.5270
   49DOPE   H5R 6235   1.659   1.311   4.217  3.9716  1.1807 -2.0737
   49DOPE   H5S 6236   1.785   1.200   4.185 -1.5130 -0.5855 -0.9374
   49DOPE   C26 6237   1.797   1.297   4.383  0.0252 -0.0454  0.6719
   49DOPE   H6R 6238   1.842   1.213   4.440  2.0491 -0.7536 -1.7956
   49DOPE   H6S 6239   1.720   1.354   4.439  0.7241  0.5588  1.0380
   49DOPE   C27 6240   1.911   1.396   4.352  0.9254  1.3713  0.7194
   49DOPE   H7R 6241   1.857   1.472   4.292  0.1243 -0.5116 -1.0732
   49DOPE   H7S 6242   1.976   1.337   4.283 -0.7211  0.2214  0.0925
   49DOPE   C28 6243   1.982   1.441   4.474 -0.0691  0.9604 -0.1590
   49DOPE   H8R 6244   2.061   1.512   4.441  1.0680 -1.3299 -2.7669
   49DOPE   H8S 6245   2.018   1.346   4.520 -2.9438  0.6907  1.7750
   49DOPE   C29 6246   1.894   1.516   4.570  0.2139 -0.6371 -0.4642
   49DOPE   H9R 6247   1.860   1.613   4.529 -1.3260 -0.8084  0.3011
   49DOPE  C210 6248   1.848   1.480   4.693  0.4527  0.0562  0.1088
   49DOPE  H10R 6249   1.773   1.539   4.747  0.5604  1.2854 -1.0417
   49DOPE  C211 6250   1.878   1.356   4.764 -0.2211  0.2051  0.1238
   49DOPE  H11R 6251   1.970   1.315   4.717  0.2686  4.1455 -2.9218
   49DOPE  H11S 6252   1.796   1.281   4.763 -0.4432  0.3771  2.0060
   49DOPE  C212 6253   1.911   1.379   4.916 -0.0778 -0.2034  0.2654
   49DOPE  H12R 6254   1.992   1.455   4.918  0.7296 -1.0258 -0.6530
   49DOPE  H12S 6255   1.943   1.281   4.957 -1.3127 -1.3883 -1.4400
   49DOPE  C213 6256   1.792   1.427   4.995  0.7422 -0.5224  0.5816
   49DOPE  H13R 6257   1.698   1.384   4.953  0.0579 -2.0243  3.4211
   49DOPE  H13S 6258   1.788   1.538   4.983 -1.7111 -0.4456  1.4917
   49DOPE  C214 6259   1.805   1.393   5.142 -0.3536 -0.1099 -0.3033
   49DOPE  H14R 6260   1.895   1.448   5.179  0.1796 -1.4642  0.4827
   49DOPE  H14S 6261   1.828   1.286   5.158  2.2709  0.0205 -2.4469
   49DOPE  C215 6262   1.677   1.434   5.225  0.0310 -0.1304  0.6348
   49DOPE  H15R 6263   1.593   1.370   5.189 -0.0237  1.2033 -1.8223
   49DOPE  H15S 6264   1.653   1.540   5.201  1.5375  0.6763  2.4517
   49DOPE  C216 6265   1.679   1.412   5.376  0.2399  0.3459 -0.5286
   49DOPE  H16R 6266   1.576   1.418   5.417 -0.5718 -4.7217 -1.1888
   49DOPE  H16S 6267   1.742   1.486   5.429 -1.1235  0.0360  1.6395
   49DOPE  C217 6268   1.731   1.269   5.412  0.1466 -0.7338  0.4283
   49DOPE  H17R 6269   1.837   1.270   5.378 -0.0838  0.4956 -0.3017
   49DOPE  H17S 6270   1.670   1.190   5.363 -0.5852  0.4767 -0.6538
   49DOPE  C218 6271   1.729   1.247   5.562  0.1235 -0.4515 -1.1868
   49DOPE  H18R 6272   1.759   1.142   5.584 -0.3539  0.0196  2.2007
   49DOPE  H18S 6273   1.623   1.266   5.589  0.8757 -0.0706  1.8806
   49DOPE  H18T 6274   1.791   1.319   5.618 -1.2118  0.3102 -0.6475
   49DOPE   C33 6275   1.286   0.832   4.589  0.0340 -0.1021  0.1376
   49DOPE   H3X 6276   1.396   0.823   4.603 -0.3748 -0.1306  5.6085
   49DOPE   H3Y 6277   1.235   0.734   4.586 -0.0013 -0.0645 -1.5770
   49DOPE   C34 6278   1.254   0.899   4.722 -0.0324  0.1054 -0.1396
   49DOPE   H4X 6279   1.302   0.999   4.733 -0.2661  0.0129  1.9453
   49DOPE   H4Y 6280   1.145   0.921   4.724 -0.6854 -2.8376 -0.0160
   49DOPE   C35 6281   1.297   0.816   4.843 -0.0014 -0.2903 -0.2670
   49DOPE   H5X 6282   1.406   0.795   4.843  0.2061  0.2014  3.1435
   49DOPE   H5Y 6283   1.248   0.716   4.841 -0.0844 -0.2486 -0.3018
   49DOPE   C36 6284   1.272   0.881   4.978 -0.2262  0.9318 -0.4455
   49DOPE   H6X 6285   1.167   0.910   4.998 -0.0661  1.4958 -0.3865
   49DOPE   H6Y 6286   1.338   0.970   4.984 -1.5055  1.8719  0.2622
   49DOPE   C37 6287   1.306   0.782   5.099 -0.1727  0.0140  0.4975
   49DOPE   H7X 6288   1.235   0.697   5.092  0.5941 -0.5203 -1.6243
   49DOPE   H7Y 6289   1.406   0.738   5.081 -0.2490 -0.1585  0.4986
   49DOPE   C38 6290   1.301   0.849   5.233  0.3337  0.1589 -0.1489
   49DOPE   H8X 6291   1.280   0.767   5.305  1.9184  1.0070  1.3487
   49DOPE   H8Y 6292   1.217   0.921   5.245  1.2560  1.0971  0.8836
   49DOPE   C39 6293   1.431   0.918   5.270  0.2939  0.3454  0.0679
   49DOPE   H9X 6294   1.476   0.969   5.184  1.4254  0.7241  0.8607
   49DOPE  C310 6295   1.484   0.921   5.393 -0.1900  0.6910 -0.2725
   49DOPE  H10X 6296   1.582   0.970   5.407  1.2445 -1.8402 -0.8085
   49DOPE  C311 6297   1.416   0.862   5.522  0.4021 -0.0896 -0.6985
   49DOPE  H11X 6298   1.309   0.843   5.500  1.0314 -2.2305 -2.2198
   49DOPE  H11Y 6299   1.467   0.770   5.558  1.9478  1.0575  0.1505
   49DOPE  C312 6300   1.432   0.976   5.630  0.1794 -0.0286  0.0446
   49DOPE  H12X 6301   1.372   1.061   5.590  2.8258  1.3265 -1.3272
   49DOPE  H12Y 6302   1.539   1.006   5.630 -0.0691  1.2697 -3.1732
   49DOPE  C313 6303   1.395   0.932   5.773 -0.4579 -0.1151 -0.0431
   49DOPE  H13X 6304   1.285   0.939   5.790 -0.6603 -1.7600 -0.4547
   49DOPE  H13Y 6305   1.419   0.826   5.796 -3.6850 -0.7377  1.0312
   49DOPE  C314 6306   1.465   1.033   5.872  0.2318 -0.0567  0.1953
   49DOPE  H14X 6307   1.424   1.005   5.971 -1.3626  1.2393 -0.0461
   49DOPE  H14Y 6308   1.427   1.136   5.854 -1.8834 -0.5754  1.2809
   49DOPE  C315 6309   1.621   1.022   5.877 -0.4577  0.6196 -0.2360
   49DOPE  H15X 6310   1.662   1.075   5.789 -1.9103 -0.1768 -1.4304
   49DOPE  H15Y 6311   1.639   0.913   5.876 -1.8663  0.3708 -0.2636
   49DOPE  C316 6312   1.666   1.080   6.006  0.0536 -0.7832  0.1106
   49DOPE  H16X 6313   1.609   1.020   6.080 -1.6263 -1.6704 -1.7899
   49DOPE  H16Y 6314   1.628   1.184   6.013 -1.5957 -1.3294 -0.3909
   49DOPE  C317 6315   1.822   1.072   6.017 -0.4895 -0.4823  0.3092
   49DOPE  H17X 6316   1.842   1.088   6.125 -3.9261  1.9891  0.7365
   49DOPE  H17Y 6317   1.862   0.970   5.995  1.3100 -0.1718  1.8419
   49DOPE  C318 6318   1.902   1.174   5.931  0.2128  0.7887 -0.0757
   49DOPE  H18X 6319   1.879   1.281   5.950 -1.7532  0.7306 -1.6927
   49DOPE  H18Y 6320   2.009   1.150   5.918  0.1173 -1.3304  2.1904
   49DOPE  H18Z 6321   1.864   1.173   5.826 -2.9235  1.5328  0.9488
   50DOPE     N 6322   1.882   4.542   4.065  0.0885 -0.4516 -0.1463
   50DOPE   HN1 6323   1.901   4.534   3.963  0.1136 -0.7789 -0.1172
   50DOPE   HN2 6324   1.884   4.448   4.108  2.4186 -1.0121 -1.3274
   50DOPE   HN3 6325   1.790   4.590   4.075 -0.1042 -0.9826  0.6927
   50DOPE   C12 6326   1.984   4.634   4.133 -0.3551 -0.5517 -0.1380
   50DOPE  H12A 6327   1.936   4.734   4.140 -0.5056 -0.5971 -0.5099
   50DOPE  H12B 6328   2.075   4.648   4.071  1.0809  0.9700  2.1506
   50DOPE   C11 6329   2.018   4.574   4.270  0.2930  0.3371 -0.2489
   50DOPE  H11A 6330   2.083   4.656   4.308  1.4269 -0.3041 -0.7777
   50DOPE  H11B 6331   2.073   4.478   4.261  0.6402  0.1687  2.7173
   50DOPE     P 6332   1.880   4.530   4.496  0.6866 -0.2526 -0.2777
   50DOPE   O13 6333   1.895   4.387   4.520  0.6224 -0.0264 -0.5894
   50DOPE   O14 6334   1.756   4.604   4.535 -0.3005  0.0300 -0.3716
   50DOPE   O11 6335   2.007   4.593   4.568  0.3047  0.0041 -0.0263
   50DOPE   O12 6336   1.897   4.551   4.339  0.4181  0.4345  0.4984
   50DOPE    C1 6337   2.020   4.735   4.595 -0.2711 -0.2203 -0.4539
   50DOPE    HA 6338   1.927   4.785   4.560 -0.9266 -0.9898  0.1584
   50DOPE    HB 6339   2.110   4.775   4.543  0.7956 -0.9348  0.7920
   50DOPE    C2 6340   2.047   4.766   4.745  0.3812  0.3301  0.1194
   50DOPE    HS 6341   2.082   4.870   4.762  0.0275  0.3089  1.0759
   50DOPE   O21 6342   2.147   4.677   4.797  0.6901  0.0798 -0.2795
   50DOPE   C21 6343   2.275   4.709   4.801  0.4734  1.4897  0.1324
   50DOPE   O22 6344   2.333   4.792   4.740  0.2117 -0.7142  0.5035
   50DOPE   C22 6345   2.330   4.631   4.925  0.8456  0.5967  0.1844
   50DOPE   H2R 6346   2.432   4.662   4.956  0.5954 -0.5461  2.3084
   50DOPE   H2S 6347   2.347   4.534   4.874  0.1687  2.0908 -3.1670
   50DOPE    C3 6348   1.909   4.746   4.830  0.0642 -0.6460 -0.1623
   50DOPE    HX 6349   1.881   4.639   4.817  3.4165 -1.6018 -0.3915
   50DOPE    HY 6350   1.836   4.810   4.777 -0.8049 -0.5938  1.0514
   50DOPE   O31 6351   1.935   4.780   4.962 -0.0822  0.3045 -0.6695
   50DOPE   C31 6352   1.826   4.776   5.038  0.5059 -1.0173  0.1246
   50DOPE   O32 6353   1.714   4.795   4.993  0.0506  0.5032 -0.2771
   50DOPE   C32 6354   1.855   4.781   5.183 -0.1053  0.2401 -0.6205
   50DOPE   H2X 6355   1.762   4.740   5.227 -0.5081  0.9016 -0.8391
   50DOPE   H2Y 6356   1.928   4.699   5.202 -0.5149 -0.3208 -1.4114
   50DOPE   C23 6357   2.251   4.638   5.059  0.0018  0.2149 -0.0394
   50DOPE   H3R 6358   2.163   4.571   5.048 -0.7503  1.3280 -1.1261
   50DOPE   H3S 6359   2.201   4.737   5.067 -2.6196 -0.8622 -1.5805
   50DOPE   C24 6360   2.341   4.608   5.181 -0.1495 -0.1809  0.1875
   50DOPE   H4R 6361   2.425   4.680   5.186  2.7048 -3.3009  0.6781
   50DOPE   H4S 6362   2.396   4.511   5.175 -0.8246 -0.5921  0.5128
   50DOPE   C25 6363   2.260   4.615   5.309 -0.3812  0.5288 -0.3510
   50DOPE   H5R 6364   2.183   4.535   5.299 -1.5444  1.3485  1.5902
   50DOPE   H5S 6365   2.226   4.719   5.324  0.2120  0.4529  1.7559
   50DOPE   C26 6366   2.358   4.586   5.432 -0.0124  0.8858  0.6808
   50DOPE   H6R 6367   2.428   4.672   5.433 -1.9888  2.7135 -2.1709
   50DOPE   H6S 6368   2.414   4.491   5.414 -0.9990  0.3372  0.4649
   50DOPE   C27 6369   2.277   4.564   5.567  0.6188 -0.0673  0.3389
   50DOPE   H7R 6370   2.351   4.525   5.641  0.7851  0.0959  0.2617
   50DOPE   H7S 6371   2.207   4.483   5.538  0.5750  0.5513 -1.3523
   50DOPE   C28 6372   2.198   4.683   5.623 -0.1827  0.5497  0.2773
   50DOPE   H8R 6373   2.133   4.718   5.540 -1.3166 -0.5509  0.6640
   50DOPE   H8S 6374   2.271   4.763   5.647  0.3513  0.2351 -0.2639
   50DOPE   C29 6375   2.119   4.644   5.751 -0.3411 -0.1714  0.5613
   50DOPE   H9R 6376   2.030   4.586   5.723  1.3724 -1.9869 -1.5331
   50DOPE  C210 6377   2.146   4.678   5.876  0.5755  1.0057 -0.1903
   50DOPE  H10R 6378   2.091   4.633   5.960  0.1278  0.9891 -0.4919
   50DOPE  C211 6379   2.267   4.755   5.937  0.4400 -0.0845 -0.0479
   50DOPE  H11R 6380   2.269   4.862   5.906 -0.1313 -0.1069 -0.1779
   50DOPE  H11S 6381   2.362   4.711   5.901 -0.4189 -1.6677 -0.4585
   50DOPE  C212 6382   2.279   4.750   6.092  0.3998  0.9126  0.8642
   50DOPE  H12R 6383   2.265   4.652   6.142 -1.4122  0.8095  0.2229
   50DOPE  H12S 6384   2.191   4.812   6.117 -1.6343  0.4482 -4.0123
   50DOPE  C213 6385   2.412   4.816   6.124 -0.4021  0.0871 -1.2363
   50DOPE  H13R 6386   2.429   4.915   6.078 -0.4135  1.1230  0.8636
   50DOPE  H13S 6387   2.502   4.763   6.087 -0.1508 -1.7363  1.6973
   50DOPE  C214 6388   2.421   4.837   6.276  0.1865  0.1407 -0.0616
   50DOPE  H14R 6389   2.322   4.857   6.324  0.9816 -0.2585  1.8425
   50DOPE  H14S 6390   2.489   4.918   6.309 -0.5734  1.1909 -1.0231
   50DOPE  C215 6391   2.460   4.720   6.367  0.2771  0.1168  0.0603
   50DOPE  H15R 6392   2.539   4.669   6.307 -2.0594 -0.0219 -3.2373
   50DOPE  H15S 6393   2.382   4.640   6.370  1.1225 -0.8014 -1.2562
   50DOPE  C216 6394   2.502   4.745   6.513 -0.7567  0.0656  1.1502
   50DOPE  H16R 6395   2.415   4.774   6.575 -0.4492 -0.6919  1.9423
   50DOPE  H16S 6396   2.582   4.822   6.516  0.0712 -0.2186 -4.0082
   50DOPE  C217 6397   2.565   4.613   6.568 -0.0364 -0.0067  0.2126
   50DOPE  H17R 6398   2.647   4.590   6.496 -0.8074 -0.3570 -0.5653
   50DOPE  H17S 6399   2.498   4.525   6.568 -0.0109 -0.0285 -0.1547
   50DOPE  C218 6400   2.615   4.632   6.708 -0.1124 -0.2790 -0.1816
   50DOPE  H18R 6401   2.527   4.654   6.773  0.0570 -1.0123  0.3002
   50DOPE  H18S 6402   2.696   4.708   6.715  0.5307 -1.0029  0.3781
   50DOPE  H18T 6403   2.649   4.536   6.752  1.9758  1.1231  1.4583
   50DOPE   C33 6404   1.903   4.916   5.247 -0.5154  0.2132 -0.7531
   50DOPE   H3X 6405   1.856   5.015   5.225  0.5437  0.8499 -0.2652
   50DOPE   H3Y 6406   2.007   4.922   5.209  0.0352  0.0966  0.6862
   50DOPE   C34 6407   1.923   4.895   5.402  0.1853 -0.0911  0.0812
   50DOPE   H4X 6408   1.971   4.798   5.427  1.9953  0.5697 -0.6877
   50DOPE   H4Y 6409   1.991   4.976   5.436 -2.0896  2.0832 -0.2561
   50DOPE   C35 6410   1.797   4.903   5.484  0.4192 -0.2476  1.0216
   50DOPE   H5X 6411   1.720   4.829   5.455 -2.1856  1.8701  2.1179
   50DOPE   H5Y 6412   1.750   5.002   5.467  0.5704 -0.3648 -0.1338
   50DOPE   C36 6413   1.828   4.878   5.631 -0.3779  0.2437 -0.0457
   50DOPE   H6X 6414   1.879   4.965   5.677  1.3050  0.3660 -1.9901
   50DOPE   H6Y 6415   1.896   4.791   5.644 -0.7914  0.0730  1.0556
   50DOPE   C37 6416   1.699   4.848   5.713  0.4516 -0.2484  0.5714
   50DOPE   H7X 6417   1.646   4.944   5.731  1.0862 -0.3986  3.8061
   50DOPE   H7Y 6418   1.639   4.770   5.660 -2.3673  1.9069  0.3496
   50DOPE   C38 6419   1.725   4.794   5.854 -0.6150  0.1674 -0.4024
   50DOPE   H8X 6420   1.774   4.872   5.916  1.9815  0.4687 -2.6567
   50DOPE   H8Y 6421   1.812   4.726   5.842  0.8875  2.3132 -2.4710
   50DOPE   C39 6422   1.603   4.721   5.914 -0.6037  0.5495 -0.0435
   50DOPE   H9X 6423   1.564   4.633   5.860 -2.3374  0.0714  1.8817
   50DOPE  C310 6424   1.541   4.747   6.030 -0.2354 -0.3645 -0.0426
   50DOPE  H10X 6425   1.448   4.698   6.061  0.0441  0.0685  1.5987
   50DOPE  C311 6426   1.582   4.856   6.120 -0.3672  0.1581  0.3522
   50DOPE  H11X 6427   1.553   4.838   6.226 -1.3685  1.7723  0.3750
   50DOPE  H11Y 6428   1.691   4.860   6.138  0.1969 -1.1609 -2.2533
   50DOPE  C312 6429   1.533   4.990   6.061 -1.0085 -0.3145 -0.5009
   50DOPE  H12X 6430   1.426   4.982   6.032 -1.7207 -0.1298  1.8584
   50DOPE  H12Y 6431   1.586   5.002   5.964 -2.0399  0.5754 -0.9806
   50DOPE  C313 6432   1.565   5.107   6.150 -0.1766  0.1956  0.5814
   50DOPE  H13X 6433   1.503   5.093   6.241 -0.2204 -3.6130  0.1424
   50DOPE  H13Y 6434   1.668   5.094   6.188 -0.0397 -2.1026 -0.3934
   50DOPE  C314 6435   1.545   5.246   6.099 -0.3142 -0.3471 -0.1264
   50DOPE  H14X 6436   1.437   5.267   6.080 -0.3258 -1.4152 -1.3647
   50DOPE  H14Y 6437   1.589   5.237   5.997 -2.2343  0.9927 -1.1531
   50DOPE  C315 6438   1.604   5.352   6.190 -0.2037  0.3596  0.3746
   50DOPE  H15X 6439   1.705   5.320   6.223 -0.1218 -2.9636 -2.5194
   50DOPE  H15Y 6440   1.531   5.363   6.273  0.4701  0.7273  0.9245
   50DOPE  C316 6441   1.607   5.491   6.123  0.2391  0.3622  0.0796
   50DOPE  H16X 6442   1.509   5.538   6.101  1.3463  2.4819 -0.6579
   50DOPE  H16Y 6443   1.662   5.481   6.027  0.4961  2.3318 -0.0239
   50DOPE  C317 6444   1.687   5.590   6.201 -0.4054 -0.6047  0.1433
   50DOPE  H17X 6445   1.639   5.609   6.299 -2.4061  1.4075 -1.0938
   50DOPE  H17Y 6446   1.788   5.550   6.222 -0.4335 -0.6437  0.2016
   50DOPE  C318 6447   1.693   5.723   6.134 -0.1736  0.4064  0.8195
   50DOPE  H18X 6448   1.767   5.725   6.051 -1.1030 -1.6865 -0.1244
   50DOPE  H18Y 6449   1.595   5.757   6.094 -1.4381 -1.8000  1.8818
   50DOPE  H18Z 6450   1.735   5.802   6.200  0.4389  2.2373 -1.5883
   51DOPE     N 6451   3.275   1.112   3.632  0.2825  0.3044 -0.3782
   51DOPE   HN1 6452   3.270   1.126   3.529 -0.6337  0.1106 -0.3611
   51DOPE   HN2 6453   3.179   1.122   3.669  0.0262  1.5265 -1.2901
   51DOPE   HN3 6454   3.332   1.188   3.674  0.3015  0.1402 -0.1073
   51DOPE   C12 6455   3.320   0.972   3.676  0.6314  0.1111  0.3964
   51DOPE  H12A 6456   3.243   0.893   3.661 -1.4006  1.5928  2.2101
   51DOPE  H12B 6457   3.340   0.972   3.786  0.6877 -0.4951  0.3880
   51DOPE   C11 6458   3.453   0.932   3.614  0.4083 -0.0958 -0.7727
   51DOPE  H11A 6459   3.449   0.949   3.504  2.0958  0.3419 -0.7971
   51DOPE  H11B 6460   3.467   0.826   3.644 -1.0012  0.4394  2.0337
   51DOPE     P 6461   3.624   0.976   3.806  0.3029  0.1165 -0.4631
   51DOPE   O13 6462   3.771   0.985   3.803  0.3999  0.1559 -0.6367
   51DOPE   O14 6463   3.567   0.846   3.856  0.3096 -1.0049 -0.4597
   51DOPE   O11 6464   3.559   1.090   3.887 -0.0514 -0.8253  0.2415
   51DOPE   O12 6465   3.564   1.009   3.668  0.5532 -1.1530  0.2790
   51DOPE    C1 6466   3.633   1.210   3.917  0.5358  1.1445 -0.4816
   51DOPE    HA 6467   3.574   1.300   3.946  1.1513  1.5138 -0.3526
   51DOPE    HB 6468   3.704   1.237   3.836  0.5838  0.3968 -0.6900
   51DOPE    C2 6469   3.730   1.175   4.039 -0.1113  0.4367 -0.2075
   51DOPE    HS 6470   3.810   1.108   4.001 -1.5105 -1.4109 -0.0459
   51DOPE   O21 6471   3.639   1.114   4.136 -0.3818  0.0512 -0.2491
   51DOPE   C21 6472   3.698   1.031   4.228  0.5144 -0.0396 -0.0108
   51DOPE   O22 6473   3.819   0.994   4.229  0.5596 -0.2925  0.2370
   51DOPE   C22 6474   3.602   0.997   4.336 -0.3865 -0.2692  0.3211
   51DOPE   H2R 6475   3.568   0.893   4.315 -2.0865  0.6931 -2.0503
   51DOPE   H2S 6476   3.519   1.070   4.335  2.3940  3.4024  4.2549
   51DOPE    C3 6477   3.810   1.294   4.090  0.7007  0.0854 -0.0628
   51DOPE    HX 6478   3.742   1.372   4.131  0.5715  0.7337 -1.4628
   51DOPE    HY 6479   3.872   1.352   4.019 -0.9861  0.5557 -1.2128
   51DOPE   O31 6480   3.898   1.264   4.199 -0.5995  0.2055 -0.0404
   51DOPE   C31 6481   4.024   1.237   4.174  0.2580  0.3681  0.4804
   51DOPE   O32 6482   4.090   1.246   4.072 -0.4026 -0.1551 -0.0411
   51DOPE   C32 6483   4.088   1.178   4.300  0.4203 -0.4784  0.1977
   51DOPE   H2X 6484   4.048   1.074   4.302  0.2609 -0.5147 -2.3801
   51DOPE   H2Y 6485   4.198   1.175   4.286  0.2437 -1.0334 -1.1569
   51DOPE   C23 6486   3.668   0.985   4.481  0.0410 -0.7652 -0.1931
   51DOPE   H3R 6487   3.720   1.079   4.507  1.2020 -1.2424 -0.7162
   51DOPE   H3S 6488   3.752   0.913   4.489 -0.6658 -1.6501 -0.4449
   51DOPE   C24 6489   3.563   0.946   4.594 -0.6047 -0.2442  0.6330
   51DOPE   H4R 6490   3.518   0.853   4.555  0.5304 -0.1166 -1.0843
   51DOPE   H4S 6491   3.471   1.001   4.563 -0.8272 -0.8362  0.2196
   51DOPE   C25 6492   3.599   0.958   4.741  0.1744  0.1269  0.1203
   51DOPE   H5R 6493   3.520   0.983   4.815  1.9250  1.3908  1.6510
   51DOPE   H5S 6494   3.679   1.034   4.751 -1.3008  1.7121  0.2384
   51DOPE   C26 6495   3.658   0.818   4.782 -0.3134 -0.0931 -0.3740
   51DOPE   H6R 6496   3.700   0.845   4.881 -0.8056 -1.3832  0.2035
   51DOPE   H6S 6497   3.738   0.786   4.712  0.8188  0.7776  0.4730
   51DOPE   C27 6498   3.551   0.707   4.801 -0.7394  0.5119  0.5922
   51DOPE   H7R 6499   3.490   0.706   4.707  1.3583 -3.7873 -0.9817
   51DOPE   H7S 6500   3.482   0.731   4.884 -2.9528 -1.4258 -0.5359
   51DOPE   C28 6501   3.607   0.567   4.822  0.2288  0.3715 -0.4142
   51DOPE   H8R 6502   3.652   0.536   4.726 -0.8659  1.7660 -1.4310
   51DOPE   H8S 6503   3.517   0.504   4.840 -0.0306  1.3974  2.3778
   51DOPE   C29 6504   3.696   0.544   4.948  0.3745 -0.3382  0.6620
   51DOPE   H9R 6505   3.796   0.585   4.931 -0.8573  2.3962 -0.4894
   51DOPE  C210 6506   3.676   0.472   5.066 -0.0999 -0.8247  0.0420
   51DOPE  H10R 6507   3.749   0.477   5.148 -1.2829  1.3315  1.0597
   51DOPE  C211 6508   3.547   0.407   5.102 -0.2757  0.6412  0.2670
   51DOPE  H11R 6509   3.552   0.327   5.180 -1.8320 -0.8142 -1.0584
   51DOPE  H11S 6510   3.499   0.364   5.012  0.5606 -0.2288  0.2170
   51DOPE  C212 6511   3.434   0.500   5.158 -0.3515 -0.2166  0.3624
   51DOPE  H12R 6512   3.337   0.445   5.167  0.0518 -1.0069  0.0146
   51DOPE  H12S 6513   3.429   0.588   5.090 -0.6785 -1.7976 -1.7863
   51DOPE  C213 6514   3.465   0.546   5.305 -0.2980  0.5388  0.4421
   51DOPE  H13R 6515   3.384   0.622   5.319 -0.4452  0.6464 -0.9197
   51DOPE  H13S 6516   3.563   0.597   5.312 -1.6239  3.1633  1.2178
   51DOPE  C214 6517   3.459   0.433   5.407  0.1292 -0.1793 -0.3724
   51DOPE  H14R 6518   3.540   0.368   5.368  0.4833  1.1116 -1.8948
   51DOPE  H14S 6519   3.363   0.379   5.393 -0.2458  0.5617 -0.7014
   51DOPE  C215 6520   3.476   0.467   5.558 -0.4173 -0.4161 -0.2664
   51DOPE  H15R 6521   3.392   0.531   5.593 -0.4218  0.7891 -2.2786
   51DOPE  H15S 6522   3.573   0.521   5.564 -0.2390 -0.8535  1.2032
   51DOPE  C216 6523   3.478   0.335   5.638  0.3409 -0.0708  0.4310
   51DOPE  H16R 6524   3.573   0.291   5.601  0.7768 -0.1893  1.6363
   51DOPE  H16S 6525   3.397   0.270   5.598 -0.1154 -0.0849  1.3610
   51DOPE  C217 6526   3.464   0.358   5.781 -0.1401 -0.3341 -0.7776
   51DOPE  H17R 6527   3.461   0.257   5.827 -0.1023  0.1074  0.2058
   51DOPE  H17S 6528   3.370   0.413   5.802 -0.1751 -0.3700 -0.8404
   51DOPE  C218 6529   3.587   0.426   5.846 -0.4000  0.1375 -0.1760
   51DOPE  H18R 6530   3.604   0.527   5.803 -0.9827 -0.2646 -1.3842
   51DOPE  H18S 6531   3.677   0.361   5.839  0.6967  1.5454  0.3877
   51DOPE  H18T 6532   3.579   0.445   5.956  1.4170  0.1978 -0.0257
   51DOPE   C33 6533   4.058   1.251   4.428 -0.4772 -0.1148 -0.1915
   51DOPE   H3X 6534   3.949   1.272   4.434 -0.4909 -0.4011  0.8307
   51DOPE   H3Y 6535   4.098   1.354   4.440 -0.5473 -0.0631 -0.4086
   51DOPE   C34 6536   4.086   1.162   4.556 -0.5303 -0.1157  0.0914
   51DOPE   H4X 6537   4.038   1.063   4.541 -1.4431 -0.1686  2.7603
   51DOPE   H4Y 6538   4.197   1.153   4.565 -0.2724 -1.0005 -2.8126
   51DOPE   C35 6539   4.026   1.227   4.683 -0.3010 -0.1168 -0.6279
   51DOPE   H5X 6540   3.915   1.226   4.672 -0.4462  2.1002  0.0707
   51DOPE   H5Y 6541   4.061   1.333   4.679 -0.0305 -0.2100 -0.7421
   51DOPE   C36 6542   4.087   1.153   4.802  0.5506 -0.0183 -0.3108
   51DOPE   H6X 6543   4.197   1.163   4.814  0.4032 -0.5684  1.8385
   51DOPE   H6Y 6544   4.061   1.046   4.789  0.2176  0.1061 -0.6848
   51DOPE   C37 6545   4.019   1.200   4.937  0.1834 -0.3346 -0.2601
   51DOPE   H7X 6546   4.060   1.300   4.961  0.6568  0.5310 -4.0306
   51DOPE   H7Y 6547   3.910   1.214   4.919 -0.0590  1.3627  2.0481
   51DOPE   C38 6548   4.026   1.089   5.050 -0.2820 -0.2134 -0.1819
   51DOPE   H8X 6549   3.971   1.000   5.015  1.4690 -2.0439  1.4338
   51DOPE   H8Y 6550   3.974   1.130   5.139  0.8437 -0.2515  0.5194
   51DOPE   C39 6551   4.163   1.056   5.087  0.1864  0.0275 -0.8086
   51DOPE   H9X 6552   4.218   1.030   4.995  0.5590 -1.5002 -0.1837
   51DOPE  C310 6553   4.223   1.059   5.205  1.3518 -0.3428  0.1291
   51DOPE  H10X 6554   4.324   1.017   5.215  1.8838  1.0466  0.9914
   51DOPE  C311 6555   4.153   1.132   5.326 -0.3815 -0.1166  0.5076
   51DOPE  H11X 6556   4.142   1.242   5.317 -0.6650 -0.0872  1.1531
   51DOPE  H11Y 6557   4.057   1.084   5.353 -0.6146  1.4210  2.7669
   51DOPE  C312 6558   4.248   1.107   5.450  0.1924  0.1682 -0.3132
   51DOPE  H12X 6559   4.215   1.173   5.532  2.0271  0.8184 -0.0661
   51DOPE  H12Y 6560   4.354   1.130   5.424  0.1792 -0.4748 -0.9865
   51DOPE  C313 6561   4.251   0.960   5.487  0.3509 -0.1511  0.9464
   51DOPE  H13X 6562   4.148   0.920   5.493  1.7386 -4.5515 -0.6672
   51DOPE  H13Y 6563   4.298   0.901   5.406  2.0729  0.8272  1.1766
   51DOPE  C314 6564   4.319   0.935   5.618 -0.3053  0.2304 -0.2037
   51DOPE  H14X 6565   4.326   0.825   5.631 -0.5249  0.1776 -0.5392
   51DOPE  H14Y 6566   4.256   0.967   5.704  1.3539  0.7451  0.8659
   51DOPE  C315 6567   4.458   1.004   5.636  0.1879  0.3965 -0.4957
   51DOPE  H15X 6568   4.439   1.113   5.649 -0.7271  0.2099 -0.2322
   51DOPE  H15Y 6569   4.496   0.990   5.533  1.1547  3.9955 -0.7516
   51DOPE  C316 6570   4.544   0.940   5.751 -0.5111 -1.4335 -0.1143
   51DOPE  H16X 6571   4.554   0.831   5.732  0.7403 -1.1336 -1.3593
   51DOPE  H16Y 6572   4.488   0.956   5.845  1.1079 -1.2517  0.8591
   51DOPE  C317 6573   4.682   1.014   5.752 -0.4468  0.9509  1.3484
   51DOPE  H17X 6574   4.731   0.999   5.653 -0.7427 -1.1249  1.4746
   51DOPE  H17Y 6575   4.659   1.122   5.765  2.1241  1.6752  0.4918
   51DOPE  C318 6576   4.773   0.969   5.863 -0.2633  0.7550 -0.4321
   51DOPE  H18X 6577   4.865   1.030   5.851 -1.7806  3.3027  0.1552
   51DOPE  H18Y 6578   4.728   0.993   5.961  0.2609 -0.5260  0.1509
   51DOPE  H18Z 6579   4.795   0.860   5.854  2.0175  0.9080  1.8796
   52DOPE     N 6580   1.013   5.166   3.861 -0.2528 -0.0375  0.6670
   52DOPE   HN1 6581   1.110   5.132   3.875 -0.5949 -2.1294 -1.3861
   52DOPE   HN2 6582   0.952   5.090   3.823 -2.7668  0.9063  2.5657
   52DOPE   HN3 6583   1.016   5.254   3.805  0.9995  0.4707  1.4957
   52DOPE   C12 6584   0.950   5.187   3.998  0.5037  0.3007  0.2364
   52DOPE  H12A 6585   0.845   5.220   3.985 -0.6201 -3.0984 -0.3310
   52DOPE  H12B 6586   1.013   5.268   4.041 -0.6542  1.6503 -0.5350
   52DOPE   C11 6587   0.960   5.059   4.085  0.0828 -0.1602  0.3127
   52DOPE  H11A 6588   0.943   5.096   4.188  1.1542  1.7083 -0.1467
   52DOPE  H11B 6589   1.063   5.018   4.088  0.0165 -0.3721 -0.2749
   52DOPE     P 6590   0.803   4.867   4.131  0.1905  0.0086  0.2896
   52DOPE   O13 6591   0.894   4.801   4.219  0.0077 -0.1914  0.5000
   52DOPE   O14 6592   0.706   4.777   4.063 -0.3472  0.2844  0.0150
   52DOPE   O11 6593   0.719   4.965   4.217 -0.1827  0.2974 -0.2515
   52DOPE   O12 6594   0.869   4.964   4.026 -0.5524  0.0712  0.7816
   52DOPE    C1 6595   0.662   4.936   4.344  0.3812  0.4232  0.7049
   52DOPE    HA 6596   0.609   4.839   4.352  0.4820  0.4063  1.2252
   52DOPE    HB 6597   0.586   5.011   4.373  0.4272  0.4308  0.8089
   52DOPE    C2 6598   0.766   4.945   4.462 -0.3089  0.0402 -0.2646
   52DOPE    HS 6599   0.830   4.855   4.448 -0.8581 -0.1763 -1.6364
   52DOPE   O21 6600   0.696   4.952   4.594  0.2268  0.1089 -0.1886
   52DOPE   C21 6601   0.669   4.834   4.649  0.0648  0.7992 -0.2520
   52DOPE   O22 6602   0.702   4.722   4.610  0.2826  0.3968  0.4544
   52DOPE   C22 6603   0.608   4.860   4.781  0.1372  0.0617 -0.2840
   52DOPE   H2R 6604   0.566   4.762   4.810 -3.4149  1.0106 -1.7014
   52DOPE   H2S 6605   0.518   4.924   4.774 -0.4078 -0.4829  1.3179
   52DOPE    C3 6606   0.862   5.071   4.452 -0.7218  0.2946  0.0155
   52DOPE    HX 6607   0.806   5.148   4.395 -1.7261 -0.8651 -0.6354
   52DOPE    HY 6608   0.952   5.042   4.393 -0.3409 -1.2540  1.2956
   52DOPE   O31 6609   0.907   5.135   4.575 -0.4633 -0.0389 -0.2184
   52DOPE   C31 6610   0.990   5.063   4.642 -0.4196  0.2310 -0.2838
   52DOPE   O32 6611   1.023   4.949   4.611  0.1161 -0.3176  0.6198
   52DOPE   C32 6612   1.021   5.134   4.770 -0.0458 -0.0176 -0.0809
   52DOPE   H2X 6613   1.075   5.227   4.743  0.5137  0.2039  1.6342
   52DOPE   H2Y 6614   0.923   5.157   4.818  1.2027  2.7822  1.2905
   52DOPE   C23 6615   0.705   4.918   4.881  0.3646 -0.2353 -0.0917
   52DOPE   H3R 6616   0.747   5.013   4.842  0.4014  0.2883  1.1732
   52DOPE   H3S 6617   0.782   4.843   4.909 -1.3579 -2.1609 -0.2344
   52DOPE   C24 6618   0.632   4.963   5.020 -0.5710  0.0843 -0.0562
   52DOPE   H4R 6619   0.581   4.879   5.071 -0.2090 -1.1116 -1.5565
   52DOPE   H4S 6620   0.550   5.035   5.000 -0.5544 -0.1002 -0.8393
   52DOPE   C25 6621   0.735   5.014   5.121  0.3247 -0.6425 -0.1319
   52DOPE   H5R 6622   0.777   5.114   5.094 -1.0844  0.1936  0.6386
   52DOPE   H5S 6623   0.820   4.944   5.132  0.3241 -0.4159  1.4688
   52DOPE   C26 6624   0.660   5.034   5.252 -0.2138 -0.1396 -0.9531
   52DOPE   H6R 6625   0.623   4.933   5.277 -0.5700  0.3369  0.5968
   52DOPE   H6S 6626   0.572   5.101   5.240 -0.6632 -0.6723 -0.6842
   52DOPE   C27 6627   0.742   5.090   5.367 -0.2309 -0.5660  0.0147
   52DOPE   H7R 6628   0.766   5.196   5.345  1.9127 -1.0892 -0.3811
   52DOPE   H7S 6629   0.836   5.031   5.370  0.1247  0.0216  2.1871
   52DOPE   C28 6630   0.644   5.087   5.493 -0.4597  0.1334  0.4338
   52DOPE   H8R 6631   0.619   4.982   5.519  1.7309 -0.1568  1.6397
   52DOPE   H8S 6632   0.551   5.141   5.464 -0.9051 -0.7000  0.3013
   52DOPE   C29 6633   0.707   5.152   5.614 -0.1931 -0.1580  0.3729
   52DOPE   H9R 6634   0.761   5.074   5.669  2.3438 -0.9893 -2.9939
   52DOPE  C210 6635   0.697   5.279   5.658  0.4196  0.2292 -0.2180
   52DOPE  H10R 6636   0.760   5.312   5.742  0.5678  0.6307 -0.4839
   52DOPE  C211 6637   0.610   5.389   5.597 -0.2567  0.2607 -0.1394
   52DOPE  H11R 6638   0.580   5.375   5.491  1.8807 -0.6482 -0.6718
   52DOPE  H11S 6639   0.662   5.486   5.607 -0.4639  0.4545 -0.8473
   52DOPE  C212 6640   0.473   5.406   5.666 -0.1317  0.7712 -0.3036
   52DOPE  H12R 6641   0.403   5.323   5.641 -0.1548  0.2731  1.2793
   52DOPE  H12S 6642   0.431   5.503   5.633  0.0814  1.4096  1.2341
   52DOPE  C213 6643   0.474   5.398   5.820  0.0445 -1.0243  0.0885
   52DOPE  H13R 6644   0.506   5.297   5.854 -0.8506 -1.4093 -0.1861
   52DOPE  H13S 6645   0.372   5.415   5.858 -0.0480  0.6103 -0.8023
   52DOPE  C214 6646   0.550   5.508   5.896 -0.9505 -0.8852 -0.0921
   52DOPE  H14R 6647   0.507   5.610   5.891  4.4752  1.8299  0.9826
   52DOPE  H14S 6648   0.652   5.514   5.854  0.0195 -2.7018  1.7834
   52DOPE  C215 6649   0.561   5.479   6.050  0.5357 -0.0659  0.3232
   52DOPE  H15R 6650   0.620   5.553   6.108  1.4740 -0.2625 -0.3593
   52DOPE  H15S 6651   0.616   5.383   6.050  1.2425  0.2691 -1.9443
   52DOPE  C216 6652   0.426   5.475   6.119  0.0480 -0.2278  0.8354
   52DOPE  H16R 6653   0.355   5.403   6.075  2.5332 -2.0018 -0.5050
   52DOPE  H16S 6654   0.382   5.577   6.124  0.9054  0.2422 -0.5845
   52DOPE  C217 6655   0.435   5.426   6.268  0.5199 -0.7567 -0.4180
   52DOPE  H17R 6656   0.494   5.494   6.332  0.1643  0.2450 -1.1191
   52DOPE  H17S 6657   0.484   5.326   6.276  2.3097  0.0713 -0.6154
   52DOPE  C218 6658   0.296   5.414   6.335  0.5300 -0.4424 -0.2177
   52DOPE  H18R 6659   0.242   5.512   6.331  1.2962  0.1401  2.3929
   52DOPE  H18S 6660   0.231   5.342   6.281  0.2263 -0.1433 -0.2563
   52DOPE  H18T 6661   0.302   5.373   6.438  1.2780  1.8410  0.7096
   52DOPE   C33 6662   1.112   5.059   4.868 -0.6914  0.0973 -0.0708
   52DOPE   H3X 6663   1.212   5.079   4.825 -0.9497 -0.3070 -0.8651
   52DOPE   H3Y 6664   1.104   4.948   4.858  1.3887 -0.0609 -0.3921
   52DOPE   C34 6665   1.102   5.106   5.015 -0.1375  0.0219  0.4962
   52DOPE   H4X 6666   1.127   5.214   5.028  0.4274  0.4259 -2.9262
   52DOPE   H4Y 6667   1.000   5.084   5.053  0.2257  0.1241  1.5505
   52DOPE   C35 6668   1.200   5.023   5.101 -0.4722  0.1677 -0.5198
   52DOPE   H5X 6669   1.305   5.055   5.081 -0.4520  1.2949  1.1742
   52DOPE   H5Y 6670   1.181   4.914   5.090 -0.2431  0.2074 -1.4189
   52DOPE   C36 6671   1.160   5.052   5.247  0.2152 -0.1405  0.2337
   52DOPE   H6X 6672   1.051   5.034   5.254  0.1623  0.3455  0.7531
   52DOPE   H6Y 6673   1.174   5.162   5.256 -1.4900  0.1662 -0.4674
   52DOPE   C37 6674   1.238   4.971   5.356  0.1290  0.4050 -0.1220
   52DOPE   H7X 6675   1.242   4.864   5.325  0.1155 -0.3746  2.3390
   52DOPE   H7Y 6676   1.341   5.011   5.351 -0.0747  0.8106 -1.8732
   52DOPE   C38 6677   1.178   4.972   5.494  0.2565  0.3368  0.2261
   52DOPE   H8X 6678   1.090   4.904   5.495 -0.1578  0.8686  1.1037
   52DOPE   H8Y 6679   1.138   5.072   5.522  1.8629  0.8244  0.9341
   52DOPE   C39 6680   1.282   4.927   5.596  0.0153  0.1118  0.2507
   52DOPE   H9X 6681   1.377   4.978   5.578 -0.6380  1.5348  0.6727
   52DOPE  C310 6682   1.269   4.847   5.699 -0.1842 -0.4268  0.4372
   52DOPE  H10X 6683   1.356   4.810   5.753  0.1744  0.0104  0.1688
   52DOPE  C311 6684   1.143   4.775   5.742  0.0573  0.3389  0.3066
   52DOPE  H11X 6685   1.066   4.763   5.663  2.0475  0.2558 -1.7463
   52DOPE  H11Y 6686   1.174   4.670   5.764 -1.4345  0.1785  1.8648
   52DOPE  C312 6687   1.071   4.822   5.869  0.1153  0.3680  0.0730
   52DOPE  H12X 6688   1.041   4.928   5.854  1.0352  0.6232 -0.0323
   52DOPE  H12Y 6689   1.147   4.819   5.951  0.3611 -0.0292 -0.1667
   52DOPE  C313 6690   0.945   4.733   5.887  0.7783 -0.1463 -0.9138
   52DOPE  H13X 6691   0.882   4.775   5.968 -0.3912 -0.4200 -1.6626
   52DOPE  H13Y 6692   0.877   4.721   5.800 -0.1279 -2.5681  0.0229
   52DOPE  C314 6693   0.959   4.586   5.930 -0.1483 -0.2645 -0.4774
   52DOPE  H14X 6694   1.040   4.591   6.006 -1.3817  0.3061  0.8610
   52DOPE  H14Y 6695   0.996   4.532   5.841  0.8453  2.8126 -2.0864
   52DOPE  C315 6696   0.832   4.516   5.984  0.4803  0.4349 -0.2417
   52DOPE  H15X 6697   0.850   4.407   5.971 -3.2019 -0.2137 -0.9741
   52DOPE  H15Y 6698   0.738   4.531   5.926  0.6978 -1.4394 -1.1675
   52DOPE  C316 6699   0.796   4.552   6.137  0.0359  0.5570 -0.3527
   52DOPE  H16X 6700   0.698   4.520   6.179  0.7988  0.7531  1.6707
   52DOPE  H16Y 6701   0.794   4.661   6.158 -2.9434  0.5576 -0.1078
   52DOPE  C317 6702   0.899   4.491   6.232  0.4280 -0.2081  0.1319
   52DOPE  H17X 6703   0.907   4.380   6.228 -0.1525 -0.2332 -0.5588
   52DOPE  H17Y 6704   0.993   4.547   6.215 -0.3865  1.0087 -0.4993
   52DOPE  C318 6705   0.860   4.524   6.378 -0.2885 -0.7363  0.4475
   52DOPE  H18X 6706   0.817   4.626   6.387 -1.6487 -1.2613  0.1488
   52DOPE  H18Y 6707   0.785   4.447   6.406 -1.1170 -0.8891 -1.9946
   52DOPE  H18Z 6708   0.940   4.522   6.455 -2.5965 -1.7626  2.9931
   53DOPE     N 6709   5.467   1.239   3.033 -0.1611 -0.6624  0.0006
   53DOPE   HN1 6710   5.494   1.321   3.091 -0.2462 -2.7074  3.1828
   53DOPE   HN2 6711   5.553   1.183   3.020  0.5189  0.4243 -0.3959
   53DOPE   HN3 6712   5.440   1.278   2.940  0.3843  1.8244  0.8083
   53DOPE   C12 6713   5.356   1.165   3.106  0.1554  0.6958  0.2764
   53DOPE  H12A 6714   5.346   1.062   3.066  0.7436  0.9974 -0.6751
   53DOPE  H12B 6715   5.260   1.219   3.091 -2.0864 -2.4281  2.1892
   53DOPE   C11 6716   5.389   1.166   3.252 -0.2255  0.6487  0.2354
   53DOPE  H11A 6717   5.475   1.097   3.254  0.1596  1.1224  0.2307
   53DOPE  H11B 6718   5.310   1.116   3.313  0.0555 -0.1392 -0.0389
   53DOPE     P 6719   5.512   1.344   3.409 -0.1123  0.3179  0.3374
   53DOPE   O13 6720   5.611   1.442   3.358 -0.6391  0.0158 -0.5117
   53DOPE   O14 6721   5.573   1.225   3.473 -0.2513 -0.0455  0.3489
   53DOPE   O11 6722   5.422   1.413   3.514  0.5154 -0.2424  0.1126
   53DOPE   O12 6723   5.409   1.306   3.293  0.0343  0.3202  0.1476
   53DOPE    C1 6724   5.296   1.351   3.551  0.4292 -0.0872 -0.3577
   53DOPE    HA 6725   5.302   1.240   3.539 -0.1240 -0.0300 -1.2901
   53DOPE    HB 6726   5.214   1.393   3.488  2.6570  1.8226 -2.1353
   53DOPE    C2 6727   5.255   1.379   3.695 -0.1762 -0.6101 -0.4085
   53DOPE    HS 6728   5.254   1.490   3.706  1.5370 -0.4757 -1.3444
   53DOPE   O21 6729   5.346   1.306   3.781  0.4280  0.5883 -0.3676
   53DOPE   C21 6730   5.417   1.387   3.866  0.1351  0.0358  0.1139
   53DOPE   O22 6731   5.412   1.509   3.871 -0.7311 -0.2372  0.1674
   53DOPE   C22 6732   5.500   1.289   3.948 -0.3753  0.9057 -0.5522
   53DOPE   H2R 6733   5.567   1.233   3.879  1.9215  0.6955  1.7302
   53DOPE   H2S 6734   5.433   1.217   4.000  1.2709 -1.5062 -1.5922
   53DOPE    C3 6735   5.109   1.326   3.724 -0.0608 -0.3905 -0.0623
   53DOPE    HX 6736   5.101   1.225   3.680  0.7992 -0.6046  0.2388
   53DOPE    HY 6737   5.043   1.398   3.671 -0.1763 -1.9337 -2.1302
   53DOPE   O31 6738   5.091   1.320   3.869 -0.2627  0.1655  0.0529
   53DOPE   C31 6739   5.076   1.435   3.931  0.1451  0.0877 -1.1270
   53DOPE   O32 6740   5.059   1.544   3.878  0.7399 -0.1061  0.1645
   53DOPE   C32 6741   5.067   1.411   4.078  0.2051  0.1591  0.4399
   53DOPE   H2X 6742   4.997   1.325   4.085  0.8215 -0.4819 -0.8717
   53DOPE   H2Y 6743   5.163   1.384   4.127 -0.3372  2.0467  2.7277
   53DOPE   C23 6744   5.581   1.357   4.056 -0.7606 -0.1871 -0.5785
   53DOPE   H3R 6745   5.641   1.438   4.009  0.8995 -0.7518  0.4880
   53DOPE   H3S 6746   5.655   1.282   4.093 -1.8426 -1.2433 -0.4675
   53DOPE   C24 6747   5.508   1.403   4.181 -0.5685 -0.2707 -0.0992
   53DOPE   H4R 6748   5.433   1.483   4.164  1.1703  1.3852 -0.3349
   53DOPE   H4S 6749   5.592   1.446   4.241  0.8112 -1.0414 -1.4149
   53DOPE   C25 6750   5.434   1.297   4.256  0.2129 -0.2435 -0.0620
   53DOPE   H5R 6751   5.381   1.236   4.180  0.2017  0.8294 -0.9245
   53DOPE   H5S 6752   5.358   1.339   4.326  1.2154 -0.5021  1.2175
   53DOPE   C26 6753   5.519   1.191   4.318  0.1348 -0.1467 -0.3238
   53DOPE   H6R 6754   5.612   1.228   4.367 -2.0121 -0.0741  4.1871
   53DOPE   H6S 6755   5.561   1.132   4.235 -0.0833 -0.4174 -0.2448
   53DOPE   C27 6756   5.444   1.096   4.407  0.3764 -0.5049  0.0045
   53DOPE   H7R 6757   5.391   1.033   4.333  0.9954  0.5036 -1.3294
   53DOPE   H7S 6758   5.365   1.147   4.467  0.3527  0.7557 -1.0497
   53DOPE   C28 6759   5.534   1.020   4.505 -0.2574 -0.2030 -0.6854
   53DOPE   H8R 6760   5.589   1.101   4.557 -1.8279  0.3349  0.2216
   53DOPE   H8S 6761   5.609   0.967   4.443  0.4322 -1.6903  1.3000
   53DOPE   C29 6762   5.463   0.932   4.600 -0.4511 -0.0048 -0.4369
   53DOPE   H9R 6763   5.391   0.860   4.558  0.7695 -1.0422 -0.8190
   53DOPE  C210 6764   5.495   0.926   4.735 -0.3528  0.0637 -0.1572
   53DOPE  H10R 6765   5.457   0.838   4.791  1.3834  0.2200  1.3910
   53DOPE  C211 6766   5.604   1.001   4.815  0.4084  0.4365 -0.1464
   53DOPE  H11R 6767   5.632   1.093   4.760  0.5571  0.1267 -0.5942
   53DOPE  H11S 6768   5.697   0.942   4.803  0.5937  0.1407  2.2560
   53DOPE  C212 6769   5.570   1.033   4.963 -0.4399 -0.0952 -0.5668
   53DOPE  H12R 6770   5.476   1.091   4.969 -0.5787 -0.4681  1.1547
   53DOPE  H12S 6771   5.647   1.107   4.994 -0.0860  0.4785 -2.6146
   53DOPE  C213 6772   5.569   0.909   5.054 -0.4867  0.6845 -0.3134
   53DOPE  H13R 6773   5.665   0.856   5.037 -0.8506 -0.3559  0.7095
   53DOPE  H13S 6774   5.473   0.859   5.030 -1.5223  0.9026  2.9129
   53DOPE  C214 6775   5.551   0.949   5.199 -0.6538 -0.3062 -0.7656
   53DOPE  H14R 6776   5.459   1.010   5.213  0.0989  0.4928  0.9975
   53DOPE  H14S 6777   5.637   1.010   5.235 -1.4465 -0.1258  0.9431
   53DOPE  C215 6778   5.545   0.829   5.294 -0.7544 -1.0379  1.2577
   53DOPE  H15R 6779   5.644   0.779   5.283  0.3777  1.2423  0.5047
   53DOPE  H15S 6780   5.473   0.767   5.236  1.3868  0.1186 -3.0795
   53DOPE  C216 6781   5.511   0.862   5.439 -0.2280  0.3386  0.2496
   53DOPE  H16R 6782   5.472   0.770   5.487  0.7263 -0.2760 -0.1303
   53DOPE  H16S 6783   5.425   0.932   5.432 -0.9498 -0.2077  2.7536
   53DOPE  C217 6784   5.629   0.918   5.515  0.1256 -0.1889  0.0500
   53DOPE  H17R 6785   5.583   0.985   5.590 -2.5102 -1.0072 -0.7476
   53DOPE  H17S 6786   5.704   0.975   5.455  0.0420 -1.3761 -1.2560
   53DOPE  C218 6787   5.696   0.804   5.594  0.8518 -0.2821 -0.9235
   53DOPE  H18R 6788   5.632   0.753   5.669 -0.0112  3.2061  0.8808
   53DOPE  H18S 6789   5.787   0.846   5.641  0.8591  1.0524 -2.0548
   53DOPE  H18T 6790   5.727   0.724   5.522 -0.4917 -2.6129  0.9414
   53DOPE   C33 6791   5.020   1.527   4.166  0.3580 -0.2933 -0.3700
   53DOPE   H3X 6792   4.914   1.549   4.142  1.6312  3.5660 -3.6832
   53DOPE   H3Y 6793   5.080   1.617   4.142  1.6621 -1.4967 -1.9112
   53DOPE   C34 6794   5.035   1.504   4.318 -0.3827 -0.4109  0.7084
   53DOPE   H4X 6795   4.970   1.416   4.338 -1.1355  0.2882  1.4166
   53DOPE   H4Y 6796   5.134   1.456   4.337 -0.4440 -2.2782 -2.8032
   53DOPE   C35 6797   4.994   1.617   4.408 -0.1203 -0.3546 -0.1264
   53DOPE   H5X 6798   4.935   1.686   4.344 -1.1267  1.4838  2.5744
   53DOPE   H5Y 6799   5.083   1.663   4.456  0.0794 -0.8238 -0.0415
   53DOPE   C36 6800   4.902   1.567   4.518  0.1256  0.1073 -0.4906
   53DOPE   H6X 6801   4.838   1.489   4.470 -0.9652  0.7367 -0.0855
   53DOPE   H6Y 6802   4.840   1.655   4.545  1.1869  0.8494 -0.4202
   53DOPE   C37 6803   4.984   1.533   4.649 -0.2681 -0.1369  0.3764
   53DOPE   H7X 6804   5.061   1.460   4.614 -0.2013 -0.4254  1.1145
   53DOPE   H7Y 6805   5.033   1.626   4.686  1.4172 -1.7523  2.4415
   53DOPE   C38 6806   4.911   1.454   4.763  1.2693  0.5481  0.1246
   53DOPE   H8X 6807   4.987   1.425   4.839 -1.7597 -1.1852  2.7256
   53DOPE   H8Y 6808   4.862   1.363   4.721  0.3732  0.9675  0.2360
   53DOPE   C39 6809   4.800   1.547   4.818 -0.0230 -0.2176  1.1403
   53DOPE   H9X 6810   4.705   1.553   4.763  0.6796  2.1006  0.0544
   53DOPE  C310 6811   4.804   1.625   4.922 -0.4617 -0.6276 -0.2647
   53DOPE  H10X 6812   4.714   1.659   4.974  0.2361  2.5916 -0.9064
   53DOPE  C311 6813   4.931   1.649   5.008  0.0838 -0.2416 -0.4092
   53DOPE  H11X 6814   5.025   1.648   4.948  1.4831 -0.9564  1.7206
   53DOPE  H11Y 6815   4.928   1.753   5.048 -1.7924 -0.1076 -0.7584
   53DOPE  C312 6816   4.949   1.566   5.134 -0.7904 -0.7735 -0.0744
   53DOPE  H12X 6817   5.049   1.584   5.179 -0.1272 -2.1004 -0.9404
   53DOPE  H12Y 6818   4.942   1.459   5.106  0.8369 -0.6257 -1.1707
   53DOPE  C313 6819   4.840   1.598   5.241 -0.0644  0.2429 -0.0425
   53DOPE  H13X 6820   4.848   1.702   5.277 -0.8573  0.4574 -0.4580
   53DOPE  H13Y 6821   4.736   1.583   5.204 -0.3253  1.0878  0.3300
   53DOPE  C314 6822   4.849   1.516   5.379 -0.1232 -0.0592  0.5761
   53DOPE  H14X 6823   4.953   1.528   5.413 -0.5476  1.0787  1.5379
   53DOPE  H14Y 6824   4.837   1.408   5.353 -0.5131  0.2690 -0.7159
   53DOPE  C315 6825   4.762   1.574   5.486  0.5357  0.1311  0.3407
   53DOPE  H15X 6826   4.659   1.568   5.444  0.6770 -0.5334  0.0797
   53DOPE  H15Y 6827   4.777   1.684   5.491  0.2309  0.2056 -0.2792
   53DOPE  C316 6828   4.767   1.504   5.617 -0.0661 -0.2205 -0.1699
   53DOPE  H16X 6829   4.868   1.495   5.663 -0.5684 -0.8625  0.8381
   53DOPE  H16Y 6830   4.724   1.401   5.611  1.2114 -0.7958  0.1038
   53DOPE  C317 6831   4.682   1.589   5.712  0.0584  0.4384 -0.8325
   53DOPE  H17X 6832   4.712   1.696   5.708 -2.8999  1.4279  0.4300
   53DOPE  H17Y 6833   4.576   1.587   5.680 -0.2140 -0.2832  0.0768
   53DOPE  C318 6834   4.679   1.549   5.858 -0.2660  0.4858 -0.4367
   53DOPE  H18X 6835   4.780   1.577   5.896  0.0911  0.0424 -1.0268
   53DOPE  H18Y 6836   4.605   1.610   5.912 -0.8126 -1.8147  1.6145
   53DOPE  H18Z 6837   4.649   1.444   5.877  1.5653 -0.2345 -1.2014
   54DOPE     N 6838   0.477   3.871   5.175 -0.2190  0.9761  0.1083
   54DOPE   HN1 6839   0.541   3.791   5.157 -0.5552  0.7314 -0.0058
   54DOPE   HN2 6840   0.391   3.841   5.225 -0.6332  0.4068 -0.9061
   54DOPE   HN3 6841   0.446   3.909   5.083 -0.7799 -0.5296 -0.3572
   54DOPE   C12 6842   0.547   3.986   5.252 -0.1267  0.3412  0.7761
   54DOPE  H12A 6843   0.468   4.055   5.289 -0.9043 -1.0408  1.7646
   54DOPE  H12B 6844   0.611   4.034   5.175  0.9810 -2.8346 -0.4403
   54DOPE   C11 6845   0.630   3.945   5.368 -0.5145 -0.0142  0.3817
   54DOPE  H11A 6846   0.716   3.877   5.349  0.4180  1.3435 -0.3597
   54DOPE  H11B 6847   0.561   3.902   5.444  1.1435 -0.5119  1.6682
   54DOPE     P 6848   0.839   4.105   5.440  0.3859  0.6022 -0.0954
   54DOPE   O13 6849   0.853   4.215   5.536 -0.3394  0.4227 -0.1645
   54DOPE   O14 6850   0.889   4.116   5.302  0.7541  0.0226  0.3975
   54DOPE   O11 6851   0.904   3.974   5.507  0.0042  0.2629 -0.0704
   54DOPE   O12 6852   0.687   4.061   5.425  0.0732 -0.1976 -0.0346
   54DOPE    C1 6853   0.847   3.928   5.627  0.3718 -0.2672  0.0915
   54DOPE    HA 6854   0.738   3.917   5.608 -0.2561  3.2619  0.9206
   54DOPE    HB 6855   0.852   4.005   5.707 -1.3702  0.1469 -0.1460
   54DOPE    C2 6856   0.912   3.794   5.675 -0.1679 -0.1027 -0.2211
   54DOPE    HS 6857   0.886   3.787   5.783  0.9012  2.3219  0.2633
   54DOPE   O21 6858   1.054   3.810   5.664 -0.4593 -0.0694  0.2887
   54DOPE   C21 6859   1.111   3.903   5.736 -0.2520  0.0880 -0.2145
   54DOPE   O22 6860   1.061   3.986   5.815 -0.0717  0.5433  0.5048
   54DOPE   C22 6861   1.260   3.892   5.727  0.0376 -0.3503  0.3272
   54DOPE   H2R 6862   1.314   3.972   5.673  0.2244  0.6336  1.9048
   54DOPE   H2S 6863   1.279   3.797   5.672  0.8478 -0.0476  0.0743
   54DOPE    C3 6864   0.870   3.663   5.613  0.6294 -0.4291  0.3905
   54DOPE    HX 6865   0.935   3.575   5.634  0.1097 -0.6292  1.2098
   54DOPE    HY 6866   0.897   3.674   5.506  0.7227  1.9286  0.5956
   54DOPE   O31 6867   0.721   3.640   5.623 -0.8518 -0.1910  0.0517
   54DOPE   C31 6868   0.694   3.586   5.738  0.2519 -0.2103 -0.3050
   54DOPE   O32 6869   0.773   3.566   5.831  0.5497 -0.0020  0.3325
   54DOPE   C32 6870   0.548   3.548   5.733  0.0008 -0.4033 -0.6613
   54DOPE   H2X 6871   0.508   3.621   5.660 -0.4724  1.5311  1.4450
   54DOPE   H2Y 6872   0.540   3.438   5.713 -1.8214 -0.5564  0.6467
   54DOPE   C23 6873   1.323   3.874   5.868 -0.6930  0.0065 -0.7160
   54DOPE   H3R 6874   1.295   3.784   5.927  0.6340  1.4939  2.3876
   54DOPE   H3S 6875   1.292   3.966   5.922  1.5556  1.2918 -1.4841
   54DOPE   C24 6876   1.478   3.886   5.869  0.9165  0.1857  0.0843
   54DOPE   H4R 6877   1.506   3.994   5.863  1.9716 -0.1094 -0.4198
   54DOPE   H4S 6878   1.514   3.826   5.783  0.1160 -1.9157  1.1447
   54DOPE   C25 6879   1.548   3.829   5.990 -0.3737  0.0490  0.0152
   54DOPE   H5R 6880   1.657   3.852   5.987  0.0195 -1.7969 -1.6819
   54DOPE   H5S 6881   1.537   3.719   5.992  0.4503 -0.0449 -0.2086
   54DOPE   C26 6882   1.486   3.883   6.119  0.0612 -0.6018  0.1410
   54DOPE   H6R 6883   1.378   3.859   6.117  0.4445 -2.7434  1.3463
   54DOPE   H6S 6884   1.493   3.993   6.114 -0.4381 -0.6252 -3.0666
   54DOPE   C27 6885   1.551   3.829   6.250 -0.5213 -0.0995 -0.9222
   54DOPE   H7R 6886   1.660   3.848   6.247  0.2563 -3.8723 -2.0954
   54DOPE   H7S 6887   1.546   3.718   6.245 -1.7392 -0.1504  0.5775
   54DOPE   C28 6888   1.488   3.878   6.382  0.0983  0.1998 -0.8395
   54DOPE   H8R 6889   1.517   3.807   6.463 -0.0719  1.9701  0.8267
   54DOPE   H8S 6890   1.379   3.858   6.374 -0.1849  1.1086  0.4465
   54DOPE   C29 6891   1.517   4.019   6.427  0.6862 -0.0618  0.4514
   54DOPE   H9R 6892   1.508   4.094   6.347 -0.7596 -0.7506 -0.0647
   54DOPE  C210 6893   1.552   4.067   6.548  0.4279 -0.4396 -0.0311
   54DOPE  H10R 6894   1.576   4.174   6.563  0.6264 -0.4627 -0.1873
   54DOPE  C211 6895   1.576   3.977   6.669 -0.3673  0.2836  0.0710
   54DOPE  H11R 6896   1.667   3.918   6.646 -1.0594 -0.9440  0.3801
   54DOPE  H11S 6897   1.502   3.896   6.685 -0.6042  0.5384  0.2714
   54DOPE  C212 6898   1.604   4.050   6.800  0.0963  0.0261 -0.4825
   54DOPE  H12R 6899   1.508   4.085   6.843 -0.5009 -3.1863  1.0390
   54DOPE  H12S 6900   1.674   4.136   6.788  1.2280 -0.5548  1.4313
   54DOPE  C213 6901   1.660   3.964   6.914 -0.4602  0.9444 -0.2658
   54DOPE  H13R 6902   1.750   3.916   6.870 -0.7429 -0.3367  0.4982
   54DOPE  H13S 6903   1.589   3.885   6.946 -0.2500  0.3768 -1.1859
   54DOPE  C214 6904   1.701   4.042   7.033  0.0180 -0.3071  0.6129
   54DOPE  H14R 6905   1.732   4.141   6.994  0.6411 -0.2866  1.1389
   54DOPE  H14S 6906   1.794   4.017   7.088  0.1800  0.7168  0.8314
   54DOPE  C215 6907   1.590   4.063   7.137  0.4838  0.0762 -0.5387
   54DOPE  H15R 6908   1.553   3.968   7.182  1.6477  0.0956  0.5078
   54DOPE  H15S 6909   1.503   4.112   7.089  0.4729  0.7046  0.1133
   54DOPE  C216 6910   1.632   4.147   7.266  0.8508 -0.4953 -0.0789
   54DOPE  H16R 6911   1.689   4.235   7.227  0.8906 -1.4498 -2.3206
   54DOPE  H16S 6912   1.681   4.082   7.341  1.9460  0.3705  0.0019
   54DOPE  C217 6913   1.509   4.217   7.337  0.2612  0.5218 -0.2509
   54DOPE  H17R 6914   1.450   4.265   7.255  1.4033  0.4166 -1.1637
   54DOPE  H17S 6915   1.550   4.296   7.403 -1.8569  1.4342  0.0488
   54DOPE  C218 6916   1.433   4.125   7.430 -0.7191 -0.1884 -0.4625
   54DOPE  H18R 6917   1.507   4.076   7.496 -2.1223 -0.8702  0.6757
   54DOPE  H18S 6918   1.388   4.047   7.365  0.7527 -2.0016  0.6060
   54DOPE  H18T 6919   1.345   4.167   7.483 -1.5885  0.3085 -2.2042
   54DOPE   C33 6920   0.468   3.552   5.866 -0.0712 -0.3589  0.5316
   54DOPE   H3X 6921   0.481   3.643   5.929 -0.3643 -0.3437  0.5704
   54DOPE   H3Y 6922   0.493   3.463   5.928 -0.7257  0.3523  1.8673
   54DOPE   C34 6923   0.316   3.546   5.852  0.2295 -0.1451 -0.2752
   54DOPE   H4X 6924   0.299   3.468   5.776  0.4280  1.5651 -2.1603
   54DOPE   H4Y 6925   0.269   3.509   5.946 -1.4546  1.2461 -0.5280
   54DOPE   C35 6926   0.251   3.672   5.812 -0.2641 -0.1436  0.3165
   54DOPE   H5X 6927   0.147   3.637   5.794 -0.9137  1.0459  1.5630
   54DOPE   H5Y 6928   0.295   3.717   5.721 -0.1508  0.5847  0.7240
   54DOPE   C36 6929   0.254   3.779   5.926 -0.1521 -0.0491 -0.5901
   54DOPE   H6X 6930   0.352   3.831   5.931 -1.0008  1.8810 -2.6899
   54DOPE   H6Y 6931   0.242   3.728   6.024  2.2381  2.0834  0.9400
   54DOPE   C37 6932   0.158   3.901   5.905  0.7416 -0.0563 -0.5327
   54DOPE   H7X 6933   0.202   3.982   5.967  0.4126 -0.4755  0.2683
   54DOPE   H7Y 6934   0.154   3.925   5.797  0.5037  1.2792 -0.2523
   54DOPE   C38 6935   0.007   3.893   5.962 -0.5981 -0.2789 -0.6567
   54DOPE   H8X 6936  -0.039   3.991   5.938  2.4247  1.1053 -1.3252
   54DOPE   H8Y 6937   0.023   3.889   6.072 -0.6559  2.1264 -0.5181
   54DOPE   C39 6938  -0.077   3.777   5.907  0.1172  0.1910  0.1500
   54DOPE   H9X 6939  -0.088   3.779   5.797  3.6501 -2.5541 -0.4432
   54DOPE  C310 6940  -0.136   3.679   5.968  0.6710 -0.3112 -0.0997
   54DOPE  H10X 6941  -0.192   3.610   5.903  1.1136  1.2032 -2.2049
   54DOPE  C311 6942  -0.135   3.638   6.111  1.0350  0.1101 -0.3636
   54DOPE  H11X 6943  -0.114   3.730   6.170  0.1518 -0.8367  1.5075
   54DOPE  H11Y 6944  -0.234   3.603   6.150  1.1498  0.8050  0.5993
   54DOPE  C312 6945  -0.027   3.533   6.144 -0.0248 -0.6635  0.1011
   54DOPE  H12X 6946  -0.011   3.538   6.253 -2.6607 -0.6983  0.5455
   54DOPE  H12Y 6947   0.061   3.579   6.095  0.2993  1.0829  2.1915
   54DOPE  C313 6948  -0.059   3.394   6.090 -0.6283 -0.2046  0.2178
   54DOPE  H13X 6949  -0.165   3.383   6.121  0.1096  2.7153  4.8360
   54DOPE  H13Y 6950  -0.047   3.391   5.980 -1.7796 -0.7401  0.0936
   54DOPE  C314 6951   0.005   3.280   6.168  0.2620 -0.0764 -0.0545
   54DOPE  H14X 6952  -0.037   3.185   6.130  0.9362 -0.4335  0.0607
   54DOPE  H14Y 6953  -0.011   3.299   6.277  1.5229  2.2246 -0.2157
   54DOPE  C315 6954   0.160   3.282   6.154  0.6474 -0.0007  0.1836
   54DOPE  H15X 6955   0.210   3.376   6.184  0.1077  1.5126 -3.1749
   54DOPE  H15Y 6956   0.187   3.271   6.047 -0.7220 -0.4708 -0.1452
   54DOPE  C316 6957   0.219   3.169   6.241 -1.2231  0.4543  0.4766
   54DOPE  H16X 6958   0.175   3.074   6.203 -1.2216  1.3550 -1.9357
   54DOPE  H16Y 6959   0.192   3.177   6.348 -1.6844  0.1601  0.3884
   54DOPE  C317 6960   0.376   3.153   6.237  0.0346 -0.5822  0.0388
   54DOPE  H17X 6961   0.397   3.159   6.128  0.1453  1.1056  0.1273
   54DOPE  H17Y 6962   0.422   3.245   6.280 -0.5338 -0.5724  0.6369
   54DOPE  C318 6963   0.440   3.022   6.295  0.5995 -0.0866 -0.0324
   54DOPE  H18X 6964   0.525   2.988   6.233  0.0384 -1.7146  0.0391
   54DOPE  H18Y 6965   0.467   3.036   6.402 -1.1905  1.4066  0.2819
   54DOPE  H18Z 6966   0.354   2.951   6.290 -0.0214  0.5026  1.5195
   55DOPE     N 6967   0.751   0.179   3.836  0.1062  0.5211 -0.0391
   55DOPE   HN1 6968   0.761   0.245   3.756  2.3665 -0.7003 -0.8489
   55DOPE   HN2 6969   0.693   0.099   3.807  0.0803  1.4863 -2.9878
   55DOPE   HN3 6970   0.694   0.231   3.907  0.0027  1.0092 -0.4769
   55DOPE   C12 6971   0.879   0.118   3.894 -0.6473 -0.0881  0.0687
   55DOPE  H12A 6972   0.851   0.046   3.974 -2.7066  3.5199  2.8839
   55DOPE  H12B 6973   0.922   0.206   3.946  1.3898  0.5999 -2.5997
   55DOPE   C11 6974   0.967   0.058   3.792  0.4074 -0.0819 -0.0832
   55DOPE  H11A 6975   1.073   0.060   3.825  0.4462 -0.4906 -0.1771
   55DOPE  H11B 6976   0.968   0.125   3.703  2.4030  0.6189  0.4027
   55DOPE     P 6977   1.023  -0.196   3.756 -0.0282 -0.4479 -0.1341
   55DOPE   O13 6978   1.150  -0.159   3.699 -0.0604 -0.2248  0.1982
   55DOPE   O14 6979   0.961  -0.306   3.691  0.4887 -0.1394 -0.2282
   55DOPE   O11 6980   1.035  -0.215   3.917  0.4165  0.4416  0.8034
   55DOPE   O12 6981   0.925  -0.073   3.750  0.6602 -0.3492  0.2402
   55DOPE    C1 6982   0.911  -0.234   3.987 -0.0210 -0.3553 -0.0474
   55DOPE    HA 6983   0.852  -0.313   3.937  0.4104 -0.0096 -1.1412
   55DOPE    HB 6984   0.840  -0.148   3.992  0.0406 -0.3066 -0.0191
   55DOPE    C2 6985   0.925  -0.277   4.137  0.1723  0.7395  0.5226
   55DOPE    HS 6986   0.829  -0.267   4.191  0.9271  1.9132  1.6930
   55DOPE   O21 6987   1.037  -0.208   4.192 -0.5677  0.2399 -0.1041
   55DOPE   C21 6988   1.014  -0.077   4.201 -0.0465 -0.6332 -0.3260
   55DOPE   O22 6989   0.904  -0.027   4.190 -0.0177  0.2646 -0.5853
   55DOPE   C22 6990   1.141   0.000   4.243  0.6217  0.2008  0.1404
   55DOPE   H2R 6991   1.156   0.077   4.164  3.0339  0.0772  0.4008
   55DOPE   H2S 6992   1.223  -0.075   4.251  1.2059  0.8604  0.4971
   55DOPE    C3 6993   0.957  -0.429   4.136 -0.2703 -0.0627 -0.2000
   55DOPE    HX 6994   1.052  -0.426   4.078 -0.0519  1.8999  0.1885
   55DOPE    HY 6995   0.885  -0.490   4.077 -0.0710 -0.7861  0.2978
   55DOPE   O31 6996   0.990  -0.478   4.265 -0.2909 -0.1143  0.2363
   55DOPE   C31 6997   0.894  -0.487   4.351 -0.3355 -0.6783 -0.3484
   55DOPE   O32 6998   0.775  -0.470   4.327 -0.8157  0.5711  0.2559
   55DOPE   C32 6999   0.937  -0.535   4.483 -0.3357  0.0308  0.0011
   55DOPE   H2X 7000   0.932  -0.646   4.469  0.9476  0.0460 -0.7485
   55DOPE   H2Y 7001   1.046  -0.516   4.496 -0.2413 -1.0861  1.0236
   55DOPE   C23 7002   1.128   0.045   4.387  0.3718  0.6168  0.2169
   55DOPE   H3R 7003   1.048   0.120   4.404 -0.1802 -0.1148  0.9404
   55DOPE   H3S 7004   1.223   0.084   4.430 -1.0211  0.7828  3.4249
   55DOPE   C24 7005   1.074  -0.070   4.476 -0.1675  0.5366 -0.5053
   55DOPE   H4R 7006   1.144  -0.155   4.460 -1.6375 -0.6315 -1.0056
   55DOPE   H4S 7007   0.971  -0.101   4.450  0.4377 -0.6414 -1.6560
   55DOPE   C25 7008   1.067  -0.044   4.636 -0.0710 -0.1156  0.4905
   55DOPE   H5R 7009   1.010   0.050   4.653  0.0871  0.1955 -0.6230
   55DOPE   H5S 7010   1.166  -0.009   4.673  0.3776 -0.7227 -0.1214
   55DOPE   C26 7011   1.002  -0.151   4.714  0.0017  0.0312 -0.3229
   55DOPE   H6R 7012   1.068  -0.240   4.723  1.4451  1.0079 -0.7998
   55DOPE   H6S 7013   0.918  -0.200   4.661  1.8523 -2.7012 -0.9552
   55DOPE   C27 7014   0.966  -0.096   4.855  0.0088 -0.2323  0.0527
   55DOPE   H7R 7015   0.912  -0.175   4.909  0.1284 -0.7084 -0.5143
   55DOPE   H7S 7016   0.898  -0.011   4.835  0.0999 -0.2118 -0.1715
   55DOPE   C28 7017   1.080  -0.056   4.959  0.1837  0.1019 -0.1805
   55DOPE   H8R 7018   1.036  -0.038   5.059  0.3100 -0.6978  0.0289
   55DOPE   H8S 7019   1.115   0.042   4.922  0.7685  1.1303  2.8430
   55DOPE   C29 7020   1.193  -0.154   4.960  0.5945  0.0225 -0.2371
   55DOPE   H9R 7021   1.250  -0.153   4.866  0.9379  0.1062 -0.0335
   55DOPE  C210 7022   1.234  -0.234   5.057 -0.6317  0.0688 -0.1115
   55DOPE  H10R 7023   1.316  -0.304   5.036  0.4840  1.1312  0.6011
   55DOPE  C211 7024   1.177  -0.239   5.197 -0.0744 -0.2919  0.1356
   55DOPE  H11R 7025   1.197  -0.344   5.227  2.2356  0.1045  0.1210
   55DOPE  H11S 7026   1.067  -0.223   5.199 -0.0910 -0.3396 -0.3387
   55DOPE  C212 7027   1.254  -0.149   5.298  0.2243 -0.7390  0.6938
   55DOPE  H12R 7028   1.236  -0.043   5.271 -0.3798 -1.5768 -2.7261
   55DOPE  H12S 7029   1.363  -0.167   5.284  0.5196 -1.0075  3.0147
   55DOPE  C213 7030   1.207  -0.182   5.436 -0.3656 -0.0133 -0.2943
   55DOPE  H13R 7031   1.216  -0.292   5.452  1.1203  0.1271  0.0038
   55DOPE  H13S 7032   1.104  -0.142   5.447 -1.4541 -1.5855 -3.4443
   55DOPE  C214 7033   1.292  -0.112   5.537 -0.1824 -0.3635  0.2551
   55DOPE  H14R 7034   1.294  -0.003   5.515  0.4279 -0.2707  0.7553
   55DOPE  H14S 7035   1.394  -0.156   5.536 -0.7934 -1.9951  2.3590
   55DOPE  C215 7036   1.252  -0.120   5.682  0.2206  0.4325  0.2632
   55DOPE  H15R 7037   1.171  -0.049   5.708 -2.0777 -2.0070  0.1527
   55DOPE  H15S 7038   1.344  -0.092   5.737  0.7216 -3.1554  1.5103
   55DOPE  C216 7039   1.216  -0.259   5.725  0.2727  0.1033 -0.6112
   55DOPE  H16R 7040   1.303  -0.322   5.697  1.1737  1.9251 -2.2568
   55DOPE  H16S 7041   1.125  -0.285   5.667 -0.1534  0.1734  0.0229
   55DOPE  C217 7042   1.195  -0.274   5.877 -1.0333  0.1270 -0.0215
   55DOPE  H17R 7043   1.137  -0.183   5.904  1.5487  0.9258  3.6021
   55DOPE  H17S 7044   1.292  -0.264   5.930 -0.7749  2.0885 -0.7516
   55DOPE  C218 7045   1.104  -0.392   5.910  0.4179  0.9500 -0.3199
   55DOPE  H18R 7046   1.079  -0.396   6.018 -2.2937  0.1288 -0.8991
   55DOPE  H18S 7047   1.160  -0.486   5.889 -0.6629  0.1137  0.4160
   55DOPE  H18T 7048   1.017  -0.405   5.843  0.8151  0.1933 -0.7132
   55DOPE   C33 7049   0.849  -0.504   4.607 -0.7219 -1.1438  0.0146
   55DOPE   H3X 7050   0.740  -0.513   4.585 -0.4003 -0.4478 -2.1298
   55DOPE   H3Y 7051   0.858  -0.400   4.645 -0.4162 -1.0744 -0.2475
   55DOPE   C34 7052   0.883  -0.594   4.732 -1.2564  0.7193  0.6097
   55DOPE   H4X 7053   0.797  -0.614   4.799 -1.3659 -0.7314  0.0552
   55DOPE   H4Y 7054   0.902  -0.692   4.685  1.5416  0.9019  1.1826
   55DOPE   C35 7055   1.005  -0.564   4.815  0.3576 -0.2483  0.3725
   55DOPE   H5X 7056   1.080  -0.519   4.747  0.3470 -0.0219  0.5107
   55DOPE   H5Y 7057   1.055  -0.659   4.845 -2.3901 -1.6100  0.9913
   55DOPE   C36 7058   0.983  -0.485   4.945  0.3954 -1.0307 -0.0358
   55DOPE   H6X 7059   0.932  -0.389   4.923 -0.1258 -1.4963 -0.9529
   55DOPE   H6Y 7060   1.086  -0.461   4.977  0.6807 -1.2150 -0.7884
   55DOPE   C37 7061   0.905  -0.559   5.055 -0.1555  0.4962 -0.5751
   55DOPE   H7X 7062   0.828  -0.491   5.098  1.5649  1.7932  0.5800
   55DOPE   H7Y 7063   0.861  -0.653   5.015 -0.5493  0.3183  0.2445
   55DOPE   C38 7064   1.000  -0.616   5.163 -0.2011 -0.6217 -0.2027
   55DOPE   H8X 7065   1.041  -0.534   5.225 -0.6384  0.0277 -0.7508
   55DOPE   H8Y 7066   1.087  -0.659   5.109  1.3617 -1.5161  2.8163
   55DOPE   C39 7067   0.930  -0.709   5.244  0.2184 -0.0963 -0.6088
   55DOPE   H9X 7068   0.864  -0.782   5.196 -2.1843  1.8346 -0.4050
   55DOPE  C310 7069   0.927  -0.713   5.379  0.3583 -0.4769  0.3611
   55DOPE  H10X 7070   0.875  -0.798   5.425 -1.0508  0.3160  0.2620
   55DOPE  C311 7071   1.020  -0.644   5.479 -0.2499 -0.1258  0.4674
   55DOPE  H11X 7072   1.073  -0.719   5.541 -3.3028 -0.9692  2.2848
   55DOPE  H11Y 7073   1.092  -0.577   5.427 -1.4289  0.2328 -0.7628
   55DOPE  C312 7074   0.930  -0.565   5.581 -0.6464  0.0252  0.0721
   55DOPE  H12X 7075   0.987  -0.512   5.660 -1.2520 -2.3241  2.2183
   55DOPE  H12Y 7076   0.854  -0.633   5.626 -1.8227  0.1888 -1.5470
   55DOPE  C313 7077   0.832  -0.458   5.513  0.0828  0.1252  0.3382
   55DOPE  H13X 7078   0.900  -0.377   5.478  0.6339 -0.7553 -0.7115
   55DOPE  H13Y 7079   0.786  -0.498   5.420 -0.5567  0.9178  0.3068
   55DOPE  C314 7080   0.717  -0.409   5.607 -0.6768  0.2393  0.2964
   55DOPE  H14X 7081   0.649  -0.496   5.614 -0.6218  0.0975 -0.7137
   55DOPE  H14Y 7082   0.669  -0.327   5.549 -0.1662  1.0204  0.9558
   55DOPE  C315 7083   0.755  -0.382   5.753  0.0441  0.3537  0.1995
   55DOPE  H15X 7084   0.823  -0.295   5.754 -0.8013  1.0327 -0.2665
   55DOPE  H15Y 7085   0.799  -0.471   5.803  1.1830  0.7350 -0.0872
   55DOPE  C316 7086   0.637  -0.327   5.826 -0.6359 -0.0217  0.0175
   55DOPE  H16X 7087   0.562  -0.408   5.838 -0.1906 -0.2849  1.1391
   55DOPE  H16Y 7088   0.601  -0.245   5.761 -0.7244  1.1842  1.5434
   55DOPE  C317 7089   0.667  -0.253   5.960  0.0839  0.5857  0.0634
   55DOPE  H17X 7090   0.745  -0.178   5.935  1.2119 -1.1826 -2.0592
   55DOPE  H17Y 7091   0.569  -0.207   5.987  0.2543  2.9511 -2.8226
   55DOPE  C318 7092   0.721  -0.342   6.067 -0.1298  0.1831 -0.0793
   55DOPE  H18X 7093   0.825  -0.374   6.042  0.0408  1.7134 -1.5009
   55DOPE  H18Y 7094   0.730  -0.293   6.167 -0.4306 -0.0974  0.0856
   55DOPE  H18Z 7095   0.660  -0.432   6.085  1.7020 -1.4556 -1.5783
   56DOPE     N 7096   1.297   0.292   3.834  0.2294  0.8182  0.2349
   56DOPE   HN1 7097   1.341   0.332   3.919  0.4019  0.1636  0.4613
   56DOPE   HN2 7098   1.195   0.304   3.848 -0.0478 -0.8267 -0.1317
   56DOPE   HN3 7099   1.322   0.190   3.832  1.4551  1.1078 -1.2916
   56DOPE   C12 7100   1.326   0.370   3.716  0.4856 -0.0681 -0.5064
   56DOPE  H12A 7101   1.410   0.330   3.655  0.8568  0.2617 -0.2146
   56DOPE  H12B 7102   1.355   0.471   3.752 -0.8872  0.9110 -2.0023
   56DOPE   C11 7103   1.201   0.377   3.626 -0.2426 -0.0223 -0.2877
   56DOPE  H11A 7104   1.192   0.282   3.568 -1.6203  1.4814 -2.7149
   56DOPE  H11B 7105   1.216   0.461   3.555  0.8988  0.2139  0.2134
   56DOPE     P 7106   0.945   0.442   3.618 -0.2539 -0.1872 -0.0510
   56DOPE   O13 7107   0.829   0.351   3.642  0.0427  0.2626 -0.1700
   56DOPE   O14 7108   0.982   0.475   3.476  0.1953  0.8856 -0.4220
   56DOPE   O11 7109   0.920   0.581   3.692  0.8120 -0.7566  0.5211
   56DOPE   O12 7110   1.070   0.390   3.686 -0.1435  0.2863 -0.1421
   56DOPE    C1 7111   0.815   0.596   3.788  0.4297 -0.2208  0.1495
   56DOPE    HA 7112   0.729   0.535   3.756 -0.0659 -0.6227  2.1474
   56DOPE    HB 7113   0.778   0.700   3.799 -1.1438 -0.9027  1.9429
   56DOPE    C2 7114   0.854   0.540   3.924 -0.9417  0.1742  0.5874
   56DOPE    HS 7115   0.857   0.432   3.900 -1.2098  0.8164 -2.8028
   56DOPE   O21 7116   0.754   0.575   4.023  0.3035 -0.1608 -0.1410
   56DOPE   C21 7117   0.679   0.473   4.061  0.0087 -0.3252  0.6326
   56DOPE   O22 7118   0.684   0.357   4.019 -1.1185  0.0344  0.1305
   56DOPE   C22 7119   0.586   0.524   4.174 -0.7199  0.3263  0.9425
   56DOPE   H2R 7120   0.483   0.482   4.169 -0.0468 -1.4287  0.8874
   56DOPE   H2S 7121   0.590   0.634   4.171  1.8886  0.2622  0.0599
   56DOPE    C3 7122   0.990   0.606   3.959  0.8124 -0.2200  0.1734
   56DOPE    HX 7123   0.975   0.715   3.945 -0.7740 -0.4671 -0.3744
   56DOPE    HY 7124   1.069   0.576   3.887  1.1181  0.4956  0.2010
   56DOPE   O31 7125   1.031   0.576   4.095  0.3462 -0.0966 -0.6679
   56DOPE   C31 7126   1.086   0.454   4.107  0.2699  0.1101  0.5341
   56DOPE   O32 7127   1.090   0.366   4.020  0.1799  0.0137 -0.3289
   56DOPE   C32 7128   1.139   0.440   4.246  0.0378  0.3630 -0.3161
   56DOPE   H2X 7129   1.200   0.347   4.254 -0.2612  0.1678 -0.2935
   56DOPE   H2Y 7130   1.219   0.517   4.250 -0.6164  1.0459 -0.1023
   56DOPE   C23 7131   0.645   0.465   4.301  0.2759 -0.0381  0.2114
   56DOPE   H3R 7132   0.748   0.501   4.323  0.6410  0.0910 -1.5954
   56DOPE   H3S 7133   0.653   0.355   4.288  2.7794  0.0730  0.3396
   56DOPE   C24 7134   0.557   0.491   4.426  0.3817  0.1510  1.3128
   56DOPE   H4R 7135   0.453   0.473   4.390 -0.7681  3.8241  2.4059
   56DOPE   H4S 7136   0.564   0.595   4.464  0.0348  0.5787  0.2484
   56DOPE   C25 7137   0.597   0.392   4.542 -0.0560  0.5860  0.1662
   56DOPE   H5R 7138   0.703   0.402   4.572  0.1165  2.3488 -0.9071
   56DOPE   H5S 7139   0.581   0.289   4.504 -0.6809  0.8839 -0.4045
   56DOPE   C26 7140   0.507   0.421   4.665 -0.4268  0.7841  0.1395
   56DOPE   H6R 7141   0.399   0.411   4.641 -0.9164  1.2191  2.0008
   56DOPE   H6S 7142   0.519   0.529   4.688 -0.6824  0.8206  0.1047
   56DOPE   C27 7143   0.540   0.321   4.786  0.3457 -0.1474  0.0114
   56DOPE   H7R 7144   0.650   0.321   4.804  0.2117  1.9682  1.1713
   56DOPE   H7S 7145   0.520   0.218   4.750  0.1026 -1.6346  3.8862
   56DOPE   C28 7146   0.446   0.348   4.898  0.5819  0.3618  0.8174
   56DOPE   H8R 7147   0.343   0.342   4.856  1.0028  2.0039 -0.5140
   56DOPE   H8S 7148   0.458   0.455   4.923 -0.7673  0.3610  1.5959
   56DOPE   C29 7149   0.464   0.256   5.016  0.0525  0.1772 -0.0135
   56DOPE   H9R 7150   0.472   0.150   4.987 -0.0494  0.0426  0.4377
   56DOPE  C210 7151   0.511   0.286   5.140  0.1525  0.1626 -0.0528
   56DOPE  H10R 7152   0.524   0.203   5.211  0.4291 -0.2296 -0.5591
   56DOPE  C211 7153   0.527   0.432   5.190 -0.2016 -0.2322  0.1222
   56DOPE  H11R 7154   0.480   0.509   5.125  0.0213  0.3808  0.6861
   56DOPE  H11S 7155   0.630   0.472   5.200  0.1000 -1.2660  1.4833
   56DOPE  C212 7156   0.455   0.448   5.327  0.2489 -0.7125 -0.5046
   56DOPE  H12R 7157   0.351   0.414   5.315 -0.6782  0.3488  3.1943
   56DOPE  H12S 7158   0.443   0.557   5.348 -1.7070 -1.2321  1.3501
   56DOPE  C213 7159   0.522   0.375   5.443  0.1758 -0.2781  0.0895
   56DOPE  H13R 7160   0.616   0.429   5.466  0.9802 -0.8740 -1.6506
   56DOPE  H13S 7161   0.551   0.271   5.417 -0.5026 -0.4750  0.1061
   56DOPE  C214 7162   0.443   0.380   5.573  0.1850 -0.1134 -0.1519
   56DOPE  H14R 7163   0.347   0.327   5.560 -0.7601  2.0432 -2.9244
   56DOPE  H14S 7164   0.415   0.483   5.604 -1.2299 -0.5765  0.1695
   56DOPE  C215 7165   0.521   0.324   5.688 -1.2226  0.3329  0.0926
   56DOPE  H15R 7166   0.627   0.355   5.680 -1.1639 -0.2495 -1.9077
   56DOPE  H15S 7167   0.522   0.213   5.679  0.4995  0.4024 -0.9094
   56DOPE  C216 7168   0.463   0.371   5.828  0.9941 -0.0410 -0.0770
   56DOPE  H16R 7169   0.354   0.351   5.833  1.1122 -0.3323  1.9100
   56DOPE  H16S 7170   0.469   0.479   5.854 -2.2415 -0.1110  1.4171
   56DOPE  C217 7171   0.543   0.310   5.947 -0.0429 -0.3369  0.4575
   56DOPE  H17R 7172   0.522   0.365   6.041 -0.5939 -0.7304  0.5707
   56DOPE  H17S 7173   0.651   0.327   5.931 -0.3466  2.8325  1.0991
   56DOPE  C218 7174   0.524   0.152   5.959  0.0979 -1.0835 -0.0447
   56DOPE  H18R 7175   0.563   0.107   5.865 -0.7087  0.3626 -1.1298
   56DOPE  H18S 7176   0.413   0.140   5.966  0.0994 -1.4830 -0.6084
   56DOPE  H18T 7177   0.577   0.117   6.049  0.6361  0.4540  0.2754
   56DOPE   C33 7178   1.025   0.444   4.355 -0.2484 -0.7106 -0.3175
   56DOPE   H3X 7179   0.957   0.363   4.320  0.0391 -0.2088 -2.1247
   56DOPE   H3Y 7180   0.969   0.540   4.349  1.8235  0.5022 -1.4284
   56DOPE   C34 7181   1.090   0.407   4.493  0.7783 -0.0487  0.1040
   56DOPE   H4X 7182   1.130   0.304   4.484 -0.8036 -0.6666 -0.2106
   56DOPE   H4Y 7183   1.170   0.470   4.537  0.0149  0.8669  0.2274
   56DOPE   C35 7184   0.982   0.402   4.602  0.7187  0.4696 -0.1817
   56DOPE   H5X 7185   0.901   0.338   4.559  0.4891 -0.5833  1.7256
   56DOPE   H5Y 7186   0.929   0.500   4.604  0.5054  0.4731 -2.4590
   56DOPE   C36 7187   1.036   0.355   4.741 -0.9348 -0.2095  0.2015
   56DOPE   H6X 7188   1.096   0.443   4.773 -1.0774 -0.3858  0.9673
   56DOPE   H6Y 7189   1.109   0.273   4.724 -0.6175 -0.0920  0.9505
   56DOPE   C37 7190   0.933   0.332   4.858 -0.1146  0.0940  0.5068
   56DOPE   H7X 7191   0.866   0.420   4.857  0.3305  0.4418 -0.9037
   56DOPE   H7Y 7192   0.870   0.240   4.853  0.0264  0.0602 -1.2645
   56DOPE   C38 7193   0.990   0.336   5.002  0.3588  0.5329  0.2566
   56DOPE   H8X 7194   1.047   0.431   5.010  0.9949  0.2706 -0.9995
   56DOPE   H8Y 7195   1.070   0.260   5.014  0.7022  0.1817 -3.2684
   56DOPE   C39 7196   0.879   0.319   5.104 -0.1430 -1.2028 -0.1693
   56DOPE   H9X 7197   0.795   0.390   5.101 -1.4069 -2.6585 -0.2325
   56DOPE  C310 7198   0.886   0.250   5.216 -0.3169  0.0136  0.3888
   56DOPE  H10X 7199   0.805   0.265   5.288 -0.7719 -2.0830  0.3694
   56DOPE  C311 7200   1.005   0.174   5.268  0.4876 -0.1774 -0.8065
   56DOPE  H11X 7201   0.991   0.064   5.272  1.2121 -0.2533 -0.0381
   56DOPE  H11Y 7202   1.084   0.186   5.190 -0.6400  0.6646 -1.8651
   56DOPE  C312 7203   1.052   0.209   5.412  0.0255  0.5886  0.5097
   56DOPE  H12X 7204   1.147   0.157   5.435  0.0582  0.5960  0.3902
   56DOPE  H12Y 7205   0.975   0.175   5.484 -1.4388 -0.9968 -1.6716
   56DOPE  C313 7206   1.084   0.359   5.431 -0.0396 -0.4543 -0.2632
   56DOPE  H13X 7207   1.156   0.405   5.360  0.2479  1.0258  0.9333
   56DOPE  H13Y 7208   0.990   0.417   5.425  0.5299  0.4319 -0.8826
   56DOPE  C314 7209   1.143   0.375   5.571  0.4697  0.1368 -0.7695
   56DOPE  H14X 7210   1.247   0.336   5.570  0.3699 -0.2207 -2.9295
   56DOPE  H14Y 7211   1.078   0.324   5.646 -0.4492 -0.9525 -2.2379
   56DOPE  C315 7212   1.141   0.523   5.623 -0.1680 -0.1319 -0.2756
   56DOPE  H15X 7213   1.042   0.566   5.596 -0.0761  0.5947  0.5003
   56DOPE  H15Y 7214   1.221   0.577   5.567 -1.1911  0.4061 -1.2564
   56DOPE  C316 7215   1.158   0.557   5.775  0.1110 -0.5400 -0.2293
   56DOPE  H16X 7216   1.114   0.656   5.796  0.4945  0.0935 -2.2068
   56DOPE  H16Y 7217   1.265   0.579   5.790 -0.8610  3.5498  2.0843
   56DOPE  C317 7218   1.097   0.465   5.878 -0.7191 -0.5907 -1.0627
   56DOPE  H17X 7219   1.116   0.359   5.852  0.9383 -0.8162  0.7971
   56DOPE  H17Y 7220   1.139   0.490   5.978 -1.6611  1.6290 -1.1658
   56DOPE  C318 7221   0.944   0.485   5.890 -0.6103 -0.0398 -0.6025
   56DOPE  H18X 7222   0.905   0.421   5.972 -0.7419 -0.2629 -0.8342
   56DOPE  H18Y 7223   0.914   0.589   5.915  0.0056 -0.7321  3.6604
   56DOPE  H18Z 7224   0.890   0.457   5.796  1.7975 -0.3844 -1.9528
   57DOPE     N 7225   0.800   3.388   4.848  0.3922  0.3347 -0.0459
   57DOPE   HN1 7226   0.877   3.456   4.831  1.0887  0.2456  2.2612
   57DOPE   HN2 7227   0.815   3.365   4.949  0.2617  2.6806  0.5695
   57DOPE   HN3 7228   0.832   3.303   4.798 -1.5158 -1.6593  1.9206
   57DOPE   C12 7229   0.659   3.428   4.821  0.2051 -0.1534  0.4508
   57DOPE  H12A 7230   0.592   3.339   4.826 -1.8591  1.3301  0.5451
   57DOPE  H12B 7231   0.656   3.459   4.714 -1.2228 -0.3230  0.4227
   57DOPE   C11 7232   0.605   3.545   4.914 -0.9142 -0.4673 -0.1630
   57DOPE  H11A 7233   0.592   3.510   5.018  0.3501 -0.1366  0.1265
   57DOPE  H11B 7234   0.511   3.587   4.872  0.5849  3.1008 -0.2883
   57DOPE     P 7235   0.793   3.703   5.024 -0.0449  0.0088 -0.2458
   57DOPE   O13 7236   0.707   3.744   5.139 -0.2596  0.2804 -0.1741
   57DOPE   O14 7237   0.884   3.808   4.970 -0.4807 -0.4594  0.0242
   57DOPE   O11 7238   0.875   3.577   5.078  0.1192 -0.0070 -0.3071
   57DOPE   O12 7239   0.698   3.648   4.908 -0.5193  0.6458  0.4142
   57DOPE    C1 7240   0.997   3.602   5.134 -0.7373  0.3395  0.2876
   57DOPE    HA 7241   0.992   3.672   5.221  0.2422 -1.1744  1.6261
   57DOPE    HB 7242   1.058   3.653   5.057 -3.0168  0.4344 -1.5557
   57DOPE    C2 7243   1.053   3.473   5.198  0.2377 -0.1450 -0.6591
   57DOPE    HS 7244   1.081   3.404   5.115 -0.1811 -1.7741  0.5047
   57DOPE   O21 7245   0.951   3.407   5.285 -0.1868  0.5384 -0.2457
   57DOPE   C21 7246   0.860   3.334   5.227 -0.4387 -0.9973  0.3172
   57DOPE   O22 7247   0.857   3.296   5.111  0.4662  0.5018 -0.5029
   57DOPE   C22 7248   0.758   3.292   5.333 -0.1307  0.3559  0.3852
   57DOPE   H2R 7249   0.669   3.266   5.272  0.7790  1.7245 -1.6538
   57DOPE   H2S 7250   0.727   3.380   5.394 -3.0986  0.1505 -0.6979
   57DOPE    C3 7251   1.182   3.496   5.280 -0.3880  0.1663 -0.1032
   57DOPE    HX 7252   1.164   3.592   5.334  1.6441  0.5317  0.0266
   57DOPE    HY 7253   1.264   3.518   5.208  0.1767  0.3283  0.5772
   57DOPE   O31 7254   1.219   3.389   5.376  0.5287 -0.6447 -0.2179
   57DOPE   C31 7255   1.289   3.429   5.484  0.7649 -0.2893  0.2613
   57DOPE   O32 7256   1.351   3.535   5.489  0.2408  0.4346 -0.2288
   57DOPE   C32 7257   1.294   3.319   5.591 -0.4333 -0.2844  0.3763
   57DOPE   H2X 7258   1.189   3.281   5.585 -0.6850  0.5452 -1.1700
   57DOPE   H2Y 7259   1.371   3.246   5.559  0.7271 -0.1417  2.6598
   57DOPE   C23 7260   0.799   3.181   5.434  0.1390 -0.5405  0.0427
   57DOPE   H3R 7261   0.843   3.100   5.372 -2.3456 -0.9209 -1.3692
   57DOPE   H3S 7262   0.702   3.143   5.473 -0.2354 -0.8893 -1.1878
   57DOPE   C24 7263   0.891   3.246   5.539 -0.0157  0.0120  0.5822
   57DOPE   H4R 7264   0.863   3.350   5.567 -0.3641  0.9149 -2.6776
   57DOPE   H4S 7265   0.983   3.262   5.479  0.0147 -1.0216  0.3237
   57DOPE   C25 7266   0.918   3.156   5.655  0.3018  0.4513  0.6422
   57DOPE   H5R 7267   1.021   3.169   5.694 -0.5656  1.0217  2.8642
   57DOPE   H5S 7268   0.912   3.047   5.634  2.2781  0.4286  0.0374
   57DOPE   C26 7269   0.813   3.192   5.759  0.3660 -0.0730  0.3814
   57DOPE   H6R 7270   0.715   3.158   5.716  1.2431 -0.8000 -1.1383
   57DOPE   H6S 7271   0.804   3.303   5.762 -1.2195 -0.1970  1.1981
   57DOPE   C27 7272   0.840   3.140   5.902  0.5823  0.7490  0.2272
   57DOPE   H7R 7273   0.934   3.191   5.934  1.1971 -0.1728 -0.0649
   57DOPE   H7S 7274   0.853   3.030   5.894 -0.9637  0.5582  0.0117
   57DOPE   C28 7275   0.729   3.161   6.008  0.7294  0.0513  0.2283
   57DOPE   H8R 7276   0.750   3.097   6.096 -0.9238 -2.3502 -1.0149
   57DOPE   H8S 7277   0.637   3.126   5.957  0.8292  0.5766 -0.3148
   57DOPE   C29 7278   0.711   3.309   6.040 -0.3401 -0.0822 -0.0295
   57DOPE   H9R 7279   0.717   3.385   5.961  2.3581 -0.6922 -0.4883
   57DOPE  C210 7280   0.717   3.367   6.159  0.1383  0.1835 -0.0788
   57DOPE  H10R 7281   0.701   3.475   6.162 -2.1915 -0.0202 -1.9009
   57DOPE  C211 7282   0.738   3.304   6.297  0.1980  0.2756 -0.1422
   57DOPE  H11R 7283   0.791   3.208   6.283 -1.5126 -0.8264  0.5867
   57DOPE  H11S 7284   0.637   3.280   6.339  1.8329 -2.8456  2.4369
   57DOPE  C212 7285   0.811   3.404   6.386 -0.1824  0.1640  0.2272
   57DOPE  H12R 7286   0.733   3.483   6.395 -2.2011 -1.7767  0.7613
   57DOPE  H12S 7287   0.908   3.438   6.343  0.8946 -1.2222  1.4316
   57DOPE  C213 7288   0.842   3.343   6.523  0.1452  0.3956 -0.3283
   57DOPE  H13R 7289   0.922   3.267   6.523 -0.3083 -0.0904 -0.2785
   57DOPE  H13S 7290   0.758   3.277   6.555 -0.0136  0.2714 -0.9977
   57DOPE  C214 7291   0.879   3.449   6.618  0.0110 -0.3155 -0.2233
   57DOPE  H14R 7292   0.881   3.410   6.722  1.3044  0.9355  0.2561
   57DOPE  H14S 7293   0.807   3.534   6.621 -0.0852 -0.4196  0.6163
   57DOPE  C215 7294   1.014   3.507   6.587  0.2017  0.3775 -0.3146
   57DOPE  H15R 7295   1.038   3.505   6.478  0.2279  1.5078 -0.3484
   57DOPE  H15S 7296   1.084   3.427   6.618  2.2229  1.6644 -1.3676
   57DOPE  C216 7297   1.035   3.639   6.653 -0.1282 -0.3393  0.7933
   57DOPE  H16R 7298   1.025   3.627   6.763  0.2859 -1.2503  0.7320
   57DOPE  H16S 7299   0.960   3.710   6.610  1.7162  0.8872 -0.5950
   57DOPE  C217 7300   1.176   3.698   6.628  0.3490  0.1129 -0.6893
   57DOPE  H17R 7301   1.169   3.804   6.660 -3.9330  0.3993 -1.8686
   57DOPE  H17S 7302   1.197   3.705   6.519  1.1622  1.2228 -0.4810
   57DOPE  C218 7303   1.275   3.623   6.700 -0.0981 -0.7969 -0.0674
   57DOPE  H18R 7304   1.261   3.621   6.810  1.3114 -1.9918  0.1254
   57DOPE  H18S 7305   1.376   3.657   6.669 -1.1988  1.4604 -1.4483
   57DOPE  H18T 7306   1.270   3.512   6.688  2.9835 -1.0357  0.0546
   57DOPE   C33 7307   1.326   3.376   5.726  0.0118 -0.3859  0.1353
   57DOPE   H3X 7308   1.396   3.459   5.704 -2.1006  1.0897 -1.4209
   57DOPE   H3Y 7309   1.380   3.300   5.786 -1.9301 -0.1413  2.3299
   57DOPE   C34 7310   1.209   3.428   5.805 -0.4152  0.3662  0.7196
   57DOPE   H4X 7311   1.172   3.525   5.766  0.0371  0.1752 -0.2070
   57DOPE   H4Y 7312   1.138   3.342   5.812  1.3123 -1.1910  0.0878
   57DOPE   C35 7313   1.253   3.479   5.949 -0.2466 -0.1192 -0.7470
   57DOPE   H5X 7314   1.347   3.538   5.942  0.4099 -1.0014  0.3008
   57DOPE   H5Y 7315   1.265   3.397   6.022 -1.8295 -0.3501 -0.7139
   57DOPE   C36 7316   1.133   3.556   6.016 -0.4857 -0.5587  0.0618
   57DOPE   H6X 7317   1.052   3.479   6.014 -1.6283  0.6322 -1.1659
   57DOPE   H6Y 7318   1.094   3.635   5.948  2.8604  0.4690 -0.8461
   57DOPE   C37 7319   1.153   3.622   6.151  0.1832 -0.1706  0.4583
   57DOPE   H7X 7320   1.159   3.542   6.227 -0.9068  1.1058  1.9566
   57DOPE   H7Y 7321   1.246   3.683   6.158  0.6866 -0.7345 -0.9464
   57DOPE   C38 7322   1.032   3.708   6.186 -0.0911 -0.0220 -0.2164
   57DOPE   H8X 7323   1.031   3.710   6.297 -0.1520 -0.2863 -0.2114
   57DOPE   H8Y 7324   0.943   3.649   6.157  0.7682 -1.0723 -0.7741
   57DOPE   C39 7325   1.030   3.841   6.119 -0.8503 -0.4347 -0.0105
   57DOPE   H9X 7326   1.018   3.828   6.010 -0.3943 -2.9967  0.1837
   57DOPE  C310 7327   1.036   3.966   6.178 -0.6526 -0.3529  0.0755
   57DOPE  H10X 7328   1.036   4.055   6.114 -2.7483 -1.3940 -1.4904
   57DOPE  C311 7329   1.058   3.984   6.326  0.0831 -0.0908  0.1101
   57DOPE  H11X 7330   1.089   3.888   6.373 -1.2887 -0.4432  0.3557
   57DOPE  H11Y 7331   1.147   4.047   6.340  0.7232 -0.9211 -0.1340
   57DOPE  C312 7332   0.941   4.047   6.404 -0.5006  0.0944  0.1488
   57DOPE  H12X 7333   0.849   3.986   6.404 -0.8374  0.5771 -0.9738
   57DOPE  H12Y 7334   0.914   4.148   6.367  0.4442 -0.0022 -0.8779
   57DOPE  C313 7335   0.989   4.071   6.549 -0.2777 -0.0012 -0.1665
   57DOPE  H13X 7336   1.007   3.974   6.600 -0.5249 -0.6417 -1.2681
   57DOPE  H13Y 7337   1.090   4.117   6.545  1.2441 -2.9055  1.4851
   57DOPE  C314 7338   0.907   4.164   6.635  0.1361 -0.6885 -0.2953
   57DOPE  H14X 7339   0.901   4.250   6.564  0.6692 -2.1253 -2.1640
   57DOPE  H14Y 7340   0.960   4.189   6.729  3.3282  0.3928 -2.2316
   57DOPE  C315 7341   0.763   4.111   6.667  0.0528  0.1479  0.6645
   57DOPE  H15X 7342   0.757   4.029   6.741 -1.4380  0.4579  0.9162
   57DOPE  H15Y 7343   0.727   4.070   6.569 -0.5157  2.0861  0.0114
   57DOPE  C316 7344   0.665   4.225   6.714 -0.5781  0.1683 -0.3134
   57DOPE  H16X 7345   0.693   4.324   6.671  2.3621 -0.4668 -0.1156
   57DOPE  H16Y 7346   0.681   4.246   6.822 -1.3006  2.2173 -0.5529
   57DOPE  C317 7347   0.520   4.199   6.690  0.1456  0.3854 -0.4036
   57DOPE  H17X 7348   0.488   4.125   6.766 -1.7830  2.6976  1.2113
   57DOPE  H17Y 7349   0.465   4.293   6.714 -0.0782  0.1225  0.1358
   57DOPE  C318 7350   0.481   4.161   6.549 -0.1727 -0.2745 -0.1821
   57DOPE  H18X 7351   0.490   4.051   6.536 -0.5914 -0.5581  1.6759
   57DOPE  H18Y 7352   0.377   4.189   6.519  0.1303  0.8364 -0.2213
   57DOPE  H18Z 7353   0.550   4.209   6.477 -0.4366  0.5670  0.1215
   58DOPE     N 7354   0.223   6.351   3.163  0.3189 -0.7506  0.1943
   58DOPE   HN1 7355   0.180   6.439   3.199  2.4937  0.8383 -0.8230
   58DOPE   HN2 7356   0.314   6.382   3.122  0.2937 -0.3121  0.4588
   58DOPE   HN3 7357   0.165   6.324   3.082  1.6442 -0.7676 -0.7914
   58DOPE   C12 7358   0.230   6.241   3.262  0.1892  0.5142  0.6597
   58DOPE  H12A 7359   0.287   6.153   3.225 -0.1821  0.6252 -0.2181
   58DOPE  H12B 7360   0.124   6.222   3.289  0.1963 -1.9492 -0.6563
   58DOPE   C11 7361   0.304   6.287   3.381 -0.0514  0.0274 -0.1531
   58DOPE  H11A 7362   0.299   6.204   3.454  1.5749 -0.1868 -0.2495
   58DOPE  H11B 7363   0.254   6.378   3.421  1.3526  1.1660 -0.8601
   58DOPE     P 7364   0.559   6.205   3.379  0.0223 -0.1614 -0.0135
   58DOPE   O13 7365   0.681   6.276   3.324  0.4559 -0.5957 -0.1610
   58DOPE   O14 7366   0.529   6.070   3.328  1.0372 -0.3933  0.0873
   58DOPE   O11 7367   0.569   6.194   3.536 -0.4611 -0.2423  0.0253
   58DOPE   O12 7368   0.445   6.310   3.350  1.0049 -0.1702 -0.7416
   58DOPE    C1 7369   0.652   6.271   3.622  0.0938  0.3133  0.4877
   58DOPE    HA 7370   0.694   6.362   3.573 -0.6011  1.0177  1.1767
   58DOPE    HB 7371   0.737   6.206   3.653 -0.1304 -1.2741 -1.9280
   58DOPE    C2 7372   0.579   6.318   3.754  1.0105  0.7677  0.6439
   58DOPE    HS 7373   0.659   6.366   3.814 -0.5327 -1.0511  4.4210
   58DOPE   O21 7374   0.518   6.206   3.831  0.4239 -0.4066  0.3398
   58DOPE   C21 7375   0.609   6.146   3.905 -0.7815  0.1512  0.2243
   58DOPE   O22 7376   0.725   6.168   3.909  0.1807  0.3323  0.3240
   58DOPE   C22 7377   0.547   6.030   3.978 -0.0269 -0.2122 -0.1860
   58DOPE   H2R 7378   0.601   5.937   3.951 -0.6359 -1.0996  1.4855
   58DOPE   H2S 7379   0.443   6.010   3.947 -0.7214  2.2039  0.3881
   58DOPE    C3 7380   0.477   6.436   3.729  0.1367  0.2362 -0.2907
   58DOPE    HX 7381   0.395   6.390   3.670 -0.9400  3.9214 -1.9967
   58DOPE    HY 7382   0.511   6.509   3.652 -0.9947  0.1821 -0.8600
   58DOPE   O31 7383   0.418   6.502   3.849  0.2975  0.1899 -0.6777
   58DOPE   C31 7384   0.504   6.589   3.907 -1.1262 -0.0375 -0.4012
   58DOPE   O32 7385   0.607   6.631   3.854 -0.3935 -0.2108 -0.3575
   58DOPE   C32 7386   0.452   6.616   4.048 -0.1450  0.2716  0.1768
   58DOPE   H2X 7387   0.347   6.651   4.038 -0.0904  1.0584  1.9381
   58DOPE   H2Y 7388   0.458   6.520   4.104 -1.7922 -0.1711 -0.3431
   58DOPE   C23 7389   0.563   6.046   4.134  0.0910  0.3433  0.5399
   58DOPE   H3R 7390   0.492   6.123   4.171 -0.0533  0.4958 -0.0401
   58DOPE   H3S 7391   0.669   6.075   4.151 -0.0829  2.3580 -1.3074
   58DOPE   C24 7392   0.534   5.923   4.226 -0.2855 -0.2910 -0.1101
   58DOPE   H4R 7393   0.581   5.831   4.183 -1.0468  0.2451 -2.1931
   58DOPE   H4S 7394   0.424   5.912   4.226 -0.3310  0.1609 -0.3403
   58DOPE   C25 7395   0.586   5.941   4.369 -0.0280  0.4637  0.3630
   58DOPE   H5R 7396   0.583   6.050   4.387 -3.0203  1.2776 -3.7322
   58DOPE   H5S 7397   0.695   5.920   4.367  0.1538  1.4115 -1.0972
   58DOPE   C26 7398   0.513   5.859   4.479 -0.2393  0.1209  0.2264
   58DOPE   H6R 7399   0.518   5.756   4.436 -0.4474 -0.0002  0.4908
   58DOPE   H6S 7400   0.408   5.892   4.492 -0.9648 -1.3926 -1.3230
   58DOPE   C27 7401   0.599   5.866   4.603 -0.1787  0.7633 -0.8143
   58DOPE   H7R 7402   0.624   5.971   4.628 -1.5059  0.7244  0.8951
   58DOPE   H7S 7403   0.700   5.827   4.581  1.0112  3.0219  0.2921
   58DOPE   C28 7404   0.538   5.792   4.725 -0.0948 -0.6606  0.0182
   58DOPE   H8R 7405   0.506   5.690   4.693  0.5640 -0.2062 -2.2725
   58DOPE   H8S 7406   0.443   5.846   4.744  1.3092  2.1705 -0.5999
   58DOPE   C29 7407   0.621   5.809   4.854  0.5064 -0.4074 -0.7556
   58DOPE   H9R 7408   0.686   5.723   4.874  0.8114 -0.3056 -1.2986
   58DOPE  C210 7409   0.626   5.924   4.932 -0.3449  0.5789  0.4048
   58DOPE  H10R 7410   0.700   5.929   5.013 -0.2917 -0.6029  0.4390
   58DOPE  C211 7411   0.549   6.049   4.910  0.5180 -0.4344  0.5157
   58DOPE  H11R 7412   0.500   6.051   4.810  0.0274 -0.4884  0.7531
   58DOPE  H11S 7413   0.627   6.128   4.898 -0.7893  0.7284 -0.8297
   58DOPE  C212 7414   0.441   6.086   5.015 -0.7180 -0.6811  0.2885
   58DOPE  H12R 7415   0.356   6.014   5.008 -1.0902 -0.2469  0.2500
   58DOPE  H12S 7416   0.405   6.184   4.976 -2.4588 -1.9958 -1.6329
   58DOPE  C213 7417   0.477   6.089   5.161  0.1797  0.3709 -0.3818
   58DOPE  H13R 7418   0.583   6.122   5.168 -0.0710  1.4328 -1.3830
   58DOPE  H13S 7419   0.468   5.991   5.213 -0.5238  0.6697  0.0821
   58DOPE  C214 7420   0.385   6.183   5.241  0.5391  0.4122 -0.5244
   58DOPE  H14R 7421   0.278   6.176   5.211  0.9117 -0.1750 -1.7986
   58DOPE  H14S 7422   0.413   6.289   5.227  0.9176  0.4036  0.1157
   58DOPE  C215 7423   0.397   6.156   5.394  0.4803 -0.0665  0.1813
   58DOPE  H15R 7424   0.503   6.156   5.427  0.2922 -4.0840  1.3818
   58DOPE  H15S 7425   0.362   6.051   5.407 -1.3553  0.3772 -0.8750
   58DOPE  C216 7426   0.312   6.248   5.485  0.5069  0.0615  0.7802
   58DOPE  H16R 7427   0.209   6.224   5.451  1.6316 -0.6417 -2.5048
   58DOPE  H16S 7428   0.329   6.355   5.459 -0.7843  0.6936  2.3626
   58DOPE  C217 7429   0.330   6.221   5.638  0.1720 -0.2441  0.5413
   58DOPE  H17R 7430   0.430   6.251   5.676 -1.2824  2.5617  2.5119
   58DOPE  H17S 7431   0.315   6.111   5.645  2.3611 -0.8134 -1.9032
   58DOPE  C218 7432   0.230   6.297   5.729 -0.3803  0.5433  0.1653
   58DOPE  H18R 7433   0.129   6.266   5.695  0.5783 -2.4301 -0.2660
   58DOPE  H18S 7434   0.254   6.405   5.715  0.4886  0.7171  2.5770
   58DOPE  H18T 7435   0.244   6.262   5.833 -0.0278 -0.9085 -0.3454
   58DOPE   C33 7436   0.545   6.727   4.106 -0.4756 -0.5315  0.5410
   58DOPE   H3X 7437   0.526   6.822   4.052  0.2976  0.5915  2.1336
   58DOPE   H3Y 7438   0.651   6.692   4.107 -1.1968 -2.9544 -0.3098
   58DOPE   C34 7439   0.513   6.752   4.256 -0.4004  0.3157 -0.9473
   58DOPE   H4X 7440   0.550   6.852   4.289  1.1113 -0.2004 -1.0381
   58DOPE   H4Y 7441   0.406   6.737   4.283 -0.4906 -0.6846 -1.8079
   58DOPE   C35 7442   0.575   6.644   4.359  0.0848 -0.6488  0.1500
   58DOPE   H5X 7443   0.686   6.640   4.365  0.0317 -0.1516  2.6330
   58DOPE   H5Y 7444   0.543   6.545   4.322  0.7641 -1.1633  0.9019
   58DOPE   C36 7445   0.536   6.664   4.505  0.5206 -0.1310 -0.0903
   58DOPE   H6X 7446   0.429   6.635   4.514 -0.0230  2.2207  2.1742
   58DOPE   H6Y 7447   0.547   6.769   4.540  2.2576  0.0503 -1.0353
   58DOPE   C37 7448   0.614   6.571   4.600 -0.5319  0.7668  0.7276
   58DOPE   H7X 7449   0.604   6.476   4.543 -1.4782  2.4225 -2.1103
   58DOPE   H7Y 7450   0.724   6.588   4.599 -0.7405  2.2833  0.4134
   58DOPE   C38 7451   0.555   6.566   4.744  0.2869  0.0329 -0.3349
   58DOPE   H8X 7452   0.570   6.460   4.774  0.2985  0.2529  0.4594
   58DOPE   H8Y 7453   0.448   6.591   4.733  0.0696 -1.1046 -0.9724
   58DOPE   C39 7454   0.615   6.661   4.853 -0.2447 -0.3637 -0.1430
   58DOPE   H9X 7455   0.637   6.756   4.801  0.5881 -0.1615  0.5625
   58DOPE  C310 7456   0.653   6.638   4.978 -0.1113  0.1140 -0.3270
   58DOPE  H10X 7457   0.677   6.725   5.041 -0.7744  0.0991 -0.0383
   58DOPE  C311 7458   0.637   6.505   5.059 -0.0644  0.7804  0.5757
   58DOPE  H11X 7459   0.564   6.442   5.004  1.1444  0.1344 -0.3364
   58DOPE  H11Y 7460   0.734   6.451   5.071  0.0093  0.9592  0.8077
   58DOPE  C312 7461   0.584   6.546   5.199 -0.6053  0.3432  0.1244
   58DOPE  H12X 7462   0.521   6.458   5.226 -0.7114  0.2518 -0.4281
   58DOPE  H12Y 7463   0.524   6.638   5.190  0.6865  1.0966 -1.1306
   58DOPE  C313 7464   0.700   6.563   5.292 -0.2574 -0.2904 -0.1599
   58DOPE  H13X 7465   0.740   6.465   5.329  1.4494  0.6361  0.5837
   58DOPE  H13Y 7466   0.782   6.612   5.236 -1.3612  1.7767 -0.0378
   58DOPE  C314 7467   0.670   6.634   5.419 -0.0987  0.2632  0.2166
   58DOPE  H14X 7468   0.592   6.577   5.472  0.5532 -0.5262  0.3459
   58DOPE  H14Y 7469   0.627   6.735   5.402  1.3856  1.3097  2.1819
   58DOPE  C315 7470   0.798   6.648   5.506 -0.2128 -0.5177 -0.0441
   58DOPE  H15X 7471   0.872   6.706   5.447 -1.9667  1.9491  0.0615
   58DOPE  H15Y 7472   0.849   6.549   5.513 -0.5388 -0.7375 -0.6600
   58DOPE  C316 7473   0.781   6.724   5.635 -1.0733 -0.6138 -1.3764
   58DOPE  H16X 7474   0.702   6.678   5.698  1.0134 -0.4347  1.5886
   58DOPE  H16Y 7475   0.742   6.824   5.607 -0.7858  0.1256  0.6918
   58DOPE  C317 7476   0.903   6.719   5.727 -0.4576  0.1796  0.0825
   58DOPE  H17X 7477   0.924   6.613   5.751  0.3024 -0.2362 -2.1340
   58DOPE  H17Y 7478   0.984   6.748   5.657 -0.3676 -1.4499 -0.5298
   58DOPE  C318 7479   0.908   6.806   5.856 -0.4437  0.6540 -0.2267
   58DOPE  H18X 7480   0.839   6.767   5.934 -1.0885  0.0939 -1.0542
   58DOPE  H18Y 7481   1.012   6.812   5.894  0.0681 -1.0788 -1.2561
   58DOPE  H18Z 7482   0.880   6.909   5.824  0.9945  1.2462  0.3304
   59DOPE     N 7483   0.268   2.131   4.192 -0.1097  0.1174  0.4408
   59DOPE   HN1 7484   0.179   2.135   4.246 -2.1517 -0.4620 -2.6100
   59DOPE   HN2 7485   0.337   2.057   4.217  0.9338  1.2579  1.0109
   59DOPE   HN3 7486   0.322   2.216   4.216 -0.1190  0.6312 -1.1984
   59DOPE   C12 7487   0.229   2.143   4.050 -0.0557  0.0582  0.6289
   59DOPE  H12A 7488   0.294   2.216   3.998 -1.7195  0.7461 -0.5679
   59DOPE  H12B 7489   0.128   2.189   4.041 -0.0204  0.3996  1.8419
   59DOPE   C11 7490   0.236   2.002   3.979  0.2782 -1.2249 -0.4989
   59DOPE  H11A 7491   0.207   2.030   3.876 -0.9776  0.1055  0.1656
   59DOPE  H11B 7492   0.161   1.931   4.021 -1.7860  1.7886  1.2920
   59DOPE     P 7493   0.433   1.843   4.052 -0.4019  0.1148 -0.4868
   59DOPE   O13 7494   0.572   1.831   4.004 -0.1255  0.0639 -0.3515
   59DOPE   O14 7495   0.352   1.720   4.048  0.3974 -0.2405 -0.2638
   59DOPE   O11 7496   0.420   1.902   4.196  0.0299 -0.4738  0.2364
   59DOPE   O12 7497   0.367   1.956   3.967  0.2341 -0.4520  0.2673
   59DOPE    C1 7498   0.515   1.889   4.298 -0.3001  0.1854 -1.0487
   59DOPE    HA 7499   0.619   1.878   4.261  0.3437 -0.1110  0.7878
   59DOPE    HB 7500   0.498   1.791   4.348  0.0112  1.1888  1.1357
   59DOPE    C2 7501   0.517   2.000   4.401 -0.1621  0.1219 -0.9049
   59DOPE    HS 7502   0.587   1.967   4.480 -1.2617  1.4614  0.6952
   59DOPE   O21 7503   0.386   2.034   4.463  0.4971  0.3976  0.0873
   59DOPE   C21 7504   0.352   1.958   4.568 -0.5359  0.2016  0.1979
   59DOPE   O22 7505   0.428   1.874   4.614  0.0092  0.4623  0.6964
   59DOPE   C22 7506   0.216   1.997   4.623 -0.4203 -0.2422  0.4036
   59DOPE   H2R 7507   0.155   1.906   4.636 -2.0495  0.4239 -1.9801
   59DOPE   H2S 7508   0.170   2.061   4.545  0.7048 -0.4040 -0.4186
   59DOPE    C3 7509   0.578   2.129   4.340 -0.1314  0.6507  0.1417
   59DOPE    HX 7510   0.547   2.168   4.240  2.4691  2.6017 -0.0199
   59DOPE    HY 7511   0.681   2.105   4.307 -0.0247  2.7168 -1.2743
   59DOPE   O31 7512   0.593   2.238   4.434  0.1761  0.3875 -0.5541
   59DOPE   C31 7513   0.489   2.310   4.433  0.0952 -0.3616 -0.5369
   59DOPE   O32 7514   0.395   2.301   4.358  0.2046 -0.0737  0.0859
   59DOPE   C32 7515   0.501   2.414   4.540 -0.5978 -0.0598  1.2971
   59DOPE   H2X 7516   0.596   2.471   4.529 -0.4171  0.3603  4.3217
   59DOPE   H2Y 7517   0.415   2.482   4.519  1.0511  1.2628 -1.8453
   59DOPE   C23 7518   0.208   2.067   4.763 -0.7221  0.3728 -0.5560
   59DOPE   H3R 7519   0.105   2.103   4.784 -0.1284  0.9868  1.5164
   59DOPE   H3S 7520   0.276   2.155   4.767 -2.2766  1.5673  1.2253
   59DOPE   C24 7521   0.239   1.971   4.880 -0.6256  0.2953 -0.3020
   59DOPE   H4R 7522   0.341   1.933   4.858  0.6023  2.9390  0.3758
   59DOPE   H4S 7523   0.174   1.881   4.878  0.4016 -0.4780  0.2712
   59DOPE   C25 7524   0.225   2.028   5.020  0.7558 -0.2090  0.0281
   59DOPE   H5R 7525   0.125   2.072   5.041  1.5271  0.7446  1.9258
   59DOPE   H5S 7526   0.286   2.121   5.029  0.8129 -0.3736  1.4899
   59DOPE   C26 7527   0.250   1.929   5.137 -0.4129 -0.7612  0.0626
   59DOPE   H6R 7528   0.360   1.937   5.153 -0.2255  2.5660 -2.0710
   59DOPE   H6S 7529   0.209   1.833   5.099 -1.3614 -1.1886  2.0423
   59DOPE   C27 7530   0.189   1.962   5.272  0.1360  0.1466 -0.0506
   59DOPE   H7R 7531   0.080   1.962   5.250 -0.0416 -2.0192  0.5592
   59DOPE   H7S 7532   0.223   2.061   5.310  1.0008  0.7388 -2.2197
   59DOPE   C28 7533   0.220   1.868   5.389 -0.8894 -0.3960  0.0851
   59DOPE   H8R 7534   0.228   1.771   5.335  0.8640  1.6597 -3.7711
   59DOPE   H8S 7535   0.131   1.868   5.456 -1.6776  1.4187 -0.8909
   59DOPE   C29 7536   0.352   1.884   5.459 -0.0399 -0.7361 -1.1904
   59DOPE   H9R 7537   0.447   1.841   5.425 -0.3619  0.1704 -3.3850
   59DOPE  C210 7538   0.362   1.965   5.568  0.5295  0.1227 -0.1875
   59DOPE  H10R 7539   0.459   1.971   5.619  0.7986 -1.1456 -0.5045
   59DOPE  C211 7540   0.249   2.050   5.628 -0.0204 -0.4650  0.3471
   59DOPE  H11R 7541   0.155   2.055   5.570 -0.1191 -1.4226  0.4064
   59DOPE  H11S 7542   0.290   2.153   5.622 -1.2510 -0.0214 -0.9611
   59DOPE  C212 7543   0.229   2.012   5.775 -0.0239 -0.1473  0.0334
   59DOPE  H12R 7544   0.326   2.023   5.827  1.6434  0.2942 -2.9075
   59DOPE  H12S 7545   0.197   1.906   5.784  0.5843 -0.3198  0.2063
   59DOPE  C213 7546   0.111   2.084   5.843  0.0004 -0.3907  0.2177
   59DOPE  H13R 7547   0.032   2.099   5.767  0.3356 -2.1227 -0.5268
   59DOPE  H13S 7548   0.142   2.188   5.866  1.9310 -0.3657 -2.0666
   59DOPE  C214 7549   0.052   1.998   5.959 -0.3098  0.8364  0.0446
   59DOPE  H14R 7550   0.036   1.894   5.924 -0.8440  1.3058 -1.1857
   59DOPE  H14S 7551  -0.046   2.049   5.971  0.9062  3.0927  0.9395
   59DOPE  C215 7552   0.134   1.979   6.089  0.0871  0.4359 -0.8093
   59DOPE  H15R 7553   0.134   2.072   6.148 -2.6516  0.7258 -1.1272
   59DOPE  H15S 7554   0.240   1.956   6.063 -0.5500 -1.1528 -2.2563
   59DOPE  C216 7555   0.071   1.865   6.179 -0.2658 -0.4061  0.3046
   59DOPE  H16R 7556  -0.039   1.882   6.187 -0.4633 -0.9688 -0.9561
   59DOPE  H16S 7557   0.114   1.876   6.281 -1.7840 -0.7103  1.0117
   59DOPE  C217 7558   0.091   1.714   6.134  0.0841 -0.3993  0.6523
   59DOPE  H17R 7559   0.199   1.689   6.130  0.3654  0.8646 -0.0339
   59DOPE  H17S 7560   0.047   1.703   6.032 -1.0251 -1.4884  1.2252
   59DOPE  C218 7561   0.040   1.608   6.228 -0.5905 -0.0541 -0.3473
   59DOPE  H18R 7562   0.001   1.514   6.185 -0.7144 -0.4734  0.6527
   59DOPE  H18S 7563  -0.049   1.649   6.282  0.1134  0.7619  0.2216
   59DOPE  H18T 7564   0.106   1.580   6.313 -1.8581  1.1231  1.0852
   59DOPE   C33 7565   0.499   2.360   4.688  0.6522  0.1172  1.1434
   59DOPE   H3X 7566   0.581   2.289   4.709 -0.9699 -2.1627  0.2283
   59DOPE   H3Y 7567   0.405   2.302   4.702  0.3300  0.7537  1.7609
   59DOPE   C34 7568   0.495   2.474   4.793  0.2699 -0.4548  0.2032
   59DOPE   H4X 7569   0.583   2.538   4.771 -1.0179  0.8413 -1.5082
   59DOPE   H4Y 7570   0.402   2.534   4.778  0.1131 -0.8224 -0.3014
   59DOPE   C35 7571   0.486   2.428   4.945 -0.4227 -0.5040  0.3308
   59DOPE   H5X 7572   0.573   2.368   4.979  0.2822  1.4182  2.1381
   59DOPE   H5Y 7573   0.399   2.360   4.958 -0.3562 -0.3587  1.7194
   59DOPE   C36 7574   0.473   2.550   5.032 -0.4708 -0.1423  0.7356
   59DOPE   H6X 7575   0.372   2.591   5.010 -0.1312 -0.8921 -2.8271
   59DOPE   H6Y 7576   0.530   2.641   5.006 -2.0514  0.2319 -1.7731
   59DOPE   C37 7577   0.489   2.527   5.185 -0.2052  0.7261  0.4103
   59DOPE   H7X 7578   0.597   2.521   5.209 -0.4415 -1.5761  1.1105
   59DOPE   H7Y 7579   0.448   2.621   5.227 -0.3874 -0.0420  2.0082
   59DOPE   C38 7580   0.413   2.404   5.241 -0.3384  0.4131  0.2339
   59DOPE   H8X 7581   0.473   2.314   5.214  0.7677 -0.3983  4.5480
   59DOPE   H8Y 7582   0.309   2.404   5.202  0.0391  0.7958 -0.7950
   59DOPE   C39 7583   0.417   2.412   5.389  0.3737 -0.1011 -0.1093
   59DOPE   H9X 7584   0.500   2.355   5.434 -0.8067  0.1620  2.6378
   59DOPE  C310 7585   0.330   2.481   5.470  0.5836 -0.6137 -0.4446
   59DOPE  H10X 7586   0.340   2.487   5.579  2.7858 -0.0327 -0.6337
   59DOPE  C311 7587   0.208   2.550   5.413  0.0934  0.1785  0.3287
   59DOPE  H11X 7588   0.216   2.578   5.306  0.7350 -0.4950  0.1930
   59DOPE  H11Y 7589   0.124   2.479   5.404  1.8206 -1.7445 -1.6790
   59DOPE  C312 7590   0.158   2.657   5.508  0.2323 -0.8582 -0.2583
   59DOPE  H12X 7591   0.230   2.741   5.513  0.9687 -1.5489  1.2572
   59DOPE  H12Y 7592   0.136   2.619   5.610 -0.1421  2.2627  0.9583
   59DOPE  C313 7593   0.033   2.745   5.456 -0.0175 -0.3426  0.2392
   59DOPE  H13X 7594   0.058   2.768   5.351 -0.3780  1.7918  0.5841
   59DOPE  H13Y 7595  -0.061   2.686   5.463  0.3639 -1.0690 -0.6320
   59DOPE  C314 7596   0.011   2.859   5.553 -0.7050  0.0334 -0.0857
   59DOPE  H14X 7597   0.104   2.921   5.557 -1.5016  1.4445 -2.1278
   59DOPE  H14Y 7598  -0.011   2.824   5.657 -0.6995  1.7965  0.5508
   59DOPE  C315 7599  -0.106   2.949   5.516 -0.3137  0.3352 -0.0727
   59DOPE  H15X 7600  -0.203   2.895   5.515  1.0151 -2.1868 -0.4733
   59DOPE  H15Y 7601  -0.090   2.974   5.409 -1.3330  0.2927 -0.2419
   59DOPE  C316 7602  -0.117   3.080   5.591 -0.7000  0.3093 -0.3800
   59DOPE  H16X 7603  -0.172   3.150   5.525 -0.8177 -0.4836 -1.1426
   59DOPE  H16Y 7604  -0.017   3.122   5.613 -0.8994  0.7385 -0.2764
   59DOPE  C317 7605  -0.184   3.075   5.731 -0.4622 -0.0268 -0.1114
   59DOPE  H17X 7606  -0.226   3.177   5.745 -1.0515 -0.0614 -1.4518
   59DOPE  H17Y 7607  -0.268   3.002   5.724 -0.2800 -0.1201 -1.5636
   59DOPE  C318 7608  -0.098   3.055   5.856 -0.2371 -0.3548 -0.4973
   59DOPE  H18X 7609  -0.020   2.975   5.853  0.9564  0.4850  3.4013
   59DOPE  H18Y 7610  -0.043   3.149   5.879 -0.9394 -0.0503 -0.0601
   59DOPE  H18Z 7611  -0.160   3.034   5.945 -0.6977 -2.4408 -1.2482
   60DOPE     N 7612   0.302   1.195   3.524 -0.1666  0.4334 -0.0349
   60DOPE   HN1 7613   0.264   1.224   3.431  1.6230  3.7140  0.0977
   60DOPE   HN2 7614   0.390   1.249   3.534 -0.7983  1.6497 -0.7640
   60DOPE   HN3 7615   0.339   1.098   3.519  0.2038  0.5831 -0.1887
   60DOPE   C12 7616   0.220   1.232   3.638 -0.2547  0.0512  0.0163
   60DOPE  H12A 7617   0.156   1.322   3.625  1.9450  1.7251  0.1437
   60DOPE  H12B 7618   0.292   1.246   3.721 -1.6605 -0.7161  1.4039
   60DOPE   C11 7619   0.129   1.128   3.688  0.3971 -0.4815  0.0448
   60DOPE  H11A 7620   0.077   1.161   3.781  0.5847 -0.3616  0.1065
   60DOPE  H11B 7621   0.190   1.044   3.728  0.1622 -0.9695 -0.6044
   60DOPE     P 7622   0.026   0.942   3.545  0.3584  0.1628  0.3472
   60DOPE   O13 7623   0.161   0.900   3.501  0.0850  0.1751 -0.0913
   60DOPE   O14 7624  -0.084   0.935   3.445 -0.6493 -0.3364 -0.6218
   60DOPE   O11 7625  -0.012   0.859   3.674 -0.0801  0.5500 -0.1218
   60DOPE   O12 7626   0.030   1.093   3.591 -0.1365  0.2235 -0.1108
   60DOPE    C1 7627  -0.113   0.898   3.767 -0.2367 -0.0925  0.0383
   60DOPE    HA 7628  -0.177   0.983   3.736  0.0407  1.2812  2.9093
   60DOPE    HB 7629  -0.072   0.939   3.861 -1.4679 -0.0852  0.6010
   60DOPE    C2 7630  -0.207   0.775   3.782  0.0510  0.1177  0.0574
   60DOPE    HS 7631  -0.240   0.744   3.680  1.2054 -1.0858  0.0232
   60DOPE   O21 7632  -0.316   0.801   3.859  0.3443 -0.4080  0.2112
   60DOPE   C21 7633  -0.430   0.748   3.827 -0.0893 -0.2139  0.5562
   60DOPE   O22 7634  -0.441   0.655   3.748 -0.2420 -0.1713 -0.1389
   60DOPE   C22 7635  -0.542   0.805   3.910  0.5214  0.8932  0.4364
   60DOPE   H2R 7636  -0.551   0.910   3.875 -1.5750 -0.2801 -3.0085
   60DOPE   H2S 7637  -0.518   0.784   4.017  1.1699 -1.2375 -0.0773
   60DOPE    C3 7638  -0.132   0.642   3.831  0.4076  0.1233 -0.3319
   60DOPE    HX 7639  -0.042   0.632   3.767  0.6898  1.7342 -0.2191
   60DOPE    HY 7640  -0.198   0.553   3.823  1.2057 -0.4381 -0.7553
   60DOPE   O31 7641  -0.085   0.676   3.962  0.1127 -0.2801 -0.1942
   60DOPE   C31 7642  -0.066   0.569   4.035  0.5183 -0.1006  0.2303
   60DOPE   O32 7643  -0.092   0.457   4.001 -0.1351  0.0712  0.1799
   60DOPE   C32 7644   0.009   0.615   4.158 -0.4030 -0.5722 -0.2231
   60DOPE   H2X 7645   0.115   0.640   4.138 -0.5797  2.2890  1.8219
   60DOPE   H2Y 7646  -0.021   0.718   4.187  0.5605 -0.5207  0.6661
   60DOPE   C23 7647  -0.676   0.726   3.877  0.0692  0.4818  0.2281
   60DOPE   H3R 7648  -0.700   0.714   3.769  1.9286 -0.1945 -0.1394
   60DOPE   H3S 7649  -0.759   0.783   3.926 -1.1140  0.6716 -1.8478
   60DOPE   C24 7650  -0.675   0.580   3.935  0.3716  0.5639  0.0499
   60DOPE   H4R 7651  -0.667   0.591   4.045 -0.6808 -0.5734  0.2547
   60DOPE   H4S 7652  -0.584   0.521   3.909 -0.0045 -0.1199  0.2600
   60DOPE   C25 7653  -0.794   0.505   3.880  0.3050  0.3643  0.0073
   60DOPE   H5R 7654  -0.771   0.480   3.774 -0.5872  3.3295 -0.9640
   60DOPE   H5S 7655  -0.886   0.566   3.884  0.0141 -0.1447  1.5749
   60DOPE   C26 7656  -0.828   0.376   3.965  0.4219 -0.4145 -0.1241
   60DOPE   H6R 7657  -0.749   0.299   3.967  2.5694  1.6641  1.8316
   60DOPE   H6S 7658  -0.914   0.317   3.927  0.7486 -0.9171 -0.0839
   60DOPE   C27 7659  -0.871   0.407   4.107  0.4493  0.5387 -0.9039
   60DOPE   H7R 7660  -0.947   0.487   4.094  0.1011  0.4884  0.6534
   60DOPE   H7S 7661  -0.788   0.456   4.162  1.9247 -0.3336 -2.2599
   60DOPE   C28 7662  -0.929   0.304   4.189 -0.0359  0.1915  0.1483
   60DOPE   H8R 7663  -0.925   0.347   4.292 -3.1925 -1.2451  0.9875
   60DOPE   H8S 7664  -0.866   0.213   4.193 -2.8063 -1.9341 -1.3712
   60DOPE   C29 7665  -1.072   0.267   4.153 -0.5375 -0.6825  0.3210
   60DOPE   H9R 7666  -1.106   0.323   4.065  1.1182  0.6782  0.4831
   60DOPE  C210 7667  -1.153   0.210   4.239 -0.1111 -0.4001  0.8304
   60DOPE  H10R 7668  -1.257   0.193   4.207 -0.4156  2.5670 -0.0564
   60DOPE  C211 7669  -1.120   0.150   4.373  0.3159 -0.0507 -0.1056
   60DOPE  H11R 7670  -1.012   0.168   4.393  0.2689  0.0364  0.0701
   60DOPE  H11S 7671  -1.150   0.043   4.370  0.4979 -0.1068  0.0740
   60DOPE  C212 7672  -1.190   0.205   4.497  0.5620 -0.4459  0.0608
   60DOPE  H12R 7673  -1.299   0.223   4.483  0.9545  3.2668  0.7724
   60DOPE  H12S 7674  -1.135   0.295   4.532 -1.7328  1.5482 -1.1708
   60DOPE  C213 7675  -1.189   0.113   4.624  0.0544 -0.5338  0.4885
   60DOPE  H13R 7676  -1.101   0.046   4.608 -0.8368 -1.3102 -1.3732
   60DOPE  H13S 7677  -1.282   0.053   4.629 -1.1995  1.3823  1.3240
   60DOPE  C214 7678  -1.158   0.185   4.759 -0.2079  0.7228 -0.0389
   60DOPE  H14R 7679  -1.069   0.251   4.753  0.6388 -0.4995 -2.3732
   60DOPE  H14S 7680  -1.134   0.106   4.834 -0.1399  0.5477 -0.2445
   60DOPE  C215 7681  -1.278   0.268   4.807  0.4653  0.0882 -0.4604
   60DOPE  H15R 7682  -1.356   0.189   4.808  1.6245 -1.1343 -1.5518
   60DOPE  H15S 7683  -1.304   0.335   4.722 -1.2341  2.2339  1.6300
   60DOPE  C216 7684  -1.268   0.338   4.941  0.0372  0.4335  0.1324
   60DOPE  H16R 7685  -1.271   0.263   5.022 -1.4055 -1.3752 -1.5128
   60DOPE  H16S 7686  -1.349   0.412   4.957  1.0852  1.7263 -0.3285
   60DOPE  C217 7687  -1.139   0.419   4.959  0.3876 -0.2218 -0.6035
   60DOPE  H17R 7688  -1.153   0.502   4.886 -1.2479  1.0824  1.0967
   60DOPE  H17S 7689  -1.046   0.364   4.931  0.5433 -0.3264  0.0909
   60DOPE  C218 7690  -1.118   0.467   5.106 -0.8669  0.0021  0.6365
   60DOPE  H18R 7691  -1.125   0.377   5.172  1.0535 -0.4917  0.2358
   60DOPE  H18S 7692  -1.208   0.524   5.136 -4.0682 -3.6071 -1.3600
   60DOPE  H18T 7693  -1.020   0.518   5.119 -0.7083  0.9653 -3.1977
   60DOPE   C33 7694  -0.013   0.525   4.287  0.0353  0.5459  0.3824
   60DOPE   H3X 7695   0.077   0.554   4.344  0.3732 -1.3034  0.8291
   60DOPE   H3Y 7696   0.017   0.419   4.273 -0.4901 -0.1885  3.9487
   60DOPE   C34 7697  -0.156   0.529   4.350 -0.0257  0.1773 -0.1169
   60DOPE   H4X 7698  -0.173   0.635   4.380 -0.4384 -0.8476  3.7989
   60DOPE   H4Y 7699  -0.231   0.488   4.279  0.9953 -1.6296 -0.2002
   60DOPE   C35 7700  -0.164   0.459   4.483 -0.2576  0.1402  0.1510
   60DOPE   H5X 7701  -0.072   0.468   4.545 -0.2408 -0.0663  0.1573
   60DOPE   H5Y 7702  -0.182   0.354   4.455 -0.4229  0.3992 -0.7365
   60DOPE   C36 7703  -0.285   0.512   4.575  0.4854 -0.3062 -1.1321
   60DOPE   H6X 7704  -0.379   0.499   4.519  0.6447  0.5671 -1.6210
   60DOPE   H6Y 7705  -0.267   0.618   4.602  1.1918 -1.0578  1.7417
   60DOPE   C37 7706  -0.318   0.423   4.702 -0.0039 -0.1541 -0.1254
   60DOPE   H7X 7707  -0.346   0.323   4.663  0.6771  0.3707 -2.0832
   60DOPE   H7Y 7708  -0.227   0.400   4.761 -0.3748 -1.2707  0.0228
   60DOPE   C38 7709  -0.426   0.465   4.797 -0.4766 -0.0091  0.7452
   60DOPE   H8X 7710  -0.467   0.372   4.842  0.3887 -1.5072 -1.3611
   60DOPE   H8Y 7711  -0.502   0.513   4.733 -1.0113 -1.8405 -0.0595
   60DOPE   C39 7712  -0.361   0.558   4.899 -0.1974 -0.1087  0.2127
   60DOPE   H9X 7713  -0.326   0.655   4.861 -0.1920 -0.7832 -1.6024
   60DOPE  C310 7714  -0.318   0.530   5.027 -0.6994  0.0592 -0.1774
   60DOPE  H10X 7715  -0.278   0.615   5.084  0.8995  0.1140 -1.2906
   60DOPE  C311 7716  -0.332   0.397   5.099  0.8353  0.2622  0.5915
   60DOPE  H11X 7717  -0.376   0.326   5.026  0.7003  2.0860 -1.1832
   60DOPE  H11Y 7718  -0.238   0.368   5.150  1.7217  3.8732  1.3254
   60DOPE  C312 7719  -0.443   0.394   5.208 -0.0521 -1.0734  0.1857
   60DOPE  H12X 7720  -0.475   0.294   5.245 -1.1593  0.0544  2.4568
   60DOPE  H12Y 7721  -0.532   0.441   5.161 -0.9837 -1.4970  1.4962
   60DOPE  C313 7722  -0.404   0.484   5.328 -0.7441 -0.1161 -0.4687
   60DOPE  H13X 7723  -0.299   0.462   5.357 -0.7151 -0.2629 -0.6841
   60DOPE  H13Y 7724  -0.402   0.589   5.292  0.9171  0.3286  0.7936
   60DOPE  C314 7725  -0.517   0.476   5.429 -0.5019  0.0848  0.1250
   60DOPE  H14X 7726  -0.503   0.374   5.471  1.6886  0.6193  0.8728
   60DOPE  H14Y 7727  -0.607   0.474   5.365  1.2223  3.7484 -2.7643
   60DOPE  C315 7728  -0.512   0.580   5.536  0.0533  0.4186  0.0184
   60DOPE  H15X 7729  -0.519   0.676   5.480  0.6733 -0.6047 -1.8990
   60DOPE  H15Y 7730  -0.409   0.573   5.577 -0.1945  3.5111  1.4739
   60DOPE  C316 7731  -0.618   0.551   5.648  0.1297  0.3122  0.4991
   60DOPE  H16X 7732  -0.610   0.443   5.671 -1.6684 -0.6981 -2.9252
   60DOPE  H16Y 7733  -0.717   0.557   5.598  0.8424 -1.6714 -1.3474
   60DOPE  C317 7734  -0.595   0.647   5.762  0.8184  0.3360 -1.0366
   60DOPE  H17X 7735  -0.487   0.656   5.783  0.4788 -2.0085  2.6795
   60DOPE  H17Y 7736  -0.624   0.748   5.728 -0.8200  1.1473  2.3157
   60DOPE  C318 7737  -0.666   0.594   5.886 -0.0617 -0.2264  0.3920
   60DOPE  H18X 7738  -0.775   0.574   5.875 -0.2012 -0.9975  2.6251
   60DOPE  H18Y 7739  -0.607   0.503   5.910 -1.3093 -0.6710  1.9825
   60DOPE  H18Z 7740  -0.654   0.663   5.973  3.4458  0.5743 -0.5963
   6123SM     N 7741   3.749   4.123   9.249 -0.4437  0.4157  0.3571
   6123SM   C15 7742   3.721   4.257   9.324 -0.0737  0.6009  0.2223
   6123SM  H15A 7743   3.755   4.248   9.426  1.4841 -4.2495 -0.4997
   6123SM  H15B 7744   3.616   4.285   9.324 -0.1176  0.4719  1.1117
   6123SM  H15C 7745   3.768   4.340   9.273 -0.1012 -0.5138 -1.7019
   6123SM   C14 7746   3.904   4.091   9.250 -0.0730  0.3713 -0.5866
   6123SM  H14A 7747   3.934   4.010   9.184  2.2863  1.0703 -0.4695
   6123SM  H14B 7748   3.924   4.064   9.352  0.6126  1.2193 -0.4856
   6123SM  H14C 7749   3.971   4.173   9.232 -1.8687  1.6172 -1.9969
   6123SM   C13 7750   3.675   4.021   9.325  0.5053  0.3201 -0.9664
   6123SM  H13A 7751   3.706   4.025   9.429 -1.4207  0.0527 -0.3366
   6123SM  H13B 7752   3.708   3.930   9.279 -0.4526 -1.1167  1.0299
   6123SM  H13C 7753   3.567   4.029   9.322  0.5018  0.8407  0.0857
   6123SM   C12 7754   3.699   4.133   9.108  0.7641 -0.2691  0.3360
   6123SM  H12A 7755   3.593   4.151   9.115  1.0774  1.3783  1.3595
   6123SM  H12B 7756   3.703   4.035   9.062 -4.1345  0.6171 -2.6958
   6123SM   C11 7757   3.765   4.229   9.008  0.0438 -0.0849 -0.8018
   6123SM  H11A 7758   3.711   4.218   8.911  0.0387  0.9375 -0.9245
   6123SM  H11B 7759   3.871   4.196   9.000  0.3167  0.1914  1.1470
   6123SM     P 7760   3.841   4.477   8.992  0.1926  0.1103 -0.2032
   6123SM   O13 7761   3.821   4.608   9.063  0.2697 -0.3013 -1.0101
   6123SM   O14 7762   3.976   4.422   8.978  0.1559  0.2209 -0.4213
   6123SM   O11 7763   3.786   4.503   8.848  0.3163  0.3965 -0.1413
   6123SM   O12 7764   3.744   4.362   9.052  0.2642 -0.8793 -0.0382
   6123SM   C1S 7765   3.649   4.518   8.821  0.1765  0.8347 -0.2838
   6123SM   H1S 7766   3.604   4.603   8.876  0.7701  1.4611 -0.7415
   6123SM   H1T 7767   3.593   4.425   8.843  0.9510 -0.1609 -2.2141
   6123SM    NF 7768   3.512   4.624   8.638 -0.3299 -0.2629  0.0262
   6123SM   HNF 7769   3.432   4.579   8.599 -1.6978  2.8003 -1.0848
   6123SM   C2S 7770   3.622   4.545   8.665 -0.3034 -0.7681  0.3289
   6123SM   H2S 7771   3.715   4.591   8.626  0.5304 -1.0707  1.8775
   6123SM   C3S 7772   3.621   4.404   8.585  0.5057 -0.1192 -0.3081
   6123SM   H3S 7773   3.525   4.363   8.624  0.2518 -1.7233 -2.4317
   6123SM    O3 7774   3.735   4.326   8.625  0.2407  0.1214  0.8108
   6123SM   HO3 7775   3.785   4.362   8.698  1.4197 -1.6699  0.9425
   6123SM   C4S 7776   3.602   4.413   8.433 -0.8614  0.4284 -0.1546
   6123SM   H4S 7777   3.691   4.446   8.377 -0.4412  0.7535  0.6883
   6123SM   C5S 7778   3.491   4.394   8.366 -0.6116 -0.3112  0.2637
   6123SM   H5S 7779   3.400   4.379   8.426  1.1790 -0.0471  3.2459
   6123SM   C6S 7780   3.461   4.400   8.215  0.1764  0.0231 -0.1824
   6123SM   H6S 7781   3.370   4.463   8.206 -0.5650 -0.7831  1.1944
   6123SM   H6T 7782   3.434   4.299   8.178 -1.8579  1.1336 -1.9185
   6123SM   C7S 7783   3.571   4.448   8.127  0.3617  0.6091  0.3018
   6123SM   H7S 7784   3.650   4.370   8.129 -1.1523 -1.0892 -1.4940
   6123SM   H7T 7785   3.612   4.546   8.160  3.9212 -1.0922  1.4104
   6123SM   C8S 7786   3.539   4.453   7.976 -0.4068 -0.0209  0.4195
   6123SM   H8S 7787   3.463   4.529   7.952 -0.1245 -0.1758 -1.0725
   6123SM   H8T 7788   3.494   4.357   7.944 -0.9145 -0.0635  1.2406
   6123SM   C9S 7789   3.659   4.478   7.892 -0.1209  0.1858  0.5383
   6123SM   H9S 7790   3.753   4.427   7.920  0.0071 -0.1772 -0.4956
   6123SM   H9T 7791   3.691   4.584   7.904  1.3804 -0.2790  0.8459
   6123SM  C10S 7792   3.628   4.446   7.743 -0.0402  0.1098 -0.5762
   6123SM  H10S 7793   3.527   4.488   7.725 -0.8114 -1.2386  0.4622
   6123SM  H10T 7794   3.607   4.337   7.736  1.0177 -0.3262  1.9691
   6123SM  C11S 7795   3.737   4.472   7.646 -0.6500  0.4175  1.0635
   6123SM  H11S 7796   3.829   4.411   7.661  1.7744  3.5032 -0.0241
   6123SM  H11T 7797   3.781   4.573   7.657  0.0112  0.3017 -0.2999
   6123SM  C12S 7798   3.689   4.470   7.499 -0.0399 -0.5407  0.2969
   6123SM  H12S 7799   3.613   4.551   7.498  0.5794  0.0660  0.8972
   6123SM  H12T 7800   3.638   4.375   7.471  0.3831 -0.0802 -2.2908
   6123SM  C13S 7801   3.802   4.491   7.397  0.4939  0.1139 -0.2150
   6123SM  H13S 7802   3.874   4.407   7.392  0.1313 -0.2682  0.6418
   6123SM  H13T 7803   3.860   4.584   7.415  0.6462  0.0451 -0.3461
   6123SM  C14S 7804   3.753   4.498   7.256 -0.3719  0.2251  0.7737
   6123SM  H14S 7805   3.720   4.395   7.230  0.1788 -0.0811  1.2609
   6123SM  H14T 7806   3.842   4.506   7.191 -1.3894 -0.4418 -0.7423
   6123SM  C15S 7807   3.641   4.602   7.229 -0.3632  0.1228  0.5276
   6123SM  H15S 7808   3.679   4.703   7.258 -2.0291  0.4785  1.6233
   6123SM  H15T 7809   3.549   4.579   7.287 -1.8921  0.5668 -1.6106
   6123SM  C16S 7810   3.628   4.632   7.076  0.4419  0.1631 -1.3137
   6123SM  H16S 7811   3.733   4.653   7.047  1.8656 -1.3574  2.2741
   6123SM  H16T 7812   3.567   4.724   7.060  1.0463  0.7731 -0.2241
   6123SM  C17S 7813   3.574   4.516   6.988  0.6276  0.2630 -0.2642
   6123SM  H17S 7814   3.632   4.421   6.995  0.0425 -0.0026  1.6365
   6123SM  H17T 7815   3.585   4.550   6.883 -2.5339 -0.2432 -0.8563
   6123SM  C18S 7816   3.424   4.477   7.008  0.1963 -0.0565 -0.5434
   6123SM  H18S 7817   3.404   4.383   6.951  0.2576 -1.2500  1.3259
   6123SM  H18T 7818   3.375   4.556   6.947  1.2528  0.5493 -0.6324
   6123SM  H18U 7819   3.393   4.471   7.114  2.4130  2.3385  0.3565
   6123SM   C1F 7820   3.518   4.751   8.655 -1.0347 -0.5888 -0.7406
   6123SM    OF 7821   3.621   4.817   8.677  0.1466 -0.6264  0.5010
   6123SM   C2F 7822   3.386   4.829   8.650  0.1835  0.3212  0.3705
   6123SM   H2F 7823   3.392   4.899   8.736  0.3751 -0.1293  0.7345
   6123SM   H2G 7824   3.310   4.753   8.677  0.0433  0.6711  0.9825
   6123SM   C3F 7825   3.362   4.902   8.514  0.0843 -0.3929  0.0032
   6123SM   H3F 7826   3.445   4.969   8.485 -1.3228  1.0455 -0.8916
   6123SM   H3G 7827   3.272   4.965   8.531 -0.7594 -0.5656 -3.1688
   6123SM   C4F 7828   3.326   4.810   8.396  0.4710  0.2804  0.7563
   6123SM   H4F 7829   3.259   4.731   8.434 -2.3971  2.1695 -0.0536
   6123SM   H4G 7830   3.421   4.767   8.358  0.7856 -1.3517  3.1533
   6123SM   C5F 7831   3.261   4.875   8.277  0.1670  0.2146 -0.3657
   6123SM   H5F 7832   3.314   4.968   8.248 -0.3847  0.5972 -0.1582
   6123SM   H5G 7833   3.153   4.898   8.288 -0.1561 -0.8549 -1.1384
   6123SM   C6F 7834   3.267   4.779   8.157  0.2394  0.0113 -0.2016
   6123SM   H6F 7835   3.188   4.702   8.171 -0.9231  0.9680 -1.2900
   6123SM   H6G 7836   3.367   4.732   8.148  0.5250  0.4474  0.5743
   6123SM   C7F 7837   3.241   4.861   8.032  0.2909 -0.6534 -0.1436
   6123SM   H7F 7838   3.323   4.936   8.024 -0.4749  0.2846  0.5519
   6123SM   H7G 7839   3.137   4.895   8.051 -0.1272 -1.6245 -0.6287
   6123SM   C8F 7840   3.226   4.775   7.905  0.3304  0.7793 -0.0388
   6123SM   H8F 7841   3.125   4.727   7.908  0.1348  0.8628 -2.6513
   6123SM   H8G 7842   3.308   4.700   7.910  1.3046  1.8042 -0.3936
   6123SM   C9F 7843   3.248   4.862   7.783 -0.6784 -0.2002  0.0029
   6123SM   H9F 7844   3.341   4.922   7.783 -1.5358  1.2362  1.9845
   6123SM   H9G 7845   3.166   4.937   7.788  0.0952  0.6104  0.6192
   6123SM  C10F 7846   3.233   4.791   7.648  0.6745 -0.9837  0.3908
   6123SM  H10F 7847   3.158   4.710   7.661 -2.4646  1.4056 -1.2980
   6123SM  H10G 7848   3.332   4.743   7.639  1.2957  0.6397 -2.6650
   6123SM  C11F 7849   3.211   4.878   7.531  0.0072  0.1832 -0.1569
   6123SM  H11F 7850   3.274   4.969   7.531  0.6515 -0.0498  4.4625
   6123SM  H11G 7851   3.107   4.916   7.536 -0.2013 -0.5442  2.8532
   6123SM  C12F 7852   3.230   4.807   7.394 -0.0055  0.0142 -0.0816
   6123SM  H12F 7853   3.153   4.728   7.385 -2.0224  1.9424 -0.7790
   6123SM  H12G 7854   3.333   4.768   7.409 -0.2394  0.0083  1.7183
   6123SM  C13F 7855   3.221   4.903   7.280  0.2456 -0.4886  0.1958
   6123SM  H13F 7856   3.292   4.986   7.297 -0.5101 -0.1169  1.7350
   6123SM  H13G 7857   3.122   4.953   7.278  0.3148 -0.1415  2.7647
   6123SM  C14F 7858   3.240   4.836   7.142 -0.3935 -0.3305 -0.1705
   6123SM  H14F 7859   3.155   4.767   7.122  0.6274 -2.0297  1.1435
   6123SM  H14G 7860   3.336   4.782   7.146  0.4064  1.0873  0.3874
   6123SM  C15F 7861   3.235   4.938   7.028  0.5025 -0.3295  0.6311
   6123SM  H15F 7862   3.309   5.021   7.040  0.3318 -0.3822  2.2537
   6123SM  H15G 7863   3.138   4.990   7.039  0.4047  0.0674 -1.5478
   6123SM  C16F 7864   3.265   4.862   6.899 -0.3929  0.1452 -0.1827
   6123SM  H16F 7865   3.178   4.797   6.876 -1.6722  1.0131  1.9635
   6123SM  H16G 7866   3.350   4.792   6.915  0.3468  1.0059 -0.3106
   6123SM  C17F 7867   3.289   4.964   6.781  0.3728  0.1110 -0.7162
   6123SM  H17F 7868   3.310   4.904   6.690  1.2664  0.2367 -0.6022
   6123SM  H17G 7869   3.376   5.028   6.808  1.9319 -2.2887  0.3291
   6123SM  C18F 7870   3.160   5.044   6.735 -0.4258  0.3132 -0.5017
   6123SM  H18F 7871   3.128   5.104   6.823 -1.8939 -1.4352  0.2255
   6123SM  H18G 7872   3.081   4.968   6.718 -0.1164  0.4228 -2.7812
   6123SM  C19F 7873   3.168   5.140   6.615 -0.1606 -0.1750 -0.0115
   6123SM  H19F 7874   3.191   5.091   6.518  2.3362  0.9400 -0.0481
   6123SM  H19G 7875   3.246   5.217   6.630 -0.2249  0.0712 -0.8773
   6123SM  C20F 7876   3.038   5.217   6.584  1.0710  0.1937  0.3246
   6123SM  H20F 7877   3.023   5.297   6.659 -0.5646 -0.1676  0.4261
   6123SM  H20G 7878   2.954   5.145   6.575  0.4464  0.5752  2.5667
   6123SM  C21F 7879   3.044   5.293   6.450 -0.2418  0.1187 -0.0068
   6123SM  H21F 7880   3.054   5.230   6.359 -0.4065  0.0329  0.0324
   6123SM  H21G 7881   3.131   5.361   6.455 -0.3748  0.4063 -1.3619
   6123SM  C22F 7882   2.926   5.387   6.413 -0.2950 -0.1512  0.8101
   6123SM  H22F 7883   2.956   5.452   6.328 -1.1810  0.6475  1.0856
   6123SM  H22G 7884   2.903   5.442   6.507 -0.1855  0.1776  0.6461
   6123SM  C23F 7885   2.795   5.322   6.368  0.4950 -0.2671  0.3141
   6123SM  H23F 7886   2.716   5.397   6.388 -0.2166 -1.3273  1.6246
   6123SM  H23G 7887   2.778   5.231   6.429 -0.3463 -0.3089  0.0282
   6123SM  H23H 7888   2.792   5.289   6.262 -2.8467 -1.3869  0.6308
   6223SM     N 7889   3.986   3.331   9.639 -0.2779 -0.7135 -0.4256
   6223SM   C15 7890   3.929   3.443   9.710  0.6328 -0.4252 -0.1895
   6223SM  H15A 7891   3.948   3.435   9.816  1.4722  1.0069 -0.1993
   6223SM  H15B 7892   3.824   3.447   9.688  1.2874  1.9376 -3.8233
   6223SM  H15C 7893   3.963   3.542   9.684 -0.5372  0.1594  0.4283
   6223SM   C14 7894   4.133   3.343   9.669  0.0155 -0.1497  0.1197
   6223SM  H14A 7895   4.183   3.434   9.638  1.3272 -1.1181 -0.6905
   6223SM  H14B 7896   4.184   3.261   9.621 -2.1756 -2.0132  0.8135
   6223SM  H14C 7897   4.162   3.327   9.772 -4.9665  2.9462  2.3956
   6223SM   C13 7898   3.939   3.206   9.703  0.8041  0.3122  0.0411
   6223SM  H13A 7899   3.975   3.201   9.805 -0.5980 -0.0953  0.5337
   6223SM  H13B 7900   3.969   3.115   9.654 -1.7453  0.2034 -1.4678
   6223SM  H13C 7901   3.831   3.210   9.705  0.8454  2.0941  0.7941
   6223SM   C12 7902   3.952   3.325   9.495  0.2566 -0.1939  0.0279
   6223SM  H12A 7903   3.844   3.330   9.488  0.3199  0.1327 -0.7081
   6223SM  H12B 7904   3.984   3.228   9.460  0.1035  0.4441 -1.9864
   6223SM   C11 7905   4.019   3.433   9.397  0.3578 -0.1482 -0.3205
   6223SM  H11A 7906   3.981   3.421   9.294 -0.2213  2.0708 -0.4316
   6223SM  H11B 7907   4.125   3.400   9.397  0.7507  1.0430 -0.2642
   6223SM     P 7908   4.108   3.678   9.404  0.4111 -0.0284  0.1379
   6223SM   O13 7909   4.044   3.806   9.424  0.0079 -0.4566  0.0443
   6223SM   O14 7910   4.227   3.636   9.485  0.4540  0.2747  0.1692
   6223SM   O11 7911   4.134   3.659   9.250  0.0491 -0.3416  0.2371
   6223SM   O12 7912   3.998   3.572   9.428 -0.2521 -0.0311 -0.1132
   6223SM   C1S 7913   4.031   3.696   9.160 -0.4485  0.0613  0.5954
   6223SM   H1S 7914   4.009   3.805   9.163  0.6003  0.3459 -0.8530
   6223SM   H1T 7915   3.937   3.638   9.174  0.8353 -1.8084  1.9337
   6223SM    NF 7916   3.968   3.701   8.912  0.5643 -0.1205 -0.5778
   6223SM   HNF 7917   3.927   3.634   8.851  1.6126 -0.4844 -0.9131
   6223SM   C2S 7918   4.069   3.656   9.007 -0.4285 -0.1353 -0.4038
   6223SM   H2S 7919   4.155   3.723   8.981 -0.3591 -0.2855 -0.5634
   6223SM   C3S 7920   4.121   3.512   8.985  0.0201 -1.0490  0.0299
   6223SM   H3S 7921   4.024   3.464   9.009 -0.5371 -0.4308 -0.8989
   6223SM    O3 7922   4.215   3.472   9.083  0.3816  0.6560  0.2491
   6223SM   HO3 7923   4.208   3.527   9.161 -0.2770 -2.0546  2.2798
   6223SM   C4S 7924   4.167   3.481   8.845 -0.3601 -0.3518  0.8338
   6223SM   H4S 7925   4.093   3.415   8.797 -2.6741  1.5419  1.6496
   6223SM   C5S 7926   4.279   3.505   8.776  0.1210 -0.5273 -0.5477
   6223SM   H5S 7927   4.359   3.561   8.826  0.5058 -2.2872  0.9232
   6223SM   C6S 7928   4.303   3.456   8.638 -0.3129  0.4081  0.3495
   6223SM   H6S 7929   4.291   3.347   8.621  2.3604 -0.1246  1.3994
   6223SM   H6T 7930   4.412   3.461   8.618 -0.1604 -2.3555  0.1534
   6223SM   C7S 7931   4.244   3.551   8.530  0.4464  0.4487  0.1981
   6223SM   H7S 7932   4.306   3.642   8.519 -0.2757  0.9245 -0.0570
   6223SM   H7T 7933   4.141   3.589   8.547  0.6456  1.9059 -1.5648
   6223SM   C8S 7934   4.242   3.478   8.388  0.0911  0.7629 -0.8526
   6223SM   H8S 7935   4.182   3.385   8.387 -0.3609  0.9362  2.0869
   6223SM   H8T 7936   4.342   3.440   8.360  0.6218  2.2444 -1.1044
   6223SM   C9S 7937   4.190   3.578   8.281 -0.1844  0.2655  0.1551
   6223SM   H9S 7938   4.249   3.670   8.301  1.1744 -0.9147  1.8528
   6223SM   H9T 7939   4.084   3.608   8.297 -1.1811 -1.4166 -2.6037
   6223SM  C10S 7940   4.220   3.524   8.139 -0.7459 -0.4029 -0.3919
   6223SM  H10S 7941   4.142   3.448   8.116 -0.9322 -0.2277 -0.3465
   6223SM  H10T 7942   4.326   3.490   8.133  0.3088  2.3495  0.9981
   6223SM  C11S 7943   4.217   3.641   8.036  0.0251 -0.4856  0.6814
   6223SM  H11S 7944   4.290   3.719   8.067  1.8657 -2.1947  0.8613
   6223SM  H11T 7945   4.111   3.673   8.040 -0.0241 -0.7456  2.7730
   6223SM  C12S 7946   4.252   3.597   7.895 -0.5406  0.3103 -0.1644
   6223SM  H12S 7947   4.206   3.503   7.858  1.7252 -0.5424 -1.0151
   6223SM  H12T 7948   4.357   3.560   7.902 -0.8586 -0.5675  0.0880
   6223SM  C13S 7949   4.234   3.709   7.788  0.4679  0.3784 -0.5009
   6223SM  H13S 7950   4.317   3.782   7.800  0.2216  0.5410  0.3306
   6223SM  H13T 7951   4.140   3.767   7.804  0.5150  0.4343 -0.4252
   6223SM  C14S 7952   4.253   3.655   7.644  0.4397 -0.4820 -0.2157
   6223SM  H14S 7953   4.208   3.554   7.631 -0.7437 -0.0277  0.2194
   6223SM  H14T 7954   4.360   3.635   7.623 -0.0222 -2.3438 -1.0072
   6223SM  C15S 7955   4.195   3.757   7.540 -0.4076  0.2686  0.3893
   6223SM  H15S 7956   4.241   3.858   7.550 -1.2485  0.6297  0.7255
   6223SM  H15T 7957   4.088   3.760   7.569 -0.5712  0.7406 -0.2289
   6223SM  C16S 7958   4.190   3.734   7.389  0.6504  0.2602 -0.4306
   6223SM  H16S 7959   4.101   3.780   7.341 -1.2881 -2.5399  0.2334
   6223SM  H16T 7960   4.175   3.625   7.375 -1.7646  0.4840  0.0173
   6223SM  C17S 7961   4.304   3.783   7.308  0.4497  0.4258 -0.1586
   6223SM  H17S 7962   4.304   3.894   7.317 -1.8411  0.5016 -0.5721
   6223SM  H17T 7963   4.286   3.769   7.199  0.0597  0.3418 -0.0843
   6223SM  C18S 7964   4.439   3.725   7.343 -0.0186  0.7945 -0.5269
   6223SM  H18S 7965   4.429   3.616   7.324 -1.8924  0.6803  0.8297
   6223SM  H18T 7966   4.455   3.737   7.452 -0.6792 -1.8227 -0.0714
   6223SM  H18U 7967   4.522   3.775   7.289  0.4140  1.0851  0.3905
   6223SM   C1F 7968   3.921   3.825   8.905  0.1351  0.4117  0.1774
   6223SM    OF 7969   3.966   3.917   8.972  0.3746 -0.4594 -0.1600
   6223SM   C2F 7970   3.794   3.845   8.830 -0.0962  0.1575  0.0230
   6223SM   H2F 7971   3.756   3.947   8.854  1.7779  1.1964 -1.2096
   6223SM   H2G 7972   3.723   3.767   8.865  1.1613  0.3154  3.2322
   6223SM   C3F 7973   3.827   3.843   8.682  0.4964  0.2603  0.2465
   6223SM   H3F 7974   3.729   3.847   8.630  0.1963 -3.1174  0.3690
   6223SM   H3G 7975   3.874   3.748   8.650  0.4735  0.9903 -2.2051
   6223SM   C4F 7976   3.915   3.959   8.633 -0.2982 -0.1471  0.2197
   6223SM   H4F 7977   4.019   3.925   8.647 -0.5484 -0.7020  0.7737
   6223SM   H4G 7978   3.891   4.047   8.697 -1.4418 -1.5569  1.8220
   6223SM   C5F 7979   3.881   3.989   8.490  0.1205  0.1061  0.1918
   6223SM   H5F 7980   3.935   4.078   8.452 -0.1750  0.2468  0.0929
   6223SM   H5G 7981   3.773   4.004   8.468  0.1478 -0.2165 -0.1694
   6223SM   C6F 7982   3.929   3.871   8.395  0.2169  0.3066  0.2478
   6223SM   H6F 7983   3.886   3.777   8.437  0.0296  0.1882 -0.2090
   6223SM   H6G 7984   4.038   3.863   8.413  0.4220  2.4930  0.2340
   6223SM   C7F 7985   3.898   3.881   8.247 -0.1193 -0.0622  1.5299
   6223SM   H7F 7986   3.790   3.892   8.222  0.2547  2.8184  0.7375
   6223SM   H7G 7987   3.933   3.792   8.192 -1.0233  0.0744  0.7014
   6223SM   C8F 7988   3.972   4.006   8.182  0.0491 -0.2392 -0.0724
   6223SM   H8F 7989   4.074   4.007   8.225  0.4518  0.1775 -1.0157
   6223SM   H8G 7990   3.908   4.096   8.198  1.4717  0.5605  1.3895
   6223SM   C9F 7991   3.997   3.999   8.027  0.6503  0.4299  0.4778
   6223SM   H9F 7992   4.050   3.904   8.006  1.3815  0.5607  1.6498
   6223SM   H9G 7993   4.067   4.078   7.990 -1.2296  1.7484 -0.4224
   6223SM  C10F 7994   3.857   3.991   7.960  0.1244 -0.2296 -0.4059
   6223SM  H10F 7995   3.793   4.079   7.984  1.4322  0.1060  2.2569
   6223SM  H10G 7996   3.807   3.899   7.994  1.4718 -0.6608  0.4994
   6223SM  C11F 7997   3.872   3.985   7.808  0.6722  0.5253  0.5522
   6223SM  H11F 7998   3.779   3.943   7.763  0.3436 -0.7122  2.2783
   6223SM  H11G 7999   3.951   3.910   7.782 -2.3951 -3.1341  0.9482
   6223SM  C12F 8000   3.910   4.112   7.731 -0.0526  0.0655 -0.8062
   6223SM  H12F 8001   4.020   4.116   7.750 -0.6056 -0.8635  3.6143
   6223SM  H12G 8002   3.880   4.206   7.783  1.4028 -0.2573  0.7146
   6223SM  C13F 8003   3.890   4.104   7.580  0.1645 -0.3778  0.4903
   6223SM  H13F 8004   3.798   4.164   7.567  0.5026  0.4608  1.7420
   6223SM  H13G 8005   3.867   4.004   7.538  1.2225 -0.6331  0.4772
   6223SM  C14F 8006   4.014   4.149   7.495  0.1660 -0.1266 -0.0036
   6223SM  H14F 8007   4.107   4.097   7.526 -1.4731 -3.4800 -0.3691
   6223SM  H14G 8008   4.034   4.259   7.499  0.5133 -0.1154 -1.3454
   6223SM  C15F 8009   3.988   4.112   7.345 -0.9894  0.0314  0.5680
   6223SM  H15F 8010   3.897   4.163   7.306 -1.7665 -1.8586 -0.2104
   6223SM  H15G 8011   3.973   4.003   7.331 -0.5493  0.1974 -1.5028
   6223SM  C16F 8012   4.103   4.155   7.254 -0.4134 -0.0158  0.0550
   6223SM  H16F 8013   4.196   4.098   7.278 -0.8601 -1.1310 -0.7768
   6223SM  H16G 8014   4.128   4.262   7.269 -2.5813  0.5123  0.2710
   6223SM  C17F 8015   4.080   4.135   7.100 -0.0570  0.1034 -0.1055
   6223SM  H17F 8016   4.170   4.168   7.043 -0.8243 -0.6309 -1.7958
   6223SM  H17G 8017   3.994   4.196   7.067  0.9454  1.2005 -0.7451
   6223SM  C18F 8018   4.049   3.989   7.051 -0.0449 -0.2775  0.6884
   6223SM  H18F 8019   3.958   3.949   7.101 -0.1283 -1.2602 -0.2101
   6223SM  H18G 8020   4.132   3.928   7.093  1.8955  0.0391 -2.3805
   6223SM  C19F 8021   4.022   3.981   6.892  0.4989 -0.3385 -0.2739
   6223SM  H19F 8022   4.037   3.876   6.860  2.4198 -0.8286  1.8955
   6223SM  H19G 8023   4.105   4.047   6.858  0.1215  1.4980  2.0796
   6223SM  C20F 8024   3.892   4.049   6.856 -0.2767  0.1376 -0.7873
   6223SM  H20F 8025   3.879   4.146   6.908 -2.1290  0.5203 -1.8475
   6223SM  H20G 8026   3.813   3.981   6.894  0.9727 -0.4522  0.8381
   6223SM  C21F 8027   3.860   4.074   6.708 -0.2007 -0.2533 -0.6325
   6223SM  H21F 8028   3.945   4.120   6.653 -0.3904  1.5554  0.5164
   6223SM  H21G 8029   3.777   4.148   6.702  0.9653  1.0671 -0.9921
   6223SM  C22F 8030   3.816   3.951   6.633 -0.1019  0.7017 -0.4924
   6223SM  H22F 8031   3.774   3.866   6.692  0.5235  0.4205 -0.4408
   6223SM  H22G 8032   3.905   3.901   6.589  0.6013 -0.0260  1.6015
   6223SM  C23F 8033   3.727   3.980   6.509  0.2921  1.0502  0.0313
   6223SM  H23F 8034   3.718   3.885   6.451  3.5981  0.8485 -0.3109
   6223SM  H23G 8035   3.788   4.045   6.444  3.2206 -1.7163 -0.2255
   6223SM  H23H 8036   3.627   4.026   6.527 -1.0889 -1.5454 -0.4342
   6323SM     N 8037   3.633   4.954   9.001  0.1561  0.0563  0.4064
   6323SM   C15 8038   3.593   5.046   8.887  0.5116 -0.2950 -0.5248
   6323SM  H15A 8039   3.517   5.112   8.924 -0.6836 -1.5195 -0.7009
   6323SM  H15B 8040   3.562   4.989   8.801  1.1589 -0.5881 -0.5727
   6323SM  H15C 8041   3.682   5.102   8.863 -1.2735  2.5220 -1.0217
   6323SM   C14 8042   3.529   4.843   9.021  0.6560 -0.3046 -0.4750
   6323SM  H14A 8043   3.556   4.792   9.112 -1.1808  1.2817  1.0314
   6323SM  H14B 8044   3.532   4.778   8.934 -1.1957 -0.7569 -0.2351
   6323SM  H14C 8045   3.427   4.874   9.039  0.5314 -1.0205  0.0776
   6323SM   C13 8046   3.759   4.878   8.968  0.2741  0.5631  0.6411
   6323SM  H13A 8047   3.832   4.957   8.976 -0.1123  1.0182 -0.1622
   6323SM  H13B 8048   3.764   4.835   8.869  2.4562  1.7243  0.1819
   6323SM  H13C 8049   3.776   4.795   9.035 -0.2806  1.9139  2.5182
   6323SM   C12 8050   3.655   5.029   9.129  0.4874 -0.7600  0.4707
   6323SM  H12A 8051   3.701   4.958   9.196  3.0489  0.3006 -0.0437
   6323SM  H12B 8052   3.557   5.070   9.146  0.2291 -1.0643 -0.2522
   6323SM   C11 8053   3.746   5.157   9.127  0.0320 -0.1910 -0.3127
   6323SM  H11A 8054   3.751   5.206   9.226 -0.0677  1.6940 -1.1949
   6323SM  H11B 8055   3.702   5.231   9.057 -1.3504  0.8642  1.5978
   6323SM     P 8056   3.969   5.241   9.027  0.4959 -0.0060 -0.3071
   6323SM   O13 8057   4.001   5.350   9.127 -0.3872 -0.0931 -0.0613
   6323SM   O14 8058   4.082   5.194   8.953  0.2213 -0.6998 -0.0153
   6323SM   O11 8059   3.877   5.302   8.917 -0.5587  0.2024  0.2346
   6323SM   O12 8060   3.876   5.126   9.089 -0.5564 -0.0600  0.5504
   6323SM   C1S 8061   3.926   5.398   8.825  0.8243  0.0437  0.2823
   6323SM   H1S 8062   4.036   5.394   8.812  0.6678 -0.6156 -0.9826
   6323SM   H1T 8063   3.887   5.498   8.854 -0.5185 -0.6657  1.0257
   6323SM    NF 8064   3.936   5.449   8.581  0.1051 -0.4013  0.4230
   6323SM   HNF 8065   3.905   5.540   8.556 -0.8503 -1.1611 -1.3124
   6323SM   C2S 8066   3.857   5.384   8.683 -0.2785 -0.3756  0.1404
   6323SM   H2S 8067   3.859   5.274   8.668  1.2520 -0.5461  1.3721
   6323SM   C3S 8068   3.702   5.424   8.690  0.3169  0.0486  0.4220
   6323SM   H3S 8069   3.698   5.532   8.714  0.1512  0.1206  0.0735
   6323SM    O3 8070   3.630   5.362   8.798  0.2264 -0.1669 -0.0921
   6323SM   HO3 8071   3.697   5.324   8.855 -0.5056 -0.7142  0.4231
   6323SM   C4S 8072   3.635   5.400   8.557  0.0567  0.6940 -0.1981
   6323SM   H4S 8073   3.655   5.301   8.515  1.6875  1.0287 -0.2725
   6323SM   C5S 8074   3.548   5.488   8.495  0.0815 -0.1538 -0.2527
   6323SM   H5S 8075   3.507   5.566   8.561 -0.1224  0.9471 -1.6351
   6323SM   C6S 8076   3.474   5.476   8.365  0.4347 -0.5493 -0.7395
   6323SM   H6S 8077   3.449   5.574   8.319 -1.4976 -1.5843 -2.0278
   6323SM   H6T 8078   3.376   5.435   8.399 -0.5289  2.0224 -0.1848
   6323SM   C7S 8079   3.529   5.372   8.271  0.2999  0.5287  0.9600
   6323SM   H7S 8080   3.529   5.274   8.323  1.4741 -1.5251 -2.5576
   6323SM   H7T 8081   3.633   5.396   8.242  0.0748  0.9650  0.5165
   6323SM   C8S 8082   3.447   5.352   8.140  0.1233  0.0183 -0.5446
   6323SM   H8S 8083   3.428   5.456   8.106  1.5706  0.8104  0.9382
   6323SM   H8T 8084   3.353   5.298   8.164  0.3319 -0.1081 -0.0177
   6323SM   C9S 8085   3.516   5.265   8.037 -0.2260  0.1583 -0.5448
   6323SM   H9S 8086   3.537   5.169   8.088  0.8144 -0.5026 -2.1234
   6323SM   H9T 8087   3.617   5.301   8.006  1.1433 -1.3710  1.8836
   6323SM  C10S 8088   3.434   5.214   7.920 -0.1127 -0.2113  0.8460
   6323SM  H10S 8089   3.330   5.200   7.956 -0.2117  1.9283  1.5267
   6323SM  H10T 8090   3.484   5.120   7.890  0.7624  0.2318  0.9077
   6323SM  C11S 8091   3.435   5.312   7.802 -0.5384 -0.2589  0.6432
   6323SM  H11S 8092   3.540   5.347   7.786 -1.0514  0.4436 -1.4449
   6323SM  H11T 8093   3.376   5.404   7.818  1.4125  1.1127  0.3476
   6323SM  C12S 8094   3.391   5.244   7.671  0.4173  0.4823 -0.1473
   6323SM  H12S 8095   3.284   5.214   7.672  0.7870 -1.0065  1.7155
   6323SM  H12T 8096   3.446   5.149   7.658  0.2267  0.1207  1.4318
   6323SM  C13S 8097   3.406   5.348   7.555  0.1716  0.6989 -0.1690
   6323SM  H13S 8098   3.497   5.411   7.569  0.8776 -0.4465  0.4881
   6323SM  H13T 8099   3.311   5.405   7.561 -0.6246 -0.5331 -0.7973
   6323SM  C14S 8100   3.427   5.273   7.421 -0.4478  0.3611  0.6577
   6323SM  H14S 8101   3.353   5.191   7.415  0.9549 -1.1116  2.3088
   6323SM  H14T 8102   3.527   5.226   7.407 -0.6087  0.8545 -3.1980
   6323SM  C15S 8103   3.396   5.360   7.300  0.2131 -0.0973  0.4070
   6323SM  H15S 8104   3.477   5.435   7.318  1.1131 -1.2817  1.5327
   6323SM  H15T 8105   3.295   5.404   7.295  0.4238  0.3589 -4.1178
   6323SM  C16S 8106   3.416   5.311   7.154 -0.2502  0.0988 -0.5403
   6323SM  H16S 8107   3.330   5.251   7.118 -0.2007  0.0062 -0.5080
   6323SM  H16T 8108   3.493   5.231   7.167 -2.3633 -1.8365  0.7962
   6323SM  C17S 8109   3.477   5.425   7.067  0.8416  0.3560  0.0045
   6323SM  H17S 8110   3.546   5.494   7.121  1.8569  0.0304 -0.8516
   6323SM  H17T 8111   3.391   5.492   7.043 -0.2378 -1.2451 -0.7435
   6323SM  C18S 8112   3.521   5.380   6.923 -0.6787 -0.1576 -0.4778
   6323SM  H18S 8113   3.516   5.464   6.851 -4.2464  0.7696  0.6557
   6323SM  H18T 8114   3.476   5.288   6.881  1.5341  0.0860 -3.7276
   6323SM  H18U 8115   3.628   5.352   6.937  0.2264  1.9466 -2.5881
   6323SM   C1F 8116   4.052   5.398   8.546 -0.3927 -0.7740  0.4735
   6323SM    OF 8117   4.094   5.297   8.600 -0.1191  0.1567 -0.7566
   6323SM   C2F 8118   4.132   5.466   8.435 -0.5341  0.2711  0.0567
   6323SM   H2F 8119   4.238   5.449   8.463 -1.1006  0.8953  2.9505
   6323SM   H2G 8120   4.110   5.574   8.419  0.5686  0.5880  0.5640
   6323SM   C3F 8121   4.099   5.394   8.309 -1.3465 -0.4542 -0.3882
   6323SM   H3F 8122   3.994   5.400   8.274 -0.6502  0.6615 -2.4769
   6323SM   H3G 8123   4.115   5.284   8.321  1.0917 -0.3679 -2.0505
   6323SM   C4F 8124   4.184   5.431   8.191 -0.3112  0.1204  0.6882
   6323SM   H4F 8125   4.289   5.401   8.208 -0.7918 -1.2717  1.3594
   6323SM   H4G 8126   4.190   5.542   8.189 -1.3125  0.2097  1.5813
   6323SM   C5F 8127   4.141   5.374   8.056  0.8333 -0.4160  0.4776
   6323SM   H5F 8128   4.043   5.417   8.025  0.8485 -1.7623 -1.7150
   6323SM   H5G 8129   4.129   5.263   8.065 -1.0832 -0.0677  3.8258
   6323SM   C6F 8130   4.243   5.404   7.944 -0.7664  0.1888 -0.2915
   6323SM   H6F 8131   4.328   5.340   7.976  1.0424  2.7558  0.3848
   6323SM   H6G 8132   4.269   5.512   7.944  0.3286 -0.0684 -0.3963
   6323SM   C7F 8133   4.196   5.353   7.802  0.7476  0.0097 -0.1928
   6323SM   H7F 8134   4.111   5.417   7.770  2.1856  2.3189  0.3975
   6323SM   H7G 8135   4.160   5.255   7.839 -0.7760  1.1218  1.4593
   6323SM   C8F 8136   4.296   5.364   7.697 -0.6998 -0.3165  0.3270
   6323SM   H8F 8137   4.389   5.311   7.726  0.0007  0.4763 -0.4106
   6323SM   H8G 8138   4.306   5.472   7.674 -3.4250  0.2504  1.4056
   6323SM   C9F 8139   4.247   5.297   7.566  0.1235  0.6448 -0.0430
   6323SM   H9F 8140   4.142   5.330   7.546 -0.1484 -0.2829 -0.2004
   6323SM   H9G 8141   4.243   5.189   7.593  0.6575  0.3236 -1.1615
   6323SM  C10F 8142   4.334   5.293   7.438  0.3075 -0.0347 -0.8732
   6323SM  H10F 8143   4.442   5.284   7.462  0.0201  1.4473  1.2158
   6323SM  H10G 8144   4.311   5.394   7.397  0.0273 -0.7537 -2.5736
   6323SM  C11F 8145   4.304   5.195   7.326  0.2286 -0.1346 -0.1550
   6323SM  H11F 8146   4.193   5.198   7.315  0.1898  1.8938  0.3264
   6323SM  H11G 8147   4.334   5.090   7.343 -0.3674  0.0604  2.4173
   6323SM  C12F 8148   4.356   5.241   7.187 -0.6855  0.1164  0.0793
   6323SM  H12F 8149   4.332   5.349   7.177 -0.9911  0.0721  0.3477
   6323SM  H12G 8150   4.306   5.183   7.107 -1.0242  1.5876 -0.8307
   6323SM  C13F 8151   4.505   5.246   7.176 -0.6246 -0.2830  0.0898
   6323SM  H13F 8152   4.545   5.142   7.182 -0.4372 -0.1284  2.4676
   6323SM  H13G 8153   4.543   5.310   7.258 -1.0252 -0.4426  0.4064
   6323SM  C14F 8154   4.558   5.298   7.035 -0.0469  0.6804  0.2513
   6323SM  H14F 8155   4.669   5.309   7.037 -0.1264  1.5027  0.2706
   6323SM  H14G 8156   4.521   5.400   7.014 -0.3926  0.2437 -1.5174
   6323SM  C15F 8157   4.517   5.212   6.915 -0.6997 -0.0282  0.3627
   6323SM  H15F 8158   4.407   5.223   6.911 -0.8087 -1.3376 -1.1242
   6323SM  H15G 8159   4.530   5.104   6.939  0.8920 -0.0129 -0.2941
   6323SM  C16F 8160   4.590   5.242   6.783  0.3946 -0.3854  1.0352
   6323SM  H16F 8161   4.695   5.207   6.789  0.7762  0.6112  0.3041
   6323SM  H16G 8162   4.586   5.352   6.765 -1.1470 -0.6515 -0.6075
   6323SM  C17F 8163   4.523   5.179   6.654  0.3649 -0.2396 -0.4839
   6323SM  H17F 8164   4.541   5.070   6.666  1.3040  0.0832  1.5753
   6323SM  H17G 8165   4.596   5.209   6.576  0.6749  1.1991  0.3409
   6323SM  C18F 8166   4.383   5.222   6.622 -0.2710 -0.1771 -0.0789
   6323SM  H18F 8167   4.376   5.333   6.621 -0.4496 -0.1837  0.2927
   6323SM  H18G 8168   4.306   5.183   6.691 -1.8499  3.0098  0.1313
   6323SM  C19F 8169   4.334   5.171   6.482 -0.1371 -0.6337  0.6475
   6323SM  H19F 8170   4.225   5.184   6.493 -0.0236  0.9764  0.1951
   6323SM  H19G 8171   4.357   5.063   6.478 -0.2465 -0.6651  0.8603
   6323SM  C20F 8172   4.403   5.267   6.377  0.1342  0.2553 -0.4343
   6323SM  H20F 8173   4.512   5.246   6.369 -0.0206 -0.3682 -1.0064
   6323SM  H20G 8174   4.394   5.376   6.397  0.4699 -0.2195  2.8938
   6323SM  C21F 8175   4.348   5.241   6.239  0.6265 -0.4329  0.0736
   6323SM  H21F 8176   4.240   5.263   6.229  1.0366  0.5740 -3.4861
   6323SM  H21G 8177   4.362   5.133   6.216 -0.0840 -0.8570  1.4973
   6323SM  C22F 8178   4.418   5.333   6.129  0.7414 -0.3789 -0.4293
   6323SM  H22F 8179   4.525   5.306   6.119  0.8477  0.1174 -0.6747
   6323SM  H22G 8180   4.407   5.434   6.173  2.3267 -0.0408 -0.7515
   6323SM  C23F 8181   4.345   5.320   5.997 -0.1720  0.1461 -0.1229
   6323SM  H23F 8182   4.238   5.332   6.022  0.3176  0.5752  1.9293
   6323SM  H23G 8183   4.364   5.221   5.949  2.7382  1.2849 -1.5581
   6323SM  H23H 8184   4.370   5.389   5.914 -1.6507 -1.3652 -1.9245
   6423SM     N 8185   5.998   3.785   9.653 -0.8001 -0.2153  0.8120
   6423SM   C15 8186   5.949   3.767   9.514  0.5918  0.0864  0.6302
   6423SM  H15A 8187   5.953   3.865   9.469  3.2287  0.3781  1.3596
   6423SM  H15B 8188   5.847   3.732   9.521 -0.4065  2.7671  0.6368
   6423SM  H15C 8189   6.011   3.701   9.455  0.8052  0.8548 -0.0281
   6423SM   C14 8190   5.998   3.649   9.720  0.3345 -0.4779 -0.1800
   6423SM  H14A 8191   5.897   3.616   9.737  0.2355  0.3253  0.9018
   6423SM  H14B 8192   6.055   3.650   9.812  0.0657 -1.1911 -0.0004
   6423SM  H14C 8193   6.033   3.578   9.646  0.1239  0.4034 -1.1486
   6423SM   C13 8194   6.137   3.846   9.645 -1.4975 -0.0124 -0.1804
   6423SM  H13A 8195   6.165   3.866   9.748  1.5128 -1.7448 -0.5334
   6423SM  H13B 8196   6.123   3.937   9.588  0.3940  1.8265  2.0688
   6423SM  H13C 8197   6.204   3.771   9.606 -3.0996 -1.2092 -0.7361
   6423SM   C12 8198   5.906   3.874   9.742  0.5430  0.5784 -0.1081
   6423SM  H12A 8199   5.947   3.875   9.842  0.4903 -1.0804 -0.0470
   6423SM  H12B 8200   5.814   3.818   9.738  1.6060 -1.2953  0.2556
   6423SM   C11 8201   5.883   4.019   9.693 -0.1452 -0.5455  0.0784
   6423SM  H11A 8202   5.969   4.086   9.715 -0.5407  0.4269 -1.1711
   6423SM  H11B 8203   5.808   4.070   9.757  0.8707 -0.1052  0.9482
   6423SM     P 8204   5.866   4.150   9.461  0.2829  0.1221  0.2295
   6423SM   O13 8205   5.779   4.260   9.502 -0.4802 -0.2669  0.0260
   6423SM   O14 8206   6.011   4.165   9.458  0.1225 -0.3201  0.0352
   6423SM   O11 8207   5.810   4.102   9.323  0.0653  0.0654  0.0007
   6423SM   O12 8208   5.838   4.028   9.556  0.1019 -0.1249  0.7075
   6423SM   C1S 8209   5.673   4.081   9.294  0.4137  0.2528  0.7832
   6423SM   H1S 8210   5.607   4.150   9.350  2.2283  0.6742  2.4913
   6423SM   H1T 8211   5.639   3.979   9.324 -0.7587 -0.7662 -3.2868
   6423SM    NF 8212   5.497   4.043   9.112 -0.4398  0.4126 -0.4022
   6423SM   HNF 8213   5.471   3.952   9.079  0.0974  0.6731 -1.6252
   6423SM   C2S 8214   5.640   4.057   9.138 -0.3508 -0.4298 -0.2956
   6423SM   H2S 8215   5.668   4.150   9.083 -1.4246  0.4300  0.5537
   6423SM   C3S 8216   5.735   3.945   9.078  0.6461  0.6784  0.1425
   6423SM   H3S 8217   5.687   3.850   9.108  0.0062 -0.0528 -2.9094
   6423SM    O3 8218   5.864   3.940   9.135  0.2760  0.0828 -0.4094
   6423SM   HO3 8219   5.862   4.013   9.197  1.1145 -0.5869  0.4405
   6423SM   C4S 8220   5.734   3.936   8.923  0.3067 -0.1379 -0.4356
   6423SM   H4S 8221   5.668   3.861   8.879  1.5296 -1.9043  0.6346
   6423SM   C5S 8222   5.795   4.028   8.846  0.4474 -0.4236  0.1301
   6423SM   H5S 8223   5.851   4.108   8.898  0.5987 -1.1297  1.0797
   6423SM   C6S 8224   5.756   4.056   8.700  0.3671  0.5033 -0.1531
   6423SM   H6S 8225   5.843   4.050   8.631 -0.1668  0.4731 -0.8313
   6423SM   H6T 8226   5.710   4.158   8.698 -1.2115 -0.1780  0.2130
   6423SM   C7S 8227   5.647   3.953   8.641  1.0321 -0.1405 -0.2059
   6423SM   H7S 8228   5.554   3.975   8.699  1.0071  1.6279 -0.8664
   6423SM   H7T 8229   5.690   3.851   8.643  0.9277 -0.2316 -1.8149
   6423SM   C8S 8230   5.604   3.986   8.498 -0.2160  0.5757 -1.1184
   6423SM   H8S 8231   5.585   4.095   8.494 -3.2246  0.0916 -3.1352
   6423SM   H8T 8232   5.508   3.930   8.494  0.5097 -0.9208  0.7464
   6423SM   C9S 8233   5.693   3.927   8.388  0.3927  0.0928  0.2068
   6423SM   H9S 8234   5.675   3.817   8.384  0.6250  0.0298  0.7522
   6423SM   H9T 8235   5.803   3.941   8.401  0.5308  1.1091 -1.7218
   6423SM  C10S 8236   5.651   3.976   8.250  0.5382 -0.4439 -0.4070
   6423SM  H10S 8237   5.671   4.085   8.252  0.1843 -0.3929  0.2105
   6423SM  H10T 8238   5.544   3.965   8.223  0.8327 -0.7448 -1.5296
   6423SM  C11S 8239   5.727   3.902   8.139 -0.5295 -0.0735  0.0102
   6423SM  H11S 8240   5.722   3.793   8.162  1.7573 -1.0668 -3.3270
   6423SM  H11T 8241   5.832   3.932   8.157 -0.0672 -0.4596 -1.8008
   6423SM  C12S 8242   5.689   3.918   7.991  0.6919  0.4826  0.2754
   6423SM  H12S 8243   5.579   3.905   7.986  0.5533  1.8374 -0.7460
   6423SM  H12T 8244   5.733   3.839   7.927  0.2482  1.1189 -0.8342
   6423SM  C13S 8245   5.732   4.052   7.924 -0.6136  0.2930 -0.2087
   6423SM  H13S 8246   5.843   4.052   7.920 -0.5330  1.1078  1.0800
   6423SM  H13T 8247   5.695   4.131   7.994 -1.5529 -0.7177  0.4630
   6423SM  C14S 8248   5.674   4.067   7.789 -0.3467  0.0367 -0.3022
   6423SM  H14S 8249   5.697   4.172   7.762  0.0934 -0.6293 -2.7370
   6423SM  H14T 8250   5.563   4.070   7.790 -0.3861 -0.4939  1.8816
   6423SM  C15S 8251   5.737   3.969   7.687 -0.7383 -0.8372  0.5777
   6423SM  H15S 8252   5.717   3.862   7.711 -0.1717 -1.1778 -0.3967
   6423SM  H15T 8253   5.847   3.985   7.696 -0.6389 -0.7838 -0.5943
   6423SM  C16S 8254   5.688   3.990   7.543 -0.5390  0.0867  0.3527
   6423SM  H16S 8255   5.702   4.091   7.501  3.0961  0.6480  2.4178
   6423SM  H16T 8256   5.580   3.964   7.538 -0.4066 -0.8839  1.8214
   6423SM  C17S 8257   5.789   3.905   7.454 -0.4382 -0.0731  0.0970
   6423SM  H17S 8258   5.809   3.807   7.503  0.9450  0.8473  1.4491
   6423SM  H17T 8259   5.888   3.956   7.448 -0.7135  0.3537 -0.9995
   6423SM  C18S 8260   5.740   3.895   7.308  0.0737  0.5104  0.3811
   6423SM  H18S 8261   5.811   3.832   7.250 -0.0129  1.4343 -0.7822
   6423SM  H18T 8262   5.729   3.993   7.256  1.7771 -0.3744 -1.8381
   6423SM  H18U 8263   5.641   3.846   7.295  0.8723 -1.4688  1.3657
   6423SM   C1F 8264   5.410   4.134   9.145  0.1250 -0.2860  0.6406
   6423SM    OF 8265   5.440   4.245   9.187 -0.4192 -0.4983  0.1452
   6423SM   C2F 8266   5.270   4.099   9.115  0.5861 -0.2120  0.7268
   6423SM   H2F 8267   5.199   4.176   9.153  0.7530  0.5100 -0.4122
   6423SM   H2G 8268   5.252   3.998   9.158  0.1144 -0.7121 -0.5847
   6423SM   C3F 8269   5.251   4.078   8.964  0.8987 -0.0654  0.4613
   6423SM   H3F 8270   5.144   4.065   8.939  0.9854 -0.0936  0.1034
   6423SM   H3G 8271   5.309   3.991   8.926  2.9549  1.6484 -0.5475
   6423SM   C4F 8272   5.307   4.179   8.864 -0.2086 -1.0327  1.3117
   6423SM   H4F 8273   5.418   4.172   8.861 -0.1368  0.0210 -1.1168
   6423SM   H4G 8274   5.285   4.280   8.905  1.3294  0.4313 -1.2036
   6423SM   C5F 8275   5.255   4.162   8.717  0.8346 -0.1413 -1.0808
   6423SM   H5F 8276   5.151   4.200   8.702  0.0296 -0.6664  2.1874
   6423SM   H5G 8277   5.259   4.059   8.676  1.1112  0.6235 -3.0815
   6423SM   C6F 8278   5.343   4.235   8.620 -0.5672  0.0217  0.7203
   6423SM   H6F 8279   5.441   4.185   8.632 -1.0385 -0.8196  1.1289
   6423SM   H6G 8280   5.346   4.344   8.645 -1.8021  0.2000  0.1685
   6423SM   C7F 8281   5.310   4.221   8.472 -0.3300 -0.2438  0.0878
   6423SM   H7F 8282   5.207   4.254   8.443 -0.1724  1.0880  0.9553
   6423SM   H7G 8283   5.310   4.112   8.447 -2.5951 -0.0970 -0.8292
   6423SM   C8F 8284   5.402   4.293   8.377 -0.9263  0.3621 -0.2502
   6423SM   H8F 8285   5.508   4.268   8.397 -0.2932  3.7639  1.2924
   6423SM   H8G 8286   5.390   4.399   8.408  0.1646  1.2731 -2.7034
   6423SM   C9F 8287   5.383   4.267   8.229  0.6553  0.6372 -0.6315
   6423SM   H9F 8288   5.354   4.160   8.223  0.3412  0.6570  0.3502
   6423SM   H9G 8289   5.478   4.292   8.176  1.4668  0.5693  0.7464
   6423SM  C10F 8290   5.270   4.349   8.164  0.2785 -0.1936 -0.1523
   6423SM  H10F 8291   5.297   4.454   8.186  4.6890 -1.0839 -0.4361
   6423SM  H10G 8292   5.176   4.312   8.210  0.5276 -3.0045 -1.6923
   6423SM  C11F 8293   5.254   4.308   8.015  1.4798  0.4290  0.3279
   6423SM  H11F 8294   5.159   4.344   7.970  0.7678 -1.9532 -0.2181
   6423SM  H11G 8295   5.234   4.198   8.008 -1.4779  0.8673  0.5750
   6423SM  C12F 8296   5.367   4.349   7.918  0.2243 -0.8462 -0.1497
   6423SM  H12F 8297   5.461   4.297   7.946  1.8776  2.3014  0.6106
   6423SM  H12G 8298   5.386   4.458   7.935  0.9330 -0.5805 -2.3325
   6423SM  C13F 8299   5.331   4.318   7.771 -0.0633 -0.4024 -0.0619
   6423SM  H13F 8300   5.231   4.363   7.753 -0.0649  0.3353  1.6045
   6423SM  H13G 8301   5.316   4.208   7.766  0.2263 -0.7665  3.7820
   6423SM  C14F 8302   5.431   4.384   7.667 -0.5382 -0.2476  0.1240
   6423SM  H14F 8303   5.534   4.354   7.699 -0.7377  1.5832  2.8512
   6423SM  H14G 8304   5.424   4.493   7.686 -0.9413 -0.6573  2.8466
   6423SM  C15F 8305   5.416   4.336   7.524 -0.2077 -0.3461 -0.2865
   6423SM  H15F 8306   5.318   4.363   7.481 -0.2113 -0.6230 -0.4554
   6423SM  H15G 8307   5.425   4.225   7.521  0.8507 -0.2441 -1.8252
   6423SM  C16F 8308   5.528   4.398   7.437  0.7733 -0.5176 -0.0614
   6423SM  H16F 8309   5.625   4.349   7.461  0.0167 -1.7893  0.5008
   6423SM  H16G 8310   5.539   4.507   7.457  0.2617 -0.8044  2.0908
   6423SM  C17F 8311   5.500   4.372   7.284  0.1724 -1.0973 -0.1247
   6423SM  H17F 8312   5.589   4.416   7.234  0.9037 -2.3669  0.0200
   6423SM  H17G 8313   5.407   4.428   7.262  0.1937 -0.0983  2.0178
   6423SM  C18F 8314   5.516   4.229   7.246 -0.2365  0.0236  0.0382
   6423SM  H18F 8315   5.416   4.181   7.242  1.1601 -3.0952 -3.4155
   6423SM  H18G 8316   5.590   4.171   7.306 -3.0810 -0.9349  2.9316
   6423SM  C19F 8317   5.569   4.212   7.100 -0.4096 -0.2848 -0.4661
   6423SM  H19F 8318   5.557   4.105   7.074  0.4700 -0.7697  1.0036
   6423SM  H19G 8319   5.675   4.245   7.107 -0.9609  1.2648  3.6977
   6423SM  C20F 8320   5.509   4.313   7.007 -1.1688  0.8316 -0.2679
   6423SM  H20F 8321   5.528   4.420   7.031 -1.1998  0.4738  1.4646
   6423SM  H20G 8322   5.402   4.284   7.014 -0.5409 -1.3506  1.2919
   6423SM  C21F 8323   5.555   4.296   6.861  0.5580  0.2203  0.1701
   6423SM  H21F 8324   5.515   4.203   6.817 -0.4179  0.7245 -0.0538
   6423SM  H21G 8325   5.666   4.302   6.853  0.7084 -2.1660 -0.0418
   6423SM  C22F 8326   5.491   4.402   6.764 -0.5681  0.2296 -0.2838
   6423SM  H22F 8327   5.501   4.504   6.808 -1.2981  0.8155 -1.4407
   6423SM  H22G 8328   5.384   4.377   6.748 -0.6359  0.6602 -0.5057
   6423SM  C23F 8329   5.553   4.398   6.630 -0.0517 -0.7065  0.7030
   6423SM  H23F 8330   5.513   4.472   6.558  0.2441 -1.9203 -0.7383
   6423SM  H23G 8331   5.521   4.303   6.582 -2.3737 -0.6055  1.9048
   6423SM  H23H 8332   5.662   4.416   6.635 -0.4099  1.3980  2.5881
   6523SM     N 8333   4.999   5.455   9.398 -0.3418  0.2664  0.2094
   6523SM   C15 8334   4.881   5.371   9.355 -0.1265 -0.2591 -0.0852
   6523SM  H15A 8335   4.899   5.265   9.357  0.9944 -0.0646  1.2205
   6523SM  H15B 8336   4.852   5.395   9.253  1.5704  2.7722  0.0056
   6523SM  H15C 8337   4.796   5.387   9.420  0.4066 -1.2829  0.8897
   6523SM   C14 8338   4.972   5.600   9.381 -0.2590  0.4327 -0.2372
   6523SM  H14A 8339   4.935   5.619   9.281 -0.7004 -1.3378 -0.4415
   6523SM  H14B 8340   5.062   5.659   9.393  1.9501 -2.5564 -1.0289
   6523SM  H14C 8341   4.898   5.632   9.453 -1.2212 -0.0766 -0.9802
   6523SM   C13 8342   5.035   5.425   9.539 -0.5403 -0.7999  0.0497
   6523SM  H13A 8343   5.136   5.458   9.555 -0.3167 -2.0811  1.5208
   6523SM  H13B 8344   5.031   5.319   9.561  0.4763 -0.4833  1.9411
   6523SM  H13C 8345   4.974   5.484   9.607 -0.7503  0.4272 -1.1671
   6523SM   C12 8346   5.114   5.420   9.299 -0.4038 -0.0505 -0.2805
   6523SM  H12A 8347   5.124   5.313   9.290 -1.0236 -0.2364  0.9898
   6523SM  H12B 8348   5.205   5.453   9.346 -0.7391  0.2451  0.1731
   6523SM   C11 8349   5.111   5.483   9.155  0.0047  0.1586 -0.1850
   6523SM  H11A 8350   5.006   5.469   9.121 -0.8762 -1.7004  2.8815
   6523SM  H11B 8351   5.180   5.427   9.089  1.4375  0.0833  1.3067
   6523SM     P 8352   5.105   5.727   9.049  0.1331  0.0438  0.0074
   6523SM   O13 8353   4.974   5.780   9.098 -0.1537  0.7794  0.1275
   6523SM   O14 8354   5.211   5.828   9.031 -0.0080 -0.1128  0.3181
   6523SM   O11 8355   5.082   5.649   8.910 -0.3663 -0.0018  0.4825
   6523SM   O12 8356   5.152   5.620   9.155 -0.4570 -0.5250 -0.4499
   6523SM   C1S 8357   5.190   5.568   8.854  0.4542 -0.1869 -0.1650
   6523SM   H1S 8358   5.205   5.469   8.904  0.0212 -1.5877 -2.6564
   6523SM   H1T 8359   5.283   5.628   8.845 -0.5804  1.3913 -0.6978
   6523SM    NF 8360   5.236   5.399   8.669  0.4895  0.5033  0.1411
   6523SM   HNF 8361   5.295   5.401   8.589  0.1117 -0.0700 -0.1570
   6523SM   C2S 8362   5.149   5.513   8.714  0.3986 -0.4439 -0.1206
   6523SM   H2S 8363   5.042   5.480   8.718  0.7122 -1.5870 -0.9147
   6523SM   C3S 8364   5.137   5.642   8.617  0.4413  0.1781 -0.0129
   6523SM   H3S 8365   5.239   5.686   8.627  0.8785 -0.9937  1.0495
   6523SM    O3 8366   5.034   5.737   8.655 -0.2858  0.2325  0.4176
   6523SM   HO3 8367   4.992   5.709   8.737  1.1436 -1.9880  0.4951
   6523SM   C4S 8368   5.120   5.586   8.476  0.0350 -0.5341  0.1954
   6523SM   H4S 8369   5.210   5.597   8.413 -0.3001 -0.9744 -0.3801
   6523SM   C5S 8370   5.000   5.587   8.412  0.4445 -0.1068 -0.6828
   6523SM   H5S 8371   4.909   5.623   8.462 -0.6617 -1.6338 -1.5087
   6523SM   C6S 8372   4.985   5.577   8.265 -0.1717  0.0033  0.2649
   6523SM   H6S 8373   4.949   5.676   8.231  0.2405 -0.4183 -1.5133
   6523SM   H6T 8374   4.902   5.510   8.236  0.6542 -0.5677 -0.8773
   6523SM   C7S 8375   5.106   5.523   8.188  0.1456 -0.2181  0.1992
   6523SM   H7S 8376   5.128   5.420   8.224 -1.2083 -1.4409 -2.2665
   6523SM   H7T 8377   5.179   5.607   8.190 -1.2384  1.0645 -1.0168
   6523SM   C8S 8378   5.075   5.511   8.039  0.9285 -0.1917 -0.0657
   6523SM   H8S 8379   5.030   5.610   8.018  1.2948  0.6039  2.5922
   6523SM   H8T 8380   5.003   5.429   8.014  1.1384  0.5342 -3.5238
   6523SM   C9S 8381   5.194   5.493   7.946  0.2161 -0.0991  0.0141
   6523SM   H9S 8382   5.225   5.390   7.975 -0.7309 -0.5351 -0.4727
   6523SM   H9T 8383   5.268   5.571   7.973  0.1726 -0.3553  0.9026
   6523SM  C10S 8384   5.163   5.515   7.802 -0.0324 -0.3017 -0.5721
   6523SM  H10S 8385   5.113   5.613   7.790 -3.8393 -2.1117 -0.7570
   6523SM  H10T 8386   5.081   5.443   7.783 -0.5457  0.2248 -0.3721
   6523SM  C11S 8387   5.276   5.498   7.703  0.3660  0.6753 -0.2165
   6523SM  H11S 8388   5.328   5.400   7.715  1.0150  0.8813 -1.2199
   6523SM  H11T 8389   5.359   5.569   7.726  2.1735 -0.9368 -1.3859
   6523SM  C12S 8390   5.217   5.513   7.566 -0.4135 -0.5585 -0.4136
   6523SM  H12S 8391   5.143   5.596   7.561  0.0785 -0.0560  0.3582
   6523SM  H12T 8392   5.164   5.417   7.548 -1.3485 -0.2426  0.5455
   6523SM  C13S 8393   5.329   5.550   7.472 -0.1528  0.2447  0.1054
   6523SM  H13S 8394   5.412   5.476   7.468  0.3465  0.7306  1.0821
   6523SM  H13T 8395   5.368   5.643   7.518  1.1110  0.1625 -0.7379
   6523SM  C14S 8396   5.272   5.572   7.335 -0.0669 -0.3104 -0.5031
   6523SM  H14S 8397   5.207   5.661   7.344 -0.5887 -0.6329 -1.0070
   6523SM  H14T 8398   5.208   5.485   7.307  0.3591  0.0767 -2.8667
   6523SM  C15S 8399   5.377   5.603   7.223  0.3355  0.7811  0.0572
   6523SM  H15S 8400   5.436   5.511   7.209  0.0631  0.3510  1.5175
   6523SM  H15T 8401   5.452   5.680   7.252  3.1283 -2.3197  1.6451
   6523SM  C16S 8402   5.305   5.629   7.092  0.1425  0.2454 -0.1504
   6523SM  H16S 8403   5.230   5.710   7.107 -3.4894 -3.0373  0.8428
   6523SM  H16T 8404   5.267   5.532   7.055  0.5456 -0.0373  0.1667
   6523SM  C17S 8405   5.403   5.654   6.980  0.4649  0.7128  0.3520
   6523SM  H17S 8406   5.489   5.585   6.986  1.8024  2.1972 -0.7726
   6523SM  H17T 8407   5.453   5.751   7.000 -0.7695  1.2166  1.1388
   6523SM  C18S 8408   5.347   5.664   6.841  0.7259 -0.0990  0.2820
   6523SM  H18S 8409   5.307   5.575   6.788  1.7323  1.9891 -4.5050
   6523SM  H18T 8410   5.415   5.708   6.765 -0.9463  0.0680 -1.1776
   6523SM  H18U 8411   5.265   5.740   6.842  0.4577 -0.3578 -0.6562
   6523SM   C1F 8412   5.218   5.291   8.740  0.3931  0.8175  0.2977
   6523SM    OF 8413   5.140   5.282   8.826  0.7280 -0.1627 -0.2049
   6523SM   C2F 8414   5.284   5.162   8.688 -0.5560  0.8254 -0.1144
   6523SM   H2F 8415   5.311   5.099   8.776  0.4039  1.3967  0.0220
   6523SM   H2G 8416   5.388   5.175   8.650  0.5398  1.0607  2.6729
   6523SM   C3F 8417   5.205   5.070   8.601  0.3712 -0.1808 -0.2329
   6523SM   H3F 8418   5.111   5.033   8.649  0.9514 -0.4823  0.7011
   6523SM   H3G 8419   5.258   4.974   8.580 -0.8649 -0.5117 -2.0886
   6523SM   C4F 8420   5.152   5.126   8.462  0.2040 -0.5327 -0.0506
   6523SM   H4F 8421   5.090   5.214   8.490  2.0778  0.3780  1.5267
   6523SM   H4G 8422   5.087   5.063   8.397  0.6431  2.0333 -3.2327
   6523SM   C5F 8423   5.270   5.167   8.368  0.2438 -0.2779  0.1215
   6523SM   H5F 8424   5.313   5.260   8.411  1.3332 -1.4455  1.6255
   6523SM   H5G 8425   5.246   5.200   8.264  0.9933  2.7289  0.8125
   6523SM   C6F 8426   5.384   5.071   8.352  0.4849 -0.4871  0.1118
   6523SM   H6F 8427   5.350   4.967   8.334 -0.5837  0.0087 -0.8458
   6523SM   H6G 8428   5.434   5.079   8.451 -0.7027 -1.0589  0.7741
   6523SM   C7F 8429   5.488   5.111   8.246  0.1090  0.4509 -0.5306
   6523SM   H7F 8430   5.578   5.046   8.252  1.1504  1.9331  1.3864
   6523SM   H7G 8431   5.524   5.213   8.270  1.8152  0.1285 -1.5450
   6523SM   C8F 8432   5.447   5.080   8.099 -0.4882  0.1105 -0.4669
   6523SM   H8F 8433   5.341   5.114   8.093 -0.1605  1.1228 -0.7772
   6523SM   H8G 8434   5.449   4.970   8.080  4.1508  0.4767 -3.9728
   6523SM   C9F 8435   5.538   5.147   8.000  0.0051  0.4395  0.2817
   6523SM   H9F 8436   5.641   5.108   8.013 -0.1081 -1.0597 -2.4856
   6523SM   H9G 8437   5.534   5.258   8.010  1.4748  0.4166  1.4020
   6523SM  C10F 8438   5.496   5.109   7.849 -0.1678  0.0251 -0.4943
   6523SM  H10F 8439   5.393   5.150   7.839 -1.4319 -2.4569  1.4206
   6523SM  H10G 8440   5.487   4.999   7.842  2.5582 -0.2754 -0.2558
   6523SM  C11F 8441   5.583   5.165   7.734  0.6889  1.4215  0.0369
   6523SM  H11F 8442   5.681   5.115   7.740 -0.0498 -0.2317 -0.9378
   6523SM  H11G 8443   5.595   5.273   7.757  0.9643  1.1740  1.1269
   6523SM  C12F 8444   5.531   5.135   7.590 -0.0307 -0.2626 -0.0732
   6523SM  H12F 8445   5.444   5.195   7.554 -0.0850 -1.0197 -1.2608
   6523SM  H12G 8446   5.497   5.030   7.584  1.4018 -0.9150  1.9838
   6523SM  C13F 8447   5.628   5.182   7.487 -0.4056  0.4756 -0.3644
   6523SM  H13F 8448   5.730   5.144   7.509 -1.0423 -1.1528 -0.0611
   6523SM  H13G 8449   5.639   5.292   7.498 -0.4864  0.3035  1.7908
   6523SM  C14F 8450   5.604   5.141   7.343 -0.2639 -0.0724 -0.1032
   6523SM  H14F 8451   5.579   5.033   7.341 -1.8525  0.2781 -1.8829
   6523SM  H14G 8452   5.701   5.140   7.289  0.8989 -0.8742  1.8806
   6523SM  C15F 8453   5.494   5.227   7.269 -0.5365  0.1754  0.1202
   6523SM  H15F 8454   5.532   5.330   7.281 -0.3574  0.0240  0.9254
   6523SM  H15G 8455   5.400   5.228   7.327 -1.9808 -2.0266 -2.0201
   6523SM  C16F 8456   5.453   5.179   7.127  0.1394  0.0945 -0.8611
   6523SM  H16F 8457   5.417   5.075   7.137  0.5798  0.1207  1.9082
   6523SM  H16G 8458   5.538   5.181   7.056  0.9815  0.5881  0.1300
   6523SM  C17F 8459   5.348   5.261   7.060 -0.7369 -0.5035  0.1243
   6523SM  H17F 8460   5.381   5.364   7.036  1.2379 -0.8983  0.9504
   6523SM  H17G 8461   5.257   5.270   7.123 -0.8183  1.6048 -0.2301
   6523SM  C18F 8462   5.311   5.203   6.919 -0.2072  0.8598 -0.1506
   6523SM  H18F 8463   5.310   5.092   6.925 -0.7287  0.8083 -1.0720
   6523SM  H18G 8464   5.389   5.223   6.843 -0.3904 -1.9782 -1.1978
   6523SM  C19F 8465   5.174   5.253   6.875  0.3577  0.0205 -0.5344
   6523SM  H19F 8466   5.186   5.351   6.826  3.0872  0.6999  1.3004
   6523SM  H19G 8467   5.105   5.271   6.960  0.4827  0.5470 -0.5438
   6523SM  C20F 8468   5.114   5.156   6.765  0.3332  0.4329  0.0354
   6523SM  H20F 8469   5.083   5.061   6.813  0.6779 -0.5821 -1.6615
   6523SM  H20G 8470   5.191   5.134   6.688  0.5733  0.6572  0.2083
   6523SM  C21F 8471   4.996   5.211   6.675 -0.1525 -0.8112  1.1378
   6523SM  H21F 8472   5.034   5.297   6.615 -0.0374 -0.7944  1.2339
   6523SM  H21G 8473   4.910   5.242   6.739 -0.1897  0.8137  0.3572
   6523SM  C22F 8474   4.936   5.108   6.581  0.5108 -0.3792  0.5737
   6523SM  H22F 8475   4.840   5.142   6.537 -1.3547 -2.9969  2.3168
   6523SM  H22G 8476   4.912   5.010   6.628 -1.5102 -0.4430 -0.4964
   6523SM  C23F 8477   5.031   5.083   6.464  0.1282 -0.3138 -0.0660
   6523SM  H23F 8478   4.994   4.992   6.413 -0.7531 -1.0533  1.7973
   6523SM  H23G 8479   5.137   5.062   6.491  0.2957 -0.9639 -1.1974
   6523SM  H23H 8480   5.029   5.169   6.394  1.1045 -0.4862 -0.3233
   6623SM     N 8481   4.212   2.631   9.582 -0.2879  0.1288 -0.2010
   6623SM   C15 8482   4.299   2.651   9.704  0.7223  0.0833 -0.0248
   6623SM  H15A 8483   4.289   2.746   9.754  0.4254 -0.8647  1.8123
   6623SM  H15B 8484   4.402   2.644   9.671 -0.2995 -1.7691 -3.1933
   6623SM  H15C 8485   4.292   2.572   9.777 -0.8313 -0.8430 -1.1227
   6623SM   C14 8486   4.224   2.489   9.529  0.2021  0.3382  0.6795
   6623SM  H14A 8487   4.166   2.479   9.438  2.0224 -1.1416 -0.4153
   6623SM  H14B 8488   4.193   2.418   9.605 -0.9103 -1.3020 -1.2042
   6623SM  H14C 8489   4.327   2.465   9.504  1.0689  2.4236  2.0495
   6623SM   C13 8490   4.069   2.654   9.616 -0.0049 -0.5824 -0.4871
   6623SM  H13A 8491   4.031   2.609   9.707 -0.6058 -3.1542 -1.9237
   6623SM  H13B 8492   4.010   2.622   9.531 -1.8203  0.3979  0.3384
   6623SM  H13C 8493   4.052   2.760   9.627 -0.0424 -0.7202  0.9566
   6623SM   C12 8494   4.261   2.731   9.484 -0.4282 -0.3062 -0.1644
   6623SM  H12A 8495   4.364   2.721   9.453 -0.3615  0.0313 -0.0542
   6623SM  H12B 8496   4.254   2.824   9.539  0.5698 -0.6605  0.5865
   6623SM   C11 8497   4.172   2.760   9.364 -0.2852  0.9003 -0.0373
   6623SM  H11A 8498   4.137   2.663   9.321  0.0718  0.2996  1.0003
   6623SM  H11B 8499   4.241   2.811   9.293 -0.8865  1.8432  0.0322
   6623SM     P 8500   4.072   2.992   9.411  0.2320 -0.4607 -0.2880
   6623SM   O13 8501   3.939   3.049   9.425 -0.2228 -0.2845 -0.5620
   6623SM   O14 8502   4.173   3.018   9.521  0.5792  0.3363  0.2296
   6623SM   O11 8503   4.141   3.037   9.272 -0.4642  0.9059 -0.2699
   6623SM   O12 8504   4.058   2.841   9.394 -0.4480  0.5305  0.4517
   6623SM   C1S 8505   4.067   3.032   9.149 -0.1170  0.8115  0.1774
   6623SM   H1S 8506   3.978   3.097   9.158 -0.8156 -0.1855  0.5921
   6623SM   H1T 8507   4.040   2.927   9.122  1.6595  0.6102 -1.0405
   6623SM    NF 8508   4.058   3.065   8.913 -0.2880  0.1461 -0.3385
   6623SM   HNF 8509   4.056   2.984   8.855  0.2292  0.2898 -0.5672
   6623SM   C2S 8510   4.147   3.078   9.029 -0.2655 -0.5246  0.0668
   6623SM   H2S 8511   4.179   3.184   9.040 -1.1117 -0.1867 -0.5958
   6623SM   C3S 8512   4.272   2.989   9.015  0.0671 -0.5601 -0.4397
   6623SM   H3S 8513   4.240   2.887   8.988 -0.0172 -0.2889 -1.3866
   6623SM    O3 8514   4.351   2.982   9.137 -0.7378 -0.0800  0.3515
   6623SM   HO3 8515   4.286   3.006   9.204 -0.9099 -1.7256  0.8282
   6623SM   C4S 8516   4.356   3.038   8.907 -0.1621  0.4579 -0.1780
   6623SM   H4S 8517   4.343   2.968   8.822 -0.7568 -0.6950  0.8390
   6623SM   C5S 8518   4.436   3.142   8.902  0.8900  0.3303  0.1535
   6623SM   H5S 8519   4.433   3.219   8.981 -1.3052  0.5963 -0.1085
   6623SM   C6S 8520   4.514   3.179   8.776 -0.4446 -0.1526 -0.1682
   6623SM   H6S 8521   4.622   3.161   8.797 -0.0398  3.6991  2.0983
   6623SM   H6T 8522   4.506   3.288   8.752  0.4444 -0.1420 -0.4504
   6623SM   C7S 8523   4.477   3.109   8.645  0.1974  0.5179 -1.1444
   6623SM   H7S 8524   4.370   3.133   8.624 -0.6833 -1.1374  1.0798
   6623SM   H7T 8525   4.487   2.999   8.653 -0.7681  0.4308 -1.0772
   6623SM   C8S 8526   4.552   3.171   8.526  0.1273  0.1147  0.3734
   6623SM   H8S 8527   4.656   3.143   8.553 -0.0351 -0.6253  0.2500
   6623SM   H8T 8528   4.553   3.282   8.528  1.8044  0.1216  1.3956
   6623SM   C9S 8529   4.517   3.123   8.382 -0.0952 -0.3979 -0.3347
   6623SM   H9S 8530   4.411   3.152   8.366  0.3667  1.5061 -0.2390
   6623SM   H9T 8531   4.515   3.014   8.362 -0.1696 -0.3918 -0.3612
   6623SM  C10S 8532   4.598   3.209   8.282  0.0741 -0.5094  0.3437
   6623SM  H10S 8533   4.707   3.190   8.293  0.4051  1.1495  0.1052
   6623SM  H10T 8534   4.580   3.318   8.285  0.6327 -0.2790 -2.1510
   6623SM  C11S 8535   4.563   3.173   8.138 -1.0623  0.0784  0.1852
   6623SM  H11S 8536   4.523   3.071   8.125  0.2745 -0.8838  2.7795
   6623SM  H11T 8537   4.657   3.186   8.080  0.0341  0.8210  1.9984
   6623SM  C12S 8538   4.463   3.275   8.077 -0.6698 -0.5373  0.0186
   6623SM  H12S 8539   4.517   3.372   8.070  0.4433 -1.2138 -1.3567
   6623SM  H12T 8540   4.371   3.291   8.137 -3.0485  0.0918 -3.4845
   6623SM  C13S 8541   4.423   3.243   7.931  0.3162 -0.2403 -0.3487
   6623SM  H13S 8542   4.358   3.329   7.902  1.2243  1.0818  1.3645
   6623SM  H13T 8543   4.367   3.147   7.919 -0.8388  0.5111 -1.2725
   6623SM  C14S 8544   4.543   3.235   7.824  0.4921  0.0101 -0.2207
   6623SM  H14S 8545   4.594   3.137   7.837 -1.6254 -1.3228 -1.2973
   6623SM  H14T 8546   4.610   3.320   7.850 -0.2205  0.5697 -0.1698
   6623SM  C15S 8547   4.473   3.238   7.680  0.7065 -0.6512 -0.2773
   6623SM  H15S 8548   4.407   3.327   7.680  0.9626 -0.3905  2.1119
   6623SM  H15T 8549   4.405   3.151   7.669  0.9051 -0.7704 -0.5871
   6623SM  C16S 8550   4.577   3.257   7.567  0.7976  0.9986 -0.7083
   6623SM  H16S 8551   4.648   3.174   7.584 -2.7055 -2.2541 -0.7347
   6623SM  H16T 8552   4.641   3.347   7.581  0.4469  1.2439 -0.6724
   6623SM  C17S 8553   4.524   3.236   7.424  0.5996  0.7715  0.4641
   6623SM  H17S 8554   4.461   3.145   7.424  1.8428 -0.1251 -0.6148
   6623SM  H17T 8555   4.616   3.216   7.366 -0.3179 -0.7958 -0.5281
   6623SM  C18S 8556   4.451   3.351   7.366 -0.1793 -0.2532 -0.0847
   6623SM  H18S 8557   4.525   3.432   7.356 -0.9334  0.8168  2.3854
   6623SM  H18T 8558   4.357   3.382   7.417 -0.9107  0.6626 -1.8784
   6623SM  H18U 8559   4.409   3.329   7.265  0.3080  1.1282 -0.6080
   6623SM   C1F 8560   3.963   3.153   8.885 -0.0141  0.1558  1.1073
   6623SM    OF 8561   3.941   3.244   8.960  0.4469 -0.4466 -0.1247
   6623SM   C2F 8562   3.880   3.124   8.763 -0.7931 -0.3427 -0.1086
   6623SM   H2F 8563   3.779   3.169   8.755 -1.2829 -1.1816  1.0193
   6623SM   H2G 8564   3.864   3.015   8.745 -0.9687 -0.1806 -0.9605
   6623SM   C3F 8565   3.969   3.158   8.639  0.7411 -0.0379 -0.3944
   6623SM   H3F 8566   4.067   3.106   8.643  0.7566  0.0831  2.1243
   6623SM   H3G 8567   3.988   3.268   8.639 -0.8506  0.2760  0.6356
   6623SM   C4F 8568   3.911   3.106   8.507  0.6699 -0.8692 -0.1822
   6623SM   H4F 8569   3.824   3.172   8.487  2.2047  1.4659  0.4473
   6623SM   H4G 8570   3.887   2.998   8.517 -0.4632 -0.7132 -1.0582
   6623SM   C5F 8571   4.017   3.140   8.398 -0.2678  0.0444 -0.0463
   6623SM   H5F 8572   4.107   3.076   8.412 -0.6093 -0.2445  0.9371
   6623SM   H5G 8573   4.046   3.246   8.409  3.3313 -0.9596  1.8559
   6623SM   C6F 8574   3.952   3.118   8.266 -0.1368  0.3399  0.0577
   6623SM   H6F 8575   3.851   3.164   8.265 -0.6265 -0.7015  0.3902
   6623SM   H6G 8576   3.931   3.010   8.256  1.6339 -0.0753  0.5339
   6623SM   C7F 8577   4.037   3.156   8.144 -0.0582  0.8100  0.2828
   6623SM   H7F 8578   4.141   3.117   8.147 -0.9384 -2.1765 -2.5670
   6623SM   H7G 8579   4.036   3.267   8.148  0.2657  0.8344 -0.2291
   6623SM   C8F 8580   3.987   3.115   8.011 -0.1561 -0.5340  0.4865
   6623SM   H8F 8581   3.882   3.151   8.010  0.5112  1.5906  1.3844
   6623SM   H8G 8582   3.982   3.007   7.985 -2.9638  0.0756 -2.0498
   6623SM   C9F 8583   4.058   3.190   7.897  0.3912  0.8710  0.2039
   6623SM   H9F 8584   4.154   3.140   7.872  1.1687  2.9271 -1.2283
   6623SM   H9G 8585   4.078   3.296   7.924  1.8939  0.9313 -0.9574
   6623SM  C10F 8586   3.972   3.196   7.769  0.3111  0.3423  0.2194
   6623SM  H10F 8587   3.879   3.254   7.785  0.4132  0.3295  0.8622
   6623SM  H10G 8588   3.946   3.090   7.747  0.2687  0.3779  0.0972
   6623SM  C11F 8589   4.052   3.264   7.660 -0.5714  0.3698  0.9379
   6623SM  H11F 8590   4.155   3.223   7.663 -0.5769  0.3667  1.0988
   6623SM  H11G 8591   4.069   3.373   7.674 -0.1020  0.2544  1.2941
   6623SM  C12F 8592   3.990   3.249   7.520  0.3042  0.1443  0.5582
   6623SM  H12F 8593   3.903   3.317   7.529  1.0352  1.1215  0.4023
   6623SM  H12G 8594   3.955   3.144   7.505  1.0209 -0.0266  0.0528
   6623SM  C13F 8595   4.080   3.294   7.403  0.7649  0.1780  0.4636
   6623SM  H13F 8596   4.166   3.226   7.387  0.1540 -0.2284 -1.3367
   6623SM  H13G 8597   4.121   3.397   7.417  4.0011 -1.2653  2.9857
   6623SM  C14F 8598   3.995   3.284   7.279  0.0797  0.3406 -0.1650
   6623SM  H14F 8599   3.917   3.363   7.282 -1.8530 -1.3201 -2.5107
   6623SM  H14G 8600   3.943   3.186   7.276 -1.9167  1.3030  1.1032
   6623SM  C15F 8601   4.077   3.310   7.149  0.6539 -0.0331 -0.1253
   6623SM  H15F 8602   4.160   3.239   7.131  1.8046  0.8817  1.3381
   6623SM  H15G 8603   4.123   3.412   7.147 -0.7074  0.5945 -0.7487
   6623SM  C16F 8604   3.984   3.303   7.035  0.1667 -0.4161 -0.3838
   6623SM  H16F 8605   4.032   3.329   6.938 -1.5713 -0.2712 -1.2478
   6623SM  H16G 8606   3.892   3.361   7.056 -1.0051 -2.6004  0.8774
   6623SM  C17F 8607   3.932   3.157   7.011 -0.4273 -0.1297  0.1199
   6623SM  H17F 8608   3.873   3.118   7.097  1.1123 -1.6703  0.5225
   6623SM  H17G 8609   4.020   3.091   7.006 -0.6743 -0.5873  1.4510
   6623SM  C18F 8610   3.859   3.156   6.879  0.7574 -0.2213  0.4177
   6623SM  H18F 8611   3.912   3.214   6.800 -1.7208  1.1307 -0.3598
   6623SM  H18G 8612   3.761   3.209   6.876 -0.0181 -1.5728  1.0264
   6623SM  C19F 8613   3.830   3.017   6.823  0.2198  0.1953 -0.0626
   6623SM  H19F 8614   3.783   2.944   6.892  0.4212 -0.9797 -1.1349
   6623SM  H19G 8615   3.929   2.981   6.788  0.9328  0.6738  1.4052
   6623SM  C20F 8616   3.730   3.027   6.701  0.3997  0.1227  0.2721
   6623SM  H20F 8617   3.732   2.936   6.638  0.5050 -1.0076  1.8515
   6623SM  H20G 8618   3.746   3.119   6.642  0.4780 -1.4737 -2.3485
   6623SM  C21F 8619   3.587   3.037   6.739 -0.0587  0.9276 -0.8974
   6623SM  H21F 8620   3.568   3.134   6.790 -3.7522  0.2039 -0.6608
   6623SM  H21G 8621   3.561   2.955   6.810 -1.9861  0.7094 -1.7884
   6623SM  C22F 8622   3.492   3.026   6.623  0.4252  0.1657  0.4727
   6623SM  H22F 8623   3.517   2.938   6.559  0.5970  0.8425 -0.4075
   6623SM  H22G 8624   3.513   3.118   6.564  1.3177  0.0986  0.6692
   6623SM  C23F 8625   3.350   3.021   6.658  0.1863  0.0197 -0.2554
   6623SM  H23F 8626   3.333   2.929   6.718  1.1713 -0.0468 -0.0566
   6623SM  H23G 8627   3.293   3.015   6.563 -1.7967  0.3619  0.8557
   6623SM  H23H 8628   3.309   3.106   6.717 -1.1285 -0.5365 -0.3292
   6723SM     N 8629   3.442   6.620   8.929  0.0855  0.0612  0.3784
   6723SM   C15 8630   3.362   6.498   8.942  0.3773  0.3181  0.4266
   6723SM  H15A 8631   3.412   6.403   8.957  0.9275  0.4930 -0.2502
   6723SM  H15B 8632   3.308   6.488   8.849 -0.2958 -1.4275  0.9601
   6723SM  H15C 8633   3.287   6.509   9.019 -0.5927  2.1488 -0.7243
   6723SM   C14 8634   3.355   6.742   8.908  0.5294 -0.2221  0.1459
   6723SM  H14A 8635   3.295   6.727   8.820 -0.5228 -1.3108  1.0234
   6723SM  H14B 8636   3.418   6.829   8.894  3.6919 -2.4224 -0.4011
   6723SM  H14C 8637   3.286   6.754   8.990  1.3421  0.6371  0.7328
   6723SM   C13 8638   3.508   6.650   9.063  0.1740  0.1503 -0.4255
   6723SM  H13A 8639   3.575   6.573   9.097 -0.7817 -0.0107  1.2272
   6723SM  H13B 8640   3.423   6.654   9.130 -0.0176 -0.5471 -0.6109
   6723SM  H13C 8641   3.554   6.747   9.063  1.0239 -0.2379 -1.3578
   6723SM   C12 8642   3.541   6.607   8.819 -0.2997 -0.7003 -0.2207
   6723SM  H12A 8643   3.602   6.521   8.845 -1.1225 -1.5823 -1.1195
   6723SM  H12B 8644   3.607   6.692   8.823 -2.4519  1.0142  1.6110
   6723SM   C11 8645   3.491   6.588   8.677 -0.0228  0.6714  0.1613
   6723SM  H11A 8646   3.408   6.514   8.663  0.6829 -0.3525  1.2025
   6723SM  H11B 8647   3.576   6.556   8.613 -0.7239  0.4687 -0.7063
   6723SM     P 8648   3.531   6.825   8.572  0.1235 -0.0423  0.5364
   6723SM   O13 8649   3.472   6.953   8.604 -0.0758 -0.4491  0.0120
   6723SM   O14 8650   3.659   6.797   8.633 -0.3815  0.0693 -0.0232
   6723SM   O11 8651   3.541   6.813   8.417 -0.2698  0.9276  0.2082
   6723SM   O12 8652   3.438   6.707   8.626  0.2145  0.0038  0.1690
   6723SM   C1S 8653   3.461   6.732   8.332  0.5535 -0.4159  0.6716
   6723SM   H1S 8654   3.359   6.774   8.324  0.1550 -1.5433 -0.4945
   6723SM   H1T 8655   3.452   6.625   8.360 -2.2302 -0.3489  0.3266
   6723SM    NF 8656   3.437   6.714   8.082  0.3287  0.1257  0.0787
   6723SM   HNF 8657   3.449   6.636   8.021  0.9829  0.2581  0.0242
   6723SM   C2S 8658   3.530   6.739   8.189  0.4480 -0.0269 -0.5743
   6723SM   H2S 8659   3.563   6.843   8.166 -1.3124  0.0335 -3.2927
   6723SM   C3S 8660   3.660   6.649   8.179  0.3580  0.1980 -0.1942
   6723SM   H3S 8661   3.634   6.543   8.197 -0.4657  0.8064  2.6553
   6723SM    O3 8662   3.747   6.672   8.293  0.0114 -0.1673 -0.0480
   6723SM   HO3 8663   3.701   6.749   8.329  1.7741  2.4488 -2.8810
   6723SM   C4S 8664   3.722   6.662   8.040  0.0836  0.5467 -0.6445
   6723SM   H4S 8665   3.812   6.725   8.037  3.3089 -3.6033 -1.4935
   6723SM   C5S 8666   3.708   6.565   7.953  0.3100 -0.6910  0.0841
   6723SM   H5S 8667   3.655   6.476   7.987  0.3461 -0.1441  1.6258
   6723SM   C6S 8668   3.784   6.558   7.825 -0.6637 -0.6976  0.7525
   6723SM   H6S 8669   3.836   6.460   7.818  0.5191 -0.0756  0.4987
   6723SM   H6T 8670   3.862   6.637   7.812 -1.4842 -0.2087 -1.7773
   6723SM   C7S 8671   3.686   6.572   7.702  0.2386  0.3787 -0.5288
   6723SM   H7S 8672   3.665   6.677   7.672 -0.3144  0.5037  0.2616
   6723SM   H7T 8673   3.591   6.519   7.726 -0.2569  1.5223  0.1088
   6723SM   C8S 8674   3.745   6.511   7.573 -0.4868  0.0326 -0.9151
   6723SM   H8S 8675   3.750   6.401   7.580 -0.6395 -0.0395 -1.8071
   6723SM   H8T 8676   3.847   6.553   7.559 -0.4307  0.2751  0.1282
   6723SM   C9S 8677   3.663   6.545   7.447 -1.0911  0.8617  0.4493
   6723SM   H9S 8678   3.641   6.653   7.432  1.2440  1.2310 -0.7781
   6723SM   H9T 8679   3.572   6.483   7.459  1.0021 -2.2465  1.8160
   6723SM  C10S 8680   3.725   6.495   7.315 -0.3896 -0.7163 -0.3797
   6723SM  H10S 8681   3.750   6.386   7.309 -1.2099 -0.8497 -1.6738
   6723SM  H10T 8682   3.825   6.542   7.322 -1.7429  2.2867  0.2751
   6723SM  C11S 8683   3.646   6.543   7.191  0.8361  0.0932 -0.6443
   6723SM  H11S 8684   3.628   6.651   7.209 -2.4999 -0.4827  0.0648
   6723SM  H11T 8685   3.545   6.498   7.195  1.0150 -0.2157  0.7902
   6723SM  C12S 8686   3.719   6.496   7.061  0.9822  0.3357 -0.8437
   6723SM  H12S 8687   3.714   6.385   7.063  0.4559  0.3649 -0.4008
   6723SM  H12T 8688   3.826   6.523   7.053  0.7765  2.6586  2.1982
   6723SM  C13S 8689   3.629   6.540   6.940 -0.2106 -0.1569  0.3201
   6723SM  H13S 8690   3.623   6.650   6.925  3.9538  0.4265  1.7571
   6723SM  H13T 8691   3.525   6.505   6.959 -0.8898  1.2220 -0.6922
   6723SM  C14S 8692   3.675   6.490   6.804  0.5657  0.1032 -0.2358
   6723SM  H14S 8693   3.776   6.532   6.785  0.6372 -0.0006 -0.0855
   6723SM  H14T 8694   3.606   6.529   6.726 -1.7422 -0.9665  1.1636
   6723SM  C15S 8695   3.692   6.339   6.799  0.0144 -0.1701  0.4824
   6723SM  H15S 8696   3.602   6.295   6.848 -1.5334  1.8395 -0.4330
   6723SM  H15T 8697   3.784   6.318   6.858  0.6756 -1.0191 -0.8056
   6723SM  C16S 8698   3.720   6.275   6.659  0.5869  0.5841 -0.6997
   6723SM  H16S 8699   3.759   6.172   6.663  1.4809  0.8286 -2.3059
   6723SM  H16T 8700   3.777   6.345   6.594  0.1763  1.3403 -0.2594
   6723SM  C17S 8701   3.601   6.259   6.569 -0.5627  0.3271  0.0515
   6723SM  H17S 8702   3.562   6.362   6.552 -1.0224  0.0334 -0.7791
   6723SM  H17T 8703   3.520   6.194   6.609 -2.2126  2.6653  0.6992
   6723SM  C18S 8704   3.649   6.214   6.424 -0.0388  0.0867  0.2791
   6723SM  H18S 8705   3.719   6.290   6.383 -1.0498  0.1320 -1.4898
   6723SM  H18T 8706   3.554   6.217   6.365 -1.3065  0.6104  2.2327
   6723SM  H18U 8707   3.717   6.127   6.425  0.9102  0.8151  0.6862
   6723SM   C1F 8708   3.340   6.797   8.054  0.2002 -0.5854  0.0810
   6723SM    OF 8709   3.335   6.905   8.109  0.1213  0.2085 -0.1121
   6723SM   C2F 8710   3.234   6.757   7.961 -0.3667 -0.1865  0.6424
   6723SM   H2F 8711   3.138   6.804   7.989 -0.9574 -1.7281  1.2974
   6723SM   H2G 8712   3.206   6.650   7.957 -0.1729 -0.2050 -0.6356
   6723SM   C3F 8713   3.259   6.810   7.817  0.7963 -0.3580  0.0229
   6723SM   H3F 8714   3.307   6.910   7.803 -1.8678  0.6715 -3.1886
   6723SM   H3G 8715   3.161   6.821   7.766  0.6566  0.8961  0.5081
   6723SM   C4F 8716   3.339   6.704   7.741  0.6048 -0.0155 -0.3931
   6723SM   H4F 8717   3.296   6.602   7.734  2.0213 -0.8588  1.9390
   6723SM   H4G 8718   3.437   6.702   7.794  0.8589 -0.3575 -0.8689
   6723SM   C5F 8719   3.356   6.751   7.595 -0.0158  0.1702  0.6150
   6723SM   H5F 8720   3.459   6.720   7.566 -0.5970 -1.6963  0.4386
   6723SM   H5G 8721   3.346   6.862   7.593  1.4854  0.3557  1.5968
   6723SM   C6F 8722   3.273   6.686   7.479 -0.5372 -0.8627  0.0844
   6723SM   H6F 8723   3.166   6.706   7.502 -0.6231 -2.9490  1.8279
   6723SM   H6G 8724   3.300   6.579   7.482  0.0303 -0.7117  1.0619
   6723SM   C7F 8725   3.317   6.749   7.345  0.1186  0.1465  0.3786
   6723SM   H7F 8726   3.427   6.742   7.330 -0.1408  0.1526 -1.7693
   6723SM   H7G 8727   3.297   6.857   7.364 -0.7059 -0.1350  1.1869
   6723SM   C8F 8728   3.247   6.703   7.221  0.6889  0.4688  0.2857
   6723SM   H8F 8729   3.143   6.738   7.203  0.5332 -1.0507 -2.0894
   6723SM   H8G 8730   3.240   6.592   7.224  1.6298  0.4215  2.9013
   6723SM   C9F 8731   3.315   6.744   7.092 -0.6430 -0.1893  0.2787
   6723SM   H9F 8732   3.409   6.686   7.080  0.3052  1.4704 -0.7092
   6723SM   H9G 8733   3.352   6.846   7.113  0.1929 -0.6667  1.1947
   6723SM  C10F 8734   3.210   6.738   6.974 -0.0582  0.2150 -0.0619
   6723SM  H10F 8735   3.126   6.807   6.997 -1.5558 -1.4877 -0.2547
   6723SM  H10G 8736   3.168   6.636   6.966  1.1587 -0.2836 -0.3626
   6723SM  C11F 8737   3.279   6.781   6.857  0.4241  0.1414  0.2754
   6723SM  H11F 8738   3.353   6.705   6.824  0.9100 -0.7364  3.0988
   6723SM  H11G 8739   3.338   6.873   6.873 -1.2461  1.3065  0.0039
   6723SM  C12F 8740   3.176   6.806   6.744 -0.7881  0.0400  0.1147
   6723SM  H12F 8741   3.113   6.890   6.781  1.0396  1.0458  1.1127
   6723SM  H12G 8742   3.112   6.717   6.730 -0.4208 -0.3028  0.5692
   6723SM  C13F 8743   3.251   6.860   6.622 -0.4577  0.5191  0.3464
   6723SM  H13F 8744   3.336   6.792   6.598 -1.1434  0.3765 -1.9442
   6723SM  H13G 8745   3.300   6.959   6.638  1.1040 -0.1257 -0.1798
   6723SM  C14F 8746   3.165   6.880   6.501 -0.5542 -0.0501  0.3676
   6723SM  H14F 8747   3.133   6.985   6.485 -1.8653 -0.5948 -0.7620
   6723SM  H14G 8748   3.073   6.819   6.494 -0.9517  0.6237 -0.5092
   6723SM  C15F 8749   3.244   6.832   6.378  0.5027 -0.4039  0.3803
   6723SM  H15F 8750   3.267   6.724   6.386  0.6190 -0.3232  1.1996
   6723SM  H15G 8751   3.334   6.895   6.362  0.7065 -0.7500  0.1564
   6723SM  C16F 8752   3.162   6.849   6.249  0.8433 -0.4626  0.0989
   6723SM  H16F 8753   3.132   6.956   6.244  3.5994  0.4073  0.7353
   6723SM  H16G 8754   3.080   6.774   6.258  0.2339  0.0176 -1.2378
   6723SM  C17F 8755   3.239   6.832   6.114  0.2841  0.0780  0.4499
   6723SM  H17F 8756   3.244   6.723   6.092 -0.4754 -0.1903  1.4796
   6723SM  H17G 8757   3.341   6.877   6.120  0.6756 -0.9248  2.2166
   6723SM  C18F 8758   3.161   6.888   5.991 -0.3061  0.2113 -0.3988
   6723SM  H18F 8759   3.238   6.879   5.911 -0.7556  1.3402 -0.9822
   6723SM  H18G 8760   3.133   6.995   6.002 -1.8905 -0.2728  0.6236
   6723SM  C19F 8761   3.037   6.809   5.947 -0.3346  0.4872 -0.1693
   6723SM  H19F 8762   2.941   6.861   5.968  0.4602  2.3934 -0.9300
   6723SM  H19G 8763   3.038   6.705   5.986 -0.5931  0.9417  1.0925
   6723SM  C20F 8764   3.024   6.799   5.796  0.3640  0.0239  0.6967
   6723SM  H20F 8765   3.106   6.739   5.750 -1.3965 -1.0699 -1.1733
   6723SM  H20G 8766   3.013   6.900   5.751 -1.8813 -2.1153 -4.3832
   6723SM  C21F 8767   2.886   6.736   5.760 -0.6282 -0.0862 -0.0898
   6723SM  H21F 8768   2.803   6.768   5.826  0.0209  1.2128  0.1176
   6723SM  H21G 8769   2.893   6.627   5.782  1.8073 -1.0015 -4.3039
   6723SM  C22F 8770   2.838   6.754   5.611 -0.6801  0.5389  0.0104
   6723SM  H22F 8771   2.836   6.865   5.597 -1.1281  0.4861 -0.3729
   6723SM  H22G 8772   2.742   6.701   5.596 -0.3074 -0.3589  0.7136
   6723SM  C23F 8773   2.941   6.691   5.514 -0.2189 -0.2638 -0.0267
   6723SM  H23F 8774   2.913   6.712   5.408 -0.8552 -0.8814  0.0079
   6723SM  H23G 8775   2.962   6.585   5.536  1.6175  0.0049 -0.3051
   6723SM  H23H 8776   3.039   6.742   5.523  0.0374 -0.5187 -1.2045
   6823SM     N 8777   1.842   2.780   9.302  0.7940  0.0404  0.1440
   6823SM   C15 8778   1.795   2.723   9.429  0.2395  0.1953 -0.4134
   6823SM  H15A 8779   1.775   2.619   9.408  0.5293  0.0162  0.1532
   6823SM  H15B 8780   1.705   2.765   9.472 -1.3172 -0.7727 -2.5697
   6823SM  H15C 8781   1.873   2.708   9.502  1.8015  2.3812 -1.5081
   6823SM   C14 8782   1.731   2.804   9.208  0.4134  0.3394 -0.1333
   6823SM  H14A 8783   1.683   2.710   9.188 -1.3831  0.9824  0.8823
   6823SM  H14B 8784   1.768   2.835   9.111 -1.4577 -0.9724 -1.3255
   6823SM  H14C 8785   1.663   2.881   9.240 -1.1541 -1.1518  0.2282
   6823SM   C13 8786   1.907   2.916   9.326 -0.1184 -0.0262  0.4641
   6823SM  H13A 8787   1.852   2.988   9.384  0.3643  0.9795 -0.3019
   6823SM  H13B 8788   1.946   2.966   9.239  1.3451  0.1619  1.2048
   6823SM  H13C 8789   1.997   2.894   9.383 -0.4702  1.4220  1.6531
   6823SM   C12 8790   1.942   2.688   9.235  0.0101 -0.1943  0.0766
   6823SM  H12A 8791   1.976   2.728   9.140 -0.7425 -0.0159 -0.1228
   6823SM  H12B 8792   1.891   2.597   9.205  0.9350  0.0608 -2.5313
   6823SM   C11 8793   2.068   2.635   9.306 -0.5546 -0.6740  0.4464
   6823SM  H11A 8794   2.121   2.567   9.235  0.1243 -1.0988  1.3423
   6823SM  H11B 8795   2.034   2.573   9.391  2.6634 -0.6615  1.8785
   6823SM     P 8796   2.242   2.843   9.273  0.0316 -0.0715 -0.0524
   6823SM   O13 8797   2.227   2.974   9.338  0.6904 -0.2976 -0.1450
   6823SM   O14 8798   2.379   2.789   9.271  0.5998  0.3389  0.0903
   6823SM   O11 8799   2.186   2.840   9.128  0.3435  0.1452  0.3006
   6823SM   O12 8800   2.154   2.737   9.356  0.1016  0.0688  0.3971
   6823SM   C1S 8801   2.229   2.931   9.028 -0.3362 -0.1259  0.2810
   6823SM   H1S 8802   2.313   2.996   9.060  0.3572 -0.8662  0.0132
   6823SM   H1T 8803   2.150   3.008   9.018 -1.5731 -0.7872  3.7098
   6823SM    NF 8804   2.315   2.949   8.802  0.3850 -0.3805  0.3242
   6823SM   HNF 8805   2.258   2.983   8.728  1.2885  0.2644 -0.0971
   6823SM   C2S 8806   2.262   2.856   8.901 -0.2695 -0.7524  0.8837
   6823SM   H2S 8807   2.337   2.776   8.911  0.9178  0.2606  0.3531
   6823SM   C3S 8808   2.131   2.786   8.842 -0.2262  0.0775 -0.0118
   6823SM   H3S 8809   2.060   2.868   8.818  0.4221  0.4448 -0.7018
   6823SM    O3 8810   2.049   2.711   8.935 -0.1308  0.4369  0.1579
   6823SM   HO3 8811   2.078   2.752   9.017 -0.5587  0.8569  0.0971
   6823SM   C4S 8812   2.166   2.707   8.720 -0.0203  0.7411  0.1195
   6823SM   H4S 8813   2.216   2.613   8.746  0.2103  0.1376 -2.2239
   6823SM   C5S 8814   2.131   2.723   8.592  0.4244 -0.3221  0.3604
   6823SM   H5S 8815   2.056   2.792   8.551  1.1377  0.4381  0.2993
   6823SM   C6S 8816   2.160   2.626   8.486 -0.3707 -0.5150 -0.3673
   6823SM   H6S 8817   2.097   2.641   8.395 -0.2043  1.0652 -0.2452
   6823SM   H6T 8818   2.152   2.523   8.526  1.6371 -1.3159 -1.8105
   6823SM   C7S 8819   2.301   2.656   8.434  0.6711  0.1416 -0.0828
   6823SM   H7S 8820   2.334   2.565   8.378  1.3840 -0.3894  1.1672
   6823SM   H7T 8821   2.375   2.674   8.515  0.5921  0.4893 -0.0873
   6823SM   C8S 8822   2.323   2.776   8.340  0.4027  0.2526  0.3893
   6823SM   H8S 8823   2.297   2.875   8.383 -1.2582  0.6517 -1.4001
   6823SM   H8T 8824   2.259   2.758   8.252  1.5417  1.3357 -0.6918
   6823SM   C9S 8825   2.470   2.779   8.296 -0.0577 -0.9063  0.1400
   6823SM   H9S 8826   2.489   2.684   8.242 -2.6783 -0.6627 -1.3482
   6823SM   H9T 8827   2.527   2.771   8.391 -1.7264 -1.2836  1.1559
   6823SM  C10S 8828   2.513   2.894   8.210 -0.6469 -0.7639  1.2699
   6823SM  H10S 8829   2.623   2.899   8.195 -0.5342 -0.3149  2.1339
   6823SM  H10T 8830   2.482   2.989   8.260 -3.1210 -0.6089 -0.3772
   6823SM  C11S 8831   2.449   2.902   8.070  0.6862  0.2398  0.6695
   6823SM  H11S 8832   2.340   2.917   8.087  1.0032  1.4525  1.9051
   6823SM  H11T 8833   2.465   2.809   8.012 -1.4734  0.3054 -0.1032
   6823SM  C12S 8834   2.495   3.036   8.008  0.7369  0.4168  0.8061
   6823SM  H12S 8835   2.503   3.110   8.090  1.8462 -0.5351  1.5962
   6823SM  H12T 8836   2.413   3.051   7.935  1.8094 -3.1070 -1.4091
   6823SM  C13S 8837   2.625   3.023   7.932 -0.2828 -0.4249  0.1681
   6823SM  H13S 8838   2.706   2.974   7.991 -0.4316 -0.2590  0.5176
   6823SM  H13T 8839   2.671   3.121   7.905  2.2627 -1.8995 -1.2547
   6823SM  C14S 8840   2.610   2.953   7.799 -0.0110  0.6512 -0.0684
   6823SM  H14S 8841   2.562   2.853   7.800 -1.2615  1.1350 -3.0028
   6823SM  H14T 8842   2.709   2.928   7.756 -0.1528  0.7985 -0.4777
   6823SM  C15S 8843   2.547   3.039   7.684 -0.4133  0.1463  0.0124
   6823SM  H15S 8844   2.606   3.133   7.681 -0.4954  0.1869 -0.3046
   6823SM  H15T 8845   2.446   3.077   7.709 -1.1132 -2.2298  1.1052
   6823SM  C16S 8846   2.545   2.961   7.559 -0.2177  0.0354 -0.4625
   6823SM  H16S 8847   2.453   2.898   7.546 -1.5828  1.5846  1.1903
   6823SM  H16T 8848   2.637   2.900   7.548  0.7828  1.0931  1.5367
   6823SM  C17S 8849   2.554   3.056   7.431  0.0144 -0.8596 -0.3488
   6823SM  H17S 8850   2.653   3.101   7.450 -0.3520 -0.6910  1.2319
   6823SM  H17T 8851   2.478   3.137   7.426  0.9957  0.0205 -2.8938
   6823SM  C18S 8852   2.559   2.975   7.300  0.2956  0.9820  0.0434
   6823SM  H18S 8853   2.654   2.917   7.294 -1.0946 -1.3851 -0.4256
   6823SM  H18T 8854   2.545   3.049   7.218  1.1381  0.7325 -0.3288
   6823SM  H18U 8855   2.478   2.900   7.294  0.4005  0.6868  1.7972
   6823SM   C1F 8856   2.445   2.980   8.805  0.2174  0.0381 -0.1036
   6823SM    OF 8857   2.514   2.942   8.897 -0.0168 -0.9327  0.8109
   6823SM   C2F 8858   2.506   3.046   8.683 -0.0871  0.6825  0.5279
   6823SM   H2F 8859   2.554   3.144   8.704  2.8401 -0.1826 -1.4770
   6823SM   H2G 8860   2.430   3.068   8.604  2.3282  1.3426 -1.7854
   6823SM   C3F 8861   2.623   2.968   8.632 -1.2646 -0.3248 -0.4619
   6823SM   H3F 8862   2.585   2.866   8.609  2.8434 -2.3523  0.7792
   6823SM   H3G 8863   2.700   2.953   8.711 -2.2156  1.8626  0.9624
   6823SM   C4F 8864   2.692   3.034   8.515 -0.5552  0.1343  0.4522
   6823SM   H4F 8865   2.732   3.134   8.541 -0.2323  0.1718 -0.1552
   6823SM   H4G 8866   2.613   3.054   8.440 -0.1403 -1.4736 -0.4815
   6823SM   C5F 8867   2.804   2.950   8.462 -0.2972  1.0747 -0.0877
   6823SM   H5F 8868   2.758   2.853   8.432  2.0091 -0.8064  1.9580
   6823SM   H5G 8869   2.876   2.922   8.542  1.1976  2.0514 -1.0430
   6823SM   C6F 8870   2.873   3.020   8.347 -0.0969 -0.0484  0.1343
   6823SM   H6F 8871   2.909   3.115   8.392  1.9340 -0.8169  0.2450
   6823SM   H6G 8872   2.799   3.032   8.266 -1.1966  0.4737  1.1925
   6823SM   C7F 8873   2.993   2.934   8.298 -0.7208 -0.4567  0.2486
   6823SM   H7F 8874   2.965   2.831   8.268 -1.2192  0.1932 -1.6138
   6823SM   H7G 8875   3.060   2.923   8.386 -1.8843  0.6435  1.3136
   6823SM   C8F 8876   3.076   3.004   8.186 -0.1246  0.2235 -0.2614
   6823SM   H8F 8877   3.168   2.947   8.159 -0.7161 -0.8259 -0.1213
   6823SM   H8G 8878   3.118   3.103   8.214  0.0396  0.2303 -0.5250
   6823SM   C9F 8879   3.001   3.012   8.052  0.0604  0.6057  0.3303
   6823SM   H9F 8880   2.920   3.083   8.076  0.8594  0.9193  2.3336
   6823SM   H9G 8881   2.963   2.912   8.024  2.0245  0.3946 -1.8773
   6823SM  C10F 8882   3.084   3.039   7.922 -0.1857 -0.2769  0.2327
   6823SM  H10F 8883   3.155   2.961   7.889 -0.1803 -0.0932 -0.1947
   6823SM  H10G 8884   3.149   3.123   7.953 -1.1084  0.6566 -0.2818
   6823SM  C11F 8885   2.980   3.077   7.808 -0.6406  0.3616  0.4137
   6823SM  H11F 8886   2.923   3.169   7.831 -0.9333  0.4518 -0.5971
   6823SM  H11G 8887   2.903   2.997   7.801  1.3339 -1.6739  0.4058
   6823SM  C12F 8888   3.037   3.099   7.668  0.1923  0.3647  0.6149
   6823SM  H12F 8889   3.133   3.042   7.661 -0.4353 -0.5215 -2.7457
   6823SM  H12G 8890   3.074   3.203   7.659 -1.1753  0.7271 -1.4685
   6823SM  C13F 8891   2.945   3.063   7.560  0.4419  0.3204  0.3557
   6823SM  H13F 8892   2.873   3.144   7.534 -0.2255  0.2985  2.0022
   6823SM  H13G 8893   2.887   2.971   7.581  1.1862 -0.0737  0.7122
   6823SM  C14F 8894   3.023   3.042   7.434 -0.1550  0.1146  0.4717
   6823SM  H14F 8895   3.084   2.952   7.455  2.0339  1.9286  2.3969
   6823SM  H14G 8896   3.097   3.124   7.425 -0.7683  0.5821 -0.3999
   6823SM  C15F 8897   2.943   3.020   7.307 -0.7145 -1.0999 -0.5200
   6823SM  H15F 8898   2.878   3.109   7.289  1.0485  0.0147 -1.7788
   6823SM  H15G 8899   2.884   2.929   7.330 -0.1689 -1.7440 -1.5875
   6823SM  C16F 8900   3.037   2.998   7.185  0.2632  0.1794  0.2012
   6823SM  H16F 8901   2.983   2.953   7.099 -1.3984  0.9719  0.7830
   6823SM  H16G 8902   3.115   2.923   7.209 -0.8149 -1.2787 -0.6420
   6823SM  C17F 8903   3.109   3.129   7.141 -0.0859 -0.1445  0.7173
   6823SM  H17F 8904   3.205   3.092   7.101  0.2309  0.7532  0.6279
   6823SM  H17G 8905   3.145   3.193   7.225  1.3393 -0.5818  0.4544
   6823SM  C18F 8906   3.031   3.209   7.040  0.3000 -0.0821 -0.3960
   6823SM  H18F 8907   2.942   3.248   7.094  1.0492 -0.2860  1.0420
   6823SM  H18G 8908   2.995   3.150   6.953  0.6920  0.4522 -0.9368
   6823SM  C19F 8909   3.111   3.329   6.978 -0.1971 -0.1000  0.7984
   6823SM  H19F 8910   3.208   3.290   6.939 -1.4863 -1.8193 -0.8907
   6823SM  H19G 8911   3.120   3.402   7.062 -0.5109  0.9490 -0.0584
   6823SM  C20F 8912   3.047   3.399   6.858  0.0613  0.0749 -0.3819
   6823SM  H20F 8913   3.024   3.326   6.777 -0.4584 -0.0135 -0.1590
   6823SM  H20G 8914   3.120   3.475   6.821  1.5784 -0.5022  1.2218
   6823SM  C21F 8915   2.921   3.472   6.893  0.1879 -0.6719 -0.2760
   6823SM  H21F 8916   2.937   3.539   6.980  0.3915 -0.1464 -0.7104
   6823SM  H21G 8917   2.841   3.405   6.931 -0.1380 -1.1444 -1.7158
   6823SM  C22F 8918   2.849   3.544   6.778  0.0181 -1.0139  0.2360
   6823SM  H22F 8919   2.803   3.475   6.704  0.1317 -0.2135 -0.6115
   6823SM  H22G 8920   2.923   3.613   6.731 -0.4482 -1.6730 -1.5647
   6823SM  C23F 8921   2.732   3.637   6.824 -0.5814  0.0137  0.4112
   6823SM  H23F 8922   2.647   3.576   6.861 -2.0790  2.7056  1.6857
   6823SM  H23G 8923   2.688   3.705   6.748 -0.9311 -1.2975 -0.5959
   6823SM  H23H 8924   2.762   3.699   6.911 -0.5072 -0.1775  0.5211
   6923SM     N 8925   5.698   2.675   9.653 -0.1136 -0.4564  0.3774
   6923SM   C15 8926   5.599   2.628   9.755  0.1580  0.0680  0.0247
   6923SM  H15A 8927   5.646   2.573   9.835 -1.0774 -1.1535 -0.0569
   6923SM  H15B 8928   5.525   2.565   9.708 -0.3161 -0.1583  1.0436
   6923SM  H15C 8929   5.554   2.716   9.799 -0.5751  0.9526 -2.3140
   6923SM   C14 8930   5.803   2.768   9.711  0.4038 -0.4310 -0.1524
   6923SM  H14A 8931   5.844   2.715   9.796  2.5857  3.0257  1.1794
   6923SM  H14B 8932   5.761   2.861   9.746 -0.8949 -0.3795 -1.7267
   6923SM  H14C 8933   5.891   2.783   9.650  0.6575  1.6510  0.6568
   6923SM   C13 8934   5.772   2.549   9.618 -0.0723 -0.1937 -0.0116
   6923SM  H13A 8935   5.803   2.491   9.704  1.1859  0.5955  0.0950
   6923SM  H13B 8936   5.857   2.574   9.556 -0.0629 -1.9996 -0.7722
   6923SM  H13C 8937   5.703   2.490   9.560 -1.8278  1.9236 -0.2286
   6923SM   C12 8938   5.635   2.741   9.532 -0.3784 -0.3191  0.1671
   6923SM  H12A 8939   5.717   2.768   9.467  1.0716 -0.0007  2.0142
   6923SM  H12B 8940   5.606   2.839   9.567  0.4800 -0.1364  0.3944
   6923SM   C11 8941   5.527   2.665   9.451  0.2062 -1.5636 -0.5959
   6923SM  H11A 8942   5.454   2.732   9.401  0.9233 -0.1853  0.1423
   6923SM  H11B 8943   5.466   2.621   9.532  0.2791  0.5952  0.6889
   6923SM     P 8944   5.685   2.590   9.252 -0.0441  0.0410  0.3711
   6923SM   O13 8945   5.811   2.653   9.303  0.2231 -0.3513  0.5021
   6923SM   O14 8946   5.702   2.463   9.179  0.1496  0.2027 -0.2862
   6923SM   O11 8947   5.591   2.691   9.173  0.9093 -0.2117 -0.2505
   6923SM   O12 8948   5.587   2.561   9.374 -0.0642 -0.0674 -0.5960
   6923SM   C1S 8949   5.463   2.653   9.117  0.5398 -0.2555 -0.5256
   6923SM   H1S 8950   5.375   2.688   9.175 -1.1951  0.9203 -3.6301
   6923SM   H1T 8951   5.458   2.542   9.125 -1.4266 -0.1701 -0.2602
   6923SM    NF 8952   5.304   2.708   8.932  0.0842  0.0480  0.2899
   6923SM   HNF 8953   5.277   2.639   8.865 -0.0321  1.4704 -1.1997
   6923SM   C2S 8954   5.441   2.723   8.977 -0.2526  1.1993 -0.7238
   6923SM   H2S 8955   5.470   2.830   8.986 -1.0247  1.3522  0.1044
   6923SM   C3S 8956   5.536   2.657   8.874 -0.3499  0.4913 -0.8716
   6923SM   H3S 8957   5.506   2.551   8.864  3.0064 -0.7603  0.5091
   6923SM    O3 8958   5.680   2.656   8.909 -0.3239  0.4631  1.1606
   6923SM   HO3 8959   5.677   2.689   8.999 -2.3292  0.5751  1.1100
   6923SM   C4S 8960   5.519   2.715   8.742 -0.1080  0.0264 -0.6866
   6923SM   H4S 8961   5.455   2.646   8.686 -0.2404  0.9550 -1.7225
   6923SM   C5S 8962   5.572   2.829   8.693 -0.2535 -0.0896 -0.2916
   6923SM   H5S 8963   5.649   2.885   8.747 -0.6373  1.1641 -0.9991
   6923SM   C6S 8964   5.537   2.880   8.557  0.0411 -0.0323  0.6752
   6923SM   H6S 8965   5.489   2.980   8.561  0.6436  0.2247  2.8242
   6923SM   H6T 8966   5.471   2.811   8.501  0.0386 -1.3053  2.1918
   6923SM   C7S 8967   5.664   2.908   8.464  0.0539 -0.7129  0.1026
   6923SM   H7S 8968   5.747   2.838   8.488 -0.6858 -2.3400 -1.7702
   6923SM   H7T 8969   5.702   3.007   8.495  3.1469 -2.4273  2.4107
   6923SM   C8S 8970   5.642   2.904   8.311  0.3283 -0.7623 -0.6371
   6923SM   H8S 8971   5.590   2.807   8.296  0.5160 -0.9846  0.1039
   6923SM   H8T 8972   5.747   2.906   8.273  0.8841 -2.5818  0.6352
   6923SM   C9S 8973   5.565   3.030   8.257 -0.7398  0.7898  0.0698
   6923SM   H9S 8974   5.616   3.128   8.260 -3.6220  2.5253 -2.1452
   6923SM   H9T 8975   5.473   3.038   8.318 -2.4627 -1.3620 -2.0298
   6923SM  C10S 8976   5.529   3.027   8.108  0.1347 -0.7037  0.2068
   6923SM  H10S 8977   5.497   3.130   8.083  0.5262 -0.5549  0.3143
   6923SM  H10T 8978   5.444   2.958   8.089 -0.9893  0.6495  0.1936
   6923SM  C11S 8979   5.646   2.990   8.012 -0.5383 -0.7029  0.9139
   6923SM  H11S 8980   5.714   2.910   8.048 -1.1421 -1.1388  1.1072
   6923SM  H11T 8981   5.702   3.085   8.005 -0.3802 -0.8196  0.5791
   6923SM  C12S 8982   5.600   2.948   7.868 -0.1766 -0.5962  0.2630
   6923SM  H12S 8983   5.520   2.871   7.873 -0.2502 -0.5481 -0.0998
   6923SM  H12T 8984   5.691   2.912   7.815  0.6826  1.4465  0.2345
   6923SM  C13S 8985   5.533   3.074   7.800  0.3102 -0.1020 -0.6571
   6923SM  H13S 8986   5.599   3.162   7.815  0.5399 -0.5401  1.1064
   6923SM  H13T 8987   5.438   3.091   7.855 -0.0529  1.2731 -1.6691
   6923SM  C14S 8988   5.487   3.070   7.655 -0.0236 -0.1247 -0.4135
   6923SM  H14S 8989   5.451   2.970   7.623  1.2271  0.2203 -3.1315
   6923SM  H14T 8990   5.574   3.077   7.587  0.8521  0.5811  0.7372
   6923SM  C15S 8991   5.383   3.177   7.629  0.1512 -0.7214  0.4145
   6923SM  H15S 8992   5.402   3.272   7.683 -0.4930  0.0636 -0.6946
   6923SM  H15T 8993   5.279   3.145   7.652 -0.5123  0.4484 -0.8398
   6923SM  C16S 8994   5.385   3.208   7.481  1.4102 -0.3002  0.6930
   6923SM  H16S 8995   5.364   3.115   7.423 -1.2540 -0.6048  1.9963
   6923SM  H16T 8996   5.487   3.239   7.453  2.0239 -0.7034  2.3668
   6923SM  C17S 8997   5.283   3.318   7.439 -0.5258  0.0541  0.8707
   6923SM  H17S 8998   5.275   3.385   7.527 -4.3671 -0.0114  0.7181
   6923SM  H17T 8999   5.189   3.259   7.437 -0.4630 -0.1427  2.4857
   6923SM  C18S 9000   5.314   3.397   7.310  0.1798  0.5367 -0.0214
   6923SM  H18S 9001   5.415   3.439   7.329 -0.7311  1.8262  2.3331
   6923SM  H18T 9002   5.244   3.483   7.304 -1.9079 -0.9858  1.1502
   6923SM  H18U 9003   5.320   3.322   7.228  0.1650  0.5643 -0.0475
   6923SM   C1F 9004   5.207   2.771   8.989 -1.2102  0.4766  0.2093
   6923SM    OF 9005   5.227   2.852   9.077 -0.3374  1.1828  0.0287
   6923SM   C2F 9006   5.068   2.733   8.941  0.0286  0.0196 -0.0726
   6923SM   H2F 9007   5.037   2.637   8.988 -0.9495  0.0705 -0.5873
   6923SM   H2G 9008   5.070   2.720   8.831  0.5886  0.8205 -0.1644
   6923SM   C3F 9009   4.964   2.830   8.990  0.0204 -0.0711 -0.7413
   6923SM   H3F 9010   4.992   2.934   8.963 -0.6694  0.2272 -0.3425
   6923SM   H3G 9011   4.950   2.830   9.101  0.8460 -0.9116 -0.6313
   6923SM   C4F 9012   4.818   2.784   8.965 -0.6244  0.2838 -0.0686
   6923SM   H4F 9013   4.754   2.873   8.977 -1.5431 -0.3109 -0.5007
   6923SM   H4G 9014   4.786   2.702   9.033  2.1198 -1.1533 -0.3480
   6923SM   C5F 9015   4.785   2.741   8.822  1.0093  0.5225  0.8847
   6923SM   H5F 9016   4.678   2.712   8.825  0.9875  0.6531  1.3068
   6923SM   H5G 9017   4.845   2.648   8.809 -0.5086 -0.3581 -0.0674
   6923SM   C6F 9018   4.806   2.834   8.712  0.7470 -0.0317  0.5434
   6923SM   H6F 9019   4.911   2.855   8.684 -0.5924  2.5437 -3.5199
   6923SM   H6G 9020   4.755   2.927   8.745 -1.4716 -1.0574  0.2119
   6923SM   C7F 9021   4.754   2.793   8.570  0.0959  0.0903 -0.5617
   6923SM   H7F 9022   4.643   2.801   8.570 -0.0300 -1.1987  0.6713
   6923SM   H7G 9023   4.773   2.684   8.556  2.1868  0.3488 -0.1209
   6923SM   C8F 9024   4.814   2.872   8.450 -0.3362 -0.3555  0.4060
   6923SM   H8F 9025   4.924   2.856   8.446 -0.5381 -2.4874  1.5501
   6923SM   H8G 9026   4.782   2.978   8.458  0.8575 -0.0384  1.3785
   6923SM   C9F 9027   4.751   2.818   8.321  0.4046  0.2355  0.0614
   6923SM   H9F 9028   4.644   2.847   8.323  0.5723  1.0771 -1.7730
   6923SM   H9G 9029   4.757   2.708   8.306 -2.9133  0.1258 -1.3470
   6923SM  C10F 9030   4.810   2.877   8.193  0.1800  0.2121  0.3164
   6923SM  H10F 9031   4.920   2.869   8.197  0.2038 -0.0269 -0.6699
   6923SM  H10G 9032   4.784   2.985   8.185  0.5194  0.1765 -1.9468
   6923SM  C11F 9033   4.757   2.812   8.063 -0.7985  0.1904  1.0200
   6923SM  H11F 9034   4.647   2.824   8.063 -0.7471  1.2203 -1.5420
   6923SM  H11G 9035   4.786   2.705   8.049  1.0034  0.6419  0.9997
   6923SM  C12F 9036   4.818   2.899   7.944  0.6056 -0.4435 -0.4362
   6923SM  H12F 9037   4.924   2.869   7.932  1.2045  0.9400  1.1207
   6923SM  H12G 9038   4.811   3.007   7.969 -1.0504 -0.3955 -0.9647
   6923SM  C13F 9039   4.753   2.870   7.807 -0.6554 -0.1340  0.1949
   6923SM  H13F 9040   4.644   2.886   7.811 -0.4212  1.2497  2.1532
   6923SM  H13G 9041   4.776   2.767   7.771  2.8026 -0.2293  2.1606
   6923SM  C14F 9042   4.811   2.973   7.694 -0.1235 -0.0263 -0.1821
   6923SM  H14F 9043   4.921   2.963   7.698  0.1430  2.6534  1.2939
   6923SM  H14G 9044   4.784   3.075   7.729  2.7056  0.8234 -0.2619
   6923SM  C15F 9045   4.764   2.940   7.551  0.3198 -0.2437  0.1300
   6923SM  H15F 9046   4.656   2.967   7.554  0.8280  1.9170  2.5000
   6923SM  H15G 9047   4.761   2.830   7.536  0.7993 -0.4231  1.2310
   6923SM  C16F 9048   4.843   3.010   7.436 -0.1570 -0.0380 -0.1510
   6923SM  H16F 9049   4.952   2.987   7.441 -0.0436  0.0950 -1.6695
   6923SM  H16G 9050   4.827   3.120   7.443 -1.5462 -0.2780  0.8923
   6923SM  C17F 9051   4.797   2.962   7.300  0.2528  0.3554  0.1181
   6923SM  H17F 9052   4.687   2.974   7.293  0.1706 -1.1618 -3.4487
   6923SM  H17G 9053   4.818   2.853   7.297  0.1444  0.3607 -1.4719
   6923SM  C18F 9054   4.855   3.033   7.184  0.6860 -0.1060  0.5192
   6923SM  H18F 9055   4.965   3.023   7.172  0.8060  0.2563  1.2610
   6923SM  H18G 9056   4.838   3.143   7.191  1.9154  0.2212 -0.9523
   6923SM  C19F 9057   4.797   2.997   7.043 -0.8203  1.1378  0.7118
   6923SM  H19F 9058   4.819   2.892   7.014  0.6536  1.3087  1.1154
   6923SM  H19G 9059   4.844   3.051   6.958  2.2638 -1.8587  0.2744
   6923SM  C20F 9060   4.642   3.024   7.025  0.0944 -0.6912  0.4996
   6923SM  H20F 9061   4.592   2.994   7.119 -0.5279 -1.9079 -0.1948
   6923SM  H20G 9062   4.596   2.965   6.943 -1.4033 -2.1762  2.3472
   6923SM  C21F 9063   4.606   3.180   7.002  0.0464 -0.4965  0.0335
   6923SM  H21F 9064   4.668   3.225   6.921  0.5019  0.1510  0.7249
   6923SM  H21G 9065   4.633   3.243   7.089  1.0260 -1.0840  0.1626
   6923SM  C22F 9066   4.459   3.199   6.973 -0.8403  0.9806  0.6912
   6923SM  H22F 9067   4.395   3.159   7.055  0.8114 -0.2119  1.4521
   6923SM  H22G 9068   4.447   3.138   6.881  2.8010  0.1322  0.6120
   6923SM  C23F 9069   4.422   3.345   6.943 -0.6486 -0.4675  0.6100
   6923SM  H23F 9070   4.316   3.347   6.911  0.2413 -0.0777 -2.6861
   6923SM  H23G 9071   4.477   3.387   6.856  0.6405  0.6719  1.9236
   6923SM  H23H 9072   4.445   3.409   7.031 -2.2526  1.7924 -0.5118
   7023SM     N 9073   4.506   1.977   9.169 -0.4978 -0.2583 -0.2555
   7023SM   C15 9074   4.429   2.046   9.276 -0.4440  0.4465  0.1633
   7023SM  H15A 9075   4.366   1.971   9.321 -1.2782  0.0563 -1.5853
   7023SM  H15B 9076   4.377   2.127   9.226  0.4132  0.5519 -0.5822
   7023SM  H15C 9077   4.491   2.091   9.352  0.1882  0.2689 -0.2499
   7023SM   C14 9078   4.588   2.080   9.101  0.5810  0.1558 -0.4703
   7023SM  H14A 9079   4.652   2.132   9.170 -1.1612 -0.7056  1.9462
   7023SM  H14B 9080   4.526   2.162   9.069 -1.4986 -1.9287 -2.1707
   7023SM  H14C 9081   4.651   2.041   9.023 -2.5493 -1.1059 -2.5693
   7023SM   C13 9082   4.605   1.880   9.236  0.7144 -1.0130  0.3502
   7023SM  H13A 9083   4.691   1.914   9.292  0.6546 -1.4881  0.7401
   7023SM  H13B 9084   4.649   1.820   9.157 -0.7252  1.4762 -2.5466
   7023SM  H13C 9085   4.562   1.813   9.309  0.0817 -1.2801 -0.2566
   7023SM   C12 9086   4.409   1.901   9.081  1.2013 -0.9173 -0.3717
   7023SM  H12A 9087   4.365   1.821   9.138  0.8426  0.4546  1.3724
   7023SM  H12B 9088   4.459   1.859   8.995 -3.0455 -1.7267 -2.6896
   7023SM   C11 9089   4.289   1.982   9.028 -0.4626  0.6864  0.1328
   7023SM  H11A 9090   4.248   1.912   8.953  1.6346  0.5787 -1.0092
   7023SM  H11B 9091   4.328   2.069   8.970  0.1904 -0.7761 -1.7321
   7023SM     P 9092   4.071   2.100   9.112 -0.4874  0.2513  0.4255
   7023SM   O13 9093   3.951   2.020   9.154  0.2971 -0.5853 -0.0052
   7023SM   O14 9094   4.101   2.231   9.175  0.0842  0.3416 -0.1413
   7023SM   O11 9095   4.071   2.120   8.953 -0.0117  0.3549 -0.1535
   7023SM   O12 9096   4.193   2.008   9.129  0.1153  0.0414 -0.3995
   7023SM   C1S 9097   4.032   2.242   8.887 -0.0616  0.4049  0.4490
   7023SM   H1S 9098   4.039   2.334   8.948 -0.9765 -1.2017  3.1056
   7023SM   H1T 9099   3.924   2.226   8.869 -0.1972 -0.1495  1.7295
   7023SM    NF 9100   4.090   2.386   8.679 -0.2639 -0.0438  0.5010
   7023SM   HNF 9101   4.061   2.384   8.583 -2.2236 -2.1770  1.0264
   7023SM   C2S 9102   4.106   2.255   8.748  0.3666 -0.2460 -0.0393
   7023SM   H2S 9103   4.214   2.249   8.773  0.7213 -0.1282 -1.4565
   7023SM   C3S 9104   4.071   2.128   8.657 -0.6138 -0.1606 -0.2639
   7023SM   H3S 9105   3.962   2.130   8.634 -0.2892  2.5128 -1.9905
   7023SM    O3 9106   4.101   1.999   8.711 -0.2972  0.1341  0.1150
   7023SM   HO3 9107   4.117   2.013   8.805 -0.4195 -2.3967  0.5823
   7023SM   C4S 9108   4.146   2.124   8.524 -0.1650 -0.2914 -0.2102
   7023SM   H4S 9109   4.256   2.129   8.527 -0.1755  0.9885 -1.2325
   7023SM   C5S 9110   4.092   2.119   8.402  0.0051 -0.3027  0.6038
   7023SM   H5S 9111   3.983   2.121   8.392 -0.3358  1.6646  3.6210
   7023SM   C6S 9112   4.168   2.114   8.276 -0.6816  0.0227 -0.3048
   7023SM   H6S 9113   4.166   2.012   8.232  1.3108  0.2636 -1.0442
   7023SM   H6T 9114   4.274   2.140   8.295  0.0295 -1.2869 -2.1594
   7023SM   C7S 9115   4.107   2.208   8.170 -0.1490 -0.2261  1.0372
   7023SM   H7S 9116   4.143   2.312   8.185 -0.7080  0.2483 -0.7300
   7023SM   H7T 9117   3.996   2.206   8.171 -0.1388 -1.3286  1.0973
   7023SM   C8S 9118   4.148   2.173   8.028 -0.3084 -0.1202 -0.0445
   7023SM   H8S 9119   4.126   2.069   7.995  2.6582 -0.2156 -2.2327
   7023SM   H8T 9120   4.259   2.180   8.019 -0.3791 -0.8666 -2.1233
   7023SM   C9S 9121   4.101   2.278   7.928 -0.0340 -0.2746 -0.8934
   7023SM   H9S 9122   4.131   2.377   7.969  3.0274 -1.7208  0.7061
   7023SM   H9T 9123   3.991   2.274   7.917 -0.5058  3.0876  1.2781
   7023SM  C10S 9124   4.158   2.242   7.787  0.9435  0.1043 -0.0679
   7023SM  H10S 9125   4.127   2.137   7.774  0.6551  0.1362  0.3228
   7023SM  H10T 9126   4.267   2.258   7.775  0.4814  2.4467 -1.8424
   7023SM  C11S 9127   4.074   2.327   7.677 -0.2174 -0.4980 -0.7551
   7023SM  H11S 9128   4.077   2.433   7.710  0.4225 -0.4500 -0.9527
   7023SM  H11T 9129   3.968   2.293   7.686 -0.9789  1.7997 -0.3960
   7023SM  C12S 9130   4.127   2.313   7.534 -0.6254 -0.0360  0.2331
   7023SM  H12S 9131   4.238   2.325   7.538 -0.6478 -0.0331  1.1493
   7023SM  H12T 9132   4.094   2.406   7.482  1.1658  0.3116 -0.3482
   7023SM  C13S 9133   4.086   2.182   7.467 -0.8170 -0.9022  0.1359
   7023SM  H13S 9134   3.976   2.166   7.460 -0.6455 -2.4302  0.5219
   7023SM  H13T 9135   4.127   2.101   7.532 -1.1025 -1.0658  0.1120
   7023SM  C14S 9136   4.154   2.178   7.331 -1.5214 -0.9077  0.4118
   7023SM  H14S 9137   4.145   2.079   7.280 -1.0015  0.0654 -1.6804
   7023SM  H14T 9138   4.262   2.194   7.350 -1.7542  0.9183  0.3331
   7023SM  C15S 9139   4.112   2.298   7.234  0.3057  0.6058  0.1743
   7023SM  H15S 9140   4.119   2.400   7.278 -3.4481  1.5564 -1.0765
   7023SM  H15T 9141   4.007   2.276   7.206 -0.0754  2.2403  0.2513
   7023SM  C16S 9142   4.204   2.304   7.110 -0.2552 -0.9527 -1.3113
   7023SM  H16S 9143   4.311   2.309   7.143 -0.6003  0.1433 -0.2655
   7023SM  H16T 9144   4.183   2.395   7.050  0.1560 -1.2922 -1.9793
   7023SM  C17S 9145   4.194   2.186   7.013  0.0501 -0.5074 -0.6215
   7023SM  H17S 9146   4.086   2.160   7.008 -0.0973  0.0906 -0.5834
   7023SM  H17T 9147   4.247   2.093   7.043  1.0277  0.1225 -0.3693
   7023SM  C18S 9148   4.231   2.219   6.865  0.3013  0.3732 -0.3882
   7023SM  H18S 9149   4.190   2.314   6.825  0.7756  0.0406 -1.7072
   7023SM  H18T 9150   4.203   2.130   6.804  0.8934 -1.0482  1.3449
   7023SM  H18U 9151   4.339   2.239   6.856  0.6047 -0.4058  1.2796
   7023SM   C1F 9152   4.146   2.498   8.721  0.2835  0.5282  0.4668
   7023SM    OF 9153   4.220   2.495   8.814  0.0032 -0.1398  0.0868
   7023SM   C2F 9154   4.113   2.616   8.640 -0.0920  0.1758  0.5985
   7023SM   H2F 9155   4.011   2.651   8.666 -0.1009  1.7193 -1.2547
   7023SM   H2G 9156   4.109   2.589   8.532  0.3991 -0.6200  0.7753
   7023SM   C3F 9157   4.215   2.737   8.656 -0.0719 -0.8817 -0.6089
   7023SM   H3F 9158   4.320   2.702   8.649  1.1670  2.3246  0.0543
   7023SM   H3G 9159   4.186   2.783   8.753 -0.6620 -1.5979 -0.4441
   7023SM   C4F 9160   4.197   2.838   8.543 -0.2070 -0.1816  0.6969
   7023SM   H4F 9161   4.244   2.934   8.574 -0.2650 -0.3581  1.3331
   7023SM   H4G 9162   4.088   2.860   8.533 -0.2451  0.1730  1.7234
   7023SM   C5F 9163   4.275   2.785   8.426 -0.6625  0.4858  0.3047
   7023SM   H5F 9164   4.241   2.682   8.402  2.3581 -0.2329 -1.3426
   7023SM   H5G 9165   4.379   2.777   8.466 -1.8236  1.2209  3.8594
   7023SM   C6F 9166   4.265   2.870   8.297  0.0321 -0.3640  0.0287
   7023SM   H6F 9167   4.302   2.974   8.314 -0.5123  0.1274 -1.6188
   7023SM   H6G 9168   4.158   2.869   8.269 -0.3633 -1.4002  1.4605
   7023SM   C7F 9169   4.336   2.799   8.180  0.5111  0.1408 -0.2575
   7023SM   H7F 9170   4.312   2.691   8.179  0.1953  0.2123 -1.2007
   7023SM   H7G 9171   4.447   2.804   8.177  0.5478 -0.6722 -2.8770
   7023SM   C8F 9172   4.305   2.864   8.044  0.3720 -0.3872 -0.2295
   7023SM   H8F 9173   4.350   2.965   8.034 -1.1386  0.1236 -3.0008
   7023SM   H8G 9174   4.195   2.872   8.030 -0.0997  0.4139  3.0899
   7023SM   C9F 9175   4.347   2.782   7.925  0.1025  0.4509  0.9139
   7023SM   H9F 9176   4.318   2.676   7.942  0.4463  0.1482 -0.2743
   7023SM   H9G 9177   4.456   2.793   7.906 -0.2326 -0.0527 -1.8762
   7023SM  C10F 9178   4.277   2.835   7.798  0.0435  0.3811 -0.3080
   7023SM  H10F 9179   4.273   2.943   7.825  0.0895 -0.1381  1.9160
   7023SM  H10G 9180   4.172   2.801   7.793  0.1155  0.1804 -0.4958
   7023SM  C11F 9181   4.348   2.815   7.669 -0.0338 -0.7497  0.6677
   7023SM  H11F 9182   4.353   2.706   7.650 -0.7810 -0.4128 -1.9670
   7023SM  H11G 9183   4.450   2.859   7.676 -0.4122  0.3155 -0.1732
   7023SM  C12F 9184   4.263   2.868   7.551 -0.0921  0.6319 -0.4083
   7023SM  H12F 9185   4.253   2.978   7.555 -1.8525  0.4702  0.5904
   7023SM  H12G 9186   4.156   2.841   7.546  0.3024 -1.1358 -0.0802
   7023SM  C13F 9187   4.329   2.835   7.421 -0.1050 -0.0969  0.3539
   7023SM  H13F 9188   4.334   2.724   7.426 -1.3236 -0.1345  1.1932
   7023SM  H13G 9189   4.431   2.875   7.409 -0.6660  1.4062  0.4203
   7023SM  C14F 9190   4.246   2.867   7.292  0.4594 -0.0969  0.5059
   7023SM  H14F 9191   4.229   2.977   7.287  0.6316 -0.1127 -1.1895
   7023SM  H14G 9192   4.147   2.818   7.292  0.3484 -0.0265 -2.1278
   7023SM  C15F 9193   4.318   2.820   7.160  0.2393  0.1684  0.3488
   7023SM  H15F 9194   4.312   2.709   7.163  0.7524  0.1544  0.7366
   7023SM  H15G 9195   4.424   2.851   7.165  0.4951 -0.0841 -2.0936
   7023SM  C16F 9196   4.244   2.863   7.034 -0.1620  0.4591  0.6813
   7023SM  H16F 9197   4.251   2.973   7.039  0.9758  0.3913  0.8440
   7023SM  H16G 9198   4.137   2.835   7.032 -0.2017  0.4303 -2.2219
   7023SM  C17F 9199   4.313   2.800   6.912  0.5621  0.0701  0.1859
   7023SM  H17F 9200   4.303   2.690   6.922  2.5635 -0.3009 -1.1435
   7023SM  H17G 9201   4.423   2.818   6.918  0.7862 -0.4307 -1.6252
   7023SM  C18F 9202   4.259   2.851   6.779  0.4029  0.8484 -0.9889
   7023SM  H18F 9203   4.309   2.950   6.766  2.0325  0.2814  0.5172
   7023SM  H18G 9204   4.150   2.872   6.782  0.2607  0.0518 -0.2002
   7023SM  C19F 9205   4.273   2.766   6.656  0.0815  0.4955  0.0021
   7023SM  H19F 9206   4.378   2.769   6.621  0.0958  1.7454  0.1141
   7023SM  H19G 9207   4.221   2.822   6.575 -2.9678 -0.8005  0.9144
   7023SM  C20F 9208   4.215   2.624   6.657 -0.0145 -0.6968 -0.8484
   7023SM  H20F 9209   4.109   2.643   6.683  0.5823  0.5960  0.8408
   7023SM  H20G 9210   4.245   2.556   6.739  0.5074  2.1683  1.5000
   7023SM  C21F 9211   4.234   2.556   6.517  0.5543 -0.3250 -0.7541
   7023SM  H21F 9212   4.343   2.539   6.514  0.7634 -0.0711  2.2807
   7023SM  H21G 9213   4.211   2.626   6.434 -3.0280  1.9588  1.8325
   7023SM  C22F 9214   4.143   2.435   6.498 -0.4331  0.0467 -0.6878
   7023SM  H22F 9215   4.037   2.455   6.527 -0.4178 -1.2374  0.3185
   7023SM  H22G 9216   4.178   2.356   6.567 -1.0723 -0.1209 -0.5483
   7023SM  C23F 9217   4.145   2.373   6.348  0.2860  0.1116 -0.0777
   7023SM  H23F 9218   4.086   2.280   6.350  0.5508 -0.1526 -2.2494
   7023SM  H23G 9219   4.246   2.340   6.315  0.1791 -2.8758  2.1914
   7023SM  H23H 9220   4.112   2.445   6.270  3.3402 -0.8375 -2.4527
   7123SM     N 9221   3.774   1.184   8.808 -0.4826  0.0283 -0.2545
   7123SM   C15 9222   3.755   1.036   8.836  0.7051  0.0317  0.4138
   7123SM  H15A 9223   3.823   0.994   8.909  1.9550 -0.5258 -1.0208
   7123SM  H15B 9224   3.776   0.984   8.744  3.0812 -1.9383  1.9306
   7123SM  H15C 9225   3.649   1.036   8.855  0.5384 -0.6791 -0.4527
   7123SM   C14 9226   3.734   1.251   8.934  0.5370  0.1883 -0.4374
   7123SM  H14A 9227   3.722   1.358   8.926 -1.6908  0.0100 -0.0233
   7123SM  H14B 9228   3.815   1.227   9.002  1.2447  0.5160 -1.1473
   7123SM  H14C 9229   3.640   1.216   8.975  0.5727  1.9257  1.2808
   7123SM   C13 9230   3.919   1.207   8.779 -0.5184  0.6051 -0.2805
   7123SM  H13A 9231   3.955   1.144   8.699 -1.0098 -0.9602  0.6948
   7123SM  H13B 9232   3.983   1.191   8.865 -1.0609  1.1401  0.2364
   7123SM  H13C 9233   3.934   1.305   8.735  3.9165  0.2370  0.0024
   7123SM   C12 9234   3.691   1.223   8.696  0.4229 -0.6923  0.0108
   7123SM  H12A 9235   3.587   1.203   8.716  0.4796 -0.8304  0.1813
   7123SM  H12B 9236   3.716   1.172   8.604 -1.0830 -1.2084 -0.1454
   7123SM   C11 9237   3.693   1.376   8.660  0.1508  0.0003 -0.0434
   7123SM  H11A 9238   3.622   1.422   8.732 -0.6991 -3.4314  1.5447
   7123SM  H11B 9239   3.633   1.390   8.568  1.3524 -1.5815 -1.0977
   7123SM     P 9240   3.828   1.591   8.638  0.0510 -0.2089 -0.1482
   7123SM   O13 9241   3.726   1.665   8.727 -0.1003 -0.6712  0.2208
   7123SM   O14 9242   3.969   1.635   8.656  0.0587 -0.0941  0.0461
   7123SM   O11 9243   3.782   1.614   8.482  0.1430  0.0297  0.0039
   7123SM   O12 9244   3.813   1.445   8.675 -0.2464  0.2005  0.2111
   7123SM   C1S 9245   3.831   1.527   8.380  0.3652  0.4743  1.1812
   7123SM   H1S 9246   3.790   1.424   8.377  0.0952  0.5796  1.2745
   7123SM   H1T 9247   3.941   1.510   8.390  0.2786  0.2293  1.7966
   7123SM    NF 9248   3.836   1.485   8.124 -0.0572  0.1238 -0.7035
   7123SM   HNF 9249   3.928   1.467   8.092  0.1418 -1.2144  0.5269
   7123SM   C2S 9250   3.812   1.579   8.232  0.1100 -0.7381 -0.2117
   7123SM   H2S 9251   3.709   1.621   8.233 -0.3634 -1.7951  1.9687
   7123SM   C3S 9252   3.905   1.702   8.226  0.4589  0.2104  0.2667
   7123SM   H3S 9253   4.008   1.677   8.256  1.1121  1.6190 -0.6765
   7123SM    O3 9254   3.871   1.811   8.320  0.0830 -0.1977  0.6914
   7123SM   HO3 9255   3.811   1.767   8.381 -3.4421  0.1023 -2.1898
   7123SM   C4S 9256   3.911   1.771   8.088 -0.8731  0.3832 -0.3491
   7123SM   H4S 9257   3.825   1.832   8.060 -0.3051  1.6758  0.6423
   7123SM   C5S 9258   4.016   1.740   8.004 -0.4162 -0.6860 -0.3545
   7123SM   H5S 9259   4.101   1.677   8.032  1.7975  1.7312 -1.1805
   7123SM   C6S 9260   4.037   1.801   7.866 -0.1794 -0.4154 -0.6960
   7123SM   H6S 9261   4.143   1.833   7.863 -0.2429  0.2287  1.7271
   7123SM   H6T 9262   3.974   1.893   7.863  0.3300 -0.0256  0.0662
   7123SM   C7S 9263   3.992   1.711   7.755 -0.6711 -0.7261  0.0282
   7123SM   H7S 9264   3.882   1.701   7.768 -0.6388 -1.2351 -0.0736
   7123SM   H7T 9265   4.044   1.613   7.766 -1.6012 -1.3572 -0.9965
   7123SM   C8S 9266   4.028   1.773   7.617 -0.1587 -0.3169 -0.5976
   7123SM   H8S 9267   4.136   1.796   7.611  0.6494 -2.0893  3.6623
   7123SM   H8T 9268   3.984   1.875   7.623 -1.2459 -0.8208  0.4406
   7123SM   C9S 9269   3.985   1.702   7.485  0.0421 -0.5998  0.0861
   7123SM   H9S 9270   3.881   1.673   7.512  0.1384 -0.7202  0.3332
   7123SM   H9T 9271   4.035   1.603   7.497  0.5588 -0.2116  1.2415
   7123SM  C10S 9272   3.998   1.787   7.358  1.1673  0.1876 -0.0615
   7123SM  H10S 9273   4.096   1.838   7.355  0.9061  0.6692 -0.6658
   7123SM  H10T 9274   3.935   1.878   7.370 -0.0740 -0.4786 -1.1461
   7123SM  C11S 9275   3.958   1.704   7.239 -0.2923 -0.2442  0.4130
   7123SM  H11S 9276   3.856   1.662   7.253  0.6209 -2.9156 -0.3585
   7123SM  H11T 9277   4.030   1.620   7.233  1.0690  0.9722 -1.9970
   7123SM  C12S 9278   3.952   1.787   7.106  0.2661  0.6452 -0.4955
   7123SM  H12S 9279   3.907   1.884   7.136 -2.3334 -0.1753 -1.4652
   7123SM  H12T 9280   3.866   1.749   7.046  1.5911 -2.3783 -0.6376
   7123SM  C13S 9281   4.082   1.789   7.035 -0.5246  0.2118 -0.5093
   7123SM  H13S 9282   4.146   1.701   7.059  0.7496  0.7772 -1.6976
   7123SM  H13T 9283   4.141   1.878   7.064 -0.6915 -0.0908  0.7879
   7123SM  C14S 9284   4.072   1.799   6.882  0.5627 -1.4711  0.5574
   7123SM  H14S 9285   3.995   1.875   6.854  1.4303 -0.8047 -0.0717
   7123SM  H14T 9286   4.029   1.701   6.853 -0.7010 -0.2719 -1.9791
   7123SM  C15S 9287   4.208   1.830   6.822  0.7187 -0.0112 -0.5524
   7123SM  H15S 9288   4.277   1.773   6.888  3.6716  1.8805 -1.7568
   7123SM  H15T 9289   4.219   1.941   6.821 -2.9777  0.4670 -1.3821
   7123SM  C16S 9290   4.223   1.786   6.678 -0.2862 -0.6788  0.4335
   7123SM  H16S 9291   4.308   1.841   6.631  0.5730 -0.4666  2.1276
   7123SM  H16T 9292   4.138   1.822   6.617  0.3703  0.4737  0.1515
   7123SM  C17S 9293   4.243   1.635   6.676 -0.3184  0.2993 -0.2406
   7123SM  H17S 9294   4.170   1.582   6.740  2.4572 -0.0279  2.9172
   7123SM  H17T 9295   4.335   1.605   6.731 -1.4977  2.2523  3.0817
   7123SM  C18S 9296   4.241   1.583   6.529  0.1171 -0.4006 -0.3558
   7123SM  H18S 9297   4.233   1.473   6.535  1.7343 -0.5737 -0.8631
   7123SM  H18T 9298   4.334   1.619   6.478 -0.1006  2.0279  0.8337
   7123SM  H18U 9299   4.149   1.618   6.478 -1.2915  0.0218  2.3168
   7123SM   C1F 9300   3.751   1.385   8.102  0.2148  0.1088 -0.1512
   7123SM    OF 9301   3.644   1.378   8.164 -0.2332  0.2421 -0.3319
   7123SM   C2F 9302   3.800   1.284   7.998  0.2254 -0.0925  0.0101
   7123SM   H2F 9303   3.732   1.198   7.983 -0.3860  0.5219 -0.8089
   7123SM   H2G 9304   3.899   1.248   8.034  0.5916  1.3110  0.4636
   7123SM   C3F 9305   3.806   1.355   7.864  0.8335  0.0920 -1.0625
   7123SM   H3F 9306   3.880   1.436   7.885  0.5622 -0.1225  0.8621
   7123SM   H3G 9307   3.703   1.390   7.841  0.6992 -1.2942 -2.7612
   7123SM   C4F 9308   3.855   1.265   7.753  0.2348 -0.1379  0.7685
   7123SM   H4F 9309   3.776   1.189   7.737 -1.7753  1.7429  1.1714
   7123SM   H4G 9310   3.960   1.233   7.772  0.0165 -0.6175  1.1604
   7123SM   C5F 9311   3.880   1.344   7.622 -0.4446  0.4202  0.5813
   7123SM   H5F 9312   3.974   1.402   7.622 -0.8872  1.1480  0.4728
   7123SM   H5G 9313   3.799   1.420   7.621  0.3160  1.2464 -0.3681
   7123SM   C6F 9314   3.863   1.252   7.486  0.0650  0.3410 -0.5745
   7123SM   H6F 9315   3.763   1.205   7.495  1.2925 -2.2595  0.6285
   7123SM   H6G 9316   3.945   1.178   7.482 -1.2859 -1.2275 -0.3034
   7123SM   C7F 9317   3.868   1.340   7.363  0.5633 -0.3005  0.0489
   7123SM   H7F 9318   3.965   1.396   7.363 -0.0613  0.8503  1.3176
   7123SM   H7G 9319   3.797   1.425   7.368  0.2856 -0.5916  1.6044
   7123SM   C8F 9320   3.851   1.265   7.228  0.6227 -0.0207  0.7827
   7123SM   H8F 9321   3.747   1.238   7.200  0.5889  1.6453 -0.8748
   7123SM   H8G 9322   3.908   1.170   7.234 -0.1964 -0.5628  0.1593
   7123SM   C9F 9323   3.910   1.353   7.115 -0.0951  0.1808  0.3385
   7123SM   H9F 9324   4.020   1.356   7.134 -0.3943  0.2489  2.1922
   7123SM   H9G 9325   3.874   1.458   7.123 -0.3445  0.1595 -0.4271
   7123SM  C10F 9326   3.901   1.295   6.973 -0.4191 -0.2428  0.1010
   7123SM  H10F 9327   3.794   1.280   6.950 -0.7006  1.1304  0.4143
   7123SM  H10G 9328   3.942   1.192   6.980  0.0392 -0.1041 -0.4626
   7123SM  C11F 9329   3.977   1.361   6.858  0.3426  0.1833  0.6913
   7123SM  H11F 9330   4.084   1.337   6.875  0.3910 -0.1472 -0.0113
   7123SM  H11G 9331   3.954   1.469   6.857  0.0957  0.2671 -3.3391
   7123SM  C12F 9332   3.935   1.307   6.721 -0.8910 -0.9740  0.0172
   7123SM  H12F 9333   3.949   1.390   6.648  0.2081 -1.2009 -0.0452
   7123SM  H12G 9334   3.825   1.286   6.720 -1.0131 -0.4831 -1.8511
   7123SM  C13F 9335   4.023   1.191   6.671  0.3283 -0.0825  0.2940
   7123SM  H13F 9336   3.996   1.101   6.732  0.0862  0.2752  0.7234
   7123SM  H13G 9337   4.130   1.210   6.691  0.4046 -0.4601  0.2641
   7123SM  C14F 9338   3.995   1.155   6.523  0.3059 -0.7153 -0.1009
   7123SM  H14F 9339   3.886   1.132   6.522 -0.0318  0.6831  0.7167
   7123SM  H14G 9340   4.052   1.066   6.491 -0.5757 -1.4706  0.4024
   7123SM  C15F 9341   4.032   1.255   6.412 -0.2616 -0.7795 -0.1749
   7123SM  H15F 9342   4.139   1.286   6.415 -0.4065 -0.3458  0.8338
   7123SM  H15G 9343   3.981   1.353   6.426  0.9040 -0.2220  0.2965
   7123SM  C16F 9344   4.007   1.199   6.271 -0.2969  0.0977  0.7507
   7123SM  H16F 9345   3.913   1.142   6.261 -0.2541 -0.2234  2.0126
   7123SM  H16G 9346   4.078   1.115   6.254 -0.1363  0.2335  0.7420
   7123SM  C17F 9347   4.028   1.299   6.156 -0.5170 -0.0437 -0.9499
   7123SM  H17F 9348   4.138   1.316   6.151 -0.4825  0.9560  1.7155
   7123SM  H17G 9349   3.979   1.391   6.194 -0.4236 -1.0775  1.9048
   7123SM  C18F 9350   3.977   1.265   6.016  0.2235  0.6405  0.3117
   7123SM  H18F 9351   4.005   1.340   5.939  1.9813 -1.0295 -0.7978
   7123SM  H18G 9352   3.869   1.246   6.032  0.7590 -1.0006  2.4647
   7123SM  C19F 9353   4.030   1.123   5.973 -0.0551 -0.9971  0.0689
   7123SM  H19F 9354   4.002   1.048   6.050  1.6871 -1.3669  0.3695
   7123SM  H19G 9355   4.139   1.139   5.966  0.1185 -1.8746  0.6633
   7123SM  C20F 9356   3.988   1.090   5.829  0.2824 -0.1187 -0.3785
   7123SM  H20F 9357   4.057   1.145   5.762  0.3999  0.8941  0.5607
   7123SM  H20G 9358   3.884   1.121   5.803 -0.8756 -2.2627  1.3427
   7123SM  C21F 9359   4.001   0.939   5.814  0.5126 -0.0518  0.0021
   7123SM  H21F 9360   4.086   0.900   5.874 -0.3640 -1.3254  0.4716
   7123SM  H21G 9361   4.040   0.932   5.710  2.3175  0.6094  0.6040
   7123SM  C22F 9362   3.877   0.860   5.852 -0.3556 -0.8766  0.0112
   7123SM  H22F 9363   3.787   0.899   5.801 -0.1365  1.6095  1.3855
   7123SM  H22G 9364   3.842   0.862   5.957 -0.0813 -0.3194  0.0983
   7123SM  C23F 9365   3.880   0.709   5.815 -0.4937  0.2013  0.4381
   7123SM  H23F 9366   3.803   0.653   5.873 -0.9897 -0.1972 -0.5823
   7123SM  H23G 9367   3.972   0.648   5.828 -1.2843 -1.4406 -1.1704
   7123SM  H23H 9368   3.841   0.695   5.711 -3.7551  2.2661  1.2230
   7223SM     N 9369   5.901   4.719   9.281  0.3660 -0.1027  0.2751
   7223SM   C15 9370   5.982   4.608   9.352  0.3433 -0.7739 -0.0390
   7223SM  H15A 9371   6.053   4.644   9.425 -0.9450  0.9897  0.4328
   7223SM  H15B 9372   6.042   4.568   9.272  0.2969 -0.2879 -0.3244
   7223SM  H15C 9373   5.908   4.546   9.400 -1.2520 -0.0650 -1.4427
   7223SM   C14 9374   5.790   4.755   9.371  0.5298 -0.2174  0.6522
   7223SM  H14A 9375   5.717   4.679   9.393 -0.3984  0.0647 -1.2219
   7223SM  H14B 9376   5.723   4.835   9.344  0.2309 -0.7180 -0.1415
   7223SM  H14C 9377   5.828   4.789   9.466 -0.9386  1.7343  0.5899
   7223SM   C13 9378   5.984   4.836   9.255  0.1107 -0.2193  0.1229
   7223SM  H13A 9379   6.036   4.857   9.347 -1.1559  1.9948  0.3949
   7223SM  H13B 9380   5.933   4.924   9.219  1.1549  0.6097  0.6364
   7223SM  H13C 9381   6.064   4.814   9.186  0.1388  1.3690 -0.3725
   7223SM   C12 9382   5.837   4.670   9.157  0.2123 -0.7705  0.1881
   7223SM  H12A 9383   5.776   4.749   9.116  1.1665  0.1218  0.4449
   7223SM  H12B 9384   5.768   4.592   9.186  0.3477 -0.4636  1.4006
   7223SM   C11 9385   5.933   4.626   9.042  0.6514  0.6185 -0.2696
   7223SM  H11A 9386   5.997   4.709   9.006  0.5112  0.6218 -0.5158
   7223SM  H11B 9387   5.873   4.590   8.955  0.2331  0.8870 -0.0910
   7223SM     P 9388   5.973   4.370   9.089  0.1116 -0.4211 -0.2217
   7223SM   O13 9389   6.058   4.289   9.178  0.9088  0.9479  0.0283
   7223SM   O14 9390   5.822   4.391   9.114 -0.3252 -0.4421 -0.4201
   7223SM   O11 9391   5.997   4.318   8.946 -0.3437 -0.5980 -0.3866
   7223SM   O12 9392   6.025   4.519   9.085  0.7551  0.1915 -0.4081
   7223SM   C1S 9393   6.109   4.366   8.869 -0.1154 -0.0973 -0.9550
   7223SM   H1S 9394   6.200   4.316   8.910 -1.3286 -2.3318 -0.7883
   7223SM   H1T 9395   6.115   4.476   8.864  0.7858 -0.1748 -2.3061
   7223SM    NF 9396   6.223   4.354   8.656 -0.3291  0.6931 -0.4573
   7223SM   HNF 9397   6.243   4.429   8.594 -0.1493  0.0607 -1.1862
   7223SM   C2S 9398   6.090   4.333   8.722 -0.9201 -0.8450  0.6403
   7223SM   H2S 9399   6.066   4.226   8.701 -1.3331 -0.5492 -0.5204
   7223SM   C3S 9400   5.973   4.408   8.661 -0.2356 -0.3634  0.3240
   7223SM   H3S 9401   5.990   4.516   8.681  0.0680 -0.6442  1.7370
   7223SM    O3 9402   5.848   4.370   8.724 -0.4550  0.0167 -0.0110
   7223SM   HO3 9403   5.877   4.332   8.807  0.2528 -1.7667 -1.0168
   7223SM   C4S 9404   5.968   4.393   8.504 -0.0803 -0.5224 -0.3213
   7223SM   H4S 9405   6.014   4.478   8.452 -0.6662  0.9685  1.4739
   7223SM   C5S 9406   5.910   4.292   8.436 -0.4469 -0.9818 -0.0576
   7223SM   H5S 9407   5.855   4.213   8.489 -1.0795 -1.1301 -0.9034
   7223SM   C6S 9408   5.912   4.292   8.282 -0.0796 -0.9527  0.1066
   7223SM   H6S 9409   5.853   4.199   8.267  0.5529 -1.5364  1.0958
   7223SM   H6T 9410   6.017   4.272   8.252  0.1799  0.8879 -0.3294
   7223SM   C7S 9411   5.860   4.415   8.208  0.4431  0.2253 -0.7006
   7223SM   H7S 9412   5.928   4.499   8.233 -0.5543  0.9616 -0.3959
   7223SM   H7T 9413   5.757   4.439   8.242  0.8231  1.0645 -0.1205
   7223SM   C8S 9414   5.849   4.395   8.062  0.1950 -0.5201  0.5913
   7223SM   H8S 9415   5.824   4.492   8.014 -1.3490 -0.6117  1.1403
   7223SM   H8T 9416   5.763   4.325   8.049  0.6738 -1.1746  0.8737
   7223SM   C9S 9417   5.965   4.330   7.981  0.0453 -0.1970  0.1708
   7223SM   H9S 9418   5.983   4.223   8.008 -3.0219 -0.5483  1.2370
   7223SM   H9T 9419   6.053   4.390   8.013 -0.3924  1.8875 -2.2411
   7223SM  C10S 9420   5.948   4.364   7.829 -0.5948  0.7087 -0.2917
   7223SM  H10S 9421   5.941   4.474   7.818  0.6279  0.6778 -1.7279
   7223SM  H10T 9422   5.849   4.328   7.795 -0.4809  1.3465 -1.3296
   7223SM  C11S 9423   6.049   4.287   7.743 -0.6305 -0.3601 -0.6134
   7223SM  H11S 9424   6.046   4.182   7.780 -0.2284 -0.5572 -1.1161
   7223SM  H11T 9425   6.144   4.344   7.735 -0.3724 -0.5665  0.8166
   7223SM  C12S 9426   5.986   4.288   7.606 -0.5257 -0.2608 -0.0972
   7223SM  H12S 9427   5.967   4.394   7.578 -0.5879 -0.5079 -1.0301
   7223SM  H12T 9428   5.885   4.244   7.595 -0.2760 -0.7891 -0.3168
   7223SM  C13S 9429   6.085   4.222   7.510  0.3822 -0.4751  0.5996
   7223SM  H13S 9430   6.094   4.114   7.533  4.5407 -0.3999  0.1512
   7223SM  H13T 9431   6.182   4.270   7.536 -0.4491 -0.3563  3.9914
   7223SM  C14S 9432   6.037   4.238   7.368  0.1775  0.1985 -0.3419
   7223SM  H14S 9433   6.020   4.347   7.358  0.6218  0.8253  3.8408
   7223SM  H14T 9434   5.936   4.190   7.367 -0.2052  0.9929 -1.0114
   7223SM  C15S 9435   6.126   4.169   7.265 -0.2648 -0.0823  0.1853
   7223SM  H15S 9436   6.157   4.068   7.302  0.2801  0.2131  0.5581
   7223SM  H15T 9437   6.222   4.223   7.250 -0.7557  0.6033 -0.5349
   7223SM  C16S 9438   6.060   4.139   7.124  0.6932 -0.6313 -0.0018
   7223SM  H16S 9439   6.025   4.231   7.073 -1.7633  0.0376  2.6123
   7223SM  H16T 9440   5.966   4.084   7.145 -0.3661  1.8213  2.4247
   7223SM  C17S 9441   6.161   4.069   7.035  0.9465 -0.5756  0.4932
   7223SM  H17S 9442   6.203   3.980   7.087  1.2296 -0.6245  0.1846
   7223SM  H17T 9443   6.248   4.134   7.010  0.2955 -0.2712 -1.1040
   7223SM  C18S 9444   6.098   4.029   6.904  0.0212  0.0858  0.1615
   7223SM  H18S 9445   5.995   3.993   6.923 -0.4962  0.1015 -2.3261
   7223SM  H18T 9446   6.171   3.965   6.850  2.2781  0.8761  2.1005
   7223SM  H18U 9447   6.074   4.124   6.851 -2.2418  0.1751  1.2458
   7223SM   C1F 9448   6.325   4.274   8.701 -0.0894  0.1908  0.2967
   7223SM    OF 9449   6.301   4.167   8.749 -0.0895  0.3884  0.1967
   7223SM   C2F 9450   6.471   4.317   8.683  0.3552  1.4005  0.3492
   7223SM   H2F 9451   6.530   4.225   8.703  0.2417  1.1463 -0.4369
   7223SM   H2G 9452   6.498   4.396   8.756 -1.7602  0.5639  2.1767
   7223SM   C3F 9453   6.496   4.371   8.540  0.0743 -0.1629  0.0891
   7223SM   H3F 9454   6.599   4.413   8.546  0.3301 -0.4995 -1.4748
   7223SM   H3G 9455   6.431   4.455   8.509  1.7440  0.5557 -1.6245
   7223SM   C4F 9456   6.476   4.268   8.430  0.4767 -0.3511 -0.0987
   7223SM   H4F 9457   6.371   4.232   8.424  0.3997  0.0625 -1.5391
   7223SM   H4G 9458   6.537   4.179   8.459 -0.0247 -0.2880  1.2129
   7223SM   C5F 9459   6.516   4.321   8.291  0.3586 -0.1025  0.1165
   7223SM   H5F 9460   6.626   4.341   8.287  0.1640  1.5747  1.9056
   7223SM   H5G 9461   6.472   4.423   8.286 -0.6267 -0.2980  3.0259
   7223SM   C6F 9462   6.469   4.228   8.173 -0.1925 -0.1982 -0.4994
   7223SM   H6F 9463   6.359   4.221   8.177 -0.1415 -1.5443 -0.8748
   7223SM   H6G 9464   6.501   4.126   8.201 -2.4283 -0.8532 -0.1744
   7223SM   C7F 9465   6.522   4.280   8.038 -0.2807  0.2756  0.5336
   7223SM   H7F 9466   6.633   4.271   8.033 -0.0814  1.4018  2.1480
   7223SM   H7G 9467   6.500   4.388   8.030 -0.0277  0.1973 -1.9793
   7223SM   C8F 9468   6.458   4.212   7.911  0.5538 -0.1517  1.0678
   7223SM   H8F 9469   6.350   4.235   7.915  0.3129 -1.2385  1.1444
   7223SM   H8G 9470   6.467   4.102   7.903 -0.6746 -0.2779  1.2010
   7223SM   C9F 9471   6.527   4.276   7.791  0.5436  1.2290  0.6866
   7223SM   H9F 9472   6.637   4.263   7.799  0.5306 -0.7668 -1.1731
   7223SM   H9G 9473   6.526   4.386   7.802  2.1360  1.1223  2.4290
   7223SM  C10F 9474   6.470   4.226   7.663 -0.5196 -0.1676  0.5713
   7223SM  H10F 9475   6.359   4.232   7.653 -0.5016  1.2144  0.9811
   7223SM  H10G 9476   6.498   4.119   7.661  0.8714  0.1884 -0.0922
   7223SM  C11F 9477   6.533   4.288   7.533 -0.2051  0.5739  0.3285
   7223SM  H11F 9478   6.643   4.290   7.548 -0.0863 -1.7443 -0.0001
   7223SM  H11G 9479   6.497   4.391   7.510  0.4044  0.4354 -1.3564
   7223SM  C12F 9480   6.503   4.211   7.407 -0.3096 -0.5914  0.1500
   7223SM  H12F 9481   6.509   4.271   7.314  1.6562  2.2263  1.9654
   7223SM  H12G 9482   6.399   4.172   7.408 -0.4343 -0.3678 -1.7841
   7223SM  C13F 9483   6.600   4.088   7.378 -0.4044 -0.1956 -0.0581
   7223SM  H13F 9484   6.569   3.999   7.438 -2.6660  0.9301  0.5652
   7223SM  H13G 9485   6.700   4.116   7.419  0.1371 -2.3396  0.2348
   7223SM  C14F 9486   6.638   4.058   7.228  1.1638 -0.2831 -0.5143
   7223SM  H14F 9487   6.720   3.985   7.218  1.2828 -0.2507  0.1870
   7223SM  H14G 9488   6.658   4.153   7.173  2.1198  1.0635  1.9955
   7223SM  C15F 9489   6.520   3.984   7.145 -0.3051 -0.4827  0.9401
   7223SM  H15F 9490   6.430   4.045   7.166  1.2204  2.0713  0.6029
   7223SM  H15G 9491   6.518   3.881   7.186 -0.8760 -0.6140  0.5878
   7223SM  C16F 9492   6.567   3.994   6.995  0.6197 -0.1586 -0.0436
   7223SM  H16F 9493   6.671   3.953   6.992  1.0556  0.7180  1.5481
   7223SM  H16G 9494   6.577   4.101   6.969 -1.1492  1.3524  4.4906
   7223SM  C17F 9495   6.482   3.912   6.891 -0.3671  0.3960  0.5315
   7223SM  H17F 9496   6.378   3.949   6.889  0.3432  2.5428 -0.3870
   7223SM  H17G 9497   6.485   3.811   6.935  0.9245  0.2721  0.2059
   7223SM  C18F 9498   6.535   3.908   6.745 -0.0326  0.0667 -0.2904
   7223SM  H18F 9499   6.483   3.831   6.684  0.9816  0.8228 -2.2057
   7223SM  H18G 9500   6.640   3.872   6.754  0.8001  2.3594 -0.3126
   7223SM  C19F 9501   6.532   4.042   6.675  0.2114 -0.3216 -0.0003
   7223SM  H19F 9502   6.603   4.111   6.726 -0.2763 -0.3546  0.7349
   7223SM  H19G 9503   6.430   4.083   6.686  1.3288  2.8700 -0.6725
   7223SM  C20F 9504   6.566   4.014   6.526  0.3833  1.0511  0.2680
   7223SM  H20F 9505   6.563   4.110   6.470 -0.0084  1.5167  1.0737
   7223SM  H20G 9506   6.498   3.933   6.493  1.9689 -1.3648  2.4518
   7223SM  C21F 9507   6.706   3.959   6.502 -0.7981  0.3694  0.0846
   7223SM  H21F 9508   6.719   3.861   6.552  1.0891 -0.1701 -1.3346
   7223SM  H21G 9509   6.774   4.032   6.552  1.2088 -0.6752 -0.9966
   7223SM  C22F 9510   6.752   3.950   6.355 -0.3070  0.7746  0.4391
   7223SM  H22F 9511   6.768   4.054   6.319 -1.4607  0.4708 -1.0277
   7223SM  H22G 9512   6.663   3.915   6.298  0.7517  0.8095 -1.3272
   7223SM  C23F 9513   6.878   3.874   6.336  0.3666  0.6673  0.2827
   7223SM  H23F 9514   6.868   3.765   6.355 -1.3173  0.3395 -1.9936
   7223SM  H23G 9515   6.958   3.921   6.397  0.7959  0.7162 -0.3142
   7223SM  H23H 9516   6.915   3.879   6.231  2.7528 -0.5134  1.0151
   7323SM     N 9517   5.135   1.590   9.059 -0.1112  0.0855 -0.0873
   7323SM   C15 9518   5.283   1.618   9.083  0.0621  0.4909  0.6817
   7323SM  H15A 9519   5.300   1.584   9.184 -1.6444 -0.0452  0.8255
   7323SM  H15B 9520   5.313   1.717   9.053  3.0864 -0.6863 -0.6405
   7323SM  H15C 9521   5.341   1.553   9.018 -3.7191 -1.6035 -0.9420
   7323SM   C14 9522   5.095   1.446   9.067  0.0003 -0.5758 -0.4520
   7323SM  H14A 9523   4.989   1.437   9.045 -0.3289  1.1079  0.3209
   7323SM  H14B 9524   5.109   1.408   9.167 -0.8567  3.7833  1.5699
   7323SM  H14C 9525   5.154   1.383   9.002 -0.0172 -1.0180 -0.0502
   7323SM   C13 9526   5.065   1.666   9.171  0.2889 -0.7107 -0.4126
   7323SM  H13A 9527   5.092   1.770   9.161 -2.6617  0.1400 -0.3890
   7323SM  H13B 9528   5.085   1.632   9.271  1.3263  0.2735 -0.2678
   7323SM  H13C 9529   4.959   1.652   9.157  0.1023  1.3697 -1.5695
   7323SM   C12 9530   5.100   1.645   8.921  0.2751 -0.3170 -0.0025
   7323SM  H12A 9531   4.993   1.633   8.911  0.5364 -1.0174 -2.8511
   7323SM  H12B 9532   5.140   1.580   8.845 -0.3302 -0.6995  0.0037
   7323SM   C11 9533   5.131   1.798   8.901  0.0400 -0.0801 -0.4062
   7323SM  H11A 9534   5.116   1.813   8.792 -1.1110  0.8373 -0.1468
   7323SM  H11B 9535   5.242   1.807   8.911 -0.0431  0.3653  0.1645
   7323SM     P 9536   4.920   1.952   8.952 -0.1642  0.1342 -0.8953
   7323SM   O13 9537   4.811   1.854   8.930 -0.2323 -0.0107 -0.1929
   7323SM   O14 9538   4.895   2.056   9.055 -0.0922 -0.1974 -0.0903
   7323SM   O11 9539   4.957   2.026   8.821 -0.0981 -0.3573  0.2101
   7323SM   O12 9540   5.062   1.885   8.992 -0.2756 -0.0063  0.1670
   7323SM   C1S 9541   4.845   2.082   8.753 -0.2540 -1.0754  0.6694
   7323SM   H1S 9542   4.809   2.169   8.813 -0.7269 -0.8758  0.1098
   7323SM   H1T 9543   4.763   2.010   8.732 -0.8198 -0.8501  2.0006
   7323SM    NF 9544   4.759   2.175   8.546  0.0556  0.2804  0.8227
   7323SM   HNF 9545   4.695   2.108   8.509  1.4219 -1.8347  2.0747
   7323SM   C2S 9546   4.882   2.123   8.604 -0.4300 -0.1839 -1.1321
   7323SM   H2S 9547   4.967   2.195   8.604  0.7595 -1.5373 -2.1435
   7323SM   C3S 9548   4.947   2.002   8.525  0.1572  0.0986 -0.1964
   7323SM   H3S 9549   4.880   1.913   8.521  1.9407 -1.3745  0.9972
   7323SM    O3 9550   5.077   1.963   8.572 -0.6719 -0.3168  0.1322
   7323SM   HO3 9551   5.089   2.026   8.644  1.7339  2.1785 -2.1947
   7323SM   C4S 9552   4.966   2.047   8.386  0.9974 -0.5876 -0.0972
   7323SM   H4S 9553   5.048   2.118   8.369  0.5832 -0.0677  0.0413
   7323SM   C5S 9554   4.899   2.009   8.275 -0.2931  0.0099 -0.2674
   7323SM   H5S 9555   4.824   1.934   8.302 -1.7481  1.7185  0.7056
   7323SM   C6S 9556   4.917   2.046   8.128  0.3480  0.3421  0.2953
   7323SM   H6S 9557   4.947   1.964   8.060  0.0385  0.3133  0.1902
   7323SM   H6T 9558   4.990   2.128   8.110 -2.0006  2.5866  0.3266
   7323SM   C7S 9559   4.778   2.096   8.070  0.6732 -0.2736  0.1520
   7323SM   H7S 9560   4.734   2.168   8.142  0.2310  1.8539 -2.1001
   7323SM   H7T 9561   4.695   2.023   8.060  0.2778  0.1891 -0.0168
   7323SM   C8S 9562   4.789   2.177   7.937 -0.5467 -0.7644  0.4657
   7323SM   H8S 9563   4.862   2.259   7.954 -0.5062 -1.0224  1.6058
   7323SM   H8T 9564   4.690   2.221   7.911 -0.3475 -1.3775 -1.4656
   7323SM   C9S 9565   4.817   2.102   7.802 -0.1904  0.0576  0.3207
   7323SM   H9S 9566   4.764   2.006   7.784 -1.6717  0.5684  1.7370
   7323SM   H9T 9567   4.921   2.065   7.820 -0.5981 -0.6750  1.2504
   7323SM  C10S 9568   4.831   2.196   7.683  0.5334  0.1980 -0.2498
   7323SM  H10S 9569   4.902   2.272   7.723  0.4533 -1.0362  2.4734
   7323SM  H10T 9570   4.731   2.238   7.658  0.8925  1.3265  0.1464
   7323SM  C11S 9571   4.893   2.133   7.558 -0.4413  0.0857 -0.0100
   7323SM  H11S 9572   4.839   2.038   7.544 -0.8487  0.3092  0.0403
   7323SM  H11T 9573   4.999   2.105   7.576  0.7892  1.8974 -3.4108
   7323SM  C12S 9574   4.875   2.207   7.425  0.7248 -0.0266  0.3167
   7323SM  H12S 9575   4.918   2.309   7.434 -1.1070  0.7645  0.6901
   7323SM  H12T 9576   4.766   2.228   7.419  0.1802 -2.7505 -1.0373
   7323SM  C13S 9577   4.923   2.141   7.296 -0.1832  0.3516  0.2994
   7323SM  H13S 9578   4.887   2.037   7.306  0.6942 -0.0879 -0.8300
   7323SM  H13T 9579   5.034   2.141   7.301 -0.1713  2.5950  1.4179
   7323SM  C14S 9580   4.884   2.204   7.157  0.9751  0.1836  0.6674
   7323SM  H14S 9581   4.936   2.302   7.153  0.1961  0.5625 -0.9661
   7323SM  H14T 9582   4.775   2.219   7.146  0.4356 -0.4881  3.8889
   7323SM  C15S 9583   4.936   2.125   7.040 -0.3941 -0.2115 -0.5872
   7323SM  H15S 9584   4.896   2.022   7.056 -1.0916  0.2340  0.7248
   7323SM  H15T 9585   5.045   2.115   7.060 -0.3274  0.2590 -0.7205
   7323SM  C16S 9586   4.917   2.192   6.907  0.0207 -0.8089 -0.1912
   7323SM  H16S 9587   4.957   2.293   6.926 -0.6613 -1.0072  2.7718
   7323SM  H16T 9588   4.808   2.197   6.886 -0.1791 -1.3902  0.6367
   7323SM  C17S 9589   5.003   2.136   6.789  0.7802 -0.2084  0.3455
   7323SM  H17S 9590   5.002   2.025   6.784  0.8928 -0.1690 -1.8781
   7323SM  H17T 9591   5.107   2.167   6.809  1.0299 -1.5245  1.1857
   7323SM  C18S 9592   4.945   2.194   6.655 -0.3866  0.5653  0.4473
   7323SM  H18S 9593   4.857   2.130   6.630  0.3074 -0.9155  1.5933
   7323SM  H18T 9594   5.017   2.191   6.571 -0.4641  0.0893  0.3971
   7323SM  H18U 9595   4.914   2.300   6.669 -1.0824  0.4340 -0.0281
   7323SM   C1F 9596   4.711   2.292   8.589  0.0135  0.1322 -0.0382
   7323SM    OF 9597   4.782   2.366   8.654  0.1586  0.9244 -0.2482
   7323SM   C2F 9598   4.569   2.329   8.558  0.1809 -0.2285 -0.1386
   7323SM   H2F 9599   4.553   2.437   8.579  0.5624  0.1269 -1.5478
   7323SM   H2G 9600   4.502   2.268   8.622  0.0910 -0.2781 -0.2796
   7323SM   C3F 9601   4.508   2.303   8.412  0.1609 -0.0817 -0.1525
   7323SM   H3F 9602   4.398   2.324   8.410  0.3815  1.1394 -1.0962
   7323SM   H3G 9603   4.521   2.197   8.382 -0.5587 -0.2288  0.0355
   7323SM   C4F 9604   4.570   2.391   8.301  0.3327 -0.3442  0.5382
   7323SM   H4F 9605   4.681   2.377   8.301  0.3670 -0.1657  1.4529
   7323SM   H4G 9606   4.555   2.494   8.340  3.1984 -0.2828  1.7867
   7323SM   C5F 9607   4.525   2.366   8.156  0.2034 -0.5550 -0.5070
   7323SM   H5F 9608   4.419   2.399   8.148 -0.1170 -1.2008  0.7645
   7323SM   H5G 9609   4.536   2.257   8.139  3.0061 -0.4499  0.1752
   7323SM   C6F 9610   4.596   2.444   8.050 -0.4229  0.4920 -0.0465
   7323SM   H6F 9611   4.698   2.402   8.058 -0.3970  0.7652  1.2499
   7323SM   H6G 9612   4.603   2.552   8.076  4.1108  0.3595  0.0094
   7323SM   C7F 9613   4.523   2.431   7.918  0.2716 -0.0650 -0.3181
   7323SM   H7F 9614   4.419   2.468   7.915  0.1443 -0.3445  0.4788
   7323SM   H7G 9615   4.520   2.323   7.891  1.2065 -0.0868 -0.3683
   7323SM   C8F 9616   4.599   2.500   7.811 -0.1088 -0.4603 -0.2759
   7323SM   H8F 9617   4.704   2.469   7.829 -0.8367 -2.8638  0.1540
   7323SM   H8G 9618   4.588   2.610   7.817  0.5679 -0.3685 -0.6138
   7323SM   C9F 9619   4.548   2.468   7.671 -0.2517  0.1406 -0.3059
   7323SM   H9F 9620   4.439   2.490   7.660 -0.7471 -2.2035 -0.5726
   7323SM   H9G 9621   4.563   2.358   7.671  2.9268  0.4915 -0.5882
   7323SM  C10F 9622   4.629   2.527   7.556  0.0994 -0.4872  0.0912
   7323SM  H10F 9623   4.732   2.488   7.567  0.8402  0.9386 -1.4144
   7323SM  H10G 9624   4.646   2.637   7.552  1.9894 -0.7167  0.8734
   7323SM  C11F 9625   4.565   2.475   7.423 -0.5500 -0.0748 -0.9909
   7323SM  H11F 9626   4.461   2.514   7.433  0.0763  1.8851 -1.7132
   7323SM  H11G 9627   4.553   2.365   7.426  0.7664 -0.2259  0.6734
   7323SM  C12F 9628   4.637   2.532   7.299 -0.5637 -0.2780  0.0759
   7323SM  H12F 9629   4.741   2.491   7.294 -0.2680  0.4277  0.2192
   7323SM  H12G 9630   4.652   2.641   7.313 -1.5663 -0.0408 -0.6311
   7323SM  C13F 9631   4.576   2.488   7.165 -0.4326  0.1592 -0.2546
   7323SM  H13F 9632   4.468   2.511   7.167 -0.4644  0.0928 -0.9898
   7323SM  H13G 9633   4.579   2.377   7.161 -0.8460  0.1362  0.0120
   7323SM  C14F 9634   4.637   2.544   7.038  0.3015  1.1272  0.2419
   7323SM  H14F 9635   4.738   2.498   7.032  0.1812  0.7430  1.0411
   7323SM  H14G 9636   4.666   2.651   7.041  0.4969  1.0998 -0.4010
   7323SM  C15F 9637   4.566   2.498   6.902 -0.1747  0.0964  0.2643
   7323SM  H15F 9638   4.483   2.569   6.877  0.2474 -0.2365 -2.2808
   7323SM  H15G 9639   4.526   2.395   6.909  1.4707 -0.6495 -0.9382
   7323SM  C16F 9640   4.669   2.502   6.782 -0.1366 -0.6108  0.3094
   7323SM  H16F 9641   4.739   2.415   6.788 -1.2218 -1.4994  0.3948
   7323SM  H16G 9642   4.734   2.592   6.786 -1.2371  0.3114 -1.6728
   7323SM  C17F 9643   4.602   2.476   6.647 -0.2718  0.0246 -0.0640
   7323SM  H17F 9644   4.641   2.552   6.576  0.3491  0.3875  0.6533
   7323SM  H17G 9645   4.497   2.510   6.663  0.0356  0.5067  1.0543
   7323SM  C18F 9646   4.600   2.333   6.589  0.4514 -0.1992  0.0933
   7323SM  H18F 9647   4.555   2.270   6.669  1.5013  0.2059  1.0335
   7323SM  H18G 9648   4.703   2.298   6.566  0.2637 -0.7447  0.0674
   7323SM  C19F 9649   4.501   2.322   6.472  0.2134  0.1107 -0.3562
   7323SM  H19F 9650   4.515   2.408   6.403 -1.3992  2.5011  2.1113
   7323SM  H19G 9651   4.400   2.330   6.517  1.1077 -1.8854  2.2288
   7323SM  C20F 9652   4.514   2.190   6.399 -0.0195 -1.7379  0.0460
   7323SM  H20F 9653   4.616   2.192   6.354  0.5736  4.1323  0.8129
   7323SM  H20G 9654   4.441   2.184   6.315  1.1139  3.1388 -1.6429
   7323SM  C21F 9655   4.497   2.065   6.493 -0.4539  0.3686 -0.1652
   7323SM  H21F 9656   4.403   2.078   6.552 -0.6218  1.9846 -0.7346
   7323SM  H21G 9657   4.578   2.058   6.568 -0.9016 -1.8061  0.1670
   7323SM  C22F 9658   4.498   1.927   6.425  0.1469  0.2729  0.2331
   7323SM  H22F 9659   4.495   1.849   6.504  2.3027 -0.5934 -0.4713
   7323SM  H22G 9660   4.592   1.917   6.367  0.6102  0.0355  1.0097
   7323SM  C23F 9661   4.382   1.902   6.333  0.1225 -0.4052  0.3431
   7323SM  H23F 9662   4.403   1.827   6.254 -0.9116  1.6581 -1.9991
   7323SM  H23G 9663   4.350   1.988   6.272 -1.1302 -1.2608 -0.2390
   7323SM  H23H 9664   4.292   1.877   6.393  1.0431 -0.8554  1.6026
   7423SM     N 9665   1.188   6.263   8.507 -0.0948 -0.6725  0.0454
   7423SM   C15 9666   1.072   6.356   8.523 -0.6875  0.5208 -0.9218
   7423SM  H15A 9667   1.074   6.432   8.446 -1.1922  1.3858 -0.1067
   7423SM  H15B 9668   1.070   6.401   8.621  2.5061 -2.0799  0.5345
   7423SM  H15C 9669   0.977   6.306   8.512 -1.0080  0.6477  0.8324
   7423SM   C14 9670   1.196   6.154   8.617 -0.1951  0.4450 -0.0241
   7423SM  H14A 9671   1.273   6.083   8.592 -2.6179 -2.2618 -0.3767
   7423SM  H14B 9672   1.112   6.088   8.628  0.3395 -0.6112 -1.8368
   7423SM  H14C 9673   1.218   6.201   8.712  1.4805 -2.7041  1.3012
   7423SM   C13 9674   1.156   6.196   8.375  0.3030  0.0607  0.8440
   7423SM  H13A 9675   1.088   6.117   8.404  0.8355  0.1222  2.3358
   7423SM  H13B 9676   1.246   6.150   8.337 -1.3180 -2.0680 -0.6441
   7423SM  H13C 9677   1.108   6.254   8.299  0.5991  0.1621  0.7335
   7423SM   C12 9678   1.313   6.354   8.497 -0.1262  0.0870  0.5627
   7423SM  H12A 9679   1.324   6.407   8.591  0.3825  0.6669  0.1885
   7423SM  H12B 9680   1.290   6.434   8.427 -0.2136  1.3666  2.0001
   7423SM   C11 9681   1.445   6.289   8.460 -0.6653  0.1323  0.0591
   7423SM  H11A 9682   1.514   6.376   8.452 -0.0847 -0.4219 -1.1656
   7423SM  H11B 9683   1.449   6.252   8.356  1.0018  0.6864 -0.0999
   7423SM     P 9684   1.628   6.105   8.515  0.1165 -0.2850  0.0053
   7423SM   O13 9685   1.700   6.172   8.408 -0.1032  0.2837  0.0481
   7423SM   O14 9686   1.707   6.086   8.636  0.1580 -0.9012  0.2495
   7423SM   O11 9687   1.583   5.969   8.453 -0.0181  0.7014  0.0944
   7423SM   O12 9688   1.494   6.186   8.551  0.1874  0.3091 -0.2247
   7423SM   C1S 9689   1.448   5.938   8.418  0.2599  0.2865  0.0996
   7423SM   H1S 9690   1.384   6.027   8.397 -1.2152 -0.9258 -0.7177
   7423SM   H1T 9691   1.409   5.867   8.493  1.1139 -0.0095  0.2758
   7423SM    NF 9692   1.306   5.844   8.220  0.3322 -0.3325 -0.6156
   7423SM   HNF 9693   1.244   5.766   8.231  0.1559 -0.7405 -3.6779
   7423SM   C2S 9694   1.440   5.859   8.278 -0.0491  0.0330 -0.0193
   7423SM   H2S 9695   1.501   5.927   8.214 -0.7397 -0.3770 -1.1468
   7423SM   C3S 9696   1.515   5.723   8.290 -0.3712  0.8704 -0.1246
   7423SM   H3S 9697   1.447   5.667   8.359  1.3731 -1.6723 -0.3105
   7423SM    O3 9698   1.637   5.727   8.364  0.1656  0.5801  0.1441
   7423SM   HO3 9699   1.629   5.814   8.403  0.4328  0.4831  0.4230
   7423SM   C4S 9700   1.526   5.642   8.164 -0.5425 -0.0259  0.4531
   7423SM   H4S 9701   1.434   5.588   8.138 -0.9459 -0.3606  2.4383
   7423SM   C5S 9702   1.629   5.630   8.075 -1.1206 -0.6650 -0.2817
   7423SM   H5S 9703   1.729   5.671   8.092 -0.5733 -1.9018 -0.4517
   7423SM   C6S 9704   1.622   5.554   7.951  0.2407  0.3556 -0.6347
   7423SM   H6S 9705   1.527   5.495   7.947  0.7109 -0.3365 -2.7478
   7423SM   H6T 9706   1.698   5.474   7.960 -1.0399 -0.7558  0.9812
   7423SM   C7S 9707   1.617   5.622   7.812 -0.3317 -0.1416 -0.1320
   7423SM   H7S 9708   1.625   5.552   7.727  0.6662  0.4666 -0.5557
   7423SM   H7T 9709   1.706   5.687   7.821 -1.2365  0.9429  1.6709
   7423SM   C8S 9710   1.498   5.726   7.802 -0.1557 -0.1652  0.1541
   7423SM   H8S 9711   1.521   5.807   7.876  0.7054 -0.2568 -0.0004
   7423SM   H8T 9712   1.399   5.682   7.823 -0.8017  0.9581 -0.4672
   7423SM   C9S 9713   1.496   5.799   7.666  0.4299 -0.6684 -0.2456
   7423SM   H9S 9714   1.595   5.846   7.653 -0.6096  2.0155  0.7607
   7423SM   H9T 9715   1.424   5.884   7.655  2.0350  0.7534 -0.2314
   7423SM  C10S 9716   1.486   5.714   7.538 -0.2177  0.6399  0.2528
   7423SM  H10S 9717   1.389   5.660   7.533  0.2900 -0.2097 -0.5639
   7423SM  H10T 9718   1.576   5.650   7.538 -1.6447 -1.5398 -2.1524
   7423SM  C11S 9719   1.487   5.807   7.411 -0.2167 -0.2352 -0.4356
   7423SM  H11S 9720   1.575   5.873   7.422  0.4978 -1.4174  1.5850
   7423SM  H11T 9721   1.399   5.875   7.415 -0.3197 -0.1685 -2.8580
   7423SM  C12S 9722   1.462   5.719   7.285 -0.3529 -0.7420  0.0664
   7423SM  H12S 9723   1.375   5.653   7.305 -0.3214 -0.6191  0.6329
   7423SM  H12T 9724   1.548   5.651   7.275 -0.7499 -1.1190 -0.8655
   7423SM  C13S 9725   1.444   5.800   7.159  0.3995  0.2339  0.1152
   7423SM  H13S 9726   1.532   5.867   7.141  0.1576  0.1029 -1.7310
   7423SM  H13T 9727   1.349   5.857   7.158  0.1348 -0.1997  0.5878
   7423SM  C14S 9728   1.446   5.707   7.037  0.4745 -0.1402 -0.0507
   7423SM  H14S 9729   1.364   5.632   7.040  0.4625 -0.2001 -1.3978
   7423SM  H14T 9730   1.542   5.651   7.037 -0.3308 -1.5987  0.6276
   7423SM  C15S 9731   1.426   5.786   6.907 -0.9044 -0.2579 -0.5013
   7423SM  H15S 9732   1.491   5.876   6.914 -3.0204  1.2638  0.6570
   7423SM  H15T 9733   1.322   5.824   6.908 -1.2420 -1.1752  1.2407
   7423SM  C16S 9734   1.470   5.687   6.792  0.1134  0.9566 -0.1145
   7423SM  H16S 9735   1.574   5.649   6.806 -0.3591 -0.0332  0.8830
   7423SM  H16T 9736   1.464   5.730   6.690 -1.4469 -1.0790 -0.9409
   7423SM  C17S 9737   1.374   5.559   6.787 -0.1451 -0.2254 -0.5311
   7423SM  H17S 9738   1.277   5.593   6.829  0.6289 -0.6538  1.7442
   7423SM  H17T 9739   1.417   5.481   6.853 -2.4330 -0.3720  0.9176
   7423SM  C18S 9740   1.344   5.498   6.649 -0.1648 -0.8380 -0.1491
   7423SM  H18S 9741   1.307   5.576   6.579  0.5295 -1.6540 -1.4690
   7423SM  H18T 9742   1.264   5.421   6.652 -0.0533 -1.1878 -3.0129
   7423SM  H18U 9743   1.435   5.447   6.610 -0.9233 -2.1589 -0.2351
   7423SM   C1F 9744   1.250   5.948   8.156  0.2605 -0.2627 -0.0126
   7423SM    OF 9745   1.308   6.060   8.152 -0.2639  0.3145  0.1812
   7423SM   C2F 9746   1.113   5.917   8.098  0.2771 -0.0601  0.4548
   7423SM   H2F 9747   1.034   5.976   8.148 -0.5968  0.3009 -1.2728
   7423SM   H2G 9748   1.073   5.817   8.122 -0.1785 -0.9786 -3.4757
   7423SM   C3F 9749   1.098   5.957   7.956  0.3406 -0.0605  0.5490
   7423SM   H3F 9750   1.179   5.923   7.887 -1.3742 -1.3994 -0.8907
   7423SM   H3G 9751   1.080   6.066   7.948 -0.8381 -0.2989 -0.2890
   7423SM   C4F 9752   0.965   5.887   7.911 -0.1152 -0.4036  0.0262
   7423SM   H4F 9753   0.888   5.923   7.983  3.1863  2.6372  2.3882
   7423SM   H4G 9754   0.979   5.777   7.908  0.9570 -0.3705  2.0934
   7423SM   C5F 9755   0.917   5.939   7.773 -0.0968  0.5129  0.0279
   7423SM   H5F 9756   0.920   6.050   7.761 -0.3922  0.4624 -0.5220
   7423SM   H5G 9757   0.816   5.895   7.765 -0.7641  2.0832 -0.5072
   7423SM   C6F 9758   0.995   5.875   7.656 -0.2183 -0.2970 -0.7738
   7423SM   H6F 9759   0.995   5.764   7.645  0.2390 -0.1835 -2.0463
   7423SM   H6G 9760   1.098   5.911   7.676 -0.2016 -0.5291 -0.4330
   7423SM   C7F 9761   0.926   5.934   7.530 -0.2313  0.5938 -0.2673
   7423SM   H7F 9762   0.935   6.044   7.532  1.3836  0.5033  2.4518
   7423SM   H7G 9763   0.819   5.905   7.538  0.0088 -0.6935 -1.3882
   7423SM   C8F 9764   0.989   5.891   7.395  0.8218  0.4058 -0.0079
   7423SM   H8F 9765   0.943   5.792   7.375  0.3870  1.0022 -2.2429
   7423SM   H8G 9766   1.099   5.882   7.405  0.6404 -1.3248  0.6190
   7423SM   C9F 9767   0.953   5.982   7.282  0.4444 -0.2941  0.7035
   7423SM   H9F 9768   1.022   6.069   7.289  0.2563 -0.0842 -0.0071
   7423SM   H9G 9769   0.848   6.019   7.283  0.5110  0.1295 -1.9406
   7423SM  C10F 9770   0.958   5.928   7.140 -0.1940 -0.0758  0.3207
   7423SM  H10F 9771   0.894   5.838   7.125 -1.6879  1.1596 -1.1860
   7423SM  H10G 9772   1.065   5.899   7.125 -0.4301 -2.1682  2.1214
   7423SM  C11F 9773   0.909   6.028   7.039  0.1032  0.1993  0.4081
   7423SM  H11F 9774   0.979   6.113   7.049 -0.6461  0.8002  0.6212
   7423SM  H11G 9775   0.808   6.069   7.056  0.7476  3.6002 -2.7525
   7423SM  C12F 9776   0.913   5.974   6.894  0.3614 -0.3635  0.3388
   7423SM  H12F 9777   0.882   6.055   6.825  0.8838  0.4838  1.0836
   7423SM  H12G 9778   0.851   5.881   6.891  1.9148 -1.4490  0.3915
   7423SM  C13F 9779   1.050   5.922   6.838 -0.6971 -0.8151 -0.2348
   7423SM  H13F 9780   1.099   5.846   6.903 -1.3529  0.0922  1.3506
   7423SM  H13G 9781   1.111   6.013   6.856  0.4584 -1.5441 -0.3564
   7423SM  C14F 9782   1.055   5.884   6.689 -0.6467  0.2855 -0.0117
   7423SM  H14F 9783   1.149   5.828   6.667 -0.4530  0.5182  0.2191
   7423SM  H14G 9784   1.047   5.976   6.628 -2.0252  0.2609  0.1022
   7423SM  C15F 9785   0.938   5.803   6.650  0.2624 -0.3644  0.1897
   7423SM  H15F 9786   0.841   5.856   6.653 -1.0412 -2.4166 -1.7862
   7423SM  H15G 9787   0.928   5.731   6.734  0.6868  0.3453  0.8617
   7423SM  C16F 9788   0.948   5.729   6.521  0.1318 -0.1807  0.3324
   7423SM  H16F 9789   1.035   5.660   6.528  0.5241  0.3392  0.6216
   7423SM  H16G 9790   0.973   5.788   6.430 -3.9417 -0.0092 -0.8911
   7423SM  C17F 9791   0.816   5.662   6.482 -0.1369 -0.0252  0.3284
   7423SM  H17F 9792   0.742   5.742   6.463  2.2783  2.0351 -1.0939
   7423SM  H17G 9793   0.780   5.600   6.567 -1.4162 -2.1692 -1.6617
   7423SM  C18F 9794   0.817   5.572   6.356 -0.1890 -0.6620 -0.4021
   7423SM  H18F 9795   0.853   5.628   6.267  0.8676 -0.6250  0.0358
   7423SM  H18G 9796   0.710   5.544   6.347 -0.6458  0.6407  0.6587
   7423SM  C19F 9797   0.915   5.447   6.374  0.3242  0.0861 -0.1595
   7423SM  H19F 9798   0.880   5.393   6.464 -1.5617 -0.7833 -1.3354
   7423SM  H19G 9799   1.022   5.476   6.378  0.7955 -1.1551 -2.1970
   7423SM  C20F 9800   0.892   5.340   6.260 -0.5962 -0.3315 -0.2259
   7423SM  H20F 9801   0.785   5.318   6.243 -0.6855  0.9366 -1.4434
   7423SM  H20G 9802   0.950   5.250   6.293  3.3140  1.0058 -2.7749
   7423SM  C21F 9803   0.957   5.363   6.121  0.2399  0.5059  0.3179
   7423SM  H21F 9804   1.065   5.385   6.134  0.0699  0.6258  1.6476
   7423SM  H21G 9805   0.919   5.454   6.071  1.2022  1.4463  1.2471
   7423SM  C22F 9806   0.941   5.243   6.018 -0.1249 -0.3556  0.3150
   7423SM  H22F 9807   0.843   5.252   5.965 -0.5223  1.4287  1.2503
   7423SM  H22G 9808   0.945   5.141   6.061  0.8654 -0.7736 -0.7402
   7423SM  C23F 9809   1.062   5.233   5.923  0.5492 -0.0397 -0.5391
   7423SM  H23F 9810   1.163   5.246   5.968  0.4901  1.1170 -0.7023
   7423SM  H23G 9811   1.052   5.311   5.844 -3.9237 -0.6078 -0.8412
   7423SM  H23H 9812   1.063   5.134   5.873  0.1453 -0.3433  0.0480
   7523SM     N 9813   6.538   0.707   8.440  0.9416  0.3535 -0.0842
   7523SM   C15 9814   6.463   0.643   8.553  0.0274  0.0482 -0.2036
   7523SM  H15A 9815   6.524   0.631   8.641  1.5495  0.2406 -1.1911
   7523SM  H15B 9816   6.413   0.550   8.528 -0.3602  0.0777  0.4521
   7523SM  H15C 9817   6.382   0.709   8.577  0.4526  0.7587 -0.6745
   7523SM   C14 9818   6.545   0.854   8.476  0.3081  0.1121  0.4390
   7523SM  H14A 9819   6.603   0.872   8.566  1.1780  2.4572 -0.5114
   7523SM  H14B 9820   6.447   0.891   8.499  0.0944  1.2213 -1.9672
   7523SM  H14C 9821   6.586   0.918   8.399  0.7377  0.2981  0.8110
   7523SM   C13 9822   6.676   0.650   8.430 -0.0227 -0.4168  0.4641
   7523SM  H13A 9823   6.682   0.542   8.434  0.8443 -0.3634  1.1474
   7523SM  H13B 9824   6.727   0.680   8.521 -0.2423  1.9095 -0.1416
   7523SM  H13C 9825   6.724   0.681   8.339 -2.8831 -0.8166 -1.3061
   7523SM   C12 9826   6.472   0.701   8.309 -0.2438  0.9744 -0.3309
   7523SM  H12A 9827   6.486   0.599   8.277  4.0186  0.8290  1.4322
   7523SM  H12B 9828   6.528   0.753   8.233  3.4788 -0.1505  1.4429
   7523SM   C11 9829   6.332   0.743   8.291 -0.2045 -0.1345 -0.3026
   7523SM  H11A 9830   6.315   0.707   8.187  0.3349 -2.1274  0.2453
   7523SM  H11B 9831   6.316   0.852   8.283  1.6390  0.1318 -0.8547
   7523SM     P 9832   6.158   0.553   8.352  0.4195  0.1964 -0.0872
   7523SM   O13 9833   6.234   0.431   8.397  0.1331 -0.4654  0.0075
   7523SM   O14 9834   6.022   0.568   8.403 -0.0833 -0.1745  0.1590
   7523SM   O11 9835   6.153   0.548   8.200 -0.0560  0.3087  0.5261
   7523SM   O12 9836   6.237   0.687   8.381  0.0380 -0.0948  1.2321
   7523SM   C1S 9837   6.070   0.633   8.120 -0.1005  0.4057  0.3859
   7523SM   H1S 9838   6.118   0.733   8.123  1.5304 -0.3614  1.4439
   7523SM   H1T 9839   5.969   0.630   8.166  0.3259 -0.6256  1.3053
   7523SM    NF 9840   5.969   0.679   7.897 -1.0030 -0.1713  1.3872
   7523SM   HNF 9841   5.886   0.650   7.849  0.7846 -0.4889 -1.8259
   7523SM   C2S 9842   6.041   0.579   7.976 -0.1009 -0.0643 -0.4990
   7523SM   H2S 9843   6.137   0.555   7.925 -0.2346 -0.5236 -0.5340
   7523SM   C3S 9844   5.963   0.444   7.988 -0.4763  0.2932 -0.6050
   7523SM   H3S 9845   5.869   0.472   8.040 -1.5723 -0.3428 -2.1589
   7523SM    O3 9846   6.014   0.351   8.080  0.3139  0.0148 -0.1963
   7523SM   HO3 9847   6.077   0.407   8.127  1.3098 -1.1999 -0.0382
   7523SM   C4S 9848   5.928   0.375   7.861 -0.1210 -1.3025 -0.2367
   7523SM   H4S 9849   5.822   0.392   7.837  0.1577 -0.5549 -0.9952
   7523SM   C5S 9850   6.003   0.291   7.779  0.4986  0.4103 -0.8688
   7523SM   H5S 9851   6.110   0.283   7.802  0.4267  0.7994 -0.3828
   7523SM   C6S 9852   5.961   0.230   7.650  0.4228 -0.4257  0.1489
   7523SM   H6S 9853   5.930   0.123   7.651  2.6687 -1.1352 -0.8481
   7523SM   H6T 9854   6.042   0.257   7.580 -0.7482  1.9483 -0.3929
   7523SM   C7S 9855   5.832   0.285   7.579  0.2674 -0.2894 -0.1298
   7523SM   H7S 9856   5.848   0.392   7.551 -1.2506  0.0156  0.0909
   7523SM   H7T 9857   5.740   0.282   7.641  1.9628 -0.9016  2.5200
   7523SM   C8S 9858   5.791   0.216   7.452  0.2777  0.5796 -0.2357
   7523SM   H8S 9859   5.681   0.208   7.438  0.6852 -0.6103 -3.7098
   7523SM   H8T 9860   5.827   0.111   7.460  1.9025  1.0383 -1.0004
   7523SM   C9S 9861   5.855   0.269   7.322  0.5604  0.5304  0.1213
   7523SM   H9S 9862   5.964   0.260   7.339  0.5495 -1.1377 -0.4586
   7523SM   H9T 9863   5.824   0.376   7.323  0.5181  0.5254  1.2958
   7523SM  C10S 9864   5.820   0.195   7.195 -0.1321  0.1719  0.3127
   7523SM  H10S 9865   5.710   0.190   7.179 -0.2268 -0.8131  1.1431
   7523SM  H10T 9866   5.853   0.089   7.196 -0.7769 -0.0543 -0.6848
   7523SM  C11S 9867   5.884   0.265   7.073  0.1706 -0.0213  0.8135
   7523SM  H11S 9868   5.994   0.271   7.084  0.0315  1.0712  1.7735
   7523SM  H11T 9869   5.847   0.369   7.068  0.1238 -0.0034  1.4226
   7523SM  C12S 9870   5.865   0.199   6.929 -0.3533  0.0284  0.0064
   7523SM  H12S 9871   5.758   0.190   6.899  0.0424  0.5732 -1.6297
   7523SM  H12T 9872   5.894   0.092   6.932 -2.1552 -0.4931  0.0743
   7523SM  C13S 9873   5.929   0.287   6.817  0.6445  0.1459 -0.1250
   7523SM  H13S 9874   6.039   0.293   6.835  0.6195  1.2961 -0.2430
   7523SM  H13T 9875   5.889   0.390   6.805  0.8786  0.0685 -1.7871
   7523SM  C14S 9876   5.921   0.224   6.679 -0.2863 -0.7577  0.1433
   7523SM  H14S 9877   5.817   0.226   6.639  1.2670 -0.9296 -4.5148
   7523SM  H14T 9878   5.946   0.116   6.683 -1.2635 -1.0536 -1.0138
   7523SM  C15S 9879   6.009   0.302   6.578  1.0379  0.4524 -0.0090
   7523SM  H15S 9880   6.102   0.246   6.556  0.4457 -0.4710 -0.2009
   7523SM  H15T 9881   6.034   0.403   6.617  2.4465  0.7963 -1.7043
   7523SM  C16S 9882   5.918   0.330   6.452  0.3090 -0.2717 -1.0810
   7523SM  H16S 9883   5.967   0.404   6.385  1.7008 -1.7477 -1.7660
   7523SM  H16T 9884   5.822   0.375   6.486 -0.3632  0.2080 -3.4607
   7523SM  C17S 9885   5.888   0.201   6.378 -0.0241  0.4662  0.3262
   7523SM  H17S 9886   5.881   0.107   6.435 -0.2045  0.3324  0.0872
   7523SM  H17T 9887   5.985   0.182   6.327  0.2537 -2.1558  1.6920
   7523SM  C18S 9888   5.778   0.216   6.275 -0.1671 -0.3437 -0.2658
   7523SM  H18S 9889   5.785   0.314   6.223 -0.4120 -1.1588 -1.8996
   7523SM  H18T 9890   5.679   0.201   6.324  0.6219 -0.3876  1.3779
   7523SM  H18U 9891   5.779   0.131   6.203 -1.7725 -0.4224 -0.2494
   7523SM   C1F 9892   6.012   0.795   7.859 -0.3196  1.0311  0.2025
   7523SM    OF 9893   6.115   0.848   7.902  0.5070  0.0242  0.2280
   7523SM   C2F 9894   5.945   0.859   7.738 -0.7475 -0.1492  0.4975
   7523SM   H2F 9895   5.971   0.966   7.749  0.3168 -0.1973 -1.2255
   7523SM   H2G 9896   5.835   0.852   7.751 -0.9727 -0.2453 -1.1490
   7523SM   C3F 9897   6.000   0.816   7.601 -0.0327  0.2756 -0.0974
   7523SM   H3F 9898   5.959   0.713   7.594  0.8063 -0.0735  0.0195
   7523SM   H3G 9899   6.110   0.805   7.597  0.2724  2.5417  0.8907
   7523SM   C4F 9900   5.954   0.895   7.471 -0.1212 -1.2199 -0.3284
   7523SM   H4F 9901   6.031   0.974   7.459 -0.5399 -0.8272 -0.4360
   7523SM   H4G 9902   5.851   0.933   7.484 -0.4387 -2.5094  1.2821
   7523SM   C5F 9903   5.960   0.792   7.357 -0.1215 -0.3359  0.7857
   7523SM   H5F 9904   5.886   0.711   7.364  0.5032 -0.9370  0.5324
   7523SM   H5G 9905   6.059   0.742   7.354  0.0341  0.0211 -1.2059
   7523SM   C6F 9906   5.961   0.856   7.209  0.3628 -0.0986 -1.0716
   7523SM   H6F 9907   6.021   0.949   7.210 -0.6835  0.6787  2.5576
   7523SM   H6G 9908   5.857   0.891   7.191  0.4615  2.2220  2.0429
   7523SM   C7F 9909   6.004   0.768   7.094  0.5092  0.8225  0.9208
   7523SM   H7F 9910   5.943   0.676   7.089 -2.1010  2.5023 -0.6840
   7523SM   H7G 9911   6.110   0.740   7.110  0.9394  2.8774  2.1056
   7523SM   C8F 9912   6.010   0.840   6.959 -0.3282  0.1499 -0.8260
   7523SM   H8F 9913   6.107   0.895   6.954 -0.7595  0.9015 -1.1389
   7523SM   H8G 9914   5.930   0.916   6.943 -0.3721  0.3275  0.1752
   7523SM   C9F 9915   6.010   0.739   6.843  0.2661  0.1902  0.3685
   7523SM   H9F 9916   5.914   0.685   6.859  0.9610 -1.5018 -0.8565
   7523SM   H9G 9917   6.097   0.671   6.855  0.1685  0.1164  0.6846
   7523SM  C10F 9918   5.994   0.805   6.704  0.2508  0.3677  0.4666
   7523SM  H10F 9919   6.075   0.878   6.680  0.1539  0.1461 -0.5791
   7523SM  H10G 9920   5.895   0.854   6.709  1.2409  2.5263  0.1223
   7523SM  C11F 9921   5.981   0.710   6.582 -0.0263  0.6382 -1.0105
   7523SM  H11F 9922   5.924   0.621   6.616  1.7803 -0.1345  0.2078
   7523SM  H11G 9923   6.084   0.682   6.548  0.3537  0.7872 -0.0154
   7523SM  C12F 9924   5.903   0.780   6.470  0.2534 -0.4917 -0.3338
   7523SM  H12F 9925   5.955   0.878   6.461 -2.0843  0.9307  0.6719
   7523SM  H12G 9926   5.799   0.803   6.501  0.5561 -1.9504  2.0245
   7523SM  C13F 9927   5.911   0.711   6.338 -0.2557 -0.1369  0.5508
   7523SM  H13F 9928   5.908   0.601   6.356  2.0980 -0.3445 -0.0733
   7523SM  H13G 9929   6.010   0.730   6.291  0.2750 -1.2534  1.1967
   7523SM  C14F 9930   5.792   0.748   6.244 -0.0694  0.0296 -0.1576
   7523SM  H14F 9931   5.842   0.792   6.155  0.7544  1.9332  1.1655
   7523SM  H14G 9932   5.735   0.832   6.289 -3.9173 -2.5205  0.1962
   7523SM  C15F 9933   5.701   0.631   6.201 -0.3227 -0.7557  0.4499
   7523SM  H15F 9934   5.596   0.669   6.197  0.3045  0.9782 -0.9903
   7523SM  H15G 9935   5.709   0.546   6.272  0.8835 -0.6613  0.4462
   7523SM  C16F 9936   5.725   0.581   6.056  0.0784  0.6139  0.4724
   7523SM  H16F 9937   5.831   0.548   6.051 -0.2962 -0.8509  1.6596
   7523SM  H16G 9938   5.723   0.669   5.988  1.2430  1.0292  0.9412
   7523SM  C17F 9939   5.617   0.474   6.016  0.1670 -0.3037 -0.1102
   7523SM  H17F 9940   5.518   0.511   6.051 -1.4017 -1.5217 -2.9401
   7523SM  H17G 9941   5.647   0.384   6.073 -2.6300 -0.7368  0.8492
   7523SM  C18F 9942   5.602   0.461   5.863  0.4538 -0.4613  0.4706
   7523SM  H18F 9943   5.703   0.444   5.819  0.3793 -0.9766  0.4965
   7523SM  H18G 9944   5.569   0.557   5.817  1.8123  0.6228  1.6540
   7523SM  C19F 9945   5.508   0.346   5.807  0.3741  0.2539  0.5584
   7523SM  H19F 9946   5.424   0.332   5.877 -0.8157  0.9505 -0.6875
   7523SM  H19G 9947   5.557   0.246   5.811  2.5406  1.2391  0.1234
   7523SM  C20F 9948   5.440   0.367   5.670 -0.2372 -1.0414 -0.4586
   7523SM  H20F 9949   5.391   0.467   5.670  1.3767 -0.2104 -0.5598
   7523SM  H20G 9950   5.358   0.293   5.655 -0.6558 -0.2912 -2.0692
   7523SM  C21F 9951   5.539   0.352   5.551  0.0211 -0.5500  0.2435
   7523SM  H21F 9952   5.622   0.425   5.556 -0.8265  0.4100  0.8391
   7523SM  H21G 9953   5.488   0.394   5.462 -0.1858 -0.4757  0.3951
   7523SM  C22F 9954   5.582   0.209   5.529  0.2849  0.1590  0.2451
   7523SM  H22F 9955   5.494   0.141   5.537  0.8452 -0.6801 -0.4680
   7523SM  H22G 9956   5.651   0.183   5.611  0.7125  1.7785  0.4267
   7523SM  C23F 9957   5.640   0.170   5.392  0.4726  0.4308  0.0570
   7523SM  H23F 9958   5.574   0.208   5.312  2.1874  1.7472 -0.7894
   7523SM  H23G 9959   5.639   0.059   5.390 -1.1835  0.4257  0.2603
   7523SM  H23H 9960   5.740   0.216   5.378  0.0104  1.2307 -0.7470
   7623SM     N 9961   0.207   6.683   8.783 -0.9376 -0.2812 -0.1409
   7623SM   C15 9962   0.346   6.745   8.781 -0.3228  0.2376 -0.9214
   7623SM  H15A 9963   0.424   6.710   8.714  0.9561  0.4297  0.4281
   7623SM  H15B 9964   0.398   6.732   8.874  0.4211 -1.9480 -1.5768
   7623SM  H15C 9965   0.341   6.852   8.766  1.0601  0.6139  1.0195
   7623SM   C14 9966   0.208   6.547   8.833 -0.2838  0.8098  0.2006
   7623SM  H14A 9967   0.114   6.495   8.820  0.0334  0.7273 -2.3722
   7623SM  H14B 9968   0.249   6.537   8.932  2.8913  1.8045 -0.8865
   7623SM  H14C 9969   0.276   6.487   8.775  0.0172  1.5046 -0.1722
   7623SM   C13 9970   0.126   6.777   8.873 -0.5662  0.6291  0.1250
   7623SM  H13A 9971   0.031   6.728   8.893 -0.0259 -1.4487 -1.9865
   7623SM  H13B 9972   0.100   6.861   8.811 -1.5466 -0.9535 -1.7099
   7623SM  H13C 9973   0.173   6.803   8.967 -0.5587 -0.0179  0.3080
   7623SM   C12 9974   0.163   6.690   8.638 -0.6088  0.5152 -0.5026
   7623SM  H12A 9975   0.062   6.655   8.625  0.2528 -3.8967  2.5259
   7623SM  H12B 9976   0.222   6.622   8.577 -0.5365  1.6469 -1.7555
   7623SM   C11 9977   0.166   6.838   8.581  0.1814  0.3926  0.1764
   7623SM  H11A 9978   0.154   6.811   8.474  0.3993 -1.6667  0.6193
   7623SM  H11B 9979   0.259   6.898   8.582 -0.8253  2.0839 -1.6022
   7623SM     P 9980   0.071   7.069   8.612 -0.2065 -0.1609  0.1064
   7623SM   O13 9981  -0.053   7.136   8.655 -0.7430  0.4197 -0.1057
   7623SM   O14 9982   0.198   7.105   8.678  0.1364  0.1644 -0.5272
   7623SM   O11 9983   0.092   7.089   8.458  0.7765  0.1643 -0.0149
   7623SM   O12 9984   0.049   6.912   8.627  0.5360  0.7131  0.2398
   7623SM   C1S 9985   0.014   7.026   8.355 -0.5648 -0.1008  0.2589
   7623SM   H1S 9986  -0.091   7.063   8.361 -0.4231  0.3131  0.2244
   7623SM   H1T 9987   0.011   6.916   8.371 -0.3631  0.1853  2.6637
   7623SM    NF 9988  -0.023   6.995   8.101  0.1196 -0.0364  0.4105
   7623SM   HNF 9989   0.001   6.913   8.049 -2.2996  0.0352 -0.9826
   7623SM   C2S 9990   0.072   7.041   8.207  0.0450 -0.3405  0.0994
   7623SM   H2S 9991   0.084   7.150   8.189  1.5920 -0.1556  1.9388
   7623SM   C3S 9992   0.216   6.972   8.204  0.7104  0.3604  0.0922
   7623SM   H3S 9993   0.205   6.861   8.213  0.5587  0.4210  0.7364
   7623SM    O3 9994   0.307   6.996   8.313 -0.4345  0.4626 -0.4263
   7623SM   HO3 9995   0.247   7.005   8.387  1.2272  0.9681  0.9222
   7623SM   C4S 9996   0.280   7.004   8.073  0.2488  0.1596  0.2598
   7623SM   H4S 9997   0.234   6.946   7.991 -1.8826  0.4974  1.1413
   7623SM   C5S 9998   0.378   7.090   8.043 -0.1103 -0.0282 -0.2463
   7623SM   H5S 9999   0.426   7.147   8.124 -0.9317 -0.5952  0.6611
   7623SM   C6S10000   0.435   7.115   7.905  0.5110 -0.3043  0.1305
   7623SM   H6S10001   0.534   7.065   7.906 -0.1424 -1.6894  2.7154
   7623SM   H6T10002   0.454   7.224   7.892  0.1323 -0.3592 -0.9406
   7623SM   C7S10003   0.346   7.066   7.787 -0.8307 -0.0526 -0.1115
   7623SM   H7S10004   0.249   7.121   7.790 -1.5637 -1.3356  0.2687
   7623SM   H7T10005   0.323   6.958   7.789 -0.6774 -0.0822  0.3345
   7623SM   C8S10006   0.401   7.090   7.643  0.3326  0.3355 -0.3618
   7623SM   H8S10007   0.498   7.037   7.636 -0.8835 -2.2079  0.7476
   7623SM   H8T10008   0.420   7.197   7.619  2.1771 -0.2813 -1.9063
   7623SM   C9S10009   0.318   7.026   7.540 -0.1493 -0.7619 -0.1370
   7623SM   H9S10010   0.216   7.068   7.551  0.1463 -0.0548 -0.0408
   7623SM   H9T10011   0.313   6.917   7.560 -2.0801 -0.7798 -0.5332
   7623SM  C10S10012   0.375   7.069   7.400  0.4291 -0.5678 -0.0506
   7623SM  H10S10013   0.477   7.029   7.383  0.0944 -0.7888 -1.7883
   7623SM  H10T10014   0.389   7.179   7.395  0.5001 -0.5793 -0.1086
   7623SM  C11S10015   0.287   7.026   7.284 -0.1513  0.7494  0.2679
   7623SM  H11S10016   0.177   7.033   7.292 -0.5668 -2.5057 -0.8426
   7623SM  H11T10017   0.300   6.915   7.283 -1.9865  0.4889 -1.9518
   7623SM  C12S10018   0.329   7.067   7.142  0.2043  0.6162 -0.2149
   7623SM  H12S10019   0.436   7.038   7.153 -0.8093 -3.0768  1.3179
   7623SM  H12T10020   0.325   7.176   7.117  1.2924  0.3748 -1.5780
   7623SM  C13S10021   0.279   6.981   7.026 -1.0726 -0.2959  0.8461
   7623SM  H13S10022   0.291   6.876   7.060  0.4535 -0.9268 -1.4383
   7623SM  H13T10023   0.359   6.996   6.951 -2.6718  2.7537 -0.4270
   7623SM  C14S10024   0.136   7.014   6.969  0.1124  0.2891 -0.2582
   7623SM  H14S10025   0.136   7.122   6.944  0.1859  0.5575  0.8410
   7623SM  H14T10026   0.059   7.006   7.049 -0.6312  1.8179 -0.7773
   7623SM  C15S10027   0.102   6.936   6.839  0.8114  0.1271 -0.3268
   7623SM  H15S10028  -0.003   6.966   6.821  0.7284  0.5643  0.8167
   7623SM  H15T10029   0.100   6.826   6.855 -0.1921  0.1177 -0.4794
   7623SM  C16S10030   0.189   6.982   6.715 -0.0302  0.0561  0.4330
   7623SM  H16S10031   0.297   6.961   6.729 -0.3503 -1.4424  0.9021
   7623SM  H16T10032   0.163   7.088   6.694 -2.8483 -0.2622  1.8857
   7623SM  C17S10033   0.158   6.897   6.587  0.2382 -0.1923  0.4854
   7623SM  H17S10034   0.184   6.789   6.588 -2.7726 -1.1561 -2.9850
   7623SM  H17T10035   0.219   6.947   6.509  1.6521 -1.4228  0.7728
   7623SM  C18S10036   0.010   6.901   6.562  0.2775  0.4651  0.3746
   7623SM  H18S10037  -0.037   7.002   6.570  0.8191  0.6802  0.9531
   7623SM  H18T10038  -0.048   6.856   6.645 -1.2468  2.8778  0.7445
   7623SM  H18U10039  -0.015   6.836   6.476  1.4713  0.2884  0.1439
   7623SM   C1F10040  -0.138   7.058   8.077 -0.1238  0.2404 -0.4738
   7623SM    OF10041  -0.175   7.151   8.146 -0.2051  0.3211 -0.0758
   7623SM   C2F10042  -0.222   6.998   7.968 -1.1225  0.3923  0.5235
   7623SM   H2F10043  -0.275   6.911   8.013  0.6299  0.3333  2.6145
   7623SM   H2G10044  -0.162   6.931   7.902  0.2444  1.6087  0.4973
   7623SM   C3F10045  -0.305   7.101   7.898  0.5219  0.0196 -0.2826
   7623SM   H3F10046  -0.360   7.160   7.975 -0.8878  0.2426 -1.4022
   7623SM   H3G10047  -0.382   7.046   7.839  1.6901 -1.0229 -0.8617
   7623SM   C4F10048  -0.229   7.196   7.808 -0.2338 -0.3129 -0.0591
   7623SM   H4F10049  -0.168   7.143   7.731 -1.4096  1.3681 -2.2704
   7623SM   H4G10050  -0.151   7.232   7.878  2.7325 -3.3818 -1.4337
   7623SM   C5F10051  -0.314   7.308   7.745  0.1511 -0.0561 -0.0956
   7623SM   H5F10052  -0.243   7.377   7.695  0.1071  1.2289  1.5181
   7623SM   H5G10053  -0.357   7.380   7.818  1.8308  0.9969 -0.0990
   7623SM   C6F10054  -0.410   7.268   7.638  0.6792  0.1231 -0.5213
   7623SM   H6F10055  -0.471   7.358   7.613  0.3459  0.7860  2.3007
   7623SM   H6G10056  -0.480   7.195   7.684  0.3863  0.0265 -1.1070
   7623SM   C7F10057  -0.359   7.219   7.504 -0.0374  0.4174  0.0710
   7623SM   H7F10058  -0.446   7.185   7.443  1.1398  0.5305 -1.7207
   7623SM   H7G10059  -0.297   7.128   7.514  1.8026  1.6899  0.7400
   7623SM   C8F10060  -0.267   7.329   7.436 -0.2310  0.2408  0.2784
   7623SM   H8F10061  -0.188   7.359   7.508 -1.1393  1.5200  0.7711
   7623SM   H8G10062  -0.335   7.416   7.430  1.4966  1.6394  0.3795
   7623SM   C9F10063  -0.216   7.314   7.285 -0.0436  0.8002  0.1917
   7623SM   H9F10064  -0.144   7.230   7.283  0.8752  1.5639  0.2164
   7623SM   H9G10065  -0.167   7.411   7.260  3.4297 -0.2682  2.2386
   7623SM  C10F10066  -0.326   7.270   7.183 -0.3051  0.0159  0.1675
   7623SM  H10F10067  -0.388   7.360   7.162 -0.0543  0.3547  0.8776
   7623SM  H10G10068  -0.387   7.185   7.222  0.5325 -1.3034 -1.2515
   7623SM  C11F10069  -0.256   7.234   7.051  0.0559 -0.1859 -0.5646
   7623SM  H11F10070  -0.206   7.136   7.069  0.1471  0.0162  0.3187
   7623SM  H11G10071  -0.179   7.311   7.030 -0.6632  1.0683  1.1822
   7623SM  C12F10072  -0.344   7.245   6.923 -0.5841  0.0190  0.0951
   7623SM  H12F10073  -0.364   7.351   6.898  1.3764  0.7980  1.5522
   7623SM  H12G10074  -0.443   7.195   6.919 -0.4046 -0.3850  0.6147
   7623SM  C13F10075  -0.272   7.191   6.790  0.2308  0.6424  0.0858
   7623SM  H13F10076  -0.256   7.083   6.811 -3.3405  0.1031  0.5644
   7623SM  H13G10077  -0.178   7.251   6.791 -1.9153  4.3160 -0.5249
   7623SM  C14F10078  -0.356   7.207   6.663 -0.5442  0.3941 -0.4942
   7623SM  H14F10079  -0.373   7.317   6.653  3.1351  1.0063 -1.2333
   7623SM  H14G10080  -0.453   7.153   6.674 -1.1104  0.8518 -2.6859
   7623SM  C15F10081  -0.281   7.137   6.548 -0.0294 -1.3077  0.7034
   7623SM  H15F10082  -0.274   7.030   6.577  1.5765 -1.3279  0.3360
   7623SM  H15G10083  -0.176   7.173   6.544 -0.0311 -1.1920  1.4997
   7623SM  C16F10084  -0.352   7.153   6.407  0.1016  0.6212 -0.5213
   7623SM  H16F10085  -0.335   7.262   6.389 -1.2565  0.7859 -0.9377
   7623SM  H16G10086  -0.459   7.141   6.435  0.7396  0.0749  1.8840
   7623SM  C17F10087  -0.292   7.067   6.297  0.9382  0.7224 -0.3070
   7623SM  H17F10088  -0.316   6.963   6.327 -1.1198  0.4894 -2.5146
   7623SM  H17G10089  -0.181   7.061   6.291  0.7968 -3.0340 -2.0007
   7623SM  C18F10090  -0.357   7.089   6.161 -0.0210 -0.5148 -0.1287
   7623SM  H18F10091  -0.345   7.198   6.145 -2.2054 -0.3314 -0.8134
   7623SM  H18G10092  -0.467   7.080   6.166 -0.0261 -0.8619 -0.7960
   7623SM  C19F10093  -0.309   6.995   6.052  0.1996 -0.0801  0.2094
   7623SM  H19F10094  -0.350   6.896   6.080 -0.8237  0.7908  2.0457
   7623SM  H19G10095  -0.200   6.977   6.067 -0.4308 -2.9261  2.2258
   7623SM  C20F10096  -0.352   7.029   5.908 -0.2492 -0.5569 -0.6432
   7623SM  H20F10097  -0.307   7.127   5.883 -0.1506 -0.3523  0.3183
   7623SM  H20G10098  -0.461   7.039   5.887 -0.3354 -0.4015 -0.1332
   7623SM  C21F10099  -0.292   6.928   5.805  0.1199  0.2579 -0.1895
   7623SM  H21F10100  -0.308   6.828   5.851  1.1787  1.0002  1.9614
   7623SM  H21G10101  -0.183   6.952   5.801 -0.3031  2.1318 -2.0727
   7623SM  C22F10102  -0.355   6.940   5.669 -0.2058  0.1382  0.1172
   7623SM  H22F10103  -0.351   7.043   5.630  1.1470  0.9347  2.1828
   7623SM  H22G10104  -0.464   6.927   5.686 -0.0747  1.7628  2.7677
   7623SM  C23F10105  -0.312   6.834   5.562 -1.3835 -0.7029  0.2470
   7623SM  H23F10106  -0.388   6.830   5.481 -0.6299 -1.3507 -0.4408
   7623SM  H23G10107  -0.307   6.733   5.608 -4.6049 -0.2196  1.9443
   7623SM  H23H10108  -0.208   6.855   5.529 -0.0258 -3.3390  2.4410
   7723SM     N10109   0.667   3.561   9.717 -0.1496 -0.4956 -0.7938
   7723SM   C1510110   0.567   3.659   9.769 -0.2677 -0.6956  0.0070
   7723SM  H15A10111   0.500   3.688   9.690 -0.3410  1.4014  0.7917
   7723SM  H15B10112   0.621   3.743   9.810 -2.2628  1.2599 -1.1608
   7723SM  H15C10113   0.509   3.610   9.845 -0.3230  1.0179  1.1184
   7723SM   C1410114   0.736   3.633   9.606  0.0122  0.0262  0.3263
   7723SM  H14A10115   0.788   3.720   9.642  0.4062 -0.0994  0.0739
   7723SM  H14B10116   0.675   3.646   9.518 -2.3275  0.8989  1.9893
   7723SM  H14C10117   0.824   3.578   9.575  0.7042 -0.0163  2.2426
   7723SM   C1310118   0.763   3.521   9.818 -0.4674 -0.6372  0.0842
   7723SM  H13A10119   0.825   3.602   9.855  1.5037 -2.1225  0.1945
   7723SM  H13B10120   0.845   3.468   9.772  1.8613  4.1813 -2.1213
   7723SM  H13C10121   0.720   3.467   9.900  0.1635  0.3596  1.0939
   7723SM   C1210122   0.584   3.442   9.667 -0.6075  0.7724  0.7150
   7723SM  H12A10123   0.522   3.402   9.746 -0.9626 -0.2391 -0.0678
   7723SM  H12B10124   0.651   3.364   9.635 -1.8380  0.5097 -1.3780
   7723SM   C1110125   0.501   3.467   9.542 -0.5092 -0.0313  0.6498
   7723SM  H11A10126   0.453   3.567   9.541 -0.9869 -0.2241 -1.5953
   7723SM  H11B10127   0.426   3.385   9.542  2.1425 -2.6003 -0.6471
   7723SM     P10128   0.640   3.320   9.371  0.2844  0.6707 -0.0815
   7723SM   O1310129   0.778   3.351   9.329  0.6833  0.3247 -0.1116
   7723SM   O1410130   0.623   3.215   9.475 -0.5502  0.2518 -0.2567
   7723SM   O1110131   0.569   3.268   9.249  0.1458  0.1233  0.7374
   7723SM   O1210132   0.570   3.458   9.412 -0.1081 -0.5743 -0.1918
   7723SM   C1S10133   0.485   3.328   9.163  0.0763 -1.1257 -0.0332
   7723SM   H1S10134   0.453   3.421   9.215  3.5450 -0.2417  0.8014
   7723SM   H1T10135   0.396   3.265   9.142 -1.0877  0.7436 -0.9785
   7723SM    NF10136   0.452   3.462   8.956 -0.7472  0.4088 -0.1519
   7723SM   HNF10137   0.414   3.404   8.884 -1.0553 -2.8431  2.3781
   7723SM   C2S10138   0.550   3.389   9.036 -0.0511 -0.0494  0.2585
   7723SM   H2S10139   0.623   3.461   9.077  0.3583 -0.8293  0.9278
   7723SM   C3S10140   0.635   3.285   8.960 -0.8801  0.3392  0.7911
   7723SM   H3S10141   0.571   3.207   8.915  2.0545 -0.7618 -1.8606
   7723SM    O310142   0.713   3.199   9.041  0.5638 -0.7554  0.0213
   7723SM   HO310143   0.671   3.193   9.127 -1.1238  0.0634 -0.7042
   7723SM   C4S10144   0.711   3.341   8.839  0.5980 -0.0622 -0.4023
   7723SM   H4S10145   0.779   3.424   8.865  0.4579 -0.7832  2.7729
   7723SM   C5S10146   0.712   3.295   8.718 -0.0382  0.4058 -0.1589
   7723SM   H5S10147   0.648   3.211   8.688 -0.5770  1.3804 -1.8599
   7723SM   C6S10148   0.800   3.358   8.616 -0.1055  0.2303  0.7407
   7723SM   H6S10149   0.867   3.435   8.660 -2.9646  1.9086  2.5016
   7723SM   H6T10150   0.746   3.413   8.536  0.5879  0.6061  0.5285
   7723SM   C7S10151   0.876   3.250   8.535 -0.0388  0.0058 -0.1365
   7723SM   H7S10152   0.804   3.172   8.502 -1.8573  1.8464 -0.7688
   7723SM   H7T10153   0.949   3.208   8.607  0.4369  2.1542  0.7175
   7723SM   C8S10154   0.941   3.300   8.400 -0.1373 -0.0502 -0.0919
   7723SM   H8S10155   1.004   3.214   8.372 -0.2712 -0.1297 -0.1499
   7723SM   H8T10156   1.006   3.390   8.415  1.9293 -1.6165  0.8354
   7723SM   C9S10157   0.834   3.343   8.297 -0.1602 -0.3360 -0.2012
   7723SM   H9S10158   0.786   3.435   8.336  1.7652  1.3002 -1.4951
   7723SM   H9T10159   0.755   3.267   8.286 -0.6315  0.3819 -2.2251
   7723SM  C10S10160   0.881   3.371   8.156  0.2291 -0.0077  0.6872
   7723SM  H10S10161   0.969   3.304   8.142  0.7329  0.9619 -1.1177
   7723SM  H10T10162   0.918   3.476   8.156 -2.8859  1.2046  2.6006
   7723SM  C11S10163   0.784   3.357   8.035  0.4366 -0.4000  0.7405
   7723SM  H11S10164   0.694   3.420   8.051  1.4398  0.8917  1.5088
   7723SM  H11T10165   0.746   3.253   8.033  0.2343 -0.3193 -1.6031
   7723SM  C12S10166   0.862   3.390   7.910 -0.6510 -0.0389  0.7108
   7723SM  H12S10167   0.954   3.327   7.912 -0.3486  0.3723 -0.0897
   7723SM  H12T10168   0.902   3.493   7.912  3.2477 -1.3986  2.8051
   7723SM  C13S10169   0.782   3.370   7.783 -0.3143 -0.0491  0.3260
   7723SM  H13S10170   0.676   3.405   7.779  0.0002  0.7973 -2.3042
   7723SM  H13T10171   0.772   3.261   7.763 -0.0453  0.2022 -1.3405
   7723SM  C14S10172   0.848   3.433   7.653  0.5508 -0.4684 -0.1599
   7723SM  H14S10173   0.944   3.378   7.642 -0.2122 -2.1825  1.3200
   7723SM  H14T10174   0.858   3.542   7.671 -0.3375 -0.3274 -0.4743
   7723SM  C15S10175   0.765   3.410   7.530 -0.7038 -0.3091 -0.7675
   7723SM  H15S10176   0.665   3.455   7.546 -0.6109 -0.9925  2.4759
   7723SM  H15T10177   0.753   3.302   7.508  1.8976 -1.2211  1.6625
   7723SM  C16S10178   0.822   3.475   7.405 -0.0294  0.1070 -0.6994
   7723SM  H16S10179   0.933   3.466   7.397  0.0806  0.0143  0.6276
   7723SM  H16T10180   0.816   3.585   7.421  2.5301  0.1210  0.7708
   7723SM  C17S10181   0.759   3.413   7.281  0.2127 -0.1136 -0.1637
   7723SM  H17S10182   0.652   3.442   7.274  0.3838  0.6972  0.4721
   7723SM  H17T10183   0.756   3.302   7.285 -0.3390 -0.0776  0.5677
   7723SM  C18S10184   0.833   3.452   7.148  0.4400 -0.3489 -0.2913
   7723SM  H18S10185   0.836   3.562   7.133  3.3820 -0.1897  0.7402
   7723SM  H18T10186   0.778   3.414   7.059 -1.1964  0.7936  0.1746
   7723SM  H18U10187   0.941   3.425   7.146  0.5232 -0.0432 -0.0517
   7723SM   C1F10188   0.380   3.559   9.009 -0.3883  0.1870 -0.3314
   7723SM    OF10189   0.427   3.626   9.100 -0.4652  0.2465 -0.4667
   7723SM   C2F10190   0.235   3.581   8.971  0.3496  0.1353  0.1573
   7723SM   H2F10191   0.169   3.584   9.060  1.3539  1.1055  0.8936
   7723SM   H2G10192   0.202   3.498   8.905 -1.2296  1.6076 -0.9946
   7723SM   C3F10193   0.215   3.717   8.895  0.5981 -0.1521  0.4100
   7723SM   H3F10194   0.226   3.794   8.974 -1.9394  0.4314  0.2899
   7723SM   H3G10195   0.112   3.720   8.853  0.5910 -1.1506  0.3281
   7723SM   C4F10196   0.294   3.764   8.770  0.6252  0.2362 -0.0568
   7723SM   H4F10197   0.399   3.747   8.802  1.1930 -1.4469 -2.5448
   7723SM   H4G10198   0.277   3.870   8.744  0.6686  0.4705  0.8399
   7723SM   C5F10199   0.275   3.678   8.642 -0.0268 -0.2261  0.2245
   7723SM   H5F10200   0.187   3.726   8.595 -0.0766 -1.4680 -1.0119
   7723SM   H5G10201   0.256   3.571   8.665 -1.4056  0.0290  0.3708
   7723SM   C6F10202   0.394   3.692   8.554  0.1551 -0.3821  0.3801
   7723SM   H6F10203   0.477   3.627   8.587 -0.4990 -1.3805  0.0822
   7723SM   H6G10204   0.442   3.793   8.555 -1.0867  0.2647 -0.8560
   7723SM   C7F10205   0.354   3.673   8.398  0.0761 -0.5560 -0.1182
   7723SM   H7F10206   0.292   3.763   8.375 -1.4949 -2.3258 -3.7038
   7723SM   H7G10207   0.287   3.586   8.381  1.5517 -1.6665 -0.4440
   7723SM   C8F10208   0.467   3.676   8.295  0.4375  0.6572 -0.2549
   7723SM   H8F10209   0.512   3.575   8.302 -0.3472  0.2588 -0.8405
   7723SM   H8G10210   0.540   3.757   8.316  0.7820  0.1934  0.3573
   7723SM   C9F10211   0.402   3.689   8.155 -0.8288 -0.1232  0.7623
   7723SM   H9F10212   0.332   3.774   8.155  0.0419  0.6349 -0.6373
   7723SM   H9G10213   0.343   3.595   8.145 -0.8584 -0.2235  1.7938
   7723SM  C10F10214   0.507   3.709   8.036 -0.2758 -0.3602  0.3393
   7723SM  H10F10215   0.565   3.615   8.028  1.1207  0.5688 -1.1986
   7723SM  H10G10216   0.572   3.798   8.053  0.7639 -1.2200  0.9398
   7723SM  C11F10217   0.423   3.741   7.909  0.4319  0.6662 -0.5048
   7723SM  H11F10218   0.352   3.827   7.919 -0.6559 -0.3852  1.3934
   7723SM  H11G10219   0.354   3.657   7.887  1.2857  0.5098 -2.8199
   7723SM  C12F10220   0.506   3.751   7.780 -0.7593 -0.0679 -0.3600
   7723SM  H12F10221   0.576   3.666   7.792 -1.6652 -0.6781  0.7940
   7723SM  H12G10222   0.570   3.841   7.767  0.4990 -1.0586 -1.2430
   7723SM  C13F10223   0.423   3.738   7.646  0.6002  0.3093 -0.1265
   7723SM  H13F10224   0.349   3.821   7.641  1.4388  1.0603 -0.4889
   7723SM  H13G10225   0.370   3.641   7.649  1.1409  0.0322  1.0621
   7723SM  C14F10226   0.522   3.743   7.526 -0.0435  0.5286  0.0356
   7723SM  H14F10227   0.610   3.685   7.563  1.5585  1.7001 -1.7893
   7723SM  H14G10228   0.551   3.848   7.504 -2.2186  1.1062 -0.3040
   7723SM  C15F10229   0.460   3.676   7.400 -0.1182 -0.1306  0.1080
   7723SM  H15F10230   0.384   3.598   7.426  1.0266 -1.1392  0.5349
   7723SM  H15G10231   0.533   3.611   7.347 -0.3645  2.1004 -3.2812
   7723SM  C16F10232   0.409   3.775   7.293  1.1103 -0.2373  0.0035
   7723SM  H16F10233   0.453   3.877   7.303  0.5915  0.0385 -0.4719
   7723SM  H16G10234   0.299   3.780   7.311  1.3747 -0.5477  1.9036
   7723SM  C17F10235   0.436   3.731   7.146  0.0108 -0.6971 -0.4958
   7723SM  H17F10236   0.388   3.792   7.066  0.0044 -1.4413 -1.0641
   7723SM  H17G10237   0.416   3.624   7.127  0.0992 -0.7671 -0.2057
   7723SM  C18F10238   0.583   3.754   7.111  0.0062  0.4181  0.4053
   7723SM  H18F10239   0.611   3.698   7.019  3.1339  1.5818  0.5303
   7723SM  H18G10240   0.644   3.722   7.198  0.7288  0.9700  0.1168
   7723SM  C19F10241   0.615   3.900   7.096 -0.1452  0.1310  0.4684
   7723SM  H19F10242   0.638   3.937   7.198  1.7913 -1.5911  0.7044
   7723SM  H19G10243   0.530   3.959   7.055  1.2865  0.5503 -2.1125
   7723SM  C20F10244   0.738   3.938   7.022 -0.3036 -0.8297  0.5814
   7723SM  H20F10245   0.749   4.048   7.008 -1.8253 -0.7960 -0.6622
   7723SM  H20G10246   0.729   3.902   6.918  0.7439  4.7530 -1.8537
   7723SM  C21F10247   0.864   3.870   7.072 -0.0622 -0.6327 -0.0355
   7723SM  H21F10248   0.857   3.759   7.070 -1.8040 -0.5719  1.0563
   7723SM  H21G10249   0.875   3.905   7.177 -1.1717  0.7081 -0.3420
   7723SM  C22F10250   0.990   3.909   6.989 -0.3354 -0.1123  0.2067
   7723SM  H22F10251   1.015   4.017   7.001 -0.3739 -0.2812  2.1568
   7723SM  H22G10252   0.962   3.879   6.886 -0.4779  2.9036 -0.7383
   7723SM  C23F10253   1.111   3.819   7.039  0.4950 -0.4892  0.7297
   7723SM  H23F10254   1.179   3.817   6.952  1.1949 -0.1724  1.2633
   7723SM  H23G10255   1.078   3.716   7.066  2.2550 -1.0936  0.6723
   7723SM  H23H10256   1.166   3.862   7.125  3.6009 -1.7030 -0.5012
   7823SM     N10257   1.296   1.567   8.499 -0.0426  0.4858 -0.3302
   7823SM   C1510258   1.248   1.656   8.380 -0.6702 -0.0487 -0.6575
   7823SM  H15A10259   1.154   1.613   8.347 -0.8875 -1.9270  2.0547
   7823SM  H15B10260   1.326   1.649   8.307 -1.7248 -0.5296 -1.7827
   7823SM  H15C10261   1.227   1.758   8.409 -2.5240 -0.6932  0.4936
   7823SM   C1410262   1.397   1.644   8.582  1.1307  0.4344 -0.4761
   7823SM  H14A10263   1.482   1.641   8.516  0.0082 -2.4638 -1.9706
   7823SM  H14B10264   1.428   1.575   8.660  1.3050 -0.7485 -1.5457
   7823SM  H14C10265   1.356   1.741   8.602 -2.0843  0.0715 -4.2446
   7823SM   C1310266   1.187   1.532   8.596  0.4171  0.1731  0.1820
   7823SM  H13A10267   1.224   1.499   8.691 -0.4891  1.1628  0.9004
   7823SM  H13B10268   1.128   1.455   8.549  0.1322 -0.1375  1.0399
   7823SM  H13C10269   1.121   1.616   8.613  1.2104  0.9288 -0.3390
   7823SM   C1210270   1.368   1.440   8.446  0.6262 -0.1737  0.1275
   7823SM  H12A10271   1.404   1.375   8.525  2.5037 -0.5572 -0.9919
   7823SM  H12B10272   1.458   1.472   8.397  0.6371  0.5357  0.5778
   7823SM   C1110273   1.292   1.347   8.351 -0.3951  0.5557  0.4798
   7823SM  H11A10274   1.365   1.278   8.303  2.3622  1.4101  3.1109
   7823SM  H11B10275   1.266   1.406   8.261  1.5198  1.0147  0.1673
   7823SM     P10276   1.180   1.156   8.496  0.2919 -0.3434  0.0721
   7823SM   O1310277   1.288   1.162   8.597  0.3672 -0.0126 -0.3319
   7823SM   O1410278   1.046   1.137   8.554 -0.4615  0.0670  0.3016
   7823SM   O1110279   1.214   1.050   8.380  0.1474 -0.1061 -0.2224
   7823SM   O1210280   1.176   1.286   8.423  0.2657 -0.8086  0.0428
   7823SM   C1S10281   1.130   1.034   8.270  0.0337 -0.1327  0.7121
   7823SM   H1S10282   1.040   1.099   8.264  0.8781  1.0345  0.1557
   7823SM   H1T10283   1.082   0.936   8.286 -1.6461  0.6658  0.7602
   7823SM    NF10284   1.106   1.008   8.027 -0.9220 -0.6856  0.4128
   7823SM   HNF10285   1.082   0.913   8.008  0.1389 -1.0837  0.9981
   7823SM   C2S10286   1.199   1.044   8.129 -0.4620  0.4189 -0.5710
   7823SM   H2S10287   1.235   1.147   8.107 -1.5194  0.7725 -0.6718
   7823SM   C3S10288   1.328   0.954   8.124 -0.3901 -0.2819 -0.2584
   7823SM   H3S10289   1.301   0.846   8.126  0.0296 -0.3880  1.2146
   7823SM    O310290   1.421   0.980   8.231 -0.5275  0.0584  0.5696
   7823SM   HO310291   1.372   1.016   8.305 -0.2034 -0.8798  1.2629
   7823SM   C4S10292   1.397   0.959   7.992  0.0024 -0.4786 -0.6167
   7823SM   H4S10293   1.338   0.902   7.918  1.1070  1.1459 -2.8650
   7823SM   C5S10294   1.498   1.043   7.954 -0.1381  1.1555 -0.3730
   7823SM   H5S10295   1.548   1.109   8.026  0.5779 -1.6471  1.8829
   7823SM   C6S10296   1.558   1.051   7.817  0.0669 -0.1823  0.1292
   7823SM   H6S10297   1.651   0.990   7.815 -0.1162 -0.5217 -2.8431
   7823SM   H6T10298   1.605   1.151   7.807 -0.3737  0.4184  3.2210
   7823SM   C7S10299   1.473   1.028   7.692  0.0229  0.5513 -0.6781
   7823SM   H7S10300   1.377   1.084   7.703 -0.5908 -0.9026  2.6001
   7823SM   H7T10301   1.436   0.923   7.691 -1.4873  0.9398  2.4356
   7823SM   C8S10302   1.548   1.048   7.561  0.3959 -0.0428  0.1695
   7823SM   H8S10303   1.634   0.979   7.547  0.1394 -0.1310 -1.0543
   7823SM   H8T10304   1.596   1.148   7.560 -0.1105  0.2090 -0.7156
   7823SM   C9S10305   1.460   1.026   7.431  0.4651 -0.1805 -0.2175
   7823SM   H9S10306   1.371   1.092   7.435  0.7454  0.1500  1.1883
   7823SM   H9T10307   1.431   0.919   7.435  4.6863 -1.5619 -0.9268
   7823SM  C10S10308   1.540   1.051   7.298  0.4585 -0.7789 -0.5957
   7823SM  H10S10309   1.621   0.975   7.294  1.1314 -0.1099 -0.0210
   7823SM  H10T10310   1.595   1.147   7.302  0.9346 -1.0597  3.2306
   7823SM  C11S10311   1.458   1.037   7.165 -0.5072  0.3275 -0.4832
   7823SM  H11S10312   1.367   1.100   7.171 -2.0845 -1.5475 -2.9846
   7823SM  H11T10313   1.426   0.931   7.171 -0.8731  0.4429 -0.3346
   7823SM  C12S10314   1.544   1.078   7.052 -0.3947  0.2467 -0.1026
   7823SM  H12S10315   1.637   1.018   7.061 -0.0719  0.8801  1.0298
   7823SM  H12T10316   1.595   1.175   7.072 -0.1956 -0.3484  2.6295
   7823SM  C13S10317   1.469   1.073   6.921  0.6473 -0.3921  0.4745
   7823SM  H13S10318   1.388   1.149   6.923  1.3302  0.3586  0.2486
   7823SM  H13T10319   1.433   0.968   6.917  0.3896 -0.3016 -3.0836
   7823SM  C14S10320   1.552   1.103   6.800 -0.0910  0.1454  0.2791
   7823SM  H14S10321   1.610   1.017   6.760 -1.3489 -0.1402 -0.9699
   7823SM  H14T10322   1.623   1.184   6.828  2.8959 -1.7648 -1.1715
   7823SM  C15S10323   1.464   1.150   6.678 -0.0623  0.1798 -0.1933
   7823SM  H15S10324   1.524   1.225   6.622  0.3721  0.9909  1.2897
   7823SM  H15T10325   1.368   1.193   6.714  0.1955 -0.4199  1.3122
   7823SM  C16S10326   1.439   1.027   6.591  0.1475 -0.3015  0.3178
   7823SM  H16S10327   1.398   0.950   6.660 -0.8374  0.7276  0.9263
   7823SM  H16T10328   1.527   0.989   6.536  1.1753  1.3961  0.7109
   7823SM  C17S10329   1.331   1.044   6.480 -0.0364 -0.1783 -0.9641
   7823SM  H17S10330   1.235   1.080   6.524  0.1556 -0.8513  0.0400
   7823SM  H17T10331   1.309   0.941   6.443  1.5254 -1.3810  1.2103
   7823SM  C18S10332   1.368   1.147   6.369  0.1333 -0.3862 -0.6300
   7823SM  H18S10333   1.466   1.119   6.324  0.9321  1.2858 -0.0370
   7823SM  H18T10334   1.365   1.249   6.412 -0.9811 -1.5224  2.2464
   7823SM  H18U10335   1.295   1.154   6.286 -0.3133  2.7190 -0.0765
   7823SM   C1F10336   1.011   1.102   7.997 -0.3666  0.9367  0.3027
   7823SM    OF10337   1.026   1.217   8.039  0.0658  0.3169  0.0287
   7823SM   C2F10338   0.886   1.065   7.924  0.1098 -0.3490  0.5379
   7823SM   H2F10339   0.828   1.159   7.914  0.2083  0.0249  2.9896
   7823SM   H2G10340   0.825   1.003   7.994  0.5493 -1.0516  0.3158
   7823SM   C3F10341   0.922   1.007   7.786  0.4260  0.1945 -0.2824
   7823SM   H3F10342   0.823   0.975   7.749  1.2364 -1.6128 -1.0250
   7823SM   H3G10343   0.984   0.914   7.796  0.6914  0.3574 -0.4009
   7823SM   C4F10344   0.986   1.106   7.685  0.0893  0.1085 -0.1918
   7823SM   H4F10345   1.087   1.139   7.717 -1.6060  1.9427  4.0204
   7823SM   H4G10346   0.917   1.193   7.691  0.4759  0.3374  1.2880
   7823SM   C5F10347   0.996   1.046   7.547  0.5273 -0.1086 -0.0863
   7823SM   H5F10348   0.903   0.991   7.520  0.4778  0.5987 -1.4652
   7823SM   H5G10349   1.079   0.973   7.542  0.1108 -0.6062  0.1825
   7823SM   C6F10350   1.036   1.149   7.447  0.0704 -0.5526  0.5540
   7823SM   H6F10351   1.135   1.191   7.475  0.6512 -1.5153  0.0223
   7823SM   H6G10352   0.963   1.233   7.440 -1.8852 -2.1898  0.3933
   7823SM   C7F10353   1.054   1.087   7.306 -0.1248 -0.2533 -0.1463
   7823SM   H7F10354   0.964   1.025   7.287 -2.3309  2.5203  0.4989
   7823SM   H7G10355   1.137   1.014   7.313 -0.2988 -0.6123 -1.5322
   7823SM   C8F10356   1.084   1.188   7.192 -0.2691 -0.2370  0.6825
   7823SM   H8F10357   1.192   1.214   7.198  0.3588 -2.3484 -0.5776
   7823SM   H8G10358   1.034   1.287   7.199 -0.8694 -0.5073  0.2829
   7823SM   C9F10359   1.066   1.126   7.050 -0.6089  0.2815 -0.9789
   7823SM   H9F10360   1.111   1.024   7.048 -1.3731 -0.2985  3.0880
   7823SM   H9G10361   1.133   1.180   6.979  2.6361 -2.8184 -0.5980
   7823SM  C10F10362   0.920   1.129   6.997 -0.4820 -0.1931 -0.4321
   7823SM  H10F10363   0.886   1.231   6.970  0.7170  0.4381  0.3515
   7823SM  H10G10364   0.854   1.090   7.078 -0.5212  1.0537  0.1481
   7823SM  C11F10365   0.888   1.026   6.885 -0.1876 -0.7712  0.2880
   7823SM  H11F10366   0.779   1.037   6.868 -0.1558  0.7461  0.9361
   7823SM  H11G10367   0.904   0.924   6.926 -1.9652 -1.0629  0.3224
   7823SM  C12F10368   0.956   1.056   6.748  0.3102 -0.2247  0.3044
   7823SM  H12F10369   1.065   1.053   6.765  0.5703  0.1591 -1.1637
   7823SM  H12G10370   0.947   1.165   6.728  0.3605 -0.4962 -1.3041
   7823SM  C13F10371   0.909   0.960   6.636 -1.0650  0.5377  0.2291
   7823SM  H13F10372   0.882   0.868   6.692  2.2320  1.0170  2.9972
   7823SM  H13G10373   0.993   0.937   6.567 -2.4943 -1.9348 -0.8212
   7823SM  C14F10374   0.796   1.013   6.553  0.1024  0.0436  0.1991
   7823SM  H14F10375   0.799   0.974   6.450 -0.7384 -1.0208  0.5573
   7823SM  H14G10376   0.790   1.124   6.558 -0.6972 -0.0158  0.7644
   7823SM  C15F10377   0.667   0.959   6.617 -0.0021 -0.2386  0.2335
   7823SM  H15F10378   0.637   1.014   6.709 -1.4972 -0.5756 -0.0204
   7823SM  H15G10379   0.683   0.851   6.633 -1.4875 -0.2434  1.9938
   7823SM  C16F10380   0.547   0.988   6.516 -0.1174 -1.0790 -0.3763
   7823SM  H16F10381   0.555   0.919   6.429 -0.4931  0.2134 -1.4822
   7823SM  H16G10382   0.557   1.087   6.465 -1.8946 -1.4424 -1.5583
   7823SM  C17F10383   0.411   0.971   6.583 -0.1496 -0.2077 -0.2648
   7823SM  H17F10384   0.409   1.051   6.660  1.2210 -1.1302  0.7999
   7823SM  H17G10385   0.418   0.876   6.640 -1.0547 -0.5662 -0.7347
   7823SM  C18F10386   0.297   0.964   6.490  0.7453 -0.9664 -0.7238
   7823SM  H18F10387   0.209   0.963   6.558  0.7856 -0.8101 -0.6674
   7823SM  H18G10388   0.307   0.870   6.432  1.5048 -1.5363  0.2836
   7823SM  C19F10389   0.295   1.075   6.392  0.6566  0.0972 -0.7620
   7823SM  H19F10390   0.377   1.057   6.319  1.5496 -0.1523  0.2746
   7823SM  H19G10391   0.305   1.175   6.439  2.3764 -0.7334  0.7644
   7823SM  C20F10392   0.160   1.067   6.319 -0.5760 -0.8979  0.4566
   7823SM  H20F10393   0.098   1.142   6.372  0.3714  0.5565 -0.4474
   7823SM  H20G10394   0.106   0.970   6.325  0.3084 -1.4428 -0.1632
   7823SM  C21F10395   0.191   1.122   6.174 -0.4156  0.8556 -0.0640
   7823SM  H21F10396   0.263   1.064   6.113  0.9535 -1.4445  3.3821
   7823SM  H21G10397   0.237   1.223   6.178  1.6929  0.0119 -1.3298
   7823SM  C22F10398   0.058   1.126   6.099 -0.1127  1.3378  0.4439
   7823SM  H22F10399   0.029   1.024   6.066 -1.1218  1.5426  0.6813
   7823SM  H22G10400   0.075   1.184   6.006 -0.5129 -0.3336 -0.7379
   7823SM  C23F10401  -0.059   1.187   6.164 -0.0067 -0.1255 -0.0301
   7823SM  H23F10402  -0.047   1.295   6.188 -0.3326 -0.2251  0.6084
   7823SM  H23G10403  -0.081   1.132   6.258 -1.8632 -1.3528 -1.1134
   7823SM  H23H10404  -0.152   1.185   6.103  1.0118 -0.2903 -1.6397
   7923SM     N10405   5.180   1.074   8.671  0.0390 -0.7046  0.0781
   7923SM   C1510406   5.048   1.006   8.660  0.4183  0.5282  0.3371
   7923SM  H15A10407   5.011   0.969   8.755  1.7388  2.5404  1.7126
   7923SM  H15B10408   5.062   0.916   8.603 -1.8222 -0.1033  0.6883
   7923SM  H15C10409   4.980   1.074   8.610  0.7339  0.0142 -0.8209
   7923SM   C1410410   5.166   1.137   8.801  0.2335 -0.0112 -0.0984
   7923SM  H14A10411   5.130   1.068   8.876 -0.8026 -1.0899 -1.5309
   7923SM  H14B10412   5.091   1.215   8.797  0.5091  0.2243 -1.2757
   7923SM  H14C10413   5.254   1.187   8.840  0.0390 -0.0738  0.4279
   7923SM   C1310414   5.301   0.974   8.672  0.5768 -0.3446  0.9285
   7923SM  H13A10415   5.303   0.921   8.577  0.5303  1.7115 -0.2755
   7923SM  H13B10416   5.280   0.901   8.749 -0.0864 -0.1849  0.9101
   7923SM  H13C10417   5.396   1.021   8.693  0.9289  0.2670 -1.6718
   7923SM   C1210418   5.199   1.177   8.566 -0.6281 -0.4087  0.3139
   7923SM  H12A10419   5.126   1.254   8.584 -0.5404 -0.0906 -0.6699
   7923SM  H12B10420   5.167   1.140   8.470  0.9714 -1.5793  0.1831
   7923SM   C1110421   5.342   1.244   8.541  0.1316 -0.5113 -0.0502
   7923SM  H11A10422   5.341   1.310   8.452 -0.1465  0.4866  0.6727
   7923SM  H11B10423   5.407   1.158   8.516 -1.6204 -2.3474  1.4073
   7923SM     P10424   5.350   1.458   8.694  0.0697 -0.1822 -0.3050
   7923SM   O1310425   5.213   1.496   8.643 -0.0084 -0.2340  0.4146
   7923SM   O1410426   5.388   1.482   8.840 -0.3301 -0.1516  0.2773
   7923SM   O1110427   5.459   1.543   8.606  0.5797 -0.2302 -0.5978
   7923SM   O1210428   5.398   1.314   8.653  0.2055  0.1634 -0.5169
   7923SM   C1S10429   5.503   1.494   8.481 -0.0384  0.1358  0.3410
   7923SM   H1S10430   5.423   1.478   8.405  0.2032  0.0424  0.1030
   7923SM   H1T10431   5.560   1.401   8.501 -0.5101  0.4049  3.3329
   7923SM    NF10432   5.597   1.578   8.269  0.2590  0.2611  0.1677
   7923SM   HNF10433   5.681   1.551   8.222 -0.3963 -0.3812 -0.6612
   7923SM   C2S10434   5.588   1.605   8.415  0.8697 -0.3135 -0.3602
   7923SM   H2S10435   5.542   1.704   8.433  0.4562  0.1321 -3.3698
   7923SM   C3S10436   5.725   1.614   8.487  0.2324  0.1497  0.5107
   7923SM   H3S10437   5.785   1.523   8.465 -1.2631 -1.1596  1.5756
   7923SM    O310438   5.714   1.621   8.625  0.0019  0.1155  0.0210
   7923SM   HO310439   5.622   1.599   8.644 -0.1417  0.1734 -0.5899
   7923SM   C4S10440   5.791   1.733   8.440 -0.1291  0.3633 -0.1263
   7923SM   H4S10441   5.731   1.825   8.451  0.1393  0.5984 -0.6075
   7923SM   C5S10442   5.896   1.735   8.356  0.0299 -0.7647 -0.4178
   7923SM   H5S10443   5.952   1.643   8.333  0.2340 -0.3521 -1.6345
   7923SM   C6S10444   5.955   1.851   8.277 -0.2173 -0.7549 -0.9072
   7923SM   H6S10445   5.943   1.826   8.170 -1.3187  0.5421 -1.1205
   7923SM   H6T10446   6.066   1.857   8.277 -0.1272 -1.5622  0.9383
   7923SM   C7S10447   5.888   1.983   8.295  0.5215 -0.7630 -0.7614
   7923SM   H7S10448   5.903   2.022   8.398 -2.7919  1.0107 -0.8033
   7923SM   H7T10449   5.778   1.970   8.283  0.4881 -0.9836 -0.2401
   7923SM   C8S10450   5.929   2.097   8.191 -0.2984  0.0277 -0.4900
   7923SM   H8S10451   6.039   2.090   8.174 -0.2765  1.6815 -1.2842
   7923SM   H8T10452   5.916   2.199   8.233  2.9820  1.3861 -2.3826
   7923SM   C9S10453   5.841   2.083   8.063 -0.1681 -0.0936  0.3343
   7923SM   H9S10454   5.732   2.085   8.085 -0.1344 -1.2082  0.6443
   7923SM   H9T10455   5.852   1.979   8.026 -3.5478 -0.8707  1.2265
   7923SM  C10S10456   5.884   2.182   7.949 -0.3521 -0.0358  0.3076
   7923SM  H10S10457   5.995   2.186   7.936 -0.2933 -0.7257  0.5281
   7923SM  H10T10458   5.861   2.289   7.968 -0.5737 -0.1157  0.4914
   7923SM  C11S10459   5.826   2.144   7.813  0.4174  0.6029 -0.0672
   7923SM  H11S10460   5.716   2.151   7.822  0.4600  1.0439  0.1166
   7923SM  H11T10461   5.840   2.035   7.798 -1.7846 -0.4310  3.8216
   7923SM  C12S10462   5.873   2.237   7.694 -0.4647 -0.1604 -0.5130
   7923SM  H12S10463   5.977   2.205   7.670 -1.0493 -0.7442 -2.4327
   7923SM  H12T10464   5.880   2.343   7.726  0.5857 -0.4745  0.3742
   7923SM  C13S10465   5.795   2.204   7.568  0.1002 -0.4032 -0.0553
   7923SM  H13S10466   5.695   2.250   7.579  0.0994 -0.3755 -0.1781
   7923SM  H13T10467   5.777   2.095   7.558  0.4494 -0.4037 -0.7278
   7923SM  C14S10468   5.854   2.262   7.444 -0.6795  0.0464  0.3313
   7923SM  H14S10469   5.960   2.235   7.423  0.3610  3.6423  0.2600
   7923SM  H14T10470   5.856   2.373   7.440 -0.7057  0.0326 -0.0221
   7923SM  C15S10471   5.775   2.221   7.317 -0.1370 -0.8076 -0.1203
   7923SM  H15S10472   5.675   2.269   7.319  0.0528 -0.4092  1.5641
   7923SM  H15T10473   5.766   2.110   7.317  1.8857 -1.0222 -0.9180
   7923SM  C16S10474   5.840   2.254   7.179 -0.6935  0.1546  0.1082
   7923SM  H16S10475   5.946   2.222   7.174 -0.4982  0.6493  0.9392
   7923SM  H16T10476   5.845   2.363   7.155 -3.9420  0.3789 -0.0448
   7923SM  C17S10477   5.776   2.185   7.055  0.7003 -0.1303 -0.0315
   7923SM  H17S10478   5.666   2.196   7.065  0.8293  2.4945 -0.8264
   7923SM  H17T10479   5.793   2.075   7.056 -1.7865 -0.5738  0.9237
   7923SM  C18S10480   5.816   2.249   6.924 -0.1896  0.3998  0.0401
   7923SM  H18S10481   5.926   2.248   6.907 -0.5628  0.0973 -2.8749
   7923SM  H18T10482   5.771   2.349   6.909  0.9721  0.8908 -0.3381
   7923SM  H18U10483   5.788   2.187   6.836  3.8238  1.7278 -2.4377
   7923SM   C1F10484   5.487   1.583   8.191  0.2177 -0.4702  0.0292
   7923SM    OF10485   5.384   1.646   8.228  0.0443 -0.4328  0.9534
   7923SM   C2F10486   5.490   1.524   8.051 -0.2564  0.0920 -0.0105
   7923SM   H2F10487   5.536   1.423   8.049  0.7486  0.5147 -2.3465
   7923SM   H2G10488   5.547   1.596   7.988 -0.2294 -1.6124 -2.0623
   7923SM   C3F10489   5.350   1.509   7.989 -0.2081  0.2275 -0.2069
   7923SM   H3F10490   5.302   1.607   7.967 -0.9990 -0.2835 -0.8458
   7923SM   H3G10491   5.273   1.455   8.049 -0.0464 -0.2373 -0.4131
   7923SM   C4F10492   5.343   1.443   7.852 -0.4546  0.1387  0.6284
   7923SM   H4F10493   5.243   1.396   7.842 -0.4520 -0.3415  2.5484
   7923SM   H4G10494   5.416   1.359   7.847  0.2027  0.6461  1.4063
   7923SM   C5F10495   5.380   1.535   7.743 -0.4839  0.0787  0.6529
   7923SM   H5F10496   5.481   1.567   7.778  0.2395 -2.3493  0.9899
   7923SM   H5G10497   5.309   1.620   7.738 -0.4172  0.1091  0.1560
   7923SM   C6F10498   5.391   1.462   7.611 -0.1065  0.5459 -0.2653
   7923SM   H6F10499   5.292   1.427   7.575 -0.9649  0.0718  2.3168
   7923SM   H6G10500   5.443   1.365   7.630 -3.4194 -1.2138  0.5976
   7923SM   C7F10501   5.452   1.536   7.490  0.1191 -0.2847  0.1662
   7923SM   H7F10502   5.558   1.559   7.511 -0.1264  0.6357  0.4201
   7923SM   H7G10503   5.405   1.636   7.477 -0.2347 -0.6828 -2.1079
   7923SM   C8F10504   5.437   1.447   7.362  0.7720 -0.8729 -0.2881
   7923SM   H8F10505   5.331   1.448   7.332  0.8973  1.6491 -0.8975
   7923SM   H8G10506   5.462   1.344   7.395  0.6265 -1.4177 -1.8266
   7923SM   C9F10507   5.521   1.474   7.239  0.1758  0.0592 -0.2987
   7923SM   H9F10508   5.622   1.431   7.257  0.0786  0.4322  1.2869
   7923SM   H9G10509   5.537   1.583   7.222  0.6028 -0.0431 -0.5945
   7923SM  C10F10510   5.465   1.419   7.106  0.2329  0.6984  0.2546
   7923SM  H10F10511   5.372   1.478   7.089 -0.1020  0.1487  0.1665
   7923SM  H10G10512   5.435   1.313   7.111 -1.7920  1.2344  0.4777
   7923SM  C11F10513   5.552   1.461   6.989  1.1134  0.1767  0.6571
   7923SM  H11F10514   5.641   1.398   6.965  0.4014  0.4624 -3.5873
   7923SM  H11G10515   5.584   1.567   6.999  0.5326  0.3443  0.7454
   7923SM  C12F10516   5.467   1.458   6.856 -0.6359  0.7301  0.4010
   7923SM  H12F10517   5.413   1.554   6.841 -1.8091 -0.2089 -1.7261
   7923SM  H12G10518   5.399   1.371   6.870 -1.4838  1.5311  1.5221
   7923SM  C13F10519   5.548   1.436   6.730 -0.3550  0.2173 -0.0447
   7923SM  H13F10520   5.584   1.331   6.728  0.1240  0.3858 -0.5530
   7923SM  H13G10521   5.623   1.518   6.724 -0.1101 -0.1128 -2.4214
   7923SM  C14F10522   5.459   1.449   6.603 -0.3931 -0.1911  0.1136
   7923SM  H14F10523   5.353   1.465   6.633 -0.3478  0.7784 -0.1898
   7923SM  H14G10524   5.466   1.364   6.532  1.1236  0.4325 -0.5296
   7923SM  C15F10525   5.502   1.563   6.512 -0.5815 -0.4781 -0.0639
   7923SM  H15F10526   5.613   1.553   6.505 -0.4305  1.1401 -0.5601
   7923SM  H15G10527   5.486   1.664   6.557  0.6805 -0.7104  0.9476
   7923SM  C16F10528   5.445   1.555   6.369 -0.0611  0.2934  0.1147
   7923SM  H16F10529   5.446   1.663   6.344 -2.4030  0.0566 -1.2609
   7923SM  H16G10530   5.341   1.516   6.373 -0.3067  0.7951 -1.1950
   7923SM  C17F10531   5.527   1.474   6.273  0.3657  0.3915  0.4544
   7923SM  H17F10532   5.501   1.369   6.300  0.0810  0.5718  0.8891
   7923SM  H17G10533   5.636   1.495   6.284  0.5663  0.4475 -1.4030
   7923SM  C18F10534   5.492   1.490   6.124  0.3571  0.5191 -0.4539
   7923SM  H18F10535   5.465   1.595   6.100 -2.3860 -0.4183 -1.9873
   7923SM  H18G10536   5.402   1.429   6.100  0.1800  0.1266  1.1351
   7923SM  C19F10537   5.586   1.439   6.015 -0.3613  0.2139  0.1936
   7923SM  H19F10538   5.681   1.497   6.011 -1.1692  1.5186 -2.1525
   7923SM  H19G10539   5.542   1.474   5.919  0.6303  0.8719 -0.0406
   7923SM  C20F10540   5.602   1.285   6.026  0.4331 -1.0080 -0.0259
   7923SM  H20F10541   5.499   1.244   6.013 -0.8640  1.9025  0.2803
   7923SM  H20G10542   5.644   1.268   6.128  0.2638 -1.5272 -0.0347
   7923SM  C21F10543   5.710   1.213   5.937 -0.1004  0.1550 -0.0113
   7923SM  H21F10544   5.807   1.265   5.943  0.2778 -0.6361  0.8879
   7923SM  H21G10545   5.685   1.218   5.828  0.9631 -1.8193 -0.4005
   7923SM  C22F10546   5.712   1.062   5.964 -0.2548  0.8028 -0.2258
   7923SM  H22F10547   5.622   1.003   5.936 -0.4803  1.3290 -0.6188
   7923SM  H22G10548   5.716   1.042   6.073  0.5999 -1.1182 -0.5701
   7923SM  C23F10549   5.829   0.989   5.896 -0.1581 -0.5662 -0.1606
   7923SM  H23F10550   5.929   1.030   5.923 -0.7971  1.4717 -0.7172
   7923SM  H23G10551   5.831   0.989   5.785  1.1915 -0.8612 -0.1570
   7923SM  H23H10552   5.823   0.884   5.932  0.4176  0.0542  1.9254
   8023SM     N10553   6.606   2.338   8.552 -0.2197 -0.1718  0.4667
   8023SM   C1510554   6.703   2.456   8.524  0.2386 -0.0146  0.5576
   8023SM  H15A10555   6.671   2.494   8.428 -1.6266  1.6398  1.7598
   8023SM  H15B10556   6.802   2.415   8.510  0.1693 -0.1604  0.4907
   8023SM  H15C10557   6.713   2.530   8.602  0.3086  0.5299  0.0420
   8023SM   C1410558   6.637   2.296   8.692  0.2704  0.6233 -0.0977
   8023SM  H14A10559   6.624   2.375   8.765  1.0115  1.7826 -1.1806
   8023SM  H14B10560   6.744   2.279   8.695  0.0353 -1.4740 -1.1905
   8023SM  H14C10561   6.576   2.210   8.717  1.4128 -0.9809 -2.4492
   8023SM   C1310562   6.467   2.396   8.555  0.9685  0.0567  0.3356
   8023SM  H13A10563   6.390   2.322   8.557  1.4318 -0.4328  2.3706
   8023SM  H13B10564   6.447   2.469   8.477  1.4826 -1.0030 -0.8261
   8023SM  H13C10565   6.458   2.446   8.650  1.3765 -1.3407  1.1370
   8023SM   C1210566   6.619   2.235   8.439 -0.2522 -0.3774 -0.8201
   8023SM  H12A10567   6.583   2.275   8.346  1.4941  0.0302 -1.3409
   8023SM  H12B10568   6.553   2.149   8.452 -0.4541 -0.0157  0.7749
   8023SM   C1110569   6.765   2.173   8.423  0.4512 -0.1492  0.3470
   8023SM  H11A10570   6.833   2.261   8.417 -0.5028  0.5693 -0.3004
   8023SM  H11B10571   6.782   2.135   8.320 -0.6748 -0.0565  0.1043
   8023SM     P10572   6.738   1.937   8.537  0.3126 -0.3033 -0.0189
   8023SM   O1310573   6.811   1.874   8.649 -0.8802 -0.2201 -0.1946
   8023SM   O1410574   6.589   1.953   8.547  0.2147 -0.2772  0.6552
   8023SM   O1110575   6.786   1.873   8.398 -0.4957 -0.8199  0.7848
   8023SM   O1210576   6.802   2.080   8.521  0.0948  0.5342  0.5136
   8023SM   C1S10577   6.922   1.882   8.342  0.7132 -0.0626 -0.3761
   8023SM   H1S10578   7.002   1.843   8.409  0.2479  0.9934  0.8544
   8023SM   H1T10579   6.944   1.990   8.324  1.6544 -0.1463  0.1555
   8023SM    NF10580   7.080   1.807   8.173  0.1747 -0.1376 -0.3542
   8023SM   HNF10581   7.114   1.881   8.115  3.8559 -0.0756  1.6119
   8023SM   C2S10582   6.934   1.820   8.204 -0.5497 -0.0405 -0.5815
   8023SM   H2S10583   6.888   1.720   8.219  0.6411 -0.1427  3.5094
   8023SM   C3S10584   6.844   1.905   8.106 -0.5388  0.2117 -0.0793
   8023SM   H3S10585   6.879   2.010   8.118 -0.7648  0.3366 -0.4751
   8023SM    O310586   6.710   1.890   8.141  0.7254 -0.0990  0.0251
   8023SM   HO310587   6.713   1.883   8.237  1.4396 -1.1079 -0.0529
   8023SM   C4S10588   6.845   1.864   7.964  0.1958  0.7444 -0.6128
   8023SM   H4S10589   6.795   1.769   7.939 -2.1082  2.1879 -1.9413
   8023SM   C5S10590   6.919   1.928   7.872  0.3522 -0.0512 -0.1628
   8023SM   H5S10591   6.989   2.007   7.904 -0.1024 -0.0546  0.8752
   8023SM   C6S10592   6.933   1.883   7.726  0.0319 -0.2405 -0.0444
   8023SM   H6S10593   6.895   1.957   7.652  2.5637  2.1373  0.8595
   8023SM   H6T10594   6.880   1.787   7.707 -0.3544  0.1518 -1.0568
   8023SM   C7S10595   7.081   1.853   7.700  1.1560 -0.8221 -0.4987
   8023SM   H7S10596   7.097   1.747   7.730 -1.3123 -0.9264  0.7132
   8023SM   H7T10597   7.139   1.930   7.756 -0.7816  1.5624 -1.6086
   8023SM   C8S10598   7.114   1.867   7.550 -0.7062 -0.4632  0.3161
   8023SM   H8S10599   7.103   1.969   7.510 -1.0165 -0.5281  0.2329
   8023SM   H8T10600   7.038   1.801   7.503  1.5707 -1.6616 -1.9202
   8023SM   C9S10601   7.249   1.805   7.517 -0.5618 -0.1246 -0.6795
   8023SM   H9S10602   7.249   1.719   7.588  0.9593  1.2252  1.0771
   8023SM   H9T10603   7.333   1.871   7.548 -1.3130  0.5717 -0.0788
   8023SM  C10S10604   7.260   1.759   7.372 -0.7037 -0.3660  0.1194
   8023SM  H10S10605   7.192   1.673   7.355 -2.3315  0.7901  0.5827
   8023SM  H10T10606   7.366   1.731   7.356  0.5729  3.5295  0.7377
   8023SM  C11S10607   7.239   1.867   7.266 -0.4313  0.5806 -0.2338
   8023SM  H11S10608   7.307   1.952   7.292 -0.9148  1.0552 -0.4878
   8023SM  H11T10609   7.140   1.919   7.271 -0.3876  0.5996  0.7211
   8023SM  C12S10610   7.262   1.815   7.120 -0.3618 -0.3503  0.0122
   8023SM  H12S10611   7.183   1.741   7.094 -1.5267  0.3796  1.3553
   8023SM  H12T10612   7.364   1.770   7.119 -0.8290 -1.4836  1.0928
   8023SM  C13S10613   7.256   1.923   7.008 -0.3849 -0.2767 -0.5068
   8023SM  H13S10614   7.321   1.880   6.929  0.6715 -0.4100  0.4209
   8023SM  H13T10615   7.299   2.019   7.045 -1.3823 -0.0142  0.0099
   8023SM  C14S10616   7.123   1.947   6.944  0.2436 -0.5163 -0.0037
   8023SM  H14S10617   7.056   1.998   7.017  0.7375 -0.6153  0.5184
   8023SM  H14T10618   7.086   1.850   6.904  1.7729 -1.6614  1.2088
   8023SM  C15S10619   7.136   2.034   6.817 -0.5973 -0.4009  0.5767
   8023SM  H15S10620   7.218   1.986   6.759 -0.3738 -0.9989  1.3656
   8023SM  H15T10621   7.181   2.128   6.855 -1.0154 -0.5949  1.6119
   8023SM  C16S10622   7.027   2.044   6.710  0.1950  0.0931  0.1476
   8023SM  H16S10623   6.944   2.112   6.741  2.7772  3.0293  1.1039
   8023SM  H16T10624   6.989   1.945   6.675  1.7430 -0.1358 -1.0030
   8023SM  C17S10625   7.084   2.098   6.586  0.3373 -0.1171  0.9491
   8023SM  H17S10626   7.152   2.027   6.533  1.5048 -1.3066  3.8490
   8023SM  H17T10627   7.145   2.186   6.614  0.7041 -0.4918  1.3313
   8023SM  C18S10628   6.970   2.154   6.497  0.9055 -0.0736 -0.3226
   8023SM  H18S10629   6.907   2.078   6.445 -1.5879  3.0587 -2.2367
   8023SM  H18T10630   7.006   2.206   6.405  1.5898  2.8054  1.4414
   8023SM  H18U10631   6.891   2.212   6.548 -1.5557 -2.7657 -0.7870
   8023SM   C1F10632   7.160   1.720   8.235  0.1196  0.3265  0.0616
   8023SM    OF10633   7.128   1.651   8.331 -0.3953  0.6863 -0.2274
   8023SM   C2F10634   7.304   1.727   8.184 -0.1117  0.1342  0.0357
   8023SM   H2F10635   7.350   1.631   8.214  0.5787  0.6112  0.5326
   8023SM   H2G10636   7.353   1.808   8.243  2.4881  0.5606 -2.4486
   8023SM   C3F10637   7.312   1.759   8.038 -0.5807 -0.7435 -0.3557
   8023SM   H3F10638   7.272   1.861   8.021  2.2966  0.7179  0.8791
   8023SM   H3G10639   7.258   1.689   7.970 -0.9207  0.3717 -1.2580
   8023SM   C4F10640   7.456   1.762   7.996 -0.3970 -0.0244 -0.4550
   8023SM   H4F10641   7.510   1.671   8.028 -0.8822 -0.0889  0.2036
   8023SM   H4G10642   7.504   1.846   8.051  0.9022 -1.6906  1.0301
   8023SM   C5F10643   7.484   1.780   7.844 -0.3601  0.1313  0.4783
   8023SM   H5F10644   7.431   1.866   7.797  0.7705 -0.2416 -1.6096
   8023SM   H5G10645   7.447   1.689   7.793 -2.7667  1.7684 -0.9627
   8023SM   C6F10646   7.634   1.798   7.812  0.2350 -0.1560  0.3131
   8023SM   H6F10647   7.691   1.714   7.857  0.4801 -0.6777 -0.9350
   8023SM   H6G10648   7.686   1.884   7.860  0.9829 -1.1685  1.3669
   8023SM   C7F10649   7.666   1.802   7.661 -1.0202 -0.2970 -0.1207
   8023SM   H7F10650   7.772   1.834   7.655 -0.9749 -0.5771 -0.8351
   8023SM   H7G10651   7.608   1.882   7.609 -0.1017 -0.0753 -0.8253
   8023SM   C8F10652   7.633   1.682   7.577  0.4122  0.6084  0.3309
   8023SM   H8F10653   7.524   1.667   7.593  0.9565 -2.7473  1.8227
   8023SM   H8G10654   7.687   1.592   7.613  0.3486  0.3801 -0.1429
   8023SM   C9F10655   7.653   1.701   7.428 -0.3000  0.4070  0.3174
   8023SM   H9F10656   7.749   1.753   7.409 -1.1221  1.6743 -0.5310
   8023SM   H9G10657   7.584   1.779   7.388  0.0026 -0.0391 -1.1384
   8023SM  C10F10658   7.632   1.577   7.346  0.0791 -0.0521 -0.1756
   8023SM  H10F10659   7.536   1.528   7.373  0.1277  1.8811  4.5086
   8023SM  H10G10660   7.710   1.502   7.370  0.4740  0.6969  0.9686
   8023SM  C11F10661   7.641   1.605   7.196 -0.5808  0.4898 -0.2710
   8023SM  H11F10662   7.738   1.569   7.156 -0.7020  2.6395 -2.7908
   8023SM  H11G10663   7.645   1.715   7.175  2.7658  0.5833  0.2862
   8023SM  C12F10664   7.541   1.534   7.104  0.8685  0.2221  0.1164
   8023SM  H12F10665   7.440   1.545   7.149  1.0547 -0.2792  0.6738
   8023SM  H12G10666   7.552   1.424   7.110 -0.6412 -0.1168 -2.1912
   8023SM  C13F10667   7.552   1.590   6.967  1.0013 -0.1945  0.9625
   8023SM  H13F10668   7.646   1.563   6.914  1.1081  1.7288  0.0509
   8023SM  H13G10669   7.546   1.701   6.969  2.2618 -0.0467 -0.8239
   8023SM  C14F10670   7.431   1.557   6.877  0.0378  0.1304 -0.5337
   8023SM  H14F10671   7.343   1.586   6.938 -0.5513 -1.2414 -0.6938
   8023SM  H14G10672   7.410   1.450   6.856 -0.4217  0.7155 -3.4411
   8023SM  C15F10673   7.420   1.632   6.747 -0.3493  0.3110  0.6078
   8023SM  H15F10674   7.486   1.577   6.677  0.4507  0.9582  0.8366
   8023SM  H15G10675   7.464   1.733   6.763 -1.1428  1.2867 -2.7073
   8023SM  C16F10676   7.287   1.643   6.689 -0.0599 -0.6387  0.2266
   8023SM  H16F10677   7.211   1.674   6.764 -2.5733 -1.7562 -1.6886
   8023SM  H16G10678   7.255   1.541   6.661 -0.2178 -0.3931 -0.5063
   8023SM  C17F10679   7.294   1.716   6.559  0.9515  0.4430  0.0271
   8023SM  H17F10680   7.386   1.680   6.507  0.8114  0.9710 -0.6108
   8023SM  H17G10681   7.305   1.826   6.566 -0.2991  0.5829  0.0751
   8023SM  C18F10682   7.191   1.678   6.457  0.5014 -0.3185 -0.7643
   8023SM  H18F10683   7.091   1.686   6.505 -0.0728 -0.6835 -1.8583
   8023SM  H18G10684   7.203   1.569   6.441  2.5040 -0.0599 -1.2691
   8023SM  C19F10685   7.193   1.728   6.311 -0.2257 -0.3757 -0.7131
   8023SM  H19F10686   7.156   1.832   6.323 -0.2185 -0.5401  1.0002
   8023SM  H19G10687   7.111   1.684   6.250 -0.5689  0.8718 -1.1873
   8023SM  C20F10688   7.327   1.719   6.236 -0.2887  0.1702 -0.3615
   8023SM  H20F10689   7.370   1.618   6.255  2.0764  1.3863  1.2849
   8023SM  H20G10690   7.402   1.788   6.279 -0.3505 -0.6896  1.2479
   8023SM  C21F10691   7.320   1.732   6.085 -0.3402  0.3541 -0.2345
   8023SM  H21F10692   7.425   1.735   6.048 -0.1457 -1.7488  0.0641
   8023SM  H21G10693   7.277   1.834   6.072 -2.8714 -0.2866  2.1738
   8023SM  C22F10694   7.225   1.632   6.009  0.3834 -0.8212  0.7775
   8023SM  H22F10695   7.119   1.645   6.039  0.3267 -1.3138  0.7897
   8023SM  H22G10696   7.251   1.528   6.038 -0.3062 -1.6792 -1.5337
   8023SM  C23F10697   7.229   1.640   5.858 -0.2998 -0.1273  0.4412
   8023SM  H23F10698   7.166   1.725   5.824  1.3100  1.1421  0.5384
   8023SM  H23G10699   7.188   1.552   5.803 -1.5772  0.2041  0.8324
   8023SM  H23H10700   7.334   1.655   5.828 -0.3805  0.9749  0.6719
   8123SM     N10701   4.572   5.083   3.632  0.4054 -0.2574  0.2959
   8123SM   C1510702   4.517   4.967   3.702  0.4821 -0.7017  0.2640
   8123SM  H15A10703   4.590   4.901   3.747 -1.0343  0.2308  4.5290
   8123SM  H15B10704   4.462   4.908   3.630  0.3034 -0.3400  0.1034
   8123SM  H15C10705   4.438   5.001   3.767  1.6713  0.1738  1.2998
   8123SM   C1410706   4.696   5.042   3.557  0.3735  0.0087  0.7263
   8123SM  H14A10707   4.779   5.016   3.622  3.4743  0.3939 -2.7499
   8123SM  H14B10708   4.731   5.121   3.491 -0.9113 -0.4694 -0.5808
   8123SM  H14C10709   4.674   4.950   3.506  1.4206 -0.1839  0.5921
   8123SM   C1310710   4.473   5.144   3.541  0.5295  0.0226  0.1885
   8123SM  H13A10711   4.508   5.244   3.521  0.1421  0.3737  1.1867
   8123SM  H13B10712   4.379   5.140   3.595  1.8134 -3.1698  2.4613
   8123SM  H13C10713   4.470   5.083   3.452  2.7801 -0.3736  0.3324
   8123SM   C1210714   4.616   5.192   3.726 -0.7288 -0.3894  0.2338
   8123SM  H12A10715   4.642   5.284   3.676 -0.7747  0.6001  1.9640
   8123SM  H12B10716   4.709   5.155   3.766  0.6257 -1.2396 -3.2912
   8123SM   C1110717   4.514   5.236   3.836  0.6861 -0.3347  0.3744
   8123SM  H11A10718   4.565   5.317   3.893  1.8272 -1.1869  0.6185
   8123SM  H11B10719   4.500   5.151   3.906  0.7939 -1.4510 -0.9166
   8123SM     P10720   4.245   5.229   3.815 -0.1630 -0.0302 -0.3084
   8123SM   O1310721   4.148   5.286   3.720  0.0316 -0.5033  0.0143
   8123SM   O1410722   4.244   5.084   3.836 -0.1712  0.4565 -0.3129
   8123SM   O1110723   4.225   5.299   3.951  1.0124 -0.7088 -0.0038
   8123SM   O1210724   4.390   5.286   3.781  0.0377 -0.3823  0.4233
   8123SM   C1S10725   4.213   5.441   3.948 -0.4424 -1.1121 -0.2429
   8123SM   H1S10726   4.129   5.477   3.885 -0.3267 -0.2134  0.1049
   8123SM   H1T10727   4.309   5.485   3.914 -0.1436 -0.2404  1.5894
   8123SM    NF10728   4.189   5.637   4.076 -0.2924 -0.4665  0.0600
   8123SM   HNF10729   4.251   5.694   4.129 -0.6422 -0.3949  0.4002
   8123SM   C2S10730   4.191   5.492   4.091 -0.7939 -0.0561 -0.3053
   8123SM   H2S10731   4.088   5.459   4.115 -0.3604 -1.4099 -0.2135
   8123SM   C3S10732   4.287   5.441   4.204  0.0574  0.1961  0.5123
   8123SM   H3S10733   4.381   5.471   4.153 -0.8218 -2.3194 -2.9402
   8123SM    O310734   4.283   5.300   4.232  0.4201 -0.0961  0.1700
   8123SM   HO310735   4.268   5.261   4.146 -1.7446 -0.5895  0.7317
   8123SM   C4S10736   4.265   5.503   4.338 -1.0282  0.4561  0.2129
   8123SM   H4S10737   4.161   5.502   4.372 -0.9694  4.3274  1.0657
   8123SM   C5S10738   4.361   5.562   4.410 -0.3059 -0.4014 -0.7178
   8123SM   H5S10739   4.461   5.547   4.365 -0.8442 -0.4037 -1.9729
   8123SM   C6S10740   4.349   5.638   4.540 -0.0875  0.1136 -0.1549
   8123SM   H6S10741   4.245   5.638   4.577  0.0145  0.1003  0.1383
   8123SM   H6T10742   4.382   5.744   4.538  3.1184 -0.7194  1.5009
   8123SM   C7S10743   4.440   5.576   4.647 -0.0758  0.3122 -0.0123
   8123SM   H7S10744   4.548   5.567   4.621 -0.4834  0.2676 -1.7744
   8123SM   H7T10745   4.421   5.467   4.658  1.8712 -0.0429  0.1003
   8123SM   C8S10746   4.430   5.649   4.779 -0.1698 -0.2367 -0.1152
   8123SM   H8S10747   4.386   5.749   4.761 -0.1217 -0.6958 -3.3484
   8123SM   H8T10748   4.530   5.669   4.822 -1.0398 -0.3116  2.0468
   8123SM   C9S10749   4.349   5.577   4.888 -0.5491  0.3480  0.2367
   8123SM   H9S10750   4.412   5.490   4.915  0.2736  0.2955 -1.6867
   8123SM   H9T10751   4.255   5.543   4.841 -0.5167 -0.8112  0.9751
   8123SM  C10S10752   4.337   5.645   5.022 -0.9308 -0.2531 -0.7616
   8123SM  H10S10753   4.296   5.748   5.012 -0.7850 -0.2079 -0.9129
   8123SM  H10T10754   4.440   5.662   5.060 -0.8858  3.2923 -2.1133
   8123SM  C11S10755   4.260   5.561   5.124  0.0217 -0.0646 -0.2118
   8123SM  H11S10756   4.305   5.459   5.125  0.8467  0.2960 -0.4660
   8123SM  H11T10757   4.160   5.541   5.079 -0.5997  0.3028  0.9718
   8123SM  C12S10758   4.257   5.616   5.268 -0.4771  0.3057 -0.3175
   8123SM  H12S10759   4.231   5.724   5.261 -0.4728  0.3013 -0.4142
   8123SM  H12T10760   4.362   5.618   5.304 -0.3865  0.8455 -0.6092
   8123SM  C13S10761   4.167   5.539   5.366 -0.7601  0.7313  0.4327
   8123SM  H13S10762   4.202   5.434   5.381  1.6949  1.5420  0.7628
   8123SM  H13T10763   4.066   5.546   5.321 -0.8697  1.3825  0.7773
   8123SM  C14S10764   4.164   5.598   5.512  0.0149  0.2941  0.6425
   8123SM  H14S10765   4.100   5.688   5.516 -2.9784 -1.6458  0.0547
   8123SM  H14T10766   4.271   5.622   5.531  0.1912  0.5246 -0.5330
   8123SM  C15S10767   4.109   5.508   5.622 -0.8096  0.2842  0.6304
   8123SM  H15S10768   4.151   5.405   5.621  2.4868  1.4349 -2.5408
   8123SM  H15T10769   4.001   5.493   5.600 -0.9544  2.8500 -0.8153
   8123SM  C16S10770   4.142   5.569   5.759  0.4544  0.1500 -0.1126
   8123SM  H16S10771   4.150   5.679   5.744  0.7951 -0.1671 -2.8587
   8123SM  H16T10772   4.238   5.532   5.799  1.4157  1.7462 -0.8233
   8123SM  C17S10773   4.034   5.529   5.860  0.2493  0.0808  0.5192
   8123SM  H17S10774   4.046   5.422   5.888 -0.8107  0.5948  3.2024
   8123SM  H17T10775   3.936   5.543   5.810 -0.1228 -1.5065  0.7556
   8123SM  C18S10776   4.049   5.618   5.979 -0.6266  0.1738  0.1572
   8123SM  H18S10777   4.023   5.721   5.946 -1.8709 -1.3574 -4.2220
   8123SM  H18T10778   4.153   5.614   6.017 -0.9320 -1.0364  0.9299
   8123SM  H18U10779   3.981   5.589   6.063 -2.0579 -1.0029 -1.3339
   8123SM   C1F10780   4.086   5.701   4.018  0.2209  0.1373 -0.6606
   8123SM    OF10781   3.978   5.646   3.998  0.0384  0.4497  0.3677
   8123SM   C2F10782   4.109   5.851   3.990 -0.5257 -0.7347  0.0108
   8123SM   H2F10783   4.047   5.882   3.903 -2.3956 -1.6700  0.9467
   8123SM   H2G10784   4.219   5.862   3.976 -0.5392  0.3298  0.6320
   8123SM   C3F10785   4.059   5.933   4.113  0.2766 -0.0861 -0.0112
   8123SM   H3F10786   3.956   5.913   4.148  1.0922  0.7713  3.2629
   8123SM   H3G10787   4.071   6.038   4.079 -0.0257 -0.2357 -0.5850
   8123SM   C4F10788   4.144   5.914   4.236 -0.6102  0.2523 -0.7378
   8123SM   H4F10789   4.244   5.962   4.223 -0.4941  0.0368 -0.6538
   8123SM   H4G10790   4.154   5.805   4.257 -0.1415 -0.3899 -3.8088
   8123SM   C5F10791   4.093   5.978   4.368  0.7951 -1.5875  0.2887
   8123SM   H5F10792   3.988   5.943   4.378 -0.3832  0.5124 -3.1991
   8123SM   H5G10793   4.081   6.087   4.350  3.6331 -1.1817  0.4572
   8123SM   C6F10794   4.169   5.951   4.495 -0.4338  0.5346 -0.0596
   8123SM   H6F10795   4.278   5.972   4.487 -0.8836  2.7022 -1.4524
   8123SM   H6G10796   4.156   5.842   4.512 -4.4600  0.5505 -1.9270
   8123SM   C7F10797   4.110   6.019   4.616  0.8388  0.4971  0.6677
   8123SM   H7F10798   4.010   5.972   4.628 -0.3852  2.0461 -2.3306
   8123SM   H7G10799   4.091   6.124   4.585 -1.4389 -0.4669 -1.5885
   8123SM   C8F10800   4.166   6.009   4.755  0.2442 -0.5222  0.1563
   8123SM   H8F10801   4.251   6.080   4.752  0.4951 -0.7485  1.2433
   8123SM   H8G10802   4.206   5.906   4.760  0.7870 -0.4608 -2.0176
   8123SM   C9F10803   4.072   6.052   4.870  0.1509  0.2472 -0.3260
   8123SM   H9F10804   3.979   5.992   4.870  1.5229 -2.0494  0.6262
   8123SM   H9G10805   4.052   6.160   4.856  0.3659  0.0465 -2.6186
   8123SM  C10F10806   4.144   6.012   5.004  0.5579 -0.4892  0.1897
   8123SM  H10F10807   4.249   6.048   4.997  0.4001  0.3163  1.5601
   8123SM  H10G10808   4.127   5.904   5.022 -0.5905 -0.2977  0.3250
   8123SM  C11F10809   4.088   6.078   5.130  0.2821  0.2245 -0.8496
   8123SM  H11F10810   3.980   6.057   5.146  0.7296 -1.7851 -0.1773
   8123SM  H11G10811   4.097   6.188   5.118  1.7130 -0.0526 -2.9228
   8123SM  C12F10812   4.165   6.045   5.262  0.0010 -0.1597 -0.4367
   8123SM  H12F10813   4.259   6.102   5.255  0.8453 -1.5754 -1.1332
   8123SM  H12G10814   4.174   5.934   5.258  2.0338 -0.0289 -0.2618
   8123SM  C13F10815   4.087   6.090   5.389 -0.5856  0.0999 -0.1085
   8123SM  H13F10816   3.993   6.031   5.387  0.5292 -1.7968 -2.9414
   8123SM  H13G10817   4.067   6.199   5.387  1.4573  0.6138  2.2223
   8123SM  C14F10818   4.168   6.065   5.519  0.5951  0.3524  0.0322
   8123SM  H14F10819   4.270   6.109   5.510  1.3155 -1.4306 -1.1813
   8123SM  H14G10820   4.176   5.954   5.528 -1.0072  0.2191  0.0729
   8123SM  C15F10821   4.092   6.125   5.637 -0.0578 -0.5365  0.3261
   8123SM  H15F10822   3.983   6.110   5.624 -0.7187  2.0118  2.0599
   8123SM  H15G10823   4.108   6.235   5.639 -0.1474 -0.5208  0.2100
   8123SM  C16F10824   4.136   6.085   5.775  0.7627  0.0285  0.7070
   8123SM  H16F10825   4.125   5.977   5.801  0.8437 -0.6678 -1.9268
   8123SM  H16G10826   4.077   6.132   5.857 -0.7890 -2.1015  0.8919
   8123SM  C17F10827   4.282   6.115   5.802  0.0320 -0.3677  0.4550
   8123SM  H17F10828   4.282   6.226   5.802  2.4831 -0.3258  0.5616
   8123SM  H17G10829   4.345   6.072   5.722  2.1056 -0.5315  2.1145
   8123SM  C18F10830   4.330   6.075   5.945  0.0271  0.2128  0.5059
   8123SM  H18F10831   4.322   5.966   5.961 -1.7492  0.1460 -0.5003
   8123SM  H18G10832   4.244   6.108   6.008  0.7142  1.8919  0.6391
   8123SM  C19F10833   4.462   6.135   5.996  0.0213  0.2924 -0.0473
   8123SM  H19F10834   4.458   6.108   6.104  1.7751  1.1232  0.2710
   8123SM  H19G10835   4.466   6.246   5.985  1.6752  0.2333 -0.3263
   8123SM  C20F10836   4.588   6.061   5.958 -0.1023  0.0996 -0.3516
   8123SM  H20F10837   4.609   6.085   5.851  0.8895 -1.3557 -0.5089
   8123SM  H20G10838   4.587   5.951   5.970 -1.0642  0.3406  2.3250
   8123SM  C21F10839   4.714   6.101   6.028 -0.4120  0.0188 -0.7762
   8123SM  H21F10840   4.695   6.119   6.136 -0.6686 -1.9581 -0.4459
   8123SM  H21G10841   4.753   6.199   5.994  2.0161 -0.1348  1.2962
   8123SM  C22F10842   4.818   5.987   6.003 -0.1219 -0.3335 -0.3592
   8123SM  H22F10843   4.917   6.036   6.016 -0.4483  0.0509  0.7839
   8123SM  H22G10844   4.822   5.960   5.895  0.3223 -1.1166 -0.1606
   8123SM  C23F10845   4.811   5.870   6.099  0.0677  0.0389 -0.2335
   8123SM  H23F10846   4.736   5.795   6.068 -2.0523  1.5183  1.0412
   8123SM  H23G10847   4.776   5.902   6.199  0.5165 -0.5965  0.1323
   8123SM  H23H10848   4.913   5.829   6.112 -0.4589 -1.1754  0.1575
   8223SM     N10849   3.636   6.211   3.276 -0.0177  0.1296  0.2169
   8223SM   C1510850   3.493   6.266   3.316 -0.6833 -0.3205  0.2126
   8223SM  H15A10851   3.458   6.210   3.401 -1.3134  0.3197  0.3920
   8223SM  H15B10852   3.417   6.244   3.243  0.1814  0.2942 -0.8947
   8223SM  H15C10853   3.494   6.373   3.333  0.7460 -0.5167  1.6344
   8223SM   C1410854   3.613   6.062   3.250  0.1740 -0.0886  0.7282
   8223SM  H14A10855   3.700   6.005   3.222 -0.2784 -0.5084  0.1661
   8223SM  H14B10856   3.534   6.053   3.177 -0.1979  3.7118  0.4751
   8223SM  H14C10857   3.580   6.035   3.349 -1.0391  1.5447  0.8146
   8223SM   C1310858   3.688   6.286   3.154 -0.1862 -0.2181  0.0376
   8223SM  H13A10859   3.782   6.244   3.121 -0.1814 -0.3321  0.1934
   8223SM  H13B10860   3.699   6.389   3.182 -0.8955  0.1393 -0.9566
   8223SM  H13C10861   3.604   6.279   3.086  0.9991 -0.1384 -1.4869
   8223SM   C1210862   3.720   6.225   3.403  0.1877 -0.2569  0.3709
   8223SM  H12A10863   3.664   6.184   3.486  1.9291 -1.8916  0.8080
   8223SM  H12B10864   3.729   6.332   3.419  0.0653 -0.3027  0.7609
   8223SM   C1110865   3.858   6.155   3.403  0.6488 -0.2821 -0.6988
   8223SM  H11A10866   3.852   6.047   3.377  0.4868 -0.1192 -1.3571
   8223SM  H11B10867   3.887   6.153   3.510 -1.0745  0.3682 -0.1904
   8223SM     P10868   4.000   6.375   3.362 -0.0344 -0.3141  0.2286
   8223SM   O1310869   4.091   6.419   3.252 -0.2871 -0.0779  0.6406
   8223SM   O1410870   3.879   6.461   3.394  0.2230  0.5559  0.2470
   8223SM   O1110871   4.078   6.348   3.494  0.5877 -0.3633 -0.0540
   8223SM   O1210872   3.954   6.227   3.330  0.4160 -0.1372  0.1148
   8223SM   C1S10873   4.042   6.380   3.627 -0.1115  0.0014 -0.4485
   8223SM   H1S10874   3.936   6.354   3.649  0.0260  0.1605  0.4282
   8223SM   H1T10875   4.039   6.491   3.635  0.1774  0.1309 -1.8580
   8223SM    NF10876   4.073   6.313   3.868 -0.2880 -0.0254  0.4873
   8223SM   HNF10877   4.100   6.387   3.929 -1.0275 -0.0330  0.8326
   8223SM   C2S10878   4.131   6.310   3.734 -0.6247 -0.6989 -0.1503
   8223SM   H2S10879   4.122   6.204   3.704 -0.0234 -1.4227  2.0265
   8223SM   C3S10880   4.275   6.352   3.727  0.1628  0.1019 -0.2554
   8223SM   H3S10881   4.275   6.456   3.766 -0.8373 -0.4290  1.2384
   8223SM    O310882   4.341   6.332   3.604 -0.1335 -0.3242  0.4252
   8223SM   HO310883   4.275   6.290   3.549  0.3694 -1.8501  0.9216
   8223SM   C4S10884   4.346   6.280   3.839 -0.7875 -0.0540  0.3168
   8223SM   H4S10885   4.367   6.346   3.924  0.0298 -0.4772  0.4524
   8223SM   C5S10886   4.389   6.152   3.851  0.3968 -0.0751  0.3399
   8223SM   H5S10887   4.349   6.090   3.769 -1.3448  2.0779 -0.5487
   8223SM   C6S10888   4.454   6.090   3.973 -0.0375  0.1892  0.3229
   8223SM   H6S10889   4.561   6.076   3.947 -0.5191 -1.5384 -0.9066
   8223SM   H6T10890   4.403   5.993   3.991  0.8968 -0.5514 -0.8435
   8223SM   C7S10891   4.438   6.168   4.103  0.1066  0.4293  0.2069
   8223SM   H7S10892   4.330   6.181   4.125 -0.5268 -0.2064 -2.1719
   8223SM   H7T10893   4.478   6.272   4.111 -0.1581  0.4907  0.7217
   8223SM   C8S10894   4.509   6.098   4.221 -0.1124 -0.4595 -0.2151
   8223SM   H8S10895   4.616   6.117   4.201 -0.3620  2.9266  1.0416
   8223SM   H8T10896   4.488   5.988   4.218 -0.2279 -0.4400 -0.1378
   8223SM   C9S10897   4.489   6.153   4.364  0.0871 -0.4418  0.2005
   8223SM   H9S10898   4.379   6.151   4.380  0.0396 -2.7282 -0.0232
   8223SM   H9T10899   4.532   6.255   4.374 -1.0109 -0.0253  0.9186
   8223SM  C10S10900   4.551   6.065   4.478  0.1000 -0.3822  1.0770
   8223SM  H10S10901   4.661   6.073   4.474 -0.0713  2.3017 -0.6115
   8223SM  H10T10902   4.515   5.960   4.462  1.9031 -0.6798 -1.4642
   8223SM  C11S10903   4.514   6.114   4.618 -0.2522 -0.6269 -0.8136
   8223SM  H11S10904   4.405   6.123   4.635 -0.3781 -1.7954 -0.9455
   8223SM  H11T10905   4.560   6.215   4.623 -0.6137 -0.4912 -0.1905
   8223SM  C12S10906   4.576   6.021   4.733 -0.7301 -0.1053  0.2099
   8223SM  H12S10907   4.688   6.019   4.734 -0.5958 -1.0458 -3.3170
   8223SM  H12T10908   4.545   5.916   4.718  2.5678 -1.4113  1.6167
   8223SM  C13S10909   4.529   6.059   4.872 -0.2993  0.4306 -0.0798
   8223SM  H13S10910   4.418   6.064   4.874 -0.3312  0.1749 -0.7680
   8223SM  H13T10911   4.562   6.160   4.904 -1.7793  0.7462  0.5207
   8223SM  C14S10912   4.574   5.952   4.971  0.2072  0.1511  0.0506
   8223SM  H14S10913   4.684   5.938   4.981  0.6638  2.9504 -0.1218
   8223SM  H14T10914   4.529   5.859   4.931 -0.0366  0.3837 -0.2185
   8223SM  C15S10915   4.525   5.978   5.115  0.5447  0.1702  0.6025
   8223SM  H15S10916   4.416   5.954   5.123  0.9117 -1.9169 -0.2283
   8223SM  H15T10917   4.540   6.086   5.138 -4.0203  1.1631  0.0498
   8223SM  C16S10918   4.597   5.879   5.212 -0.7603 -0.1449  0.6010
   8223SM  H16S10919   4.705   5.903   5.203 -0.6035 -0.7522  0.7766
   8223SM  H16T10920   4.586   5.772   5.185  1.2445 -0.5488  1.2200
   8223SM  C17S10921   4.553   5.891   5.360  0.3913  0.6113 -0.5468
   8223SM  H17S10922   4.635   5.843   5.416 -1.4818 -2.3696 -0.1417
   8223SM  H17T10923   4.457   5.841   5.384 -0.1333  1.6432 -0.4376
   8223SM  C18S10924   4.548   6.041   5.405 -0.2994 -0.3338  0.0078
   8223SM  H18S10925   4.517   6.051   5.511  0.1235  3.3494 -0.0732
   8223SM  H18T10926   4.476   6.104   5.348  0.3537 -0.0354 -0.5040
   8223SM  H18U10927   4.649   6.085   5.393  0.9453 -2.7395  1.0993
   8223SM   C1F10928   3.953   6.256   3.889  0.3790  0.3154 -0.0971
   8223SM    OF10929   3.908   6.172   3.810 -0.1892 -0.2593 -0.0119
   8223SM   C2F10930   3.890   6.275   4.021 -0.5418 -0.7191  0.2747
   8223SM   H2F10931   3.862   6.381   4.035  2.4668  0.3036 -0.6752
   8223SM   H2G10932   3.955   6.268   4.111  0.0224  2.4457  0.2379
   8223SM   C3F10933   3.760   6.192   4.042  0.2836 -0.6057 -0.0336
   8223SM   H3F10934   3.776   6.082   4.045  3.3068 -0.3530 -2.2478
   8223SM   H3G10935   3.689   6.216   3.960 -0.6127  0.6738  1.0658
   8223SM   C4F10936   3.686   6.253   4.158 -0.0764 -0.6404 -0.2240
   8223SM   H4F10937   3.598   6.190   4.184  0.5785 -1.0067  1.1889
   8223SM   H4G10938   3.655   6.359   4.145 -0.3036 -0.6821 -0.0319
   8223SM   C5F10939   3.766   6.240   4.284 -0.2129  0.4428  0.5770
   8223SM   H5F10940   3.850   6.313   4.288  0.4640 -0.1928 -1.1995
   8223SM   H5G10941   3.823   6.145   4.283  1.0042  1.1162  1.6490
   8223SM   C6F10942   3.670   6.252   4.406  0.2896 -0.0047 -0.0410
   8223SM   H6F10943   3.622   6.152   4.409 -0.9291  0.5797  2.0332
   8223SM   H6G10944   3.595   6.334   4.401  0.9853  0.6193 -0.5097
   8223SM   C7F10945   3.757   6.268   4.533 -0.4951  0.5920 -0.0050
   8223SM   H7F10946   3.826   6.353   4.514 -1.2899  1.1421 -0.5335
   8223SM   H7G10947   3.826   6.182   4.542  0.4155  1.4492  1.6939
   8223SM   C8F10948   3.678   6.281   4.660  0.5788  0.0091  0.2402
   8223SM   H8F10949   3.608   6.195   4.668 -0.2410  0.6340 -0.1047
   8223SM   H8G10950   3.609   6.368   4.663  0.9260  0.3706 -1.1970
   8223SM   C9F10951   3.759   6.290   4.789  0.3740 -0.2681 -0.6768
   8223SM   H9F10952   3.821   6.382   4.779  0.7922 -0.5944 -1.0832
   8223SM   H9G10953   3.829   6.205   4.803  1.2238  0.7198  1.6014
   8223SM  C10F10954   3.673   6.299   4.917  0.2393 -0.9978  0.4043
   8223SM  H10F10955   3.595   6.219   4.917 -1.5642  0.6747 -1.0676
   8223SM  H10G10956   3.629   6.401   4.920  2.4619  0.0623 -0.8640
   8223SM  C11F10957   3.765   6.283   5.034 -0.1242  0.0922  0.1352
   8223SM  H11F10958   3.837   6.366   5.019 -0.3625  0.2338 -0.2569
   8223SM  H11G10959   3.817   6.185   5.029 -1.1554 -0.3977 -2.5952
   8223SM  C12F10960   3.698   6.304   5.173  0.5019  0.4781 -0.1946
   8223SM  H12F10961   3.624   6.222   5.187 -0.4571  1.6538  2.1752
   8223SM  H12G10962   3.633   6.394   5.165  0.1334  0.0873 -1.9465
   8223SM  C13F10963   3.789   6.314   5.296 -0.5552  0.0697  0.4788
   8223SM  H13F10964   3.879   6.379   5.285  1.1477 -2.2704 -0.0960
   8223SM  H13G10965   3.830   6.214   5.319  0.7558  0.8985  1.9334
   8223SM  C14F10966   3.722   6.365   5.427 -0.2820  0.7728  0.0892
   8223SM  H14F10967   3.657   6.284   5.466  1.8867 -1.4141 -0.5484
   8223SM  H14G10968   3.664   6.458   5.410  2.0649  1.9322 -2.3664
   8223SM  C15F10969   3.823   6.394   5.536  0.2712 -0.3388  0.7654
   8223SM  H15F10970   3.880   6.482   5.500 -1.6242  0.2204 -1.0262
   8223SM  H15G10971   3.890   6.306   5.551  1.6935  0.7204  0.8375
   8223SM  C16F10972   3.777   6.425   5.677  0.1798 -0.6628 -0.4117
   8223SM  H16F10973   3.723   6.333   5.707 -0.7807 -0.3523 -1.1109
   8223SM  H16G10974   3.712   6.516   5.669  0.1679 -0.2705  2.8067
   8223SM  C17F10975   3.890   6.456   5.772  0.5646  0.7431 -0.3233
   8223SM  H17F10976   3.969   6.512   5.719 -0.1531  1.8574 -0.2382
   8223SM  H17G10977   3.928   6.356   5.802 -0.2266  0.1132 -1.3332
   8223SM  C18F10978   3.840   6.519   5.899  0.2908 -0.3848 -0.4430
   8223SM  H18F10979   3.775   6.450   5.958  0.4256 -0.6594 -0.6111
   8223SM  H18G10980   3.783   6.613   5.884  1.3434  0.2869 -0.3642
   8223SM  C19F10981   3.964   6.552   5.988 -0.0657  0.0466  0.2584
   8223SM  H19F10982   4.039   6.470   5.994  0.4158  0.2673 -2.0009
   8223SM  H19G10983   3.932   6.557   6.094  0.5288 -0.3147  0.4648
   8223SM  C20F10984   4.026   6.686   5.942 -0.3470  0.3772 -0.5591
   8223SM  H20F10985   3.949   6.765   5.928 -0.9458 -0.1494 -0.3001
   8223SM  H20G10986   4.077   6.677   5.844 -1.0901 -0.8777 -0.8412
   8223SM  C21F10987   4.120   6.747   6.052 -0.6947 -0.9299  0.0536
   8223SM  H21F10988   4.221   6.699   6.050  2.0352  4.0268 -3.2304
   8223SM  H21G10989   4.080   6.721   6.152 -2.2456 -1.3461 -0.6542
   8223SM  C22F10990   4.128   6.897   6.037 -0.2838 -0.2141 -0.2853
   8223SM  H22F10991   4.037   6.942   6.082 -0.5099 -0.0542 -0.8957
   8223SM  H22G10992   4.126   6.921   5.929  1.1013  0.7080 -0.1319
   8223SM  C23F10993   4.251   6.952   6.097 -1.1817  0.5051  0.3344
   8223SM  H23F10994   4.344   6.916   6.048 -1.3972  2.3483 -1.6067
   8223SM  H23G10995   4.248   6.921   6.204 -0.1155 -1.7146 -0.2219
   8223SM  H23H10996   4.252   7.063   6.105 -0.2648  0.5260  0.0536
   8323SM     N10997   4.779   5.914   3.398 -0.8470  0.3849  0.3408
   8323SM   C1510998   4.787   6.051   3.335 -0.7390  0.0533  0.1740
   8323SM  H15A10999   4.888   6.090   3.326  0.0431 -1.7160  0.8001
   8323SM  H15B11000   4.739   6.124   3.398 -1.1044 -0.7671  0.8628
   8323SM  H15C11001   4.743   6.052   3.237  1.1914  2.0378 -0.7719
   8323SM   C1411002   4.876   5.825   3.322 -0.4434  0.6437  0.4295
   8323SM  H14A11003   4.887   5.726   3.362  1.5945  1.2457  1.5085
   8323SM  H14B11004   4.976   5.866   3.326  0.6780 -1.9752  0.8842
   8323SM  H14C11005   4.841   5.802   3.222 -0.2295 -0.0619  0.5143
   8323SM   C1311006   4.830   5.934   3.533  1.1833 -0.4059 -0.4851
   8323SM  H13A11007   4.770   6.003   3.591  1.2706 -1.8208  1.3954
   8323SM  H13B11008   4.934   5.962   3.539  1.0970 -0.3945  1.3305
   8323SM  H13C11009   4.809   5.845   3.591  1.9885  2.2336  4.3820
   8323SM   C1211010   4.638   5.852   3.408 -0.1353  0.4112  0.4167
   8323SM  H12A11011   4.598   5.847   3.308  2.2101  1.0675 -0.6360
   8323SM  H12B11012   4.575   5.922   3.461 -0.8958 -0.5909  0.8469
   8323SM   C1111013   4.626   5.718   3.476 -0.2503  0.1467  0.3180
   8323SM  H11A11014   4.701   5.654   3.425  2.9767  3.2122  0.7882
   8323SM  H11B11015   4.528   5.676   3.445  0.4424 -0.8139 -0.6568
   8323SM     P11016   4.546   5.790   3.704 -0.0013 -0.1696 -0.6024
   8323SM   O1311017   4.562   5.933   3.683 -0.1239  0.1223 -0.2093
   8323SM   O1411018   4.414   5.727   3.683 -0.4154 -0.4021 -0.3479
   8323SM   O1111019   4.594   5.757   3.846 -0.4299  0.5101  0.1737
   8323SM   O1211020   4.650   5.714   3.613  0.0519 -0.1816 -0.1166
   8323SM   C1S11021   4.703   5.674   3.877  0.2745  0.3205 -0.6652
   8323SM   H1S11022   4.788   5.684   3.806  0.7080 -1.2417 -0.4119
   8323SM   H1T11023   4.671   5.568   3.864  0.9785  0.2593 -2.0727
   8323SM    NF11024   4.884   5.613   4.049  0.2055 -0.1780 -0.1714
   8323SM   HNF11025   4.870   5.526   4.096 -0.9092 -0.6966 -1.4078
   8323SM   C2S11026   4.756   5.690   4.026 -0.4122  0.4132 -0.0225
   8323SM   H2S11027   4.777   5.798   4.039  0.8930  0.3258 -1.1342
   8323SM   C3S11028   4.651   5.649   4.137  0.9517  0.0743  0.6679
   8323SM   H3S11029   4.655   5.538   4.144  1.0845 -0.0961 -1.4458
   8323SM    O311030   4.522   5.698   4.100  0.4152 -0.3370  0.6354
   8323SM   HO311031   4.540   5.724   4.010  0.3243 -1.4381  0.2780
   8323SM   C4S11032   4.686   5.718   4.266 -0.5596  0.1591  0.5278
   8323SM   H4S11033   4.686   5.828   4.263 -2.1658  0.2457  1.8292
   8323SM   C5S11034   4.728   5.648   4.373  0.0596  0.3316  0.4611
   8323SM   H5S11035   4.733   5.539   4.360 -1.6827  0.4015 -1.3206
   8323SM   C6S11036   4.773   5.715   4.505 -0.4687 -0.8289 -0.5100
   8323SM   H6S11037   4.715   5.659   4.581 -1.5435  1.9087  0.8401
   8323SM   H6T11038   4.739   5.821   4.503  3.1560  0.5477  1.4556
   8323SM   C7S11039   4.920   5.694   4.530 -0.3844 -0.9571  0.6097
   8323SM   H7S11040   4.984   5.718   4.442 -1.5590  0.5659  0.1386
   8323SM   H7T11041   4.945   5.591   4.565 -1.7541 -0.9381  1.7277
   8323SM   C8S11042   4.962   5.778   4.645 -0.0889 -0.7537 -0.2961
   8323SM   H8S11043   4.945   5.882   4.609  0.8635 -0.1375  0.9692
   8323SM   H8T11044   5.071   5.769   4.663  0.1511  1.6549 -0.1480
   8323SM   C9S11045   4.904   5.740   4.774  0.5899  0.0057  0.4015
   8323SM   H9S11046   4.929   5.635   4.797 -1.2504 -0.5293  0.0877
   8323SM   H9T11047   4.794   5.747   4.777  0.4421 -1.7562 -0.2468
   8323SM  C10S11048   4.950   5.829   4.895  0.2680 -0.1579  0.0829
   8323SM  H10S11049   4.897   5.926   4.892  0.8164  0.1770  0.7978
   8323SM  H10T11050   5.059   5.836   4.872 -0.1997  0.4572 -2.2177
   8323SM  C11S11051   4.935   5.762   5.029 -0.7639  0.4257 -0.3008
   8323SM  H11S11052   4.977   5.659   5.022  1.3128  1.2481 -0.5183
   8323SM  H11T11053   4.828   5.751   5.058 -1.1641 -0.5563 -2.0150
   8323SM  C12S11054   5.007   5.833   5.144 -0.2260  0.5986  0.3204
   8323SM  H12S11055   4.981   5.941   5.139  0.6860  1.0888  3.5410
   8323SM  H12T11056   5.116   5.837   5.125 -0.3231  2.0112 -0.0680
   8323SM  C13S11057   4.978   5.772   5.279 -0.6039 -0.6837  0.3500
   8323SM  H13S11058   4.992   5.662   5.278 -1.0083 -0.7343 -0.8734
   8323SM  H13T11059   4.874   5.789   5.313  0.1284  0.1060  2.3822
   8323SM  C14S11060   5.063   5.831   5.391 -0.1381 -0.6757 -0.3331
   8323SM  H14S11061   5.094   5.936   5.375  1.2841 -0.8996  0.7593
   8323SM  H14T11062   5.154   5.768   5.405 -0.1726 -1.1633 -2.0230
   8323SM  C15S11063   4.982   5.839   5.520 -0.1162 -0.1640 -0.3022
   8323SM  H15S11064   4.941   5.742   5.555  1.6747 -0.8110  0.1528
   8323SM  H15T11065   4.890   5.898   5.500  0.1744  0.7777  0.9852
   8323SM  C16S11066   5.058   5.900   5.642  0.6562 -0.8855  0.1597
   8323SM  H16S11067   4.985   5.902   5.726 -1.9431  1.6969 -1.9241
   8323SM  H16T11068   5.088   6.004   5.617 -0.3089 -0.6624 -0.1200
   8323SM  C17S11069   5.185   5.828   5.683 -0.3220 -0.1721 -0.0496
   8323SM  H17S11070   5.262   5.847   5.605 -0.1079  1.7759  0.5765
   8323SM  H17T11071   5.160   5.720   5.683  0.5236 -0.4311 -2.2378
   8323SM  C18S11072   5.232   5.880   5.821 -0.2002  0.8511  0.2836
   8323SM  H18S11073   5.176   5.843   5.910  0.6336  3.1105  1.8227
   8323SM  H18T11074   5.221   5.990   5.825 -0.6895  0.7802  1.0447
   8323SM  H18U11075   5.339   5.856   5.837  0.4949  3.5239  0.1296
   8323SM   C1F11076   4.995   5.629   3.984  0.8118 -0.3963 -0.2280
   8323SM    OF11077   5.013   5.721   3.904 -0.2945 -0.3891 -0.1849
   8323SM   C2F11078   5.098   5.527   4.029  0.0688  0.4540 -0.0263
   8323SM   H2F11079   5.191   5.535   3.968  0.7609  2.2001  1.1719
   8323SM   H2G11080   5.056   5.428   4.003  0.8404 -0.5424  2.2319
   8323SM   C3F11081   5.120   5.531   4.183 -0.2476  0.3190 -0.0819
   8323SM   H3F11082   5.022   5.553   4.231 -0.5806 -0.3361 -0.4567
   8323SM   H3G11083   5.183   5.619   4.208 -0.4287  0.3841  0.1480
   8323SM   C4F11084   5.181   5.400   4.231 -0.5709 -0.2487  0.7489
   8323SM   H4F11085   5.284   5.381   4.195 -1.2353 -2.9654  0.0683
   8323SM   H4G11086   5.123   5.322   4.178 -1.7038  2.5680 -2.4932
   8323SM   C5F11087   5.180   5.385   4.387  0.2219  0.0901  1.3133
   8323SM   H5F11088   5.210   5.282   4.414 -0.4169 -0.6755 -0.7180
   8323SM   H5G11089   5.072   5.384   4.414 -0.3425  2.3934 -0.4675
   8323SM   C6F11090   5.268   5.482   4.459 -0.2616  0.2581 -0.0461
   8323SM   H6F11091   5.205   5.574   4.466  0.1639  0.4522  1.5610
   8323SM   H6G11092   5.362   5.500   4.403 -0.1181  0.3115  0.2117
   8323SM   C7F11093   5.301   5.435   4.599  0.7093  0.1474 -0.4710
   8323SM   H7F11094   5.370   5.503   4.653  0.1429 -0.5386  1.1761
   8323SM   H7G11095   5.350   5.336   4.603  0.2899 -0.0444  0.0157
   8323SM   C8F11096   5.180   5.427   4.708 -0.0127 -0.0404 -0.4026
   8323SM   H8F11097   5.121   5.337   4.681  0.0091 -0.2311  0.1715
   8323SM   H8G11098   5.112   5.514   4.697 -0.4663 -0.5043 -1.3804
   8323SM   C9F11099   5.207   5.416   4.864 -0.2218 -0.7734  0.5278
   8323SM   H9F11100   5.286   5.340   4.883  2.1284  1.8792  2.1812
   8323SM   H9G11101   5.108   5.379   4.895 -0.4191 -0.2400  0.5506
   8323SM  C10F11102   5.234   5.548   4.931 -0.2600 -0.1309  0.2045
   8323SM  H10F11103   5.167   5.629   4.896  1.0415  0.9690  0.1785
   8323SM  H10G11104   5.333   5.598   4.922 -1.0202  1.2333 -0.8464
   8323SM  C11F11105   5.223   5.546   5.085  0.3164 -0.6457  0.1383
   8323SM  H11F11106   5.121   5.526   5.125  0.1681 -1.1207 -0.4678
   8323SM  H11G11107   5.260   5.644   5.123  0.7112 -1.0253  0.7688
   8323SM  C12F11108   5.313   5.436   5.149  0.1579  0.0168 -0.6523
   8323SM  H12F11109   5.414   5.446   5.103 -0.8965  1.9349 -2.7854
   8323SM  H12G11110   5.280   5.333   5.127  1.6763 -0.5672 -0.3605
   8323SM  C13F11111   5.325   5.472   5.306 -0.3672 -0.0245 -0.2495
   8323SM  H13F11112   5.342   5.580   5.323 -0.9660 -0.1308  1.0847
   8323SM  H13G11113   5.424   5.424   5.323 -0.0440  0.5409 -0.4914
   8323SM  C14F11114   5.206   5.442   5.395  0.3655  0.3968 -0.3416
   8323SM  H14F11115   5.202   5.331   5.395 -0.1464  0.3176  3.1170
   8323SM  H14G11116   5.121   5.484   5.337  1.2478  0.8004 -1.3842
   8323SM  C15F11117   5.210   5.500   5.540 -0.6948  0.1168 -0.0250
   8323SM  H15F11118   5.240   5.607   5.539  1.2663 -0.3574  1.6275
   8323SM  H15G11119   5.297   5.452   5.589  0.0107  0.0022 -1.3562
   8323SM  C16F11120   5.082   5.461   5.618 -0.2956  0.1084 -0.0384
   8323SM  H16F11121   5.035   5.365   5.587  1.2513 -1.4471  2.1253
   8323SM  H16G11122   5.006   5.539   5.598 -1.6205 -0.6853  1.6182
   8323SM  C17F11123   5.102   5.451   5.773 -0.2585 -0.5530  0.4825
   8323SM  H17F11124   5.150   5.542   5.815  1.7104 -2.0552  1.6300
   8323SM  H17G11125   5.171   5.367   5.796 -0.4225 -0.4919  1.2233
   8323SM  C18F11126   4.982   5.422   5.858 -0.7513 -0.3765 -0.1010
   8323SM  H18F11127   4.948   5.318   5.838  0.0603 -0.5217 -0.7820
   8323SM  H18G11128   4.908   5.501   5.835  0.4407  0.3900 -1.4134
   8323SM  C19F11129   5.019   5.438   6.010 -0.4623  0.2627  0.1970
   8323SM  H19F11130   5.041   5.546   6.024  4.8916 -0.7095  1.3931
   8323SM  H19G11131   5.112   5.381   6.032 -0.2361  0.9844  1.1821
   8323SM  C20F11132   4.902   5.392   6.104 -0.0337 -0.2675  0.7345
   8323SM  H20F11133   4.881   5.285   6.082  1.0198 -0.5577  1.0358
   8323SM  H20G11134   4.812   5.448   6.073  0.3124 -1.1603 -2.1575
   8323SM  C21F11135   4.937   5.417   6.250  0.1596  0.5723  0.5887
   8323SM  H21F11136   4.976   5.520   6.265  0.4978  0.8504 -1.7809
   8323SM  H21G11137   5.023   5.353   6.278 -0.7404 -0.7463  0.4207
   8323SM  C22F11138   4.822   5.394   6.344  0.5553 -0.9012 -0.6429
   8323SM  H22F11139   4.858   5.424   6.445  1.8894 -0.8420 -1.1148
   8323SM  H22G11140   4.792   5.288   6.352  0.3425 -0.7322  1.3030
   8323SM  C23F11141   4.702   5.483   6.308 -0.1605  0.2278  0.9683
   8323SM  H23F11142   4.647   5.439   6.222  3.0482 -0.0330 -1.0912
   8323SM  H23G11143   4.734   5.583   6.272  4.5052 -1.6211 -0.7602
   8323SM  H23H11144   4.630   5.490   6.392 -2.4381 -0.0584 -0.8506
   8423SM     N11145   4.042   3.559   4.116  0.0431  0.0111  0.6054
   8423SM   C1511146   3.945   3.570   4.230  0.4252 -0.1889 -0.0104
   8423SM  H15A11147   3.983   3.507   4.310  2.4192 -0.1879 -0.9120
   8423SM  H15B11148   3.845   3.544   4.198  0.3981 -1.3614  0.9370
   8423SM  H15C11149   3.920   3.672   4.255  0.4649 -0.3864  0.8873
   8423SM   C1411150   4.081   3.414   4.101 -0.2744 -0.1947  0.5127
   8423SM  H14A11151   4.133   3.379   4.188  1.3744  1.8634  0.4209
   8423SM  H14B11152   4.147   3.401   4.016  0.6583 -0.8066  1.3070
   8423SM  H14C11153   3.992   3.355   4.083 -1.5689  1.4492  1.2352
   8423SM   C1311154   3.970   3.589   3.991 -0.0094  0.2979 -0.2761
   8423SM  H13A11155   4.038   3.573   3.909  0.2693  1.5357 -0.2946
   8423SM  H13B11156   3.943   3.693   3.996 -0.1465  0.2461  3.4659
   8423SM  H13C11157   3.885   3.526   3.971  0.3881 -0.5988  0.7157
   8423SM   C1211158   4.161   3.647   4.136 -0.5045 -0.1867 -0.9813
   8423SM  H12A11159   4.140   3.727   4.205 -0.8508 -0.7916 -0.3673
   8423SM  H12B11160   4.185   3.700   4.045 -0.5159  1.2960 -0.1536
   8423SM   C1111161   4.285   3.576   4.192  0.3739  0.5568  0.3367
   8423SM  H11A11162   4.302   3.509   4.105  0.7368  0.2762  0.6237
   8423SM  H11B11163   4.248   3.520   4.280 -0.4622  0.3265 -0.1497
   8423SM     P11164   4.402   3.782   4.289  0.5062  0.1403  0.1878
   8423SM   O1311165   4.539   3.839   4.306  0.2644 -0.0706 -0.4053
   8423SM   O1411166   4.297   3.876   4.235  0.0997 -0.0492 -0.1565
   8423SM   O1111167   4.356   3.728   4.430  0.0330  0.5063  0.2427
   8423SM   O1211168   4.402   3.655   4.203 -0.5012  0.6175 -0.5428
   8423SM   C1S11169   4.413   3.613   4.494  0.5749 -0.4044 -0.0077
   8423SM   H1S11170   4.520   3.620   4.466  0.6800  1.4331  0.6925
   8423SM   H1T11171   4.368   3.515   4.466 -1.1923  0.0648  1.0527
   8423SM    NF11172   4.472   3.507   4.695 -0.0265  0.4099 -0.6580
   8423SM   HNF11173   4.420   3.423   4.708  0.1709  0.2751 -0.7364
   8423SM   C2S11174   4.401   3.620   4.649  0.3549 -0.3575 -0.0258
   8423SM   H2S11175   4.451   3.717   4.671  2.0173 -0.9225 -1.1576
   8423SM   C3S11176   4.249   3.628   4.697  0.5713 -0.4139  0.1834
   8423SM   H3S11177   4.202   3.551   4.631 -0.5181  0.1694  0.2489
   8423SM    O311178   4.181   3.748   4.649 -0.4579  0.2665  0.0501
   8423SM   HO311179   4.227   3.770   4.568 -0.3318 -0.7112 -0.1540
   8423SM   C4S11180   4.226   3.611   4.841 -0.1077  0.0578  0.1973
   8423SM   H4S11181   4.224   3.507   4.877  0.2995  0.1753  0.5687
   8423SM   C5S11182   4.210   3.715   4.930  0.1079 -0.1097  0.6372
   8423SM   H5S11183   4.206   3.816   4.889 -0.7147  0.3828  1.8810
   8423SM   C6S11184   4.187   3.698   5.076  0.0030 -0.6061 -0.7903
   8423SM   H6S11185   4.215   3.593   5.096 -0.2863 -0.7154 -0.9601
   8423SM   H6T11186   4.082   3.724   5.102 -0.0571 -1.3090 -0.3044
   8423SM   C7S11187   4.276   3.786   5.170 -0.3729  0.2773 -0.5482
   8423SM   H7S11188   4.267   3.893   5.142  1.4410  0.0078 -2.3699
   8423SM   H7T11189   4.385   3.765   5.169 -0.2740  0.2741  2.2528
   8423SM   C8S11190   4.230   3.766   5.313  0.2534 -1.0781  0.3105
   8423SM   H8S11191   4.217   3.657   5.331  2.0513 -1.3005  0.4079
   8423SM   H8T11192   4.138   3.827   5.327  0.3078 -1.1931  1.2431
   8423SM   C9S11193   4.332   3.830   5.404  0.0759 -0.8358 -0.4434
   8423SM   H9S11194   4.345   3.938   5.380  0.9356 -0.1101  2.8544
   8423SM   H9T11195   4.428   3.775   5.390 -0.3650 -1.7265 -0.0349
   8423SM  C10S11196   4.294   3.825   5.555 -0.0742 -0.7998  0.6863
   8423SM  H10S11197   4.220   3.744   5.573 -0.6499 -0.4949 -0.2398
   8423SM  H10T11198   4.247   3.918   5.592 -1.0077 -0.6354 -0.8328
   8423SM  C11S11199   4.407   3.816   5.662 -0.3252  0.5749  0.5866
   8423SM  H11S11200   4.485   3.894   5.653  0.2082  0.2031  1.7721
   8423SM  H11T11201   4.462   3.720   5.646  3.5142  2.9232 -1.9142
   8423SM  C12S11202   4.350   3.805   5.801 -0.0454 -0.2057  0.0310
   8423SM  H12S11203   4.299   3.706   5.805 -0.2717 -0.1547 -1.2054
   8423SM  H12T11204   4.276   3.887   5.814  1.9824  1.6298  0.6514
   8423SM  C13S11205   4.461   3.809   5.905  0.2566  0.4605 -0.1413
   8423SM  H13S11206   4.531   3.888   5.873 -0.2070  0.7487 -0.4568
   8423SM  H13T11207   4.509   3.709   5.902  2.8730  1.5814  1.2562
   8423SM  C14S11208   4.404   3.830   6.051 -0.2701  0.4602  0.4133
   8423SM  H14S11209   4.353   3.928   6.062 -0.0798  0.8422 -1.7465
   8423SM  H14T11210   4.502   3.827   6.104  0.0377 -0.3725 -0.1845
   8423SM  C15S11211   4.313   3.708   6.090 -0.0158 -0.6542  0.4929
   8423SM  H15S11212   4.368   3.619   6.054  1.7831  0.4337  0.4672
   8423SM  H15T11213   4.215   3.699   6.037  0.3220  0.6201 -0.4100
   8423SM  C16S11214   4.311   3.696   6.237 -0.1264  0.1371 -0.6055
   8423SM  H16S11215   4.412   3.678   6.279  0.1224 -0.2284 -1.3457
   8423SM  H16T11216   4.263   3.597   6.253  3.0235 -1.3724  0.2980
   8423SM  C17S11217   4.250   3.811   6.307 -0.9276  0.0647 -0.8633
   8423SM  H17S11218   4.158   3.840   6.253 -0.5572  2.4532 -0.3296
   8423SM  H17T11219   4.312   3.902   6.300  1.3405 -1.2470  0.7831
   8423SM  C18S11220   4.216   3.770   6.448 -0.0608 -0.5784  0.3698
   8423SM  H18S11221   4.165   3.846   6.510  0.3019 -1.3661  1.6674
   8423SM  H18T11222   4.301   3.745   6.514 -0.3148  0.2635  1.0306
   8423SM  H18U11223   4.141   3.687   6.445 -0.8346  0.1191 -0.1125
   8423SM   C1F11224   4.607   3.499   4.691 -0.1989 -0.4261  0.0878
   8423SM    OF11225   4.676   3.593   4.646 -0.6404  0.5978 -0.4075
   8423SM   C2F11226   4.671   3.373   4.734  0.0920 -0.0417  0.2407
   8423SM   H2F11227   4.781   3.384   4.720  0.1988 -2.9908 -2.4737
   8423SM   H2G11228   4.634   3.292   4.668 -2.3855 -0.2376  1.7541
   8423SM   C3F11229   4.646   3.330   4.883 -0.4831 -0.5893  0.3886
   8423SM   H3F11230   4.706   3.239   4.908 -1.6179 -1.3592  0.3820
   8423SM   H3G11231   4.543   3.289   4.886 -1.5322  1.8260 -0.6206
   8423SM   C4F11232   4.673   3.439   4.995  0.2690 -0.4301 -0.6027
   8423SM   H4F11233   4.636   3.542   4.974 -0.6875 -0.3226  1.3460
   8423SM   H4G11234   4.785   3.441   4.993  0.3231 -2.0645 -0.0475
   8423SM   C5F11235   4.631   3.399   5.138  0.1070 -0.3113  0.2330
   8423SM   H5F11236   4.632   3.494   5.196 -1.5958  0.6723 -1.2727
   8423SM   H5G11237   4.698   3.318   5.176  2.4643  1.5560  0.3151
   8423SM   C6F11238   4.487   3.351   5.158  0.3175 -0.3359 -0.3560
   8423SM   H6F11239   4.462   3.259   5.101  1.3099 -0.2500 -0.9673
   8423SM   H6G11240   4.424   3.430   5.112  1.5949  0.9538  0.0418
   8423SM   C7F11241   4.444   3.345   5.307 -0.3840 -0.0272  0.2467
   8423SM   H7F11242   4.481   3.426   5.374  0.8075 -0.1584 -0.2307
   8423SM   H7G11243   4.494   3.252   5.342  0.7194 -0.3331 -1.9798
   8423SM   C8F11244   4.296   3.349   5.320 -0.3078  1.2623 -0.3371
   8423SM   H8F11245   4.260   3.251   5.280  0.7550  1.2259 -1.2659
   8423SM   H8G11246   4.252   3.424   5.251  0.6480  0.2756 -2.1170
   8423SM   C9F11247   4.243   3.347   5.463 -0.4612 -0.4939 -0.4407
   8423SM   H9F11248   4.135   3.323   5.474 -0.9893  1.4769 -0.9229
   8423SM   H9G11249   4.237   3.454   5.493  1.4082 -1.0242  2.1890
   8423SM  C10F11250   4.328   3.266   5.564 -0.0723 -0.5172  0.6494
   8423SM  H10F11251   4.435   3.289   5.548 -0.1663 -0.4500  0.1087
   8423SM  H10G11252   4.320   3.161   5.528 -0.5446  0.1899 -1.3942
   8423SM  C11F11253   4.290   3.291   5.708 -0.4988  0.3634 -0.4481
   8423SM  H11F11254   4.326   3.391   5.741  1.3759 -0.2857 -0.4099
   8423SM  H11G11255   4.340   3.205   5.758 -0.5601 -0.4707 -1.7729
   8423SM  C12F11256   4.146   3.278   5.755 -0.0990  0.0203  0.2001
   8423SM  H12F11257   4.103   3.178   5.732 -1.1012  0.4693  0.0541
   8423SM  H12G11258   4.081   3.354   5.708 -0.6412  0.0714  1.0068
   8423SM  C13F11259   4.140   3.286   5.913 -0.2408  0.1561 -0.3547
   8423SM  H13F11260   4.243   3.270   5.949  0.6676 -0.9653 -3.1857
   8423SM  H13G11261   4.069   3.207   5.946 -1.8914  1.4303 -0.7253
   8423SM  C14F11262   4.087   3.414   5.969 -0.4865  0.2049  0.3723
   8423SM  H14F11263   3.995   3.433   5.910  0.3720  0.7886 -0.8199
   8423SM  H14G11264   4.165   3.491   5.951 -1.3134  1.3202  1.4091
   8423SM  C15F11265   4.029   3.399   6.112  0.1996  0.0495  0.7369
   8423SM  H15F11266   4.108   3.394   6.191 -0.7097 -0.1695  1.6554
   8423SM  H15G11267   3.987   3.296   6.114  1.1458 -0.3488  0.9148
   8423SM  C16F11268   3.922   3.499   6.162 -0.8172  1.0712  0.5578
   8423SM  H16F11269   3.956   3.603   6.140 -1.9477  1.5908  1.1670
   8423SM  H16G11270   3.933   3.485   6.272 -0.2037  0.5986  0.4395
   8423SM  C17F11271   3.779   3.470   6.109  0.3005  0.2704 -0.0382
   8423SM  H17F11272   3.760   3.362   6.130  0.0127  0.0525 -1.3540
   8423SM  H17G11273   3.772   3.493   6.000  1.3442  0.2839 -0.1159
   8423SM  C18F11274   3.675   3.550   6.189  0.1972 -0.2959 -0.0833
   8423SM  H18F11275   3.666   3.653   6.148 -0.1068 -0.0730  0.5257
   8423SM  H18G11276   3.712   3.556   6.294  0.8307 -2.2288 -0.1571
   8423SM  C19F11277   3.537   3.477   6.196 -0.3746 -0.7867 -0.4784
   8423SM  H19F11278   3.550   3.380   6.249  0.0114 -0.1121  0.7150
   8423SM  H19G11279   3.498   3.451   6.096 -1.6220  0.9035 -0.4862
   8423SM  C20F11280   3.435   3.563   6.281 -0.1868 -0.3034  0.1268
   8423SM  H20F11281   3.450   3.671   6.263  1.9829 -0.2849  1.6442
   8423SM  H20G11282   3.456   3.537   6.387  1.3238 -0.1416 -0.1187
   8423SM  C21F11283   3.289   3.526   6.246 -0.5196 -0.3779 -0.1116
   8423SM  H21F11284   3.285   3.415   6.248  0.4237 -0.4210  2.3518
   8423SM  H21G11285   3.269   3.575   6.148 -1.8010  1.2638  0.9223
   8423SM  C22F11286   3.186   3.579   6.352  0.2984 -0.7750 -0.2520
   8423SM  H22F11287   3.085   3.552   6.316  0.4844  1.0585 -2.2859
   8423SM  H22G11288   3.193   3.689   6.361 -1.9950 -0.6682  0.8343
   8423SM  C23F11289   3.204   3.535   6.502  0.4983  0.1970  0.7239
   8423SM  H23F11290   3.199   3.424   6.502 -0.6139  0.2177  2.0632
   8423SM  H23G11291   3.116   3.561   6.565  0.6962 -0.6326  1.3541
   8423SM  H23H11292   3.297   3.575   6.548  1.4006  0.1646 -1.0064
   8523SM     N11293   6.516   4.425   3.912 -0.0701 -1.0236  0.0647
   8523SM   C1511294   6.515   4.424   3.761  0.2193  0.0950  0.0403
   8523SM  H15A11295   6.444   4.492   3.715 -0.9898 -0.6143  0.8053
   8523SM  H15B11296   6.495   4.328   3.715  0.3759  0.4002 -0.6893
   8523SM  H15C11297   6.611   4.462   3.728  0.0473  0.2382 -0.3100
   8523SM   C1411298   6.552   4.567   3.951 -1.2106  0.1993 -0.0009
   8523SM  H14A11299   6.557   4.578   4.058 -1.8308  2.0554 -0.1196
   8523SM  H14B11300   6.494   4.648   3.907 -2.2539 -0.8867 -0.6820
   8523SM  H14C11301   6.655   4.578   3.920 -0.7780  1.2443  1.6878
   8523SM   C1311302   6.385   4.396   3.965  0.3317 -0.1655  0.1987
   8523SM  H13A11303   6.388   4.393   4.072  0.5557 -0.3736  0.1885
   8523SM  H13B11304   6.350   4.300   3.929 -4.3815  1.5479 -0.4518
   8523SM  H13C11305   6.307   4.463   3.931 -0.4385 -1.5566 -0.9088
   8523SM   C1211306   6.622   4.329   3.964  0.0746 -0.3729  0.1554
   8523SM  H12A11307   6.722   4.345   3.929 -0.2349 -1.5385 -1.3424
   8523SM  H12B11308   6.590   4.235   3.923 -1.0643  0.5996 -1.2755
   8523SM   C1111309   6.631   4.317   4.116 -0.5355 -0.3464 -0.0571
   8523SM  H11A11310   6.643   4.415   4.166  0.3368 -0.3754 -0.1883
   8523SM  H11B11311   6.733   4.275   4.128  0.2454  1.3685 -0.4342
   8523SM     P11312   6.485   4.233   4.323 -0.0781  0.0980  0.4379
   8523SM   O1311313   6.339   4.225   4.311 -0.0545 -0.1825 -0.6959
   8523SM   O1411314   6.552   4.132   4.408 -0.6369  0.0495 -0.2261
   8523SM   O1111315   6.528   4.380   4.370  0.3469 -0.1082  0.3260
   8523SM   O1211316   6.543   4.225   4.174  0.1240 -0.7486 -0.2316
   8523SM   C1S11317   6.655   4.408   4.436 -0.2853 -0.8030 -0.3366
   8523SM   H1S11318   6.728   4.445   4.360 -0.4901  1.0516  0.3138
   8523SM   H1T11319   6.696   4.318   4.486  1.0166 -0.8077 -1.3463
   8523SM    NF11320   6.760   4.581   4.590 -0.4048  0.4897  0.3322
   8523SM   HNF11321   6.798   4.538   4.672  1.8250 -1.7238 -1.7040
   8523SM   C2S11322   6.637   4.525   4.550 -0.2021  0.5945  0.0673
   8523SM   H2S11323   6.583   4.594   4.482 -0.3746 -1.5485 -2.1307
   8523SM   C3S11324   6.547   4.478   4.674 -0.4443  0.0822  0.8213
   8523SM   H3S11325   6.612   4.409   4.732  1.1718  0.3299 -0.6355
   8523SM    O311326   6.437   4.399   4.643 -0.0930  0.3324 -0.1530
   8523SM   HO311327   6.456   4.380   4.551 -0.3950 -1.1427  0.0613
   8523SM   C4S11328   6.502   4.592   4.753  0.4431 -0.1226 -0.7367
   8523SM   H4S11329   6.490   4.685   4.696  1.2925  0.4238 -0.0545
   8523SM   C5S11330   6.491   4.608   4.886  0.2099 -0.7109  0.1080
   8523SM   H5S11331   6.518   4.521   4.949 -0.4115  1.0159  2.9144
   8523SM   C6S11332   6.462   4.739   4.959 -0.1523  0.3035  0.3039
   8523SM   H6S11333   6.409   4.721   5.055  2.0605 -2.0311  1.2237
   8523SM   H6T11334   6.403   4.805   4.892 -0.1056 -1.1205 -1.2142
   8523SM   C7S11335   6.600   4.810   4.984  0.3044  0.1520 -0.4657
   8523SM   H7S11336   6.646   4.832   4.885  0.6659 -2.0934 -0.8390
   8523SM   H7T11337   6.682   4.764   5.043 -0.0017  0.1435 -0.0476
   8523SM   C8S11338   6.571   4.948   5.047 -0.3881  0.2569 -0.5266
   8523SM   H8S11339   6.483   4.996   4.999 -1.1444 -0.2454  0.3369
   8523SM   H8T11340   6.665   5.005   5.026  0.0077 -0.7264 -1.5859
   8523SM   C9S11341   6.550   4.942   5.199  0.2291  0.2001  0.4747
   8523SM   H9S11342   6.636   4.887   5.244  1.3983  1.0570 -0.6298
   8523SM   H9T11343   6.462   4.882   5.229  1.5297 -0.7316  2.7082
   8523SM  C10S11344   6.537   5.072   5.276  0.2758 -0.5032 -1.2392
   8523SM  H10S11345   6.453   5.125   5.227  0.5525 -1.0616 -2.3507
   8523SM  H10T11346   6.633   5.127   5.287  0.4221 -0.6973 -1.5305
   8523SM  C11S11347   6.499   5.050   5.417  0.3063  0.1561  0.0023
   8523SM  H11S11348   6.586   4.996   5.461  1.0799  0.6928 -0.8253
   8523SM  H11T11349   6.404   4.992   5.426 -0.3170  1.3717  1.6364
   8523SM  C12S11350   6.482   5.188   5.487  0.1761  0.0145  0.5070
   8523SM  H12S11351   6.403   5.238   5.427  0.6834 -0.2041 -0.3681
   8523SM  H12T11352   6.578   5.243   5.482  1.5402 -2.2050  0.8390
   8523SM  C13S11353   6.435   5.182   5.631 -0.0787  0.7199 -0.2574
   8523SM  H13S11354   6.499   5.112   5.688 -2.7430 -0.6197  1.3227
   8523SM  H13T11355   6.334   5.135   5.640 -0.8368  2.2593 -0.3620
   8523SM  C14S11356   6.435   5.311   5.716  0.7696  0.2533  0.1712
   8523SM  H14S11357   6.387   5.393   5.658  1.1627 -0.3725 -1.0738
   8523SM  H14T11358   6.538   5.346   5.735  0.2577  3.0698 -1.6796
   8523SM  C15S11359   6.361   5.282   5.848 -0.0178 -0.2402 -0.4370
   8523SM  H15S11360   6.392   5.183   5.887  0.0534  0.4489  1.3794
   8523SM  H15T11361   6.256   5.269   5.814 -0.7590  1.9377  0.7932
   8523SM  C16S11362   6.388   5.398   5.952  0.1853 -0.2169  0.4427
   8523SM  H16S11363   6.362   5.498   5.911 -1.7270  0.0816  2.2253
   8523SM  H16T11364   6.498   5.404   5.968  0.7952  1.4253 -3.1907
   8523SM  C17S11365   6.309   5.371   6.077 -1.0236  0.1091 -0.9028
   8523SM  H17S11366   6.348   5.280   6.126  0.3316  0.8275 -0.6119
   8523SM  H17T11367   6.203   5.357   6.045 -1.3798 -0.0321  0.2867
   8523SM  C18S11368   6.310   5.488   6.175  0.0377  0.7327  0.9565
   8523SM  H18S11369   6.231   5.466   6.250  0.7480 -1.2247  1.1806
   8523SM  H18T11370   6.308   5.592   6.135 -0.0087  0.4394  0.1717
   8523SM  H18U11371   6.404   5.483   6.233  1.4871  1.3015 -1.2211
   8523SM   C1F11372   6.842   4.648   4.508  0.3213 -0.3772 -0.4007
   8523SM    OF11373   6.809   4.686   4.394 -0.7244  0.1892 -0.6736
   8523SM   C2F11374   6.983   4.685   4.554  0.1678  0.4498  0.3981
   8523SM   H2F11375   7.059   4.628   4.496 -2.0936 -0.4901 -1.8082
   8523SM   H2G11376   7.000   4.666   4.663  1.7001  3.2545  0.7485
   8523SM   C3F11377   7.009   4.838   4.536 -0.3685  1.1332 -0.0401
   8523SM   H3F11378   6.988   4.860   4.429 -0.9040  2.4075  0.3056
   8523SM   H3G11379   7.116   4.857   4.559 -0.3920  2.6995 -1.0582
   8523SM   C4F11380   6.931   4.931   4.623  0.9093 -0.0969 -0.1937
   8523SM   H4F11381   6.970   4.909   4.724 -0.0234 -1.1057 -0.0374
   8523SM   H4G11382   6.821   4.921   4.614  0.4426  1.1313  2.9543
   8523SM   C5F11383   6.973   5.075   4.573  0.1547 -0.0977  0.6150
   8523SM   H5F11384   6.933   5.086   4.470 -0.8013  0.8639  1.0673
   8523SM   H5G11385   7.083   5.092   4.569 -0.1576  1.9527 -2.1903
   8523SM   C6F11386   6.904   5.178   4.667  0.2888  0.4639 -0.7170
   8523SM   H6F11387   6.796   5.156   4.660  0.3453 -0.1510  0.1883
   8523SM   H6G11388   6.920   5.278   4.619  0.0762  2.5060  3.0826
   8523SM   C7F11389   6.952   5.180   4.815 -0.2995  0.0249 -0.2852
   8523SM   H7F11390   7.062   5.195   4.815 -0.2845 -0.0556  0.4495
   8523SM   H7G11391   6.925   5.084   4.865 -4.2861 -0.0726 -2.2052
   8523SM   C8F11392   6.885   5.291   4.899 -0.1880 -0.5715 -0.2341
   8523SM   H8F11393   6.777   5.266   4.890 -0.1153 -1.4772  1.1799
   8523SM   H8G11394   6.903   5.384   4.840  1.3770  0.5478  1.8927
   8523SM   C9F11395   6.914   5.280   5.045 -0.4897  0.2429  0.1350
   8523SM   H9F11396   7.025   5.271   5.049 -0.4864 -0.9202 -1.5158
   8523SM   H9G11397   6.866   5.181   5.059  1.4118 -0.6884  0.5055
   8523SM  C10F11398   6.843   5.396   5.124  0.5149 -0.0982  0.5696
   8523SM  H10F11399   6.741   5.405   5.081  1.5145 -2.8094 -2.8512
   8523SM  H10G11400   6.892   5.494   5.112  0.5801 -0.1346  0.5411
   8523SM  C11F11401   6.845   5.349   5.275  0.0290 -0.2734  0.3067
   8523SM  H11F11402   6.953   5.350   5.302 -0.5974  0.5235  3.1226
   8523SM  H11G11403   6.813   5.244   5.292 -1.1416  0.2018  1.2224
   8523SM  C12F11404   6.774   5.448   5.370  0.2873 -0.1982  0.6393
   8523SM  H12F11405   6.665   5.456   5.346  0.9429 -0.1819 -2.7922
   8523SM  H12G11406   6.815   5.549   5.345 -0.2775 -0.1445 -0.1090
   8523SM  C13F11407   6.813   5.415   5.515  0.7328  0.4920  0.2837
   8523SM  H13F11408   6.922   5.395   5.509  0.6340 -0.1808  0.6239
   8523SM  H13G11409   6.780   5.315   5.550  0.4313 -0.0226 -1.4042
   8523SM  C14F11410   6.777   5.526   5.610 -0.5641 -0.5972  0.0284
   8523SM  H14F11411   6.670   5.553   5.599 -0.3938 -0.1670 -0.5685
   8523SM  H14G11412   6.847   5.609   5.589  0.6994 -1.8334 -0.8627
   8523SM  C15F11413   6.777   5.491   5.760  0.2883  0.3014  0.9715
   8523SM  H15F11414   6.883   5.481   5.791  0.8587 -1.3686 -1.2979
   8523SM  H15G11415   6.736   5.388   5.763  1.1518 -0.0395  1.1988
   8523SM  C16F11416   6.696   5.592   5.847 -0.3008  0.2092 -0.3745
   8523SM  H16F11417   6.588   5.569   5.834 -0.1355 -0.0297 -1.5018
   8523SM  H16G11418   6.716   5.695   5.811 -1.5793  0.7864  0.4911
   8523SM  C17F11419   6.739   5.579   5.993 -0.1385  0.1688 -0.6079
   8523SM  H17F11420   6.850   5.590   5.997 -0.4212  4.3295  1.2594
   8523SM  H17G11421   6.712   5.477   6.028 -2.3165  0.7247 -0.5569
   8523SM  C18F11422   6.665   5.679   6.088 -0.8108  0.4402  0.0675
   8523SM  H18F11423   6.556   5.659   6.096 -0.1565 -4.0303  0.5200
   8523SM  H18G11424   6.669   5.785   6.055 -1.9826  0.7068  0.7176
   8523SM  C19F11425   6.716   5.666   6.234  0.6296  0.4020  0.1242
   8523SM  H19F11426   6.825   5.689   6.238  0.7461 -0.2471  1.1800
   8523SM  H19G11427   6.707   5.559   6.263  1.1369  0.5782  0.9659
   8523SM  C20F11428   6.643   5.763   6.330  0.1209 -0.0240  0.8702
   8523SM  H20F11429   6.532   5.755   6.321  0.0066 -0.2068  2.2241
   8523SM  H20G11430   6.673   5.867   6.304 -2.6250  0.3937 -1.1150
   8523SM  C21F11431   6.677   5.743   6.477  0.2754 -0.2717 -0.2076
   8523SM  H21F11432   6.787   5.758   6.480  0.2699  0.5949 -2.3894
   8523SM  H21G11433   6.660   5.634   6.491 -2.4482  0.2221  0.9034
   8523SM  C22F11434   6.601   5.834   6.573 -0.8864 -0.8053  0.0667
   8523SM  H22F11435   6.620   5.803   6.678  1.3715 -0.1851 -0.0952
   8523SM  H22G11436   6.492   5.840   6.559 -0.6238 -0.9878 -2.4256
   8523SM  C23F11437   6.652   5.985   6.562  0.1412  0.3893 -0.0625
   8523SM  H23F11438   6.756   6.009   6.593  0.3099 -0.8703  0.3824
   8523SM  H23G11439   6.581   6.045   6.624 -0.1853 -1.0839  1.0333
   8523SM  H23H11440   6.638   6.015   6.456  0.2815  1.2788  0.1621
   8623SM     N11441   4.551   2.760   3.696 -0.2294 -0.3781 -0.3230
   8623SM   C1511442   4.672   2.696   3.652  0.6454 -0.3762  0.7475
   8623SM  H15A11443   4.710   2.731   3.557 -1.7407  1.1930  0.2889
   8623SM  H15B11444   4.661   2.589   3.643 -0.9016 -0.1581 -0.3484
   8623SM  H15C11445   4.745   2.714   3.731 -0.0164 -0.2716  1.3457
   8623SM   C1411446   4.553   2.914   3.704  0.7543  0.5358  0.9225
   8623SM  H14A11447   4.579   2.958   3.609  0.7033 -0.3077  0.5160
   8623SM  H14B11448   4.621   2.955   3.778  2.7974  0.1282 -0.6504
   8623SM  H14C11449   4.451   2.941   3.728 -0.2788 -1.2007 -1.1725
   8623SM   C1311450   4.437   2.733   3.597  0.8173  0.0502  0.0853
   8623SM  H13A11451   4.456   2.772   3.498 -1.4794 -2.1422 -1.3311
   8623SM  H13B11452   4.345   2.777   3.635  1.0836  0.8319 -0.1547
   8623SM  H13C11453   4.419   2.628   3.582 -3.1924  0.6634 -0.5260
   8623SM   C1211454   4.524   2.712   3.838 -0.2041 -0.2145  0.7118
   8623SM  H12A11455   4.503   2.608   3.818 -2.5054  0.3742 -0.3112
   8623SM  H12B11456   4.432   2.748   3.882  1.0942  1.9948  1.8233
   8623SM   C1111457   4.634   2.729   3.945  0.0257 -0.0183 -0.1114
   8623SM  H11A11458   4.734   2.694   3.911  0.5530 -0.3731  1.6548
   8623SM  H11B11459   4.608   2.658   4.027  0.6865 -0.0373  0.0928
   8623SM     P11460   4.531   2.922   4.084  0.1817  0.0063 -0.4228
   8623SM   O1311461   4.560   3.065   4.118 -0.2365  0.5411  0.7443
   8623SM   O1411462   4.394   2.899   4.028 -0.0878 -0.3762 -0.3321
   8623SM   O1111463   4.539   2.835   4.221 -0.0532  0.5387  0.4762
   8623SM   O1211464   4.649   2.866   3.990  0.2971 -0.2814  0.0224
   8623SM   C1S11465   4.660   2.840   4.299  0.3235  0.2827  0.2483
   8623SM   H1S11466   4.672   2.943   4.340 -0.4370  0.6477 -0.4016
   8623SM   H1T11467   4.750   2.820   4.237  0.3786 -1.3462  0.8118
   8623SM    NF11468   4.781   2.766   4.506  0.4054  0.5446  0.3973
   8623SM   HNF11469   4.852   2.697   4.498 -0.0115  0.0773  0.6033
   8623SM   C2S11470   4.662   2.743   4.422  0.9346 -1.0763 -0.6978
   8623SM   H2S11471   4.574   2.773   4.482  0.5671 -0.7363 -1.3833
   8623SM   C3S11472   4.639   2.594   4.376  0.2030 -0.9535 -0.0538
   8623SM   H3S11473   4.728   2.570   4.314  1.2998  0.5072  0.9038
   8623SM    O311474   4.520   2.564   4.297  0.2048  0.0939 -0.3414
   8623SM   HO311475   4.485   2.652   4.281 -0.8152 -0.5463 -1.8301
   8623SM   C4S11476   4.642   2.516   4.504  0.3488  0.5576  0.4342
   8623SM   H4S11477   4.581   2.559   4.585  0.2307 -1.2226  1.3315
   8623SM   C5S11478   4.714   2.407   4.523 -0.3005 -0.1983 -0.3700
   8623SM   H5S11479   4.773   2.370   4.438 -0.7730 -0.7645 -0.4591
   8623SM   C6S11480   4.725   2.320   4.650  0.0548  0.0200 -0.0041
   8623SM   H6S11481   4.827   2.279   4.669  0.1418 -1.8630 -3.6148
   8623SM   H6T11482   4.667   2.226   4.637  2.2499 -1.6286  1.3361
   8623SM   C7S11483   4.657   2.387   4.770 -0.3341  0.1563  0.0204
   8623SM   H7S11484   4.550   2.379   4.740  0.4184  0.3961 -3.0730
   8623SM   H7T11485   4.676   2.497   4.776 -2.4862  0.6976 -1.7033
   8623SM   C8S11486   4.680   2.315   4.906 -0.4154  0.1141  0.4833
   8623SM   H8S11487   4.788   2.329   4.929 -0.7353  1.4147  1.3325
   8623SM   H8T11488   4.652   2.210   4.886 -1.4406  0.7759 -1.9951
   8623SM   C9S11489   4.600   2.382   5.016  0.4520 -0.1320  0.6411
   8623SM   H9S11490   4.504   2.413   4.970  0.4624 -0.6109  0.2893
   8623SM   H9T11491   4.664   2.463   5.057  1.9167 -0.7118 -0.4364
   8623SM  C10S11492   4.557   2.287   5.132 -0.6630 -0.0660 -0.3349
   8623SM  H10S11493   4.649   2.239   5.173 -2.4578 -0.6317  3.3881
   8623SM  H10T11494   4.486   2.216   5.085 -1.7735  0.1255  1.0080
   8623SM  C11S11495   4.471   2.368   5.232 -0.0315 -0.5595  0.1138
   8623SM  H11S11496   4.381   2.409   5.180 -2.3463 -2.6473  2.1593
   8623SM  H11T11497   4.540   2.444   5.272 -0.5292 -0.5876  1.0744
   8623SM  C12S11498   4.429   2.273   5.345 -0.6956 -0.9908  0.5615
   8623SM  H12S11499   4.526   2.232   5.380  0.2164 -1.5272 -2.2670
   8623SM  H12T11500   4.371   2.189   5.300 -2.6761  0.0519  1.0439
   8623SM  C13S11501   4.356   2.346   5.452  0.2412 -0.7182 -1.1906
   8623SM  H13S11502   4.269   2.404   5.414 -0.1986 -0.0215  0.7204
   8623SM  H13T11503   4.414   2.434   5.489  2.2491 -2.6042  0.4244
   8623SM  C14S11504   4.335   2.254   5.571  0.3815  0.4136 -0.0604
   8623SM  H14S11505   4.430   2.204   5.599  1.3280  1.2516 -1.6097
   8623SM  H14T11506   4.265   2.171   5.548  0.3194  0.4773 -0.0997
   8623SM  C15S11507   4.286   2.325   5.701 -0.7759 -0.3668  0.6062
   8623SM  H15S11508   4.194   2.380   5.675  0.0972 -0.7339 -4.0147
   8623SM  H15T11509   4.350   2.405   5.744 -1.3540 -0.8989  2.5898
   8623SM  C16S11510   4.245   2.224   5.810 -0.7041  0.4619  0.3282
   8623SM  H16S11511   4.332   2.158   5.831 -1.7684 -1.2553 -0.4149
   8623SM  H16T11512   4.183   2.149   5.755  0.9722 -1.1484  0.5252
   8623SM  C17S11513   4.167   2.275   5.935  0.3315  0.0007  0.4381
   8623SM  H17S11514   4.070   2.321   5.907  0.2725  0.2115  0.9786
   8623SM  H17T11515   4.218   2.353   5.994 -0.6994 -0.3650  1.8737
   8623SM  C18S11516   4.123   2.156   6.028 -0.2305  0.0145 -0.9094
   8623SM  H18S11517   4.046   2.188   6.101  0.4668 -1.0830  0.3541
   8623SM  H18T11518   4.209   2.112   6.083 -1.3176  0.1512  0.9724
   8623SM  H18U11519   4.086   2.075   5.961 -1.5546  0.1261 -0.3386
   8623SM   C1F11520   4.796   2.863   4.590  0.1625 -0.8633 -0.2883
   8623SM    OF11521   4.710   2.956   4.604  0.0085  0.4153 -0.3257
   8623SM   C2F11522   4.931   2.875   4.660  0.6794 -0.4029 -0.3338
   8623SM   H2F11523   4.996   2.924   4.585 -1.3225  0.7348 -1.3883
   8623SM   H2G11524   4.968   2.774   4.690  0.8749 -0.0245  0.7416
   8623SM   C3F11525   4.931   2.970   4.787 -0.5473  0.2335 -0.4329
   8623SM   H3F11526   4.905   3.074   4.760  2.1896  0.7079 -1.6323
   8623SM   H3G11527   5.030   2.975   4.837 -0.8016  1.4884 -0.0295
   8623SM   C4F11528   4.839   2.908   4.897  0.0360 -0.3278 -0.3865
   8623SM   H4F11529   4.857   2.800   4.919 -3.2022 -1.2023 -1.4610
   8623SM   H4G11530   4.734   2.904   4.861 -0.5716 -0.4317  1.2930
   8623SM   C5F11531   4.849   2.997   5.028 -0.2398  0.1123 -0.5117
   8623SM   H5F11532   4.843   3.103   4.995  1.5963  0.5192  0.3278
   8623SM   H5G11533   4.952   2.968   5.059 -0.3593 -0.7643 -0.9010
   8623SM   C6F11534   4.740   2.955   5.124  0.2537 -0.2051 -0.8930
   8623SM   H6F11535   4.740   2.845   5.140 -0.7721 -0.1546 -0.4691
   8623SM   H6G11536   4.639   2.979   5.086 -0.9711 -1.6327  1.2052
   8623SM   C7F11537   4.761   3.009   5.267 -0.3018 -0.1742 -0.5042
   8623SM   H7F11538   4.750   3.120   5.269  0.6114 -0.0845  0.8048
   8623SM   H7G11539   4.866   2.992   5.297  0.2050  2.7702 -0.3225
   8623SM   C8F11540   4.668   2.941   5.372 -0.0703  0.7703  0.3887
   8623SM   H8F11541   4.688   2.832   5.370 -0.7718  0.6433 -0.9411
   8623SM   H8G11542   4.563   2.959   5.337 -0.3713  0.6227  1.1969
   8623SM   C9F11543   4.697   3.004   5.509 -0.1022 -0.2368  0.1389
   8623SM   H9F11544   4.672   3.110   5.491  0.9708  0.0260  0.1645
   8623SM   H9G11545   4.804   2.994   5.535 -0.0892  0.8629  0.5507
   8623SM  C10F11546   4.604   2.952   5.619 -0.6087  0.1761 -0.1052
   8623SM  H10F11547   4.638   2.849   5.641  0.7210  0.7434  0.5421
   8623SM  H10G11548   4.499   2.962   5.581 -1.5210 -0.9338  1.9768
   8623SM  C11F11549   4.628   3.038   5.743  0.2052  0.2899  0.3445
   8623SM  H11F11550   4.587   3.132   5.700 -2.4341 -1.3718 -1.0629
   8623SM  H11G11551   4.735   3.041   5.773  0.1631 -3.3945  1.4108
   8623SM  C12F11552   4.539   2.979   5.853 -0.3578  0.4059  0.1488
   8623SM  H12F11553   4.579   2.880   5.885  1.7144  0.8699 -0.8282
   8623SM  H12G11554   4.443   2.949   5.807  0.8620 -0.7911 -1.7289
   8623SM  C13F11555   4.524   3.075   5.976  0.0372  0.2489  0.4886
   8623SM  H13F11556   4.515   3.171   5.921 -0.3366 -1.2509 -2.2636
   8623SM  H13G11557   4.622   3.080   6.027  0.0940 -0.3205  0.4451
   8623SM  C14F11558   4.409   3.030   6.066 -0.2672 -0.6132  1.7425
   8623SM  H14F11559   4.423   2.923   6.093 -0.7861 -0.6133  2.0426
   8623SM  H14G11560   4.319   3.056   6.007 -0.7562 -0.6364  2.4617
   8623SM  C15F11561   4.392   3.107   6.199 -0.4439 -0.0242 -1.1010
   8623SM  H15F11562   4.366   3.211   6.174  2.6888  0.0880 -4.8187
   8623SM  H15G11563   4.494   3.124   6.241 -0.4104  1.3158 -1.7097
   8623SM  C16F11564   4.283   3.042   6.278  0.7699  0.2146  0.0911
   8623SM  H16F11565   4.286   2.931   6.270 -2.2580 -0.2040  2.7430
   8623SM  H16G11566   4.190   3.078   6.229  0.6854 -2.5597 -2.0018
   8623SM  C17F11567   4.279   3.067   6.430 -0.1450 -0.4258 -0.4804
   8623SM  H17F11568   4.368   3.014   6.471 -0.0670  0.6014  0.7352
   8623SM  H17G11569   4.189   3.025   6.480  0.0863  1.0875  1.2762
   8623SM  C18F11570   4.288   3.216   6.462 -0.0980 -0.0720 -0.4460
   8623SM  H18F11571   4.216   3.268   6.396 -1.5147 -0.7006  0.5535
   8623SM  H18G11572   4.380   3.268   6.428 -0.3643 -0.1562 -1.3228
   8623SM  C19F11573   4.250   3.241   6.606 -0.0888  0.3740 -0.1382
   8623SM  H19F11574   4.342   3.223   6.666 -0.5827  1.3921  0.9439
   8623SM  H19G11575   4.183   3.164   6.651  1.8219 -1.9647 -1.0265
   8623SM  C20F11576   4.201   3.378   6.638  0.5258 -0.8116 -0.3864
   8623SM  H20F11577   4.274   3.455   6.606 -0.2260 -0.3404 -1.0158
   8623SM  H20G11578   4.207   3.391   6.748  0.5169 -0.9441 -0.3703
   8623SM  C21F11579   4.055   3.405   6.586  0.2128 -0.5181  0.7047
   8623SM  H21F11580   4.003   3.308   6.582 -0.2491 -0.2215 -2.1622
   8623SM  H21G11581   4.078   3.428   6.480 -1.1211 -2.7388 -0.1152
   8623SM  C22F11582   3.986   3.516   6.661  0.5245 -0.0992 -0.0792
   8623SM  H22F11583   4.019   3.620   6.641  1.1439 -0.2162  0.2984
   8623SM  H22G11584   4.000   3.512   6.771  1.6967  2.6850 -0.0393
   8623SM  C23F11585   3.837   3.520   6.630 -0.9293  0.8741 -0.0781
   8623SM  H23F11586   3.793   3.418   6.638  0.7107  0.2020  0.8218
   8623SM  H23G11587   3.819   3.561   6.529  1.0161  0.2682 -0.7234
   8623SM  H23H11588   3.771   3.580   6.696 -3.3715 -2.6130  0.9300
   8723SM     N11589   5.120   3.406   4.508 -0.0614 -0.4361  0.2679
   8723SM   C1511590   5.031   3.500   4.431 -0.1832 -0.3068  0.1483
   8723SM  H15A11591   5.087   3.540   4.348  1.8962  1.5494  2.3204
   8723SM  H15B11592   5.015   3.594   4.480 -1.1360  0.4882 -1.6022
   8723SM  H15C11593   4.935   3.459   4.403  0.7075 -2.1395 -0.4176
   8723SM   C1411594   5.041   3.371   4.638  0.2291  0.4326  0.2749
   8723SM  H14A11595   5.108   3.331   4.713  0.6481 -0.3918 -0.5176
   8723SM  H14B11596   4.963   3.298   4.623  1.4543 -0.6414 -1.2675
   8723SM  H14C11597   5.001   3.464   4.674  0.1598  1.1925 -1.6404
   8723SM   C1311598   5.140   3.286   4.428 -0.2091  0.0907 -0.4633
   8723SM  H13A11599   5.196   3.303   4.337 -1.3893  1.4606 -0.9793
   8723SM  H13B11600   5.041   3.250   4.402  0.2883  0.0270 -2.3823
   8723SM  H13C11601   5.193   3.212   4.486 -1.4924  1.9677  3.4672
   8723SM   C1211602   5.242   3.473   4.549 -0.3180 -0.7493  0.5173
   8723SM  H12A11603   5.303   3.416   4.616 -2.6455 -1.4913  2.1262
   8723SM  H12B11604   5.214   3.557   4.611  0.1194 -1.4811  1.7212
   8723SM   C1111605   5.335   3.516   4.433  0.0959 -0.0771 -0.6872
   8723SM  H11A11606   5.371   3.426   4.378 -2.0344 -1.9067  0.7542
   8723SM  H11B11607   5.421   3.564   4.484 -1.0475  1.8783 -0.5330
   8723SM     P11608   5.296   3.754   4.325 -0.1036 -0.2982  0.0503
   8723SM   O1311609   5.420   3.785   4.255 -0.1137 -1.0644  0.0395
   8723SM   O1411610   5.172   3.820   4.278 -0.0665  0.3351 -0.3092
   8723SM   O1111611   5.309   3.803   4.477  0.7528 -0.3646  0.6947
   8723SM   O1211612   5.271   3.603   4.342  0.9578  0.4157 -0.1033
   8723SM   C1S11613   5.202   3.849   4.563  0.5873  0.1423  0.2865
   8723SM   H1S11614   5.116   3.779   4.555  1.1406 -0.4034 -1.2945
   8723SM   H1T11615   5.162   3.949   4.535  0.4747 -0.6016 -2.5534
   8723SM    NF11616   5.130   3.860   4.795 -0.3770  0.1345  0.2428
   8723SM   HNF11617   5.076   3.944   4.803  2.2272  2.4466 -3.2082
   8723SM   C2S11618   5.250   3.859   4.712  0.1476 -0.1661  0.1094
   8723SM   H2S11619   5.308   3.766   4.732 -0.0235 -0.0096  1.4101
   8723SM   C3S11620   5.345   3.973   4.727  0.8371 -0.5484  0.6727
   8723SM   H3S11621   5.283   4.065   4.721  0.3141 -0.7066  2.8504
   8723SM    O311622   5.442   3.982   4.622  0.2201  0.0841  0.2569
   8723SM   HO311623   5.406   3.929   4.551 -0.9430  1.6398 -0.3519
   8723SM   C4S11624   5.411   3.978   4.861 -0.7834  0.0835  0.1239
   8723SM   H4S11625   5.520   3.963   4.851 -0.5007  1.7878  0.2817
   8723SM   C5S11626   5.353   4.025   4.973 -0.3953  0.7802  0.3864
   8723SM   H5S11627   5.252   4.069   4.965 -0.5722  1.2974  3.8089
   8723SM   C6S11628   5.427   4.044   5.102  0.1074 -0.3604  0.3812
   8723SM   H6S11629   5.463   4.149   5.098 -0.1115 -0.3008 -0.0091
   8723SM   H6T11630   5.520   3.984   5.113  1.5994  1.3299 -2.0935
   8723SM   C7S11631   5.332   4.036   5.222 -0.1548 -0.7929 -0.6695
   8723SM   H7S11632   5.297   3.933   5.241 -2.1021  0.0831  0.9162
   8723SM   H7T11633   5.232   4.083   5.206  0.3811  1.4046  1.7077
   8723SM   C8S11634   5.403   4.072   5.351  0.3276  0.0939  0.8179
   8723SM   H8S11635   5.420   4.182   5.348 -1.8661  0.5115  1.5628
   8723SM   H8T11636   5.499   4.016   5.354  0.8606  1.0257  1.7414
   8723SM   C9S11637   5.318   4.048   5.477  0.2343 -0.5210 -0.0980
   8723SM   H9S11638   5.350   3.945   5.505 -0.2394 -0.6552 -0.0456
   8723SM   H9T11639   5.210   4.041   5.453  0.3029  0.4585 -0.7515
   8723SM  C10S11640   5.357   4.128   5.596  0.5919  0.2137 -0.0448
   8723SM  H10S11641   5.288   4.215   5.592 -1.5721 -1.2792  1.8522
   8723SM  H10T11642   5.463   4.162   5.594  0.0111  2.2918  0.8853
   8723SM  C11S11643   5.318   4.056   5.727  0.2776 -0.4737 -0.6611
   8723SM  H11S11644   5.383   3.970   5.750  1.5341  0.4031 -0.8314
   8723SM  H11T11645   5.215   4.018   5.707  0.0953 -0.2490 -0.1747
   8723SM  C12S11646   5.307   4.152   5.852 -0.1476 -0.0874 -0.5915
   8723SM  H12S11647   5.263   4.248   5.816 -0.8571 -0.2551 -0.1901
   8723SM  H12T11648   5.408   4.180   5.888 -0.4148  0.5467 -0.3217
   8723SM  C13S11649   5.240   4.091   5.977  0.0656 -0.0945  0.6798
   8723SM  H13S11650   5.289   3.992   5.991 -2.9579 -1.6448  1.1239
   8723SM  H13T11651   5.142   4.050   5.946  1.1824 -2.4457  0.0287
   8723SM  C14S11652   5.242   4.179   6.099 -0.2592 -0.4169 -0.5291
   8723SM  H14S11653   5.169   4.262   6.088  0.4296  0.2775  0.0309
   8723SM  H14T11654   5.345   4.217   6.114 -1.0629  0.8800  2.4914
   8723SM  C15S11655   5.210   4.088   6.223 -0.3382  0.1704  0.2678
   8723SM  H15S11656   5.289   4.010   6.227 -0.0375  0.3689 -1.2504
   8723SM  H15T11657   5.106   4.051   6.218  0.2541 -1.4105 -2.0495
   8723SM  C16S11658   5.230   4.161   6.362  0.1517  0.2543 -0.5799
   8723SM  H16S11659   5.143   4.231   6.364 -0.8589 -0.8434 -2.5313
   8723SM  H16T11660   5.321   4.224   6.367 -2.1309  3.7604  0.3273
   8723SM  C17S11661   5.233   4.052   6.477 -0.4924 -0.3248  0.0862
   8723SM  H17S11662   5.322   3.987   6.474 -0.1884  0.1027 -0.1634
   8723SM  H17T11663   5.137   3.996   6.485 -0.2693 -0.5503  1.4842
   8723SM  C18S11664   5.235   4.120   6.614 -0.1946 -0.0335 -1.1207
   8723SM  H18S11665   5.262   4.042   6.688  0.1837  1.6866  0.6270
   8723SM  H18T11666   5.139   4.164   6.649  0.9473  0.5790  1.5127
   8723SM  H18U11667   5.313   4.197   6.629 -0.5778  0.1656 -0.0126
   8723SM   C1F11668   5.069   3.745   4.819  1.1025 -0.7959  0.1384
   8723SM    OF11669   5.112   3.641   4.777  0.1678  0.8901  0.2782
   8723SM   C2F11670   4.942   3.748   4.900 -0.5133 -0.7744 -0.2771
   8723SM   H2F11671   4.865   3.684   4.853 -0.6592 -0.4858 -0.4386
   8723SM   H2G11672   4.904   3.852   4.893  1.4742  0.0456  0.2241
   8723SM   C3F11673   4.972   3.720   5.048  0.4331  0.3392  0.4328
   8723SM   H3F11674   5.014   3.618   5.059  1.1543  0.3482 -1.6929
   8723SM   H3G11675   4.876   3.693   5.096  0.4203 -1.3406 -0.4659
   8723SM   C4F11676   5.046   3.830   5.133  0.7001  0.1851 -0.1373
   8723SM   H4F11677   5.004   3.924   5.092  1.7343  0.5526 -0.3993
   8723SM   H4G11678   5.155   3.831   5.108  1.4203  2.7531  2.6022
   8723SM   C5F11679   5.051   3.820   5.286  0.7388  0.2690  0.1174
   8723SM   H5F11680   5.118   3.890   5.340  0.0615  0.4384  0.7569
   8723SM   H5G11681   5.077   3.714   5.309  1.2364 -0.0357 -1.7324
   8723SM   C6F11682   4.918   3.871   5.338  0.2499  0.1840 -0.7532
   8723SM   H6F11683   4.831   3.835   5.279  0.0632 -0.3789 -0.1426
   8723SM   H6G11684   4.912   3.982   5.334  5.1374  0.6082 -2.5507
   8723SM   C7F11685   4.896   3.832   5.485  0.2214 -0.4184  0.4915
   8723SM   H7F11686   4.994   3.840   5.536  0.8922  0.3836 -0.8581
   8723SM   H7G11687   4.869   3.724   5.493 -0.4627 -0.2710  0.2335
   8723SM   C8F11688   4.800   3.938   5.550 -0.4109  0.0428 -0.3918
   8723SM   H8F11689   4.715   3.947   5.479  0.0156 -1.9250 -1.2286
   8723SM   H8G11690   4.855   4.035   5.554 -1.0559  0.3728  0.6554
   8723SM   C9F11691   4.758   3.905   5.701 -0.5163  0.0672 -0.6326
   8723SM   H9F11692   4.709   3.805   5.700 -1.7160  0.6262 -1.7590
   8723SM   H9G11693   4.694   3.985   5.745  0.0334 -0.3053  0.9057
   8723SM  C10F11694   4.883   3.879   5.792  0.0463 -0.7622 -0.3574
   8723SM  H10F11695   4.961   3.956   5.774 -1.0254  0.7015  1.0117
   8723SM  H10G11696   4.924   3.776   5.779 -0.6447 -1.4071  1.9731
   8723SM  C11F11697   4.837   3.875   5.943  0.1364 -0.4357 -0.5148
   8723SM  H11F11698   4.919   3.817   5.990  1.6115 -0.7242 -3.2485
   8723SM  H11G11699   4.739   3.825   5.963 -1.3210  2.8478  1.3664
   8723SM  C12F11700   4.817   4.016   6.007  0.4716 -0.9584 -0.2544
   8723SM  H12F11701   4.720   4.055   5.969  0.7357  0.5901  0.5863
   8723SM  H12G11702   4.903   4.079   5.973 -0.7990  1.4064  0.6868
   8723SM  C13F11703   4.808   4.009   6.160 -0.2115  0.0951 -0.1348
   8723SM  H13F11704   4.901   3.959   6.194 -1.3655 -3.6561 -2.0136
   8723SM  H13G11705   4.726   3.940   6.190 -1.6656  1.5458 -0.5940
   8723SM  C14F11706   4.800   4.137   6.237 -0.5319 -0.1019 -0.5023
   8723SM  H14F11707   4.705   4.191   6.216  0.0422  0.9822 -0.4178
   8723SM  H14G11708   4.874   4.219   6.220 -2.9120  2.7445  1.7998
   8723SM  C15F11709   4.816   4.121   6.395 -0.1702  0.2795 -0.3765
   8723SM  H15F11710   4.924   4.114   6.422 -0.1611  1.2504 -0.1265
   8723SM  H15G11711   4.759   4.029   6.422  0.0492  0.7658  1.9066
   8723SM  C16F11712   4.767   4.244   6.466 -0.0854  0.6828 -0.5588
   8723SM  H16F11713   4.662   4.268   6.438  0.4821  1.3886 -2.2421
   8723SM  H16G11714   4.826   4.332   6.431  1.3334  0.0969  0.2473
   8723SM  C17F11715   4.779   4.245   6.616 -0.1681  0.1282 -0.2216
   8723SM  H17F11716   4.740   4.339   6.660 -1.6408 -0.4948 -0.1444
   8723SM  H17G11717   4.886   4.232   6.643 -0.5765  2.1264  2.7901
   8723SM  C18F11718   4.699   4.131   6.684  0.1012 -0.3130 -0.6453
   8723SM  H18F11719   4.770   4.056   6.725 -0.0729 -0.6806 -1.0049
   8723SM  H18G11720   4.634   4.082   6.609 -1.1954 -1.6621  1.2465
   8723SM  C19F11721   4.603   4.184   6.805 -0.4967  0.0626 -0.3411
   8723SM  H19F11722   4.677   4.244   6.862  2.2971 -2.0996 -1.4147
   8723SM  H19G11723   4.585   4.087   6.856  1.8131 -0.7425 -0.9074
   8723SM  C20F11724   4.486   4.262   6.750 -0.3633 -0.2244  0.5790
   8723SM  H20F11725   4.514   4.321   6.659 -0.1401 -1.3296 -0.0908
   8723SM  H20G11726   4.450   4.333   6.827  0.3026  1.5270 -0.6485
   8723SM  C21F11727   4.376   4.168   6.708 -0.7313 -0.3372  0.1253
   8723SM  H21F11728   4.338   4.108   6.793  0.1693  0.8318  1.3737
   8723SM  H21G11729   4.408   4.092   6.633 -1.0765 -0.8847  0.5258
   8723SM  C22F11730   4.261   4.237   6.634 -0.1896  0.1468 -0.8469
   8723SM  H22F11731   4.199   4.147   6.615  1.3353 -1.3382  0.7262
   8723SM  H22G11732   4.297   4.278   6.538 -1.1980  2.4677 -0.2879
   8723SM  C23F11733   4.179   4.335   6.711 -0.1056 -0.4625 -0.3146
   8723SM  H23F11734   4.252   4.407   6.754 -0.7384  0.1801 -0.2929
   8723SM  H23G11735   4.128   4.282   6.794  3.2167 -1.8590  1.0180
   8723SM  H23H11736   4.108   4.390   6.646 -1.0907  4.0954  3.9624
   8823SM     N11737   3.404   3.996   4.060  0.0539  0.0502  0.3542
   8823SM   C1511738   3.481   3.902   3.970  0.5156 -0.2118  0.2663
   8823SM  H15A11739   3.470   3.916   3.863 -0.1670 -2.1060  0.0422
   8823SM  H15B11740   3.443   3.802   3.985  1.9716 -0.7726  0.3679
   8823SM  H15C11741   3.585   3.898   3.995  0.6451 -3.2434 -0.3068
   8823SM   C1411742   3.462   4.134   4.051  0.6143  0.1427  0.3034
   8823SM  H14A11743   3.462   4.171   3.949  0.0253 -1.6571 -0.3809
   8823SM  H14B11744   3.565   4.141   4.081 -0.6430  1.6277  5.1923
   8823SM  H14C11745   3.419   4.206   4.119 -0.4913  0.1297 -0.3492
   8823SM   C1311746   3.262   3.994   4.015 -0.4376 -0.0639  0.1647
   8823SM  H13A11747   3.253   4.008   3.908  0.6664  0.7134  0.1583
   8823SM  H13B11748   3.196   4.057   4.074  1.3814 -0.0311  2.2762
   8823SM  H13C11749   3.230   3.892   4.025 -0.1262 -0.2942 -1.0223
   8823SM   C1211750   3.418   3.946   4.205  0.0508  0.5455 -0.6362
   8823SM  H12A11751   3.341   4.001   4.258 -0.4101 -2.6895  2.4626
   8823SM  H12B11752   3.513   3.982   4.240 -0.7231  2.0017  0.0806
   8823SM   C1111753   3.403   3.794   4.243 -0.1106  0.1579  0.4689
   8823SM  H11A11754   3.380   3.782   4.351 -0.4229 -2.3863  0.1737
   8823SM  H11B11755   3.496   3.742   4.213 -1.6874 -2.4185 -0.3005
   8823SM     P11756   3.145   3.724   4.232 -0.1784  0.3715  0.0461
   8823SM   O1311757   3.060   3.739   4.114  0.3526  0.2917 -0.1612
   8823SM   O1411758   3.145   3.599   4.307 -0.0926  0.4172 -0.6876
   8823SM   O1111759   3.116   3.847   4.330 -0.3861 -0.0885 -0.1776
   8823SM   O1211760   3.294   3.741   4.172  0.3320 -0.2776 -0.6074
   8823SM   C1S11761   3.010   3.846   4.423  0.0056  0.0777 -0.4656
   8823SM   H1S11762   3.004   3.760   4.494  0.1325  0.8540  0.5114
   8823SM   H1T11763   2.912   3.841   4.371  0.1504 -0.0404 -0.7260
   8823SM    NF11764   2.933   3.945   4.634 -0.1034 -0.4662 -0.0554
   8823SM   HNF11765   2.838   3.976   4.631  0.3170  0.8826 -0.0063
   8823SM   C2S11766   3.018   3.965   4.524 -0.4933 -0.1660  1.2761
   8823SM   H2S11767   3.124   3.968   4.557 -0.7697  0.3095  2.1494
   8823SM   C3S11768   2.991   4.098   4.454 -0.3475 -0.7362  0.2156
   8823SM   H3S11769   2.881   4.092   4.436 -0.6653 -0.8080  2.0284
   8823SM    O311770   3.065   4.108   4.324 -0.3735 -0.1051  0.1098
   8823SM   HO311771   3.094   4.017   4.311 -0.5575 -0.1643  0.1088
   8823SM   C4S11772   3.007   4.219   4.549  0.2414 -0.0855  0.4030
   8823SM   H4S11773   2.923   4.228   4.619 -2.0239 -0.5778 -2.0808
   8823SM   C5S11774   3.099   4.318   4.555 -1.0884  0.1382 -0.2162
   8823SM   H5S11775   3.189   4.303   4.494  0.1287 -0.5371  1.6879
   8823SM   C6S11776   3.102   4.430   4.650 -0.4192 -0.6320  0.5733
   8823SM   H6S11777   2.995   4.456   4.669 -0.5906 -0.8265 -0.0661
   8823SM   H6T11778   3.147   4.520   4.603 -0.0907 -0.4371  1.2543
   8823SM   C7S11779   3.184   4.419   4.779  0.2740  0.2786 -0.1469
   8823SM   H7S11780   3.287   4.401   4.744 -0.4887  2.4533 -4.2496
   8823SM   H7T11781   3.148   4.327   4.830  2.3453 -0.9291 -0.7741
   8823SM   C8S11782   3.156   4.540   4.875 -0.1762 -0.6804  0.5425
   8823SM   H8S11783   3.061   4.588   4.841 -1.0113 -2.0098  0.9176
   8823SM   H8T11784   3.233   4.619   4.863 -0.5360 -0.5159 -0.8171
   8823SM   C9S11785   3.147   4.503   5.018  0.4681 -0.3744  0.0976
   8823SM   H9S11786   3.242   4.453   5.048  0.1719 -1.7777 -1.1927
   8823SM   H9T11787   3.068   4.429   5.044 -0.9304  1.1296  0.2655
   8823SM  C10S11788   3.135   4.628   5.110 -0.0718  0.2920 -0.1810
   8823SM  H10S11789   3.048   4.690   5.078  0.4423  0.7435 -0.7243
   8823SM  H10T11790   3.229   4.684   5.093  1.3640 -1.7914  0.5085
   8823SM  C11S11791   3.125   4.585   5.256  0.1440  0.2313  0.0829
   8823SM  H11S11792   3.205   4.513   5.287 -1.3562 -0.9376  1.3868
   8823SM  H11T11793   3.037   4.518   5.265  0.5550 -0.5842 -1.4483
   8823SM  C12S11794   3.104   4.705   5.345  0.1544 -0.3796  0.6919
   8823SM  H12S11795   3.014   4.757   5.307  0.6746  0.9730  1.2403
   8823SM  H12T11796   3.190   4.775   5.336 -0.9124  0.7763 -1.1279
   8823SM  C13S11797   3.081   4.673   5.490  0.8410  0.4552 -1.1281
   8823SM  H13S11798   3.161   4.607   5.532 -0.0591  1.5844  2.8110
   8823SM  H13T11799   2.989   4.611   5.479 -0.2148  1.8686 -0.5648
   8823SM  C14S11800   3.070   4.793   5.582  0.1123  0.0982 -0.2795
   8823SM  H14S11801   2.993   4.866   5.550  0.2125  1.3218  2.0905
   8823SM  H14T11802   3.170   4.840   5.583  0.5885 -0.8755 -0.4281
   8823SM  C15S11803   3.037   4.752   5.726 -0.4234  0.5701 -0.8285
   8823SM  H15S11804   2.930   4.726   5.743 -0.0806 -0.4620 -0.1693
   8823SM  H15T11805   3.052   4.842   5.790 -1.3384 -1.7787  3.0246
   8823SM  C16S11806   3.120   4.632   5.786  0.7618 -0.9560 -0.1225
   8823SM  H16S11807   3.229   4.649   5.773  0.5510  0.6977 -0.0507
   8823SM  H16T11808   3.084   4.541   5.734  0.0218  0.7831 -2.9039
   8823SM  C17S11809   3.092   4.614   5.936  0.1328  0.4049 -0.6445
   8823SM  H17S11810   3.120   4.510   5.964 -3.8438 -0.4581  0.8364
   8823SM  H17T11811   2.983   4.621   5.959  0.5704  0.5438  1.6836
   8823SM  C18S11812   3.175   4.709   6.021  0.3125 -0.4137  0.0736
   8823SM  H18S11813   3.171   4.667   6.123  0.2645 -1.3937 -0.3208
   8823SM  H18T11814   3.129   4.810   6.025  0.7017 -0.0816 -2.0984
   8823SM  H18U11815   3.281   4.721   5.986  0.0828  0.1880 -0.4521
   8823SM   C1F11816   2.985   3.881   4.738 -0.4978  0.5143  0.1295
   8823SM    OF11817   3.095   3.828   4.735  0.1673  1.4322  0.0959
   8823SM   C2F11818   2.896   3.855   4.854  0.0243  0.0355  0.4066
   8823SM   H2F11819   2.837   3.764   4.830 -1.4173  1.1422 -0.3858
   8823SM   H2G11820   2.829   3.942   4.872 -1.2268 -0.6701 -0.6623
   8823SM   C3F11821   2.963   3.811   4.988  0.7738  0.4828  0.6631
   8823SM   H3F11822   3.044   3.883   5.015  0.7197  0.5410  0.6695
   8823SM   H3G11823   3.013   3.715   4.967 -0.8595 -0.5380  1.2716
   8823SM   C4F11824   2.862   3.792   5.108 -0.0683 -0.5319  0.5904
   8823SM   H4F11825   2.781   3.728   5.068  1.3585 -1.7823 -0.4057
   8823SM   H4G11826   2.823   3.882   5.160  0.3523  0.8675 -1.4256
   8823SM   C5F11827   2.940   3.719   5.228  0.0699 -1.2279  0.8651
   8823SM   H5F11828   3.023   3.782   5.265 -0.2645 -0.8399  0.9675
   8823SM   H5G11829   2.982   3.631   5.175  0.5447 -0.1763 -0.5366
   8823SM   C6F11830   2.847   3.690   5.351 -0.2871  0.3702  0.4356
   8823SM   H6F11831   2.787   3.600   5.329  1.7529 -1.4080  1.7419
   8823SM   H6G11832   2.783   3.780   5.362  1.2135  1.2204  2.9379
   8823SM   C7F11833   2.940   3.678   5.477  0.5261 -0.0585  0.2070
   8823SM   H7F11834   2.986   3.778   5.487  0.4186 -0.1339  1.7993
   8823SM   H7G11835   3.026   3.611   5.456  0.7786  0.5448 -0.7478
   8823SM   C8F11836   2.867   3.629   5.605 -0.9925  0.8786  0.3261
   8823SM   H8F11837   2.946   3.578   5.664  1.0905  0.2590 -2.7730
   8823SM   H8G11838   2.780   3.567   5.573  0.5527 -1.5969  0.6653
   8823SM   C9F11839   2.809   3.750   5.685 -0.4826  0.5367  0.0183
   8823SM   H9F11840   2.727   3.780   5.617 -0.4140 -0.8763 -0.7310
   8823SM   H9G11841   2.885   3.830   5.690 -1.4973  1.4982  0.3374
   8823SM  C10F11842   2.775   3.725   5.833  1.1298 -0.5952  0.4307
   8823SM  H10F11843   2.854   3.668   5.887 -0.4641 -1.9435  1.4277
   8823SM  H10G11844   2.687   3.659   5.846  0.5731  0.4612  2.3845
   8823SM  C11F11845   2.729   3.851   5.904  0.2105 -0.7970 -0.2357
   8823SM  H11F11846   2.662   3.906   5.834  1.8476  0.5827 -0.8050
   8823SM  H11G11847   2.810   3.924   5.923 -1.3213  0.3924  2.2215
   8823SM  C12F11848   2.659   3.832   6.035  0.3485  0.0926 -0.3640
   8823SM  H12F11849   2.719   3.764   6.100  1.4392  1.8593  0.5359
   8823SM  H12G11850   2.563   3.778   6.018 -0.7627  1.1976  1.9551
   8823SM  C13F11851   2.641   3.958   6.116  0.3181  0.4956 -0.1530
   8823SM  H13F11852   2.552   3.947   6.182 -0.0953  1.2507 -0.5710
   8823SM  H13G11853   2.618   4.039   6.043 -2.1433  0.9914  1.0553
   8823SM  C14F11854   2.758   3.998   6.201  0.1065 -1.2090 -0.4868
   8823SM  H14F11855   2.756   4.107   6.221 -1.2424 -1.1665 -0.7209
   8823SM  H14G11856   2.844   3.987   6.132 -0.5408  1.1955 -1.7865
   8823SM  C15F11857   2.770   3.923   6.333  0.0800 -0.7042 -0.7780
   8823SM  H15F11858   2.708   3.831   6.339  0.4811 -0.9103  0.3884
   8823SM  H15G11859   2.736   3.996   6.409  0.9732 -1.3393  0.2752
   8823SM  C16F11860   2.915   3.881   6.367 -0.0866 -0.3216  0.5141
   8823SM  H16F11861   2.989   3.961   6.349  0.3743 -0.2860  2.4197
   8823SM  H16G11862   2.946   3.808   6.288 -2.2444  0.6496 -1.3335
   8823SM  C17F11863   2.929   3.815   6.505 -0.3441 -0.4471  0.5186
   8823SM  H17F11864   3.027   3.763   6.508 -0.1018 -0.0038  0.3450
   8823SM  H17G11865   2.861   3.728   6.513 -0.2994 -0.5127  0.1854
   8823SM  C18F11866   2.899   3.908   6.618 -1.0248 -0.0593 -0.5009
   8823SM  H18F11867   2.882   3.856   6.714  0.7258  1.3678  0.6603
   8823SM  H18G11868   2.811   3.970   6.590 -2.7212 -1.3277  1.7250
   8823SM  C19F11869   3.015   4.005   6.650  0.0143  0.1687  0.3278
   8823SM  H19F11870   2.994   4.079   6.730  0.3684 -0.3956  0.9433
   8823SM  H19G11871   3.039   4.057   6.555 -2.1466 -1.1453 -1.0494
   8823SM  C20F11872   3.140   3.930   6.698  0.1385 -0.1063 -0.4609
   8823SM  H20F11873   3.162   3.847   6.627 -0.2686 -1.3331  0.8023
   8823SM  H20G11874   3.124   3.888   6.799  3.7686 -0.1168  0.2654
   8823SM  C21F11875   3.264   4.017   6.724  0.4749 -0.3785  0.4737
   8823SM  H21F11876   3.234   4.111   6.775  0.2368 -0.9174  1.3474
   8823SM  H21G11877   3.301   4.042   6.622 -2.0210 -1.0544 -0.6882
   8823SM  C22F11878   3.361   3.941   6.809  0.5347  0.2522 -0.5972
   8823SM  H22F11879   3.303   3.884   6.885  1.6590  0.5221  0.4918
   8823SM  H22G11880   3.433   4.013   6.854 -0.1904 -0.3721  1.7287
   8823SM  C23F11881   3.431   3.828   6.732  0.3223  0.5270 -0.5857
   8823SM  H23F11882   3.470   3.868   6.636  2.1979 -2.1298 -1.0319
   8823SM  H23G11883   3.363   3.744   6.708  0.8252  0.0447 -0.3549
   8823SM  H23H11884   3.518   3.794   6.793 -0.6240 -0.7568  0.0997
   8923SM     N11885   5.986   3.488   4.199 -0.5487  0.6926  0.0051
   8923SM   C1511886   5.935   3.577   4.090 -0.0785 -0.5997  0.1615
   8923SM  H15A11887   5.833   3.602   4.114 -0.0496  1.0505 -1.2210
   8923SM  H15B11888   5.934   3.533   3.991 -0.9161 -0.1082 -0.0559
   8923SM  H15C11889   5.992   3.667   4.075 -0.3327 -0.4539  0.0737
   8923SM   C1411890   5.899   3.363   4.199 -0.3896 -0.5446  0.4195
   8923SM  H14A11891   5.797   3.393   4.215  0.3033  1.0721  2.1676
   8923SM  H14B11892   5.931   3.300   4.280  0.6197 -0.4099  0.1490
   8923SM  H14C11893   5.922   3.316   4.104 -0.2458  0.5001 -0.0829
   8923SM   C1311894   6.131   3.460   4.168 -0.1443 -0.0232  0.5228
   8923SM  H13A11895   6.169   3.372   4.217 -0.1231  0.3389  1.1696
   8923SM  H13B11896   6.194   3.544   4.194  0.0545 -0.3432  1.1020
   8923SM  H13C11897   6.145   3.448   4.062 -2.2972  0.3987  0.1402
   8923SM   C1211898   5.980   3.558   4.328 -0.5253 -0.1916 -0.0052
   8923SM  H12A11899   5.888   3.613   4.339 -1.7621 -1.9374 -1.1713
   8923SM  H12B11900   6.058   3.633   4.326 -0.8675  0.1697  0.1808
   8923SM   C1111901   5.998   3.479   4.459 -0.1089  0.6153  0.4486
   8923SM  H11A11902   5.934   3.389   4.474  0.7365 -0.4003 -1.6154
   8923SM  H11B11903   5.990   3.548   4.546  1.3610  0.1019  1.0193
   8923SM     P11904   6.252   3.499   4.517 -0.3519  0.1922  0.2727
   8923SM   O1311905   6.371   3.408   4.504  0.7991  0.4336  0.1134
   8923SM   O1411906   6.252   3.632   4.446  0.1183 -0.7773 -0.5137
   8923SM   O1111907   6.215   3.529   4.667 -0.2035  0.2817  0.2219
   8923SM   O1211908   6.131   3.427   4.454  0.6610  0.0995 -0.1068
   8923SM   C1S11909   6.207   3.414   4.756 -0.0161  0.0170 -0.1090
   8923SM   H1S11910   6.304   3.361   4.744  0.0083  0.2670 -1.1001
   8923SM   H1T11911   6.123   3.349   4.725 -0.9971  1.2113 -0.0098
   8923SM    NF11912   6.221   3.354   5.007  0.1975  0.1986 -0.1313
   8923SM   HNF11913   6.149   3.305   5.055 -0.1622 -1.0260 -1.8174
   8923SM   C2S11914   6.183   3.459   4.908 -0.5151  0.6454 -0.1095
   8923SM   H2S11915   6.255   3.542   4.924 -2.3512  2.0255  1.5777
   8923SM   C3S11916   6.039   3.520   4.922 -0.2325  0.0055  0.1261
   8923SM   H3S11917   5.961   3.447   4.893 -1.6906  1.1844  0.9795
   8923SM    O311918   6.006   3.634   4.835  0.1730  0.3104  0.3801
   8923SM   HO311919   6.061   3.614   4.759 -0.1422 -0.8806  0.4442
   8923SM   C4S11920   6.015   3.544   5.062 -0.6980 -0.1157 -0.2305
   8923SM   H4S11921   5.986   3.450   5.112 -1.1200  0.1397  0.0106
   8923SM   C5S11922   6.045   3.647   5.141 -0.0195 -0.2809 -0.0109
   8923SM   H5S11923   6.089   3.742   5.106 -1.3143  0.7788  1.1072
   8923SM   C6S11924   6.046   3.637   5.288  0.2392 -0.3757  0.1456
   8923SM   H6S11925   6.109   3.714   5.338 -2.0415  2.3770 -0.9287
   8923SM   H6T11926   6.081   3.541   5.331  0.2637 -0.9712 -1.1775
   8923SM   C7S11927   5.909   3.652   5.365  0.4582 -0.0654 -0.7770
   8923SM   H7S11928   5.831   3.575   5.348  0.3106  0.2801 -1.7426
   8923SM   H7T11929   5.871   3.750   5.327  0.2789  0.2093  0.0950
   8923SM   C8S11930   5.920   3.665   5.524 -0.1774  0.3350  1.3283
   8923SM   H8S11931   5.989   3.752   5.535 -0.7278  1.1204 -0.7527
   8923SM   H8T11932   5.979   3.579   5.562  4.7035  1.9042 -1.6782
   8923SM   C9S11933   5.787   3.698   5.590 -0.0534  0.9711 -0.4474
   8923SM   H9S11934   5.719   3.610   5.583  0.6174  0.4355 -0.3083
   8923SM   H9T11935   5.742   3.790   5.545 -1.6041  0.8549  0.7590
   8923SM  C10S11936   5.808   3.745   5.734  0.3077 -0.2211  0.0114
   8923SM  H10S11937   5.860   3.843   5.737  1.4329 -0.8182  1.7035
   8923SM  H10T11938   5.877   3.677   5.789  1.4665  1.9967  1.4323
   8923SM  C11S11939   5.675   3.765   5.806  0.3954  0.3376  0.0194
   8923SM  H11S11940   5.627   3.666   5.813  0.4511  0.3070 -0.0256
   8923SM  H11T11941   5.605   3.825   5.744 -0.6993  0.7319  1.5936
   8923SM  C12S11942   5.698   3.832   5.941 -0.3752  0.0241 -0.9253
   8923SM  H12S11943   5.717   3.941   5.933 -0.6473  0.3385  1.8419
   8923SM  H12T11944   5.792   3.791   5.984  0.2910  2.2513 -0.1472
   8923SM  C13S11945   5.588   3.815   6.046 -0.2110 -0.5265  0.1158
   8923SM  H13S11946   5.536   3.719   6.026 -1.8549  0.1067  1.0684
   8923SM  H13T11947   5.504   3.886   6.031 -0.0023 -0.3211 -0.0837
   8923SM  C14S11948   5.638   3.815   6.195 -0.2143 -0.8794 -0.0134
   8923SM  H14S11949   5.736   3.764   6.205  0.1437 -0.0183  1.1211
   8923SM  H14T11950   5.561   3.760   6.253 -0.9216 -0.9202 -0.9730
   8923SM  C15S11951   5.620   3.960   6.259 -0.2627  0.3460 -0.0183
   8923SM  H15S11952   5.517   3.997   6.240 -2.0125 -2.1809  3.4755
   8923SM  H15T11953   5.693   4.030   6.213  1.6840 -1.1994  0.5784
   8923SM  C16S11954   5.649   3.964   6.405 -0.1860  0.7395  1.3308
   8923SM  H16S11955   5.741   3.904   6.422 -0.4417  1.1423  4.9833
   8923SM  H16T11956   5.569   3.913   6.462 -0.3799 -0.4342  0.0707
   8923SM  C17S11957   5.687   4.099   6.465 -0.2087  0.9685  0.5428
   8923SM  H17S11958   5.597   4.165   6.455 -0.2350  0.7135 -1.2458
   8923SM  H17T11959   5.765   4.144   6.400  0.2765 -0.7822 -0.1199
   8923SM  C18S11960   5.735   4.079   6.613  0.0734 -0.0462  0.1817
   8923SM  H18S11961   5.829   4.019   6.615  0.8172  1.0264 -0.7656
   8923SM  H18T11962   5.661   4.026   6.676  2.2518 -2.3615  0.9741
   8923SM  H18U11963   5.733   4.182   6.656 -0.0606  0.5962 -1.2787
   8923SM   C1F11964   6.347   3.302   5.007  0.1083 -0.6941  0.2241
   8923SM    OF11965   6.439   3.354   4.937  0.0361 -0.2058  0.0461
   8923SM   C2F11966   6.377   3.173   5.085 -0.4272  0.5666 -0.3399
   8923SM   H2F11967   6.472   3.125   5.054  0.5963  0.1863  3.0492
   8923SM   H2G11968   6.302   3.096   5.055  0.4166 -0.4669  0.1324
   8923SM   C3F11969   6.382   3.189   5.239  0.1820  0.5166 -0.7165
   8923SM   H3F11970   6.466   3.247   5.284  1.1673 -0.1686 -1.6311
   8923SM   H3G11971   6.402   3.088   5.281 -0.5989  0.9715  0.7966
   8923SM   C4F11972   6.248   3.236   5.311 -0.5434  0.2919  0.7396
   8923SM   H4F11973   6.166   3.170   5.277  0.1692 -0.4881  0.5016
   8923SM   H4G11974   6.226   3.342   5.283 -0.8426  0.5219  1.8149
   8923SM   C5F11975   6.249   3.221   5.461  0.1178  0.2615  0.2553
   8923SM   H5F11976   6.317   3.282   5.525 -0.4600 -1.2211  2.3844
   8923SM   H5G11977   6.269   3.112   5.471 -2.0942 -0.4993 -2.3382
   8923SM   C6F11978   6.112   3.231   5.537 -0.2581  0.1680  0.8803
   8923SM   H6F11979   6.030   3.165   5.500  1.7352 -0.8673 -2.0428
   8923SM   H6G11980   6.083   3.338   5.533  1.1613  0.5734  0.9814
   8923SM   C7F11981   6.136   3.203   5.681 -0.2463  0.2310  0.3097
   8923SM   H7F11982   6.216   3.268   5.723 -0.5708 -1.3213  3.5763
   8923SM   H7G11983   6.174   3.099   5.687 -0.5005  0.0094 -1.3996
   8923SM   C8F11984   6.017   3.209   5.782 -0.6973  0.2102 -0.0374
   8923SM   H8F11985   5.934   3.147   5.743 -1.1997 -1.4567  3.2612
   8923SM   H8G11986   5.994   3.317   5.784  0.2673  0.4224  1.6256
   8923SM   C9F11987   6.057   3.151   5.922  0.0418 -0.2293 -0.0325
   8923SM   H9F11988   6.095   3.050   5.897  0.3223  0.0288 -0.6779
   8923SM   H9G11989   5.965   3.148   5.985  1.5120 -0.4308  2.2376
   8923SM  C10F11990   6.166   3.231   5.991  0.6220 -0.0287 -0.4928
   8923SM  H10F11991   6.111   3.327   6.002 -1.5677 -1.0928 -1.6647
   8923SM  H10G11992   6.254   3.233   5.924 -0.5608 -5.7093 -2.8154
   8923SM  C11F11993   6.213   3.190   6.130  0.2652 -0.0709 -0.0803
   8923SM  H11F11994   6.272   3.273   6.175  0.3168 -0.2700  0.2260
   8923SM  H11G11995   6.281   3.102   6.133 -0.7518 -0.8579  1.6729
   8923SM  C12F11996   6.104   3.172   6.228  0.6401 -0.1414 -0.1091
   8923SM  H12F11997   6.026   3.096   6.207 -1.2410  1.8439 -0.7388
   8923SM  H12G11998   6.056   3.273   6.226 -1.8614 -1.2666 -1.1612
   8923SM  C13F11999   6.153   3.139   6.366  0.0370  0.6270  0.9270
   8923SM  H13F12000   6.226   3.211   6.409  0.4748  0.8142 -0.1074
   8923SM  H13G12001   6.203   3.041   6.351 -0.8776  0.5177 -1.9737
   8923SM  C14F12002   6.050   3.126   6.480 -0.4185 -0.0878  0.3441
   8923SM  H14F12003   6.104   3.091   6.570 -0.8413  0.7124  0.9133
   8923SM  H14G12004   5.979   3.042   6.461  0.2478 -0.5322 -0.2492
   8923SM  C15F12005   5.974   3.257   6.511 -0.5193  0.1804  0.5579
   8923SM  H15F12006   5.941   3.305   6.416  2.0845 -0.3736 -0.7099
   8923SM  H15G12007   6.040   3.327   6.567  0.6316 -1.3270  1.1494
   8923SM  C16F12008   5.848   3.230   6.588 -0.7837 -0.3807  0.3436
   8923SM  H16F12009   5.773   3.178   6.524 -1.1099 -1.3233  1.4634
   8923SM  H16G12010   5.807   3.331   6.609 -1.9127 -0.2887 -1.9356
   8923SM  C17F12011   5.853   3.149   6.717 -1.0662  0.1133  0.9607
   8923SM  H17F12012   5.935   3.195   6.777 -0.0661  0.6716 -0.7618
   8923SM  H17G12013   5.869   3.042   6.693 -2.5693 -0.0954  0.7707
   8923SM  C18F12014   5.722   3.155   6.795 -0.3800 -0.7510 -0.5770
   8923SM  H18F12015   5.642   3.136   6.721  1.3003  0.2107 -2.7362
   8923SM  H18G12016   5.713   3.250   6.853 -1.4302 -1.0268 -0.2584
   8923SM  C19F12017   5.703   3.033   6.893 -0.5333 -0.6713 -0.0915
   8923SM  H19F12018   5.792   3.022   6.958 -0.6954 -0.1924  0.2214
   8923SM  H19G12019   5.699   2.940   6.833  0.2302  0.1299 -1.4477
   8923SM  C20F12020   5.585   3.072   6.980 -0.3477 -0.3148  0.4600
   8923SM  H20F12021   5.597   3.170   7.031  0.8022 -0.5216  0.6192
   8923SM  H20G12022   5.571   2.991   7.056 -0.6606 -1.7632 -1.0723
   8923SM  C21F12023   5.450   3.068   6.897  0.1629 -0.4235 -0.1926
   8923SM  H21F12024   5.444   2.966   6.855  0.7343  0.1906 -1.8604
   8923SM  H21G12025   5.460   3.144   6.816  1.2604  0.1964  0.4917
   8923SM  C22F12026   5.321   3.120   6.973  0.0485 -0.0886  0.4460
   8923SM  H22F12027   5.235   3.147   6.907  0.3090  0.3326  0.2723
   8923SM  H22G12028   5.349   3.217   7.021 -0.0393  0.5254 -0.7007
   8923SM  C23F12029   5.271   3.027   7.083 -0.0918 -0.6534 -0.4839
   8923SM  H23F12030   5.241   2.923   7.059  1.1396 -0.7434 -1.7786
   8923SM  H23G12031   5.181   3.067   7.134  0.2668 -0.9860  0.4349
   8923SM  H23H12032   5.350   3.013   7.160  1.1611 -1.5136 -1.8676
   9023SM     N12033   6.054   4.306   4.560 -0.8023  0.7590 -0.4395
   9023SM   C1512034   5.991   4.276   4.693  0.2890  0.0458  0.3838
   9023SM  H15A12035   6.065   4.245   4.765 -1.7687 -2.0751  1.7188
   9023SM  H15B12036   5.917   4.200   4.673 -2.5457  2.2785  1.7245
   9023SM  H15C12037   5.947   4.367   4.732  1.8986  1.7926 -1.6080
   9023SM   C1412038   6.145   4.426   4.575  0.6257  0.5596  0.6546
   9023SM  H14A12039   6.087   4.517   4.585 -0.2498 -0.0941  1.7838
   9023SM  H14B12040   6.217   4.435   4.495  1.5577 -0.0965  1.3874
   9023SM  H14C12041   6.214   4.418   4.658  0.2210  1.4954  1.0923
   9023SM   C1312042   6.151   4.194   4.530  0.0404  0.0922 -0.4887
   9023SM  H13A12043   6.212   4.206   4.441  0.7795  0.4240  0.0591
   9023SM  H13B12044   6.109   4.095   4.520  0.0458 -0.0571  0.8668
   9023SM  H13C12045   6.216   4.188   4.615 -3.9353 -2.1955  2.7318
   9023SM   C1212046   5.949   4.316   4.454 -0.5909 -0.3570 -0.7570
   9023SM  H12A12047   5.995   4.362   4.367  0.6676  0.5337  0.3289
   9023SM  H12B12048   5.878   4.389   4.487 -1.6648 -2.3181  1.5876
   9023SM   C1112049   5.875   4.183   4.426  0.0169  0.0358  0.2514
   9023SM  H11A12050   5.785   4.207   4.365  1.6910  1.5586 -1.8007
   9023SM  H11B12051   5.859   4.135   4.524  0.7642  0.9225  0.8248
   9023SM     P12052   5.899   3.955   4.314 -0.0928  0.2231  0.4276
   9023SM   O1312053   5.804   3.968   4.201 -0.1120 -0.3400 -0.4947
   9023SM   O1412054   6.010   3.854   4.303 -0.3391  0.2256  0.0196
   9023SM   O1112055   5.819   3.922   4.440 -0.7169  0.0496 -0.0577
   9023SM   O1212056   5.961   4.095   4.352  0.2037  0.3982  0.2526
   9023SM   C1S12057   5.898   3.873   4.558  0.3276  0.1695 -0.2847
   9023SM   H1S12058   5.965   3.956   4.590 -1.2340  1.2294  0.3923
   9023SM   H1T12059   5.957   3.781   4.539  0.3664 -0.3732  2.1531
   9023SM    NF12060   5.843   3.854   4.805 -0.0525 -0.7559  0.5351
   9023SM   HNF12061   5.891   3.774   4.839  0.2438 -0.8546 -0.1219
   9023SM   C2S12062   5.793   3.844   4.667  0.0154 -0.3358  0.5663
   9023SM   H2S12063   5.712   3.919   4.654 -1.0563 -1.4830  0.4519
   9023SM   C3S12064   5.738   3.702   4.635 -0.3025  0.2117 -0.6719
   9023SM   H3S12065   5.826   3.636   4.644  0.6373  1.5685  0.6648
   9023SM    O312066   5.697   3.691   4.504  0.2577  0.3347 -1.0474
   9023SM   HO312067   5.719   3.781   4.481 -0.6522  1.2027  1.1631
   9023SM   C4S12068   5.625   3.677   4.724  0.4622  0.7021  1.0125
   9023SM   H4S12069   5.559   3.762   4.746 -1.3651 -1.1020  3.0134
   9023SM   C5S12070   5.600   3.558   4.787 -0.4247 -0.9563  0.4017
   9023SM   H5S12071   5.655   3.471   4.748  0.5970 -0.8515  1.5450
   9023SM   C6S12072   5.483   3.539   4.889 -0.2453 -0.0396 -0.5366
   9023SM   H6S12073   5.455   3.431   4.890 -3.4090  0.6813  1.3301
   9023SM   H6T12074   5.387   3.586   4.862 -0.3897 -0.2498 -0.3878
   9023SM   C7S12075   5.529   3.567   5.034 -0.2335 -0.1975 -0.3617
   9023SM   H7S12076   5.565   3.671   5.028 -1.6552  0.3105 -0.4319
   9023SM   H7T12077   5.608   3.493   5.061 -2.4026 -2.8703 -0.8353
   9023SM   C8S12078   5.414   3.557   5.141 -0.3094  0.0893 -0.5966
   9023SM   H8S12079   5.383   3.450   5.139 -0.1762  0.0219 -3.5202
   9023SM   H8T12080   5.326   3.620   5.119  0.6779  2.0733  0.8134
   9023SM   C9S12081   5.457   3.607   5.281 -0.1669  0.5276 -0.1374
   9023SM   H9S12082   5.475   3.716   5.281  0.9312  0.3715  0.6293
   9023SM   H9T12083   5.542   3.539   5.307 -1.7629 -2.5985 -2.4204
   9023SM  C10S12084   5.351   3.572   5.395  0.0141 -0.7392  0.3368
   9023SM  H10S12085   5.318   3.466   5.395 -0.9554 -0.4485 -0.0789
   9023SM  H10T12086   5.263   3.634   5.368  1.1952  0.9036  0.0971
   9023SM  C11S12087   5.391   3.625   5.530 -0.1545  0.5207 -0.0506
   9023SM  H11S12088   5.414   3.734   5.524  0.3444  0.3556 -1.5740
   9023SM  H11T12089   5.489   3.583   5.560 -1.4696 -1.6371  1.4931
   9023SM  C12S12090   5.293   3.586   5.640  0.7501  0.1869 -0.1235
   9023SM  H12S12091   5.295   3.476   5.657 -1.6665  0.0011 -0.7432
   9023SM  H12T12092   5.186   3.603   5.617  0.2963 -1.7668  0.3560
   9023SM  C13S12093   5.326   3.648   5.781  1.2001  0.3935  0.8319
   9023SM  H13S12094   5.341   3.758   5.767  0.3819  0.4297  0.1767
   9023SM  H13T12095   5.415   3.604   5.831  0.3594 -0.2357  1.8169
   9023SM  C14S12096   5.208   3.623   5.885  0.1469 -0.2686 -0.4256
   9023SM  H14S12097   5.173   3.519   5.872  0.9145 -0.5564 -0.2444
   9023SM  H14T12098   5.126   3.691   5.852  0.9694  0.5827 -0.7716
   9023SM  C15S12099   5.251   3.651   6.031  0.7720 -0.2076  0.3286
   9023SM  H15S12100   5.291   3.755   6.039  0.1168  0.2370 -1.5663
   9023SM  H15T12101   5.344   3.592   6.048  0.7146 -0.6481 -0.8062
   9023SM  C16S12102   5.135   3.628   6.131 -0.1800 -0.2847  1.0118
   9023SM  H16S12103   5.127   3.521   6.159 -2.3030 -0.3913  0.1808
   9023SM  H16T12104   5.041   3.642   6.072 -0.0359 -0.8842  0.6281
   9023SM  C17S12105   5.135   3.731   6.242 -0.6645 -0.1550  0.2169
   9023SM  H17S12106   5.030   3.735   6.279 -1.7099 -1.4765 -2.3110
   9023SM  H17T12107   5.157   3.827   6.191  0.1193 -0.5432 -0.1948
   9023SM  C18S12108   5.242   3.703   6.346 -0.6390  0.1741  0.3014
   9023SM  H18S12109   5.347   3.705   6.308 -1.2766  0.4959 -1.5638
   9023SM  H18T12110   5.233   3.607   6.401  2.1275  0.9862  2.4272
   9023SM  H18U12111   5.235   3.779   6.427  1.5851  0.8956 -0.1123
   9023SM   C1F12112   5.870   3.971   4.858  0.1824 -0.1474  0.6266
   9023SM    OF12113   5.831   4.072   4.793 -0.3906  0.7020 -0.0014
   9023SM   C2F12114   5.960   3.974   4.980 -0.0922  0.2648  0.2303
   9023SM   H2F12115   6.035   4.047   4.943 -1.0969  0.1364 -2.2629
   9023SM   H2G12116   6.011   3.875   4.981 -0.1728  0.2224  0.1814
   9023SM   C3F12117   5.914   4.010   5.119  0.3891 -0.0558 -0.9850
   9023SM   H3F12118   6.000   4.015   5.188 -0.1531  0.7601 -0.3539
   9023SM   H3G12119   5.849   3.931   5.163  1.0530  1.3821  2.9728
   9023SM   C4F12120   5.830   4.141   5.126  0.2990 -0.0509 -0.7143
   9023SM   H4F12121   5.737   4.121   5.069  0.4994  1.7281 -1.7397
   9023SM   H4G12122   5.887   4.230   5.091  1.9546 -0.1464  1.5281
   9023SM   C5F12123   5.769   4.164   5.266  1.0392 -0.2924 -0.2660
   9023SM   H5F12124   5.679   4.100   5.271 -1.8841  3.0105 -3.9468
   9023SM   H5G12125   5.734   4.268   5.280  1.9518  0.0347 -0.3488
   9023SM   C6F12126   5.857   4.130   5.385  0.2297 -0.4127  0.0040
   9023SM   H6F12127   5.961   4.164   5.368  0.5853 -2.6704 -3.3644
   9023SM   H6G12128   5.860   4.019   5.393  1.5386 -0.6156 -2.2584
   9023SM   C7F12129   5.807   4.202   5.510 -0.1640  0.0619  0.0638
   9023SM   H7F12130   5.699   4.190   5.535  0.2036  1.9141  2.9782
   9023SM   H7G12131   5.807   4.313   5.501  0.7684  0.2291  1.7178
   9023SM   C8F12132   5.877   4.169   5.654  0.1217 -0.5524  0.0950
   9023SM   H8F12133   5.987   4.187   5.660 -0.0592  1.6150 -1.6272
   9023SM   H8G12134   5.866   4.062   5.681 -1.1060  0.1936  2.8810
   9023SM   C9F12135   5.819   4.255   5.769  0.0516 -0.2471 -0.5533
   9023SM   H9F12136   5.709   4.244   5.780 -0.0286  1.5359  1.1919
   9023SM   H9G12137   5.834   4.362   5.742  0.1589  0.0891  0.7812
   9023SM  C10F12138   5.883   4.229   5.908 -0.3074  1.2166  0.7022
   9023SM  H10F12139   5.990   4.261   5.907 -0.0387  0.4545 -1.8572
   9023SM  H10G12140   5.887   4.120   5.927 -0.3817  0.9578 -0.7127
   9023SM  C11F12141   5.800   4.298   6.013 -0.2504 -0.1662  0.0868
   9023SM  H11F12142   5.707   4.240   6.033 -0.4810  0.1001 -0.2017
   9023SM  H11G12143   5.772   4.395   5.966  1.2986  0.4087  0.2788
   9023SM  C12F12144   5.883   4.335   6.133  0.1208  0.2824  0.1910
   9023SM  H12F12145   5.982   4.382   6.122  0.9461 -0.4569  3.3787
   9023SM  H12G12146   5.904   4.239   6.186  0.9306  0.8068  0.8442
   9023SM  C13F12147   5.802   4.420   6.230  0.6794 -0.0610 -0.1714
   9023SM  H13F12148   5.862   4.413   6.324  0.6481  2.5852  0.1181
   9023SM  H13G12149   5.703   4.372   6.249  0.8173 -0.5737 -0.7087
   9023SM  C14F12150   5.783   4.560   6.173 -0.8787  0.6166  0.6224
   9023SM  H14F12151   5.714   4.560   6.086 -1.0810  1.1401  0.7797
   9023SM  H14G12152   5.883   4.600   6.144 -1.4166  2.4010  1.0901
   9023SM  C15F12153   5.727   4.654   6.281  0.1357 -0.0230 -0.2780
   9023SM  H15F12154   5.788   4.666   6.373 -4.0086 -0.5000  2.8734
   9023SM  H15G12155   5.633   4.603   6.312  0.7835  0.4185  2.6965
   9023SM  C16F12156   5.696   4.791   6.227 -0.0677  0.7287 -0.0661
   9023SM  H16F12157   5.650   4.763   6.129  0.6769 -3.1769  0.5213
   9023SM  H16G12158   5.794   4.834   6.198 -0.1426  2.5999  2.1721
   9023SM  C17F12159   5.613   4.892   6.305 -0.2529 -0.0478  0.3456
   9023SM  H17F12160   5.648   4.909   6.409  2.1460 -0.8091 -0.2641
   9023SM  H17G12161   5.511   4.849   6.308 -0.1426 -0.5575 -1.4733
   9023SM  C18F12162   5.608   5.027   6.236 -0.7484  1.4070  0.1723
   9023SM  H18F12163   5.568   5.006   6.134 -1.2934 -0.0603  0.6646
   9023SM  H18G12164   5.717   5.046   6.222  0.3107 -3.9006 -1.1678
   9023SM  C19F12165   5.534   5.126   6.311 -0.9228  0.2409  1.0511
   9023SM  H19F12166   5.574   5.140   6.414  0.9429 -1.3119  0.5871
   9023SM  H19G12167   5.431   5.085   6.311 -0.4210 -1.0708  1.5964
   9023SM  C20F12168   5.530   5.256   6.222 -0.1209  0.3705  0.1192
   9023SM  H20F12169   5.491   5.227   6.122  0.9397  1.4945 -0.6468
   9023SM  H20G12170   5.632   5.299   6.219 -0.1401  0.9289  3.5794
   9023SM  C21F12171   5.424   5.361   6.266  0.4179 -0.6132  0.0256
   9023SM  H21F12172   5.434   5.393   6.372 -0.6556 -1.3891  0.3743
   9023SM  H21G12173   5.324   5.313   6.261  1.2161 -2.2608 -1.3242
   9023SM  C22F12174   5.437   5.492   6.177  0.0470 -0.0807  0.7736
   9023SM  H22F12175   5.422   5.460   6.071  2.0837 -0.7271  0.6418
   9023SM  H22G12176   5.543   5.524   6.184  0.1157 -0.7046  3.2834
   9023SM  C23F12177   5.343   5.607   6.217  0.6312  0.2699  0.4019
   9023SM  H23F12178   5.371   5.697   6.158 -0.7548  0.3331 -0.1978
   9023SM  H23G12179   5.354   5.634   6.325  0.0317  1.6511  0.1371
   9023SM  H23H12180   5.238   5.578   6.195  0.0866  0.9370  1.9247
   9123SM     N12181   6.396   6.043   3.386  0.1414  0.4200  0.3702
   9123SM   C1512182   6.518   6.046   3.302  0.2275 -0.2491  0.1704
   9123SM  H15A12183   6.530   6.144   3.258  3.3907 -0.3486  0.5646
   9123SM  H15B12184   6.513   5.969   3.227  1.9010  1.2589 -1.5919
   9123SM  H15C12185   6.605   6.031   3.365  0.3253 -0.6391 -0.0587
   9123SM   C1412186   6.280   6.078   3.309 -0.2375  0.1378  0.1402
   9123SM  H14A12187   6.292   6.178   3.269  1.4424  0.5521  1.5820
   9123SM  H14B12188   6.191   6.063   3.367  0.8496 -1.6143  1.4468
   9123SM  H14C12189   6.266   6.006   3.229 -0.6968 -0.0353  0.3763
   9123SM   C1312190   6.370   5.901   3.418 -0.0838 -0.5576  0.6616
   9123SM  H13A12191   6.453   5.852   3.468  0.6580 -0.0059  0.0116
   9123SM  H13B12192   6.364   5.847   3.325 -0.3653  0.0498  0.3194
   9123SM  H13C12193   6.279   5.881   3.471 -0.1700  0.2839  0.8422
   9123SM   C1212194   6.413   6.125   3.517  0.3690 -0.2814 -0.3416
   9123SM  H12A12195   6.314   6.134   3.557 -0.3841 -2.6723 -1.4831
   9123SM  H12B12196   6.442   6.223   3.481  0.7492 -0.9871 -2.0802
   9123SM   C1112197   6.515   6.070   3.625  0.3366  0.2276 -1.0788
   9123SM  H11A12198   6.470   5.985   3.680 -2.4471  2.5509  0.4955
   9123SM  H11B12199   6.516   6.148   3.704 -1.0172 -1.3531  0.5855
   9123SM     P12200   6.768   6.109   3.603  0.2074  0.2688 -0.2586
   9123SM   O1312201   6.887   6.028   3.572 -0.7544 -0.1039  0.7035
   9123SM   O1412202   6.746   6.229   3.526 -0.2558 -0.0297  0.3514
   9123SM   O1112203   6.773   6.149   3.754 -0.7018  0.2463  0.6498
   9123SM   O1212204   6.639   6.027   3.574 -0.0240 -0.7974 -0.2560
   9123SM   C1S12205   6.751   6.039   3.849  0.2581  0.6203 -0.5990
   9123SM   H1S12206   6.810   5.950   3.819 -0.2205 -0.3088  1.1143
   9123SM   H1T12207   6.644   6.009   3.856  1.1218 -2.9210 -0.9733
   9123SM    NF12208   6.787   5.977   4.081  1.0801 -0.0408 -0.1638
   9123SM   HNF12209   6.717   6.000   4.148 -0.1019 -1.1593 -0.9620
   9123SM   C2S12210   6.815   6.077   3.984 -0.8339  0.2373 -0.4620
   9123SM   H2S12211   6.924   6.074   3.961 -0.6772  1.9756 -0.1013
   9123SM   C3S12212   6.779   6.221   4.032 -0.0981  0.2771  0.8214
   9123SM   H3S12213   6.669   6.223   4.046 -0.3870  0.6051 -1.1882
   9123SM    O312214   6.813   6.330   3.936  0.1007  0.2514  0.5181
   9123SM   HO312215   6.839   6.290   3.853 -0.8458 -1.0910  0.8353
   9123SM   C4S12216   6.844   6.255   4.165 -0.8380 -0.1800  0.5437
   9123SM   H4S12217   6.769   6.238   4.243  0.3919 -0.7087  1.6583
   9123SM   C5S12218   6.962   6.322   4.188 -0.5965 -0.0834 -0.6650
   9123SM   H5S12219   7.021   6.362   4.105  2.8233  0.8286  1.9978
   9123SM   C6S12220   7.014   6.353   4.327  0.3813  0.6968  0.2300
   9123SM   H6S12221   6.998   6.460   4.356 -0.9220  0.0905  1.8970
   9123SM   H6T12222   7.122   6.328   4.329  0.4131  0.5524 -1.8517
   9123SM   C7S12223   6.954   6.270   4.436  0.3855  0.4838 -0.3395
   9123SM   H7S12224   6.969   6.163   4.410  1.7641  0.6617 -0.3551
   9123SM   H7T12225   6.845   6.283   4.447  0.1422 -2.7748  3.0414
   9123SM   C8S12226   7.019   6.293   4.574  0.2182 -0.7138 -0.3099
   9123SM   H8S12227   7.130   6.304   4.566  0.1320 -0.5709 -1.3709
   9123SM   H8T12228   7.006   6.190   4.615 -2.3719 -0.5549 -0.5913
   9123SM   C9S12229   6.947   6.402   4.661  0.2654 -0.1557  0.1210
   9123SM   H9S12230   6.840   6.406   4.631  0.7732 -0.1863 -1.8591
   9123SM   H9T12231   6.997   6.496   4.628 -0.1565  0.2258  0.5444
   9123SM  C10S12232   6.968   6.374   4.812 -0.0684  0.4767  0.1340
   9123SM  H10S12233   7.072   6.356   4.846 -0.7935 -2.2402  1.2089
   9123SM  H10T12234   6.914   6.279   4.830 -1.2138  1.1227  0.2103
   9123SM  C11S12235   6.902   6.483   4.896  0.6174 -0.3567 -0.0140
   9123SM  H11S12236   6.791   6.482   4.896  0.6180 -1.1828 -0.1403
   9123SM  H11T12237   6.933   6.582   4.858  1.5153 -0.1224  1.2719
   9123SM  C12S12238   6.940   6.463   5.049 -0.2248 -0.3134  0.2556
   9123SM  H12S12239   7.044   6.497   5.069 -1.2529  2.9587  0.6950
   9123SM  H12T12240   6.918   6.358   5.078  1.0925 -0.8808 -0.7264
   9123SM  C13S12241   6.849   6.555   5.132  0.1126  0.9833  0.1574
   9123SM  H13S12242   6.747   6.511   5.125 -0.0225  1.0622  1.4010
   9123SM  H13T12243   6.840   6.657   5.091 -3.6624  0.1515 -1.4821
   9123SM  C14S12244   6.890   6.561   5.276 -0.0429 -0.0764  0.1052
   9123SM  H14S12245   6.982   6.622   5.289  0.0687  0.0466 -1.1485
   9123SM  H14T12246   6.904   6.454   5.302 -0.9514 -1.1490 -3.2562
   9123SM  C15S12247   6.794   6.622   5.374  0.0451  0.3038 -0.0149
   9123SM  H15S12248   6.693   6.576   5.367 -0.4778  1.2829  0.7327
   9123SM  H15T12249   6.797   6.732   5.358  4.0329  0.4164  0.6163
   9123SM  C16S12250   6.845   6.601   5.522  0.0877 -0.1749 -0.5171
   9123SM  H16S12251   6.842   6.492   5.542  0.6877  0.2525  2.3698
   9123SM  H16T12252   6.772   6.620   5.604  0.3436 -2.4114  0.2884
   9123SM  C17S12253   6.974   6.674   5.555  0.1035  0.2843  0.1456
   9123SM  H17S12254   6.963   6.777   5.516 -0.0068  0.3426  0.3338
   9123SM  H17T12255   7.053   6.636   5.485  0.1082  2.8356 -1.3482
   9123SM  C18S12256   7.023   6.678   5.700 -0.3189 -0.0971  0.5193
   9123SM  H18S12257   7.117   6.736   5.709 -0.7361  0.8301 -0.8579
   9123SM  H18T12258   7.051   6.582   5.750 -2.7916 -0.1549  1.9608
   9123SM  H18U12259   6.945   6.730   5.759 -1.3933 -2.0376  0.9087
   9123SM   C1F12260   6.816   5.847   4.073  0.7346  0.2100 -0.3696
   9123SM    OF12261   6.901   5.814   3.997 -0.5288 -0.4505 -0.2752
   9123SM   C2F12262   6.736   5.745   4.159 -0.2676  0.6397  0.0795
   9123SM   H2F12263   6.630   5.747   4.127 -0.5104  0.7224  0.8839
   9123SM   H2G12264   6.733   5.773   4.266 -1.6021 -1.7016  0.7174
   9123SM   C3F12265   6.778   5.594   4.159 -0.1619  0.6421 -0.2550
   9123SM   H3F12266   6.770   5.543   4.061  2.0724 -0.3331  0.0079
   9123SM   H3G12267   6.708   5.540   4.226  0.7440  0.5758  0.6638
   9123SM   C4F12268   6.918   5.575   4.232 -0.1199 -0.6248 -0.7894
   9123SM   H4F12269   6.991   5.604   4.153 -1.1370  0.8140 -1.2528
   9123SM   H4G12270   6.931   5.465   4.240  1.6189 -0.4995 -1.5042
   9123SM   C5F12271   6.938   5.637   4.370  0.3752 -0.1211  0.3051
   9123SM   H5F12272   6.944   5.747   4.357 -1.2697 -0.0055  0.2112
   9123SM   H5G12273   7.028   5.589   4.413 -0.7640 -2.3880  0.3115
   9123SM   C6F12274   6.830   5.605   4.471  0.4048  0.6532 -0.2400
   9123SM   H6F12275   6.797   5.500   4.453  1.9229  0.1865 -0.4184
   9123SM   H6G12276   6.738   5.667   4.465 -0.0973 -0.1852 -2.6900
   9123SM   C7F12277   6.902   5.631   4.603 -0.2580  0.7028 -0.2640
   9123SM   H7F12278   6.981   5.706   4.582 -1.6741  2.2129 -0.3851
   9123SM   H7G12279   6.960   5.539   4.623 -1.2137  0.4539  1.5953
   9123SM   C8F12280   6.813   5.661   4.719 -0.1837  0.2023 -0.6656
   9123SM   H8F12281   6.762   5.568   4.752 -0.5785  0.9680  0.9849
   9123SM   H8G12282   6.731   5.728   4.687  0.5489  1.1853 -0.5371
   9123SM   C9F12283   6.890   5.722   4.845 -0.4945  0.4698 -0.1077
   9123SM   H9F12284   6.940   5.817   4.816 -2.6407  0.8278 -3.1682
   9123SM   H9G12285   6.968   5.646   4.869 -1.4522 -0.6742 -0.5069
   9123SM  C10F12286   6.785   5.733   4.955 -0.2486  0.7661 -0.0909
   9123SM  H10F12287   6.738   5.636   4.977 -0.6464  0.9575 -0.0950
   9123SM  H10G12288   6.704   5.797   4.916 -0.8994 -0.2434 -0.4107
   9123SM  C11F12289   6.849   5.785   5.087  0.2625  0.4049  0.1248
   9123SM  H11F12290   6.913   5.873   5.070  1.9010 -0.3043  2.1667
   9123SM  H11G12291   6.915   5.699   5.112 -1.0719 -0.3105  1.3554
   9123SM  C12F12292   6.739   5.810   5.193  0.2858 -0.3348  0.1025
   9123SM  H12F12293   6.683   5.715   5.206  0.7242 -0.6635 -0.3615
   9123SM  H12G12294   6.672   5.892   5.160  1.6867 -0.5393 -3.6782
   9123SM  C13F12295   6.802   5.851   5.325 -0.8620 -0.1341 -0.4080
   9123SM  H13F12296   6.878   5.930   5.306  0.8216 -1.0491  2.0064
   9123SM  H13G12297   6.862   5.768   5.367 -0.6478  0.8206  1.2814
   9123SM  C14F12298   6.693   5.888   5.432  0.7716 -0.6543 -0.1109
   9123SM  H14F12299   6.636   5.797   5.460 -1.3054  1.7112  4.1942
   9123SM  H14G12300   6.630   5.971   5.396  1.4083  0.3341  0.9954
   9123SM  C15F12301   6.747   5.948   5.565 -0.4170  0.4185  0.7198
   9123SM  H15F12302   6.783   6.052   5.551  2.1426 -0.5348 -0.3694
   9123SM  H15G12303   6.843   5.895   5.583  1.2845  2.7758 -0.8903
   9123SM  C16F12304   6.657   5.942   5.684 -0.7705 -0.1708  0.4533
   9123SM  H16F12305   6.624   5.839   5.708  1.8605 -1.5136 -1.2400
   9123SM  H16G12306   6.560   5.986   5.652 -1.6867 -2.3349  0.1200
   9123SM  C17F12307   6.716   5.993   5.810  0.1841  0.1747 -0.8344
   9123SM  H17F12308   6.804   6.058   5.791  2.2807 -2.1758  0.2528
   9123SM  H17G12309   6.761   5.909   5.866 -0.1661 -0.2110 -1.1261
   9123SM  C18F12310   6.600   6.053   5.900 -0.3998  0.1559  0.7551
   9123SM  H18F12311   6.521   5.978   5.922  0.0525 -0.5205  0.0675
   9123SM  H18G12312   6.557   6.131   5.834 -0.3739  1.4909  2.2414
   9123SM  C19F12313   6.648   6.116   6.036  0.4891  0.5974  0.4791
   9123SM  H19F12314   6.718   6.198   6.011  1.0985  0.1023  0.5503
   9123SM  H19G12315   6.680   6.025   6.091 -1.2112 -0.4972 -0.2515
   9123SM  C20F12316   6.537   6.163   6.127  0.0649  0.3875 -0.3703
   9123SM  H20F12317   6.465   6.227   6.072 -2.0338 -0.0116  1.7604
   9123SM  H20G12318   6.575   6.221   6.214  0.0891 -0.7541  0.3952
   9123SM  C21F12319   6.454   6.046   6.184  0.3327 -0.4332 -0.7736
   9123SM  H21F12320   6.529   5.976   6.228  1.6217  0.3522 -1.6397
   9123SM  H21G12321   6.418   5.983   6.100 -0.8986 -2.0851  0.9156
   9123SM  C22F12322   6.345   6.078   6.292 -0.0992  0.5965 -0.2442
   9123SM  H22F12323   6.396   6.109   6.385 -1.3972 -1.3038  1.1772
   9123SM  H22G12324   6.294   5.980   6.300  1.0359  0.1093  1.4999
   9123SM  C23F12325   6.253   6.185   6.238 -0.8373  0.1389 -0.2346
   9123SM  H23F12326   6.214   6.158   6.137 -0.6112  0.4200 -0.4002
   9123SM  H23G12327   6.303   6.283   6.221 -1.7807  0.9121  1.2595
   9123SM  H23H12328   6.164   6.199   6.302 -1.4444 -1.1204 -0.7637
   9223SM     N12329   5.021   3.026   4.095  0.1229  0.1362 -0.0204
   9223SM   C1512330   5.134   3.114   4.071 -0.4540  0.2517  0.1157
   9223SM  H15A12331   5.097   3.214   4.055 -0.6258  0.1142 -0.3924
   9223SM  H15B12332   5.193   3.090   3.983 -0.6544  2.1673 -0.5830
   9223SM  H15C12333   5.201   3.122   4.155 -0.5451 -0.2185  0.2360
   9223SM   C1412334   4.929   3.116   4.162 -0.5055  0.6415  0.0644
   9223SM  H14A12335   4.978   3.153   4.251 -0.6241  0.2003  0.3157
   9223SM  H14B12336   4.836   3.067   4.189 -1.3449  2.8721  1.5859
   9223SM  H14C12337   4.905   3.208   4.109 -1.0189  2.1598  2.7410
   9223SM   C1312338   4.959   2.995   3.957  0.0920 -0.1602 -0.1475
   9223SM  H13A12339   5.023   2.947   3.884 -0.2322  1.2739 -1.4327
   9223SM  H13B12340   4.925   3.086   3.908  4.0026  2.3385  1.2946
   9223SM  H13C12341   4.873   2.931   3.970  1.3150 -1.9236 -0.3561
   9223SM   C1212342   5.051   2.907   4.181 -0.2422  0.1172 -0.9897
   9223SM  H12A12343   5.120   2.839   4.134  0.0099 -0.6680  0.4715
   9223SM  H12B12344   4.959   2.850   4.186 -0.3619  0.4031  0.2495
   9223SM   C1112345   5.090   2.928   4.326  0.0599  0.2655 -0.1910
   9223SM  H11A12346   5.094   2.828   4.373 -1.2694 -0.5821 -1.7873
   9223SM  H11B12347   5.005   2.985   4.370 -0.8098 -0.3319 -1.0530
   9223SM     P12348   5.349   2.944   4.317  0.0125 -0.0793 -0.1721
   9223SM   O1312349   5.336   2.833   4.221 -0.4042 -0.3159  0.0693
   9223SM   O1412350   5.437   3.055   4.273 -0.5872  0.0093 -0.2415
   9223SM   O1112351   5.407   2.893   4.454  0.3094 -0.0155 -0.0239
   9223SM   O1212352   5.211   3.010   4.352 -0.1497  0.1006  0.3584
   9223SM   C1S12353   5.409   2.979   4.574 -0.2826  0.5143  0.6717
   9223SM   H1S12354   5.355   3.075   4.558  0.4557  1.1187  1.6462
   9223SM   H1T12355   5.514   3.001   4.600 -0.6462  0.9842  1.8123
   9223SM    NF12356   5.334   2.996   4.824  0.0420 -0.0795  0.1328
   9223SM   HNF12357   5.357   2.947   4.907 -1.5137  0.4057  0.8802
   9223SM   C2S12358   5.343   2.916   4.706  0.3942  0.7706 -0.2279
   9223SM   H2S12359   5.235   2.906   4.683  0.0871 -1.6136  1.7379
   9223SM   C3S12360   5.388   2.763   4.727 -0.2735  0.3484 -0.2625
   9223SM   H3S12361   5.472   2.768   4.800 -1.7850  0.5258  1.5457
   9223SM    O312362   5.434   2.688   4.607  0.2056 -0.4856 -0.1289
   9223SM   HO312363   5.430   2.757   4.540  1.7376  0.5352  0.7675
   9223SM   C4S12364   5.283   2.680   4.794 -0.3968  0.1503  0.2598
   9223SM   H4S12365   5.300   2.672   4.902  0.1952 -2.9207  0.0181
   9223SM   C5S12366   5.183   2.601   4.751  0.0408 -0.1194  1.2674
   9223SM   H5S12367   5.167   2.588   4.643  1.5565 -0.9961  1.1182
   9223SM   C6S12368   5.092   2.536   4.852  0.7719  0.5766 -0.0828
   9223SM   H6S12369   5.105   2.425   4.849 -0.7317  0.3962 -1.5064
   9223SM   H6T12370   4.988   2.536   4.813  1.1172 -0.6359 -1.1004
   9223SM   C7S12371   5.068   2.594   4.990 -0.5479  0.2756 -0.7820
   9223SM   H7S12372   5.048   2.703   4.977  1.1292  1.2731  3.3452
   9223SM   H7T12373   5.169   2.587   5.036 -0.7117 -0.5357 -0.5332
   9223SM   C8S12374   4.956   2.534   5.067 -0.3620  0.4809  1.2442
   9223SM   H8S12375   4.972   2.426   5.087  1.8701  0.5244  0.0200
   9223SM   H8T12376   4.866   2.545   5.004  0.3749  1.0356  0.2517
   9223SM   C9S12377   4.943   2.590   5.204  0.3170 -0.8866 -0.1012
   9223SM   H9S12378   4.917   2.698   5.198  0.1528 -0.8875  0.5215
   9223SM   H9T12379   5.042   2.580   5.253  0.7209 -2.5984 -1.1782
   9223SM  C10S12380   4.845   2.523   5.296  0.2873 -0.0960 -0.8297
   9223SM  H10S12381   4.841   2.414   5.276  1.1099 -0.7795  2.2787
   9223SM  H10T12382   4.741   2.550   5.267 -1.4833 -3.0265  2.1846
   9223SM  C11S12383   4.864   2.555   5.447 -0.1238  0.1108  0.0016
   9223SM  H11S12384   4.874   2.664   5.466  2.8886 -0.2391  0.9753
   9223SM  H11T12385   4.949   2.495   5.488 -1.7220 -1.7001  0.8366
   9223SM  C12S12386   4.744   2.500   5.530  0.1563 -0.1783 -0.3834
   9223SM  H12S12387   4.723   2.396   5.495  1.9959 -0.6490 -0.1655
   9223SM  H12T12388   4.655   2.561   5.502 -0.2274 -0.7789 -0.5009
   9223SM  C13S12389   4.772   2.504   5.678 -0.4315 -0.4228 -0.6530
   9223SM  H13S12390   4.808   2.607   5.701 -0.4234 -0.3642 -0.9247
   9223SM  H13T12391   4.847   2.429   5.708  0.7130  1.1043  0.4473
   9223SM  C14S12392   4.657   2.489   5.773  0.3040  0.1268 -0.0569
   9223SM  H14S12393   4.636   2.381   5.791 -1.1066  0.4951  0.7108
   9223SM  H14T12394   4.572   2.539   5.722 -0.0567 -0.8418 -0.4345
   9223SM  C15S12395   4.678   2.549   5.906  0.1493 -0.2578 -0.4731
   9223SM  H15S12396   4.707   2.656   5.901  0.7076 -0.3986 -0.2688
   9223SM  H15T12397   4.751   2.489   5.963  0.7463  0.4625 -0.4626
   9223SM  C16S12398   4.542   2.554   5.978 -0.1298  0.5847 -0.2294
   9223SM  H16S12399   4.502   2.453   5.997  0.0846  0.8753  1.9512
   9223SM  H16T12400   4.470   2.606   5.911 -0.3202 -0.3672 -0.7762
   9223SM  C17S12401   4.557   2.621   6.120  0.2191  0.4334  0.1511
   9223SM  H17S12402   4.571   2.729   6.101 -0.3963  0.1997 -1.8277
   9223SM  H17T12403   4.648   2.594   6.179 -0.9627 -0.5458  1.6127
   9223SM  C18S12404   4.427   2.624   6.205  0.4253  0.8451 -0.8625
   9223SM  H18S12405   4.345   2.663   6.141 -1.6652 -1.9641 -0.0968
   9223SM  H18T12406   4.437   2.688   6.295 -1.4495 -0.2769  0.2148
   9223SM  H18U12407   4.401   2.521   6.240  2.0391  0.8444  0.4611
   9223SM   C1F12408   5.292   3.125   4.830 -0.3592  0.6187 -0.1209
   9223SM    OF12409   5.260   3.195   4.734  0.0971 -0.2905 -0.4033
   9223SM   C2F12410   5.288   3.204   4.961 -0.0729  0.3162  0.2442
   9223SM   H2F12411   5.323   3.306   4.932 -2.2085  0.7048 -1.2031
   9223SM   H2G12412   5.362   3.162   5.033  0.8129 -2.3507 -2.0498
   9223SM   C3F12413   5.148   3.213   5.015  0.2935 -0.0161 -0.6249
   9223SM   H3F12414   5.113   3.111   5.042  1.3816  0.1077  1.4670
   9223SM   H3G12415   5.078   3.254   4.939  0.3787  2.2279  0.4237
   9223SM   C4F12416   5.145   3.311   5.133 -0.1348  0.6699 -0.6133
   9223SM   H4F12417   5.152   3.417   5.100  0.3459  0.9616  0.3943
   9223SM   H4G12418   5.227   3.285   5.202  0.2840  0.1381 -1.3015
   9223SM   C5F12419   5.009   3.300   5.201 -0.0079  0.4583  0.2764
   9223SM   H5F12420   4.984   3.194   5.220  0.1680  0.5665  1.1669
   9223SM   H5G12421   4.934   3.352   5.139  0.0031 -1.8639 -1.8459
   9223SM   C6F12422   5.020   3.363   5.343 -0.0910 -0.2988 -0.1285
   9223SM   H6F12423   5.048   3.471   5.338  0.2622 -0.4121 -0.6455
   9223SM   H6G12424   5.107   3.312   5.389  0.7724  1.2935  0.0694
   9223SM   C7F12425   4.894   3.351   5.429  0.8673 -0.4604  0.9243
   9223SM   H7F12426   4.859   3.247   5.442  0.6964 -0.4931  0.2359
   9223SM   H7G12427   4.813   3.407   5.379 -0.1667 -1.1622  1.7608
   9223SM   C8F12428   4.920   3.418   5.563 -0.0894  0.1249 -0.0102
   9223SM   H8F12429   4.941   3.526   5.546  1.8850 -0.4940 -2.0107
   9223SM   H8G12430   5.008   3.375   5.614 -0.7854 -2.0048 -0.4897
   9223SM   C9F12431   4.794   3.414   5.648 -0.3286  0.3087 -0.1038
   9223SM   H9F12432   4.756   3.310   5.653 -1.3956  0.7378  3.0295
   9223SM   H9G12433   4.711   3.469   5.598  0.8118  2.0834 -0.1244
   9223SM  C10F12434   4.821   3.445   5.790 -0.0190 -0.7478  0.3739
   9223SM  H10F12435   4.854   3.551   5.790 -2.7723  0.2251  2.1053
   9223SM  H10G12436   4.896   3.383   5.843 -0.1677 -1.6413 -0.4378
   9223SM  C11F12437   4.697   3.447   5.882 -0.1836 -0.2218 -0.4993
   9223SM  H11F12438   4.645   3.349   5.872  0.8096 -1.2760  3.2706
   9223SM  H11G12439   4.618   3.523   5.860 -1.3975 -0.6618  2.0129
   9223SM  C12F12440   4.729   3.471   6.035 -0.1856 -0.0625 -0.0276
   9223SM  H12F12441   4.762   3.577   6.042  1.0521 -0.5078  1.5972
   9223SM  H12G12442   4.806   3.400   6.071 -0.9222 -1.2807 -0.7987
   9223SM  C13F12443   4.596   3.466   6.121 -0.0193  0.1327 -0.3102
   9223SM  H13F12444   4.535   3.373   6.120 -0.7553  0.4809  2.5133
   9223SM  H13G12445   4.537   3.556   6.094  2.0988  1.6927 -0.0132
   9223SM  C14F12446   4.630   3.470   6.272  0.1568  0.3259  0.2161
   9223SM  H14F12447   4.705   3.395   6.305  1.2347  0.6444 -1.3995
   9223SM  H14G12448   4.536   3.439   6.322  0.5508 -0.0920  0.7104
   9223SM  C15F12449   4.687   3.604   6.316 -0.6454  0.7744  0.2708
   9223SM  H15F12450   4.614   3.684   6.289 -0.6133  1.1580  1.2503
   9223SM  H15G12451   4.783   3.617   6.263 -0.6567 -0.8852 -0.2151
   9223SM  C16F12452   4.731   3.608   6.460  1.2006  0.3918  0.6559
   9223SM  H16F12453   4.796   3.520   6.481  0.3596 -0.3695  0.1370
   9223SM  H16G12454   4.645   3.590   6.528  1.8223 -3.0898  0.6883
   9223SM  C17F12455   4.809   3.734   6.511  0.3643  0.6524  0.0498
   9223SM  H17F12456   4.739   3.819   6.525  1.2935  1.7088 -1.5025
   9223SM  H17G12457   4.886   3.761   6.436 -1.2364  2.3287 -1.0598
   9223SM  C18F12458   4.883   3.712   6.648 -0.4390 -0.1463  0.1727
   9223SM  H18F12459   4.927   3.811   6.673 -0.8699  0.1264 -0.1214
   9223SM  H18G12460   4.974   3.648   6.648  1.1616  1.9446  2.1037
   9223SM  C19F12461   4.792   3.675   6.770  0.1589 -0.1983  0.2427
   9223SM  H19F12462   4.861   3.661   6.855  0.8766 -3.8220 -0.7864
   9223SM  H19G12463   4.753   3.573   6.753  1.1624 -0.6725  0.7681
   9223SM  C20F12464   4.673   3.778   6.789 -0.6790  0.0181  0.1762
   9223SM  H20F12465   4.644   3.823   6.692 -1.0968 -0.5183  0.0499
   9223SM  H20G12466   4.703   3.864   6.852 -1.1355  0.1574  0.2061
   9223SM  C21F12467   4.544   3.703   6.823  0.0932  0.1177  0.5896
   9223SM  H21F12468   4.559   3.648   6.918  1.6515  0.6792  0.7070
   9223SM  H21G12469   4.532   3.635   6.737  2.1465 -1.1307  1.2232
   9223SM  C22F12470   4.415   3.789   6.839  0.0514 -0.3037 -0.5861
   9223SM  H22F12471   4.402   3.868   6.762  0.3855  1.1813  0.8275
   9223SM  H22G12472   4.428   3.840   6.937 -0.1975 -1.7364  0.2184
   9223SM  C23F12473   4.296   3.694   6.846 -0.1775  0.0175  0.2117
   9223SM  H23F12474   4.206   3.759   6.846  1.3135  2.1929  0.1701
   9223SM  H23G12475   4.296   3.644   6.944 -1.5558 -0.1286  0.1533
   9223SM  H23H12476   4.285   3.622   6.762  1.4488 -2.2421  1.8025
   9323SM     N12477   0.746   4.455   4.325  1.1269  0.0101 -0.0629
   9323SM   C1512478   0.817   4.562   4.391 -0.9585 -0.5842 -0.0070
   9323SM  H15A12479   0.751   4.626   4.448 -0.4291 -1.2311  1.3815
   9323SM  H15B12480   0.873   4.624   4.323 -0.5200 -0.5318  0.3933
   9323SM  H15C12481   0.885   4.507   4.455 -0.9752 -1.6099 -0.8449
   9323SM   C1412482   0.656   4.531   4.223 -0.6596  0.7569 -0.4025
   9323SM  H14A12483   0.599   4.610   4.269 -1.1316  0.8517 -1.1402
   9323SM  H14B12484   0.585   4.464   4.178 -0.3816 -0.6400  1.1179
   9323SM  H14C12485   0.721   4.581   4.153 -0.2342 -1.1480 -1.4340
   9323SM   C1312486   0.845   4.365   4.260  0.1642 -0.4931 -0.5825
   9323SM  H13A12487   0.910   4.320   4.334  0.1639  0.1034 -0.2151
   9323SM  H13B12488   0.911   4.416   4.191  0.1074 -1.1109 -1.1026
   9323SM  H13C12489   0.794   4.279   4.218  0.8808 -1.3187  0.1889
   9323SM   C1212490   0.661   4.387   4.432 -0.1598  0.6153 -0.1930
   9323SM  H12A12491   0.632   4.287   4.401  2.8611 -1.1686  2.1904
   9323SM  H12B12492   0.565   4.437   4.437 -1.8646 -2.4131  0.1069
   9323SM   C1112493   0.727   4.372   4.567  0.5732  0.6450  0.2856
   9323SM  H11A12494   0.640   4.341   4.630 -0.4683  1.7397 -0.5662
   9323SM  H11B12495   0.745   4.468   4.620 -0.2979  0.9227  0.0946
   9323SM     P12496   0.970   4.303   4.618 -0.3899  0.0428  0.3885
   9323SM   O1312497   1.035   4.172   4.647  0.4146 -0.5650  0.2493
   9323SM   O1412498   1.040   4.398   4.531  0.3833 -0.2209 -0.3595
   9323SM   O1112499   0.934   4.365   4.766 -0.3689 -0.2186 -0.6220
   9323SM   O1212500   0.833   4.273   4.564 -0.0672 -0.6509 -0.4241
   9323SM   C1S12501   0.979   4.293   4.881 -0.2042 -0.2037 -0.2947
   9323SM   H1S12502   1.090   4.299   4.874 -0.2255 -1.2391 -5.4776
   9323SM   H1T12503   0.945   4.188   4.878 -1.5103  0.1961 -0.1007
   9323SM    NF12504   0.987   4.298   5.138 -0.1014  0.6564 -0.0813
   9323SM   HNF12505   0.944   4.222   5.187  0.3844 -2.0087 -3.3739
   9323SM   C2S12506   0.919   4.349   5.019 -0.7208  0.1007 -0.1901
   9323SM   H2S12507   0.944   4.457   5.015  1.4898 -0.2964  0.8636
   9323SM   C3S12508   0.765   4.326   5.018  0.0791 -0.1990  0.1848
   9323SM   H3S12509   0.753   4.216   5.018 -0.8907 -0.0971  1.1433
   9323SM    O312510   0.706   4.363   4.895  0.0348 -0.1598 -0.6412
   9323SM   HO312511   0.781   4.378   4.837  2.2754  0.6363  2.2331
   9323SM   C4S12512   0.690   4.384   5.134 -0.3550 -0.4629 -0.0105
   9323SM   H4S12513   0.636   4.311   5.197 -0.7166  0.2702  0.5419
   9323SM   C5S12514   0.677   4.516   5.156  0.9748 -0.0242  0.4797
   9323SM   H5S12515   0.729   4.592   5.097  0.2599  1.6196  1.8980
   9323SM   C6S12516   0.601   4.568   5.279 -0.0460 -0.7355  0.2996
   9323SM   H6S12517   0.506   4.615   5.245  1.1638  0.6971 -1.2434
   9323SM   H6T12518   0.656   4.655   5.323 -1.2077  0.1523  0.0408
   9323SM   C7S12519   0.572   4.478   5.400 -0.3815 -0.0485 -0.4814
   9323SM   H7S12520   0.667   4.435   5.438  1.3903  0.9841 -3.3580
   9323SM   H7T12521   0.509   4.395   5.361 -1.7031  0.4601  0.5111
   9323SM   C8S12522   0.507   4.545   5.522 -0.2397  0.9569 -0.6446
   9323SM   H8S12523   0.492   4.473   5.606 -2.4104  1.0529 -0.8856
   9323SM   H8T12524   0.409   4.585   5.487 -1.0262 -0.1754  0.1990
   9323SM   C9S12525   0.577   4.662   5.594  0.5354  0.7015 -0.1887
   9323SM   H9S12526   0.565   4.738   5.513  0.8551  0.1708 -0.7387
   9323SM   H9T12527   0.679   4.623   5.609 -0.3918 -1.6262  0.4232
   9323SM  C10S12528   0.526   4.708   5.730 -0.0001 -0.5001  0.1355
   9323SM  H10S12529   0.537   4.630   5.809  1.9581  1.6465  2.0914
   9323SM  H10T12530   0.417   4.724   5.712  0.5707 -0.1729 -3.8992
   9323SM  C11S12531   0.605   4.837   5.774  0.2714 -0.2860  0.2633
   9323SM  H11S12532   0.562   4.914   5.706 -0.0019 -2.2847 -1.9818
   9323SM  H11T12533   0.714   4.831   5.752 -0.0685  0.0388 -1.7068
   9323SM  C12S12534   0.587   4.879   5.916  0.2611  0.2391 -0.4100
   9323SM  H12S12535   0.620   4.795   5.982 -2.7874 -0.1221  0.8654
   9323SM  H12T12536   0.477   4.875   5.933  0.2202 -2.1327 -0.8799
   9323SM  C13S12537   0.641   5.019   5.955  0.3239  0.2305  0.5158
   9323SM  H13S12538   0.577   5.098   5.911 -0.1863  0.8449  2.2668
   9323SM  H13T12539   0.740   5.032   5.906 -0.0279  0.7202 -0.0858
   9323SM  C14S12540   0.658   5.042   6.106  0.2863 -0.2455  0.0562
   9323SM  H14S12541   0.696   5.143   6.131 -0.1666 -0.3342  1.1418
   9323SM  H14T12542   0.718   4.962   6.154 -0.1363 -0.1558  0.7481
   9323SM  C15S12543   0.526   5.017   6.172  0.6342  0.2253 -0.0908
   9323SM  H15S12544   0.463   5.105   6.148  1.6789  0.7962 -0.8230
   9323SM  H15T12545   0.473   4.926   6.136  1.5288  0.3340 -1.7969
   9323SM  C16S12546   0.542   4.996   6.323 -0.2205  0.6836 -0.2938
   9323SM  H16S12547   0.583   5.091   6.362 -0.8907  1.4085 -1.3035
   9323SM  H16T12548   0.606   4.906   6.334 -2.1079 -0.5372  1.4109
   9323SM  C17S12549   0.414   4.956   6.402 -0.4039  0.1421  0.9652
   9323SM  H17S12550   0.450   4.939   6.506 -2.1463 -1.0571  1.4288
   9323SM  H17T12551   0.377   4.855   6.372 -0.3355  0.3724  0.0766
   9323SM  C18S12552   0.292   5.048   6.405 -0.5897 -0.5526 -0.1683
   9323SM  H18S12553   0.268   5.093   6.306  1.8179 -2.0538 -1.5570
   9323SM  H18T12554   0.307   5.130   6.478 -0.3008  0.2792 -1.1519
   9323SM  H18U12555   0.201   4.998   6.445  0.0228 -0.7441  1.0216
   9323SM   C1F12556   1.116   4.331   5.157  0.0300  0.2482 -0.0827
   9323SM    OF12557   1.155   4.436   5.111 -0.7784  0.3626  0.4403
   9323SM   C2F12558   1.203   4.243   5.241 -0.2395  0.0391  0.4857
   9323SM   H2F12559   1.294   4.217   5.183  0.4913  0.2293  1.5330
   9323SM   H2G12560   1.146   4.150   5.259 -3.5332  1.9738  0.9664
   9323SM   C3F12561   1.233   4.298   5.380 -0.3079  0.0127 -0.3349
   9323SM   H3F12562   1.139   4.312   5.437 -1.6742 -0.5248 -2.3232
   9323SM   H3G12563   1.274   4.401   5.374 -0.6584  0.1073 -1.3439
   9323SM   C4F12564   1.324   4.196   5.453  0.2897 -0.3309  0.4524
   9323SM   H4F12565   1.406   4.168   5.384  0.0638  0.4803 -0.1654
   9323SM   H4G12566   1.281   4.098   5.482  0.4156 -0.2966  0.7601
   9323SM   C5F12567   1.376   4.244   5.587 -0.0881 -0.9206 -0.4699
   9323SM   H5F12568   1.417   4.346   5.574 -0.6058 -0.7957 -1.1754
   9323SM   H5G12569   1.459   4.187   5.635 -0.1287  0.2741  1.1072
   9323SM   C6F12570   1.270   4.273   5.697  0.7595 -0.0044 -0.6013
   9323SM   H6F12571   1.230   4.178   5.737 -1.9073  1.5355  0.6841
   9323SM   H6G12572   1.188   4.339   5.660 -0.5526 -0.8818  0.6815
   9323SM   C7F12573   1.335   4.342   5.817 -0.2403 -0.0921 -0.6851
   9323SM   H7F12574   1.368   4.445   5.790  0.7715 -0.0189  0.7390
   9323SM   H7G12575   1.425   4.277   5.826 -0.9814 -1.1250 -0.5379
   9323SM   C8F12576   1.259   4.331   5.946  0.1887  0.3399 -0.5812
   9323SM   H8F12577   1.211   4.232   5.964 -0.0995  0.7103  0.7946
   9323SM   H8G12578   1.174   4.403   5.947 -0.6920 -0.6689  0.9149
   9323SM   C9F12579   1.349   4.377   6.064  0.2139 -0.2044 -0.3737
   9323SM   H9F12580   1.366   4.486   6.057  0.5819 -0.2929 -0.9509
   9323SM   H9G12581   1.437   4.311   6.077 -0.5058 -1.2181 -0.4706
   9323SM  C10F12582   1.284   4.349   6.209  0.8061 -0.2635  0.1391
   9323SM  H10F12583   1.265   4.241   6.223 -0.3354 -0.2392 -1.0216
   9323SM  H10G12584   1.185   4.399   6.219  0.1756 -1.1071 -1.5392
   9323SM  C11F12585   1.363   4.386   6.332  0.6111 -0.3673  0.3089
   9323SM  H11F12586   1.470   4.382   6.301  1.1187 -1.1634  2.0360
   9323SM  H11G12587   1.349   4.335   6.430 -1.0776 -0.0961  0.2431
   9323SM  C12F12588   1.336   4.537   6.345 -0.2243  0.7964 -0.4211
   9323SM  H12F12589   1.229   4.560   6.363 -0.2732  0.4117 -0.1990
   9323SM  H12G12590   1.371   4.603   6.263 -0.3451  0.4696 -0.7353
   9323SM  C13F12591   1.412   4.578   6.477  0.3386  0.6203 -0.4865
   9323SM  H13F12592   1.520   4.579   6.451  0.6349 -0.6440  0.5715
   9323SM  H13G12593   1.407   4.496   6.552 -0.4526  0.0170 -1.1876
   9323SM  C14F12594   1.364   4.716   6.523  0.4336  0.2784  0.0307
   9323SM  H14F12595   1.261   4.708   6.565  1.0694 -0.3874  1.5435
   9323SM  H14G12596   1.354   4.781   6.433  0.2844  0.7450  0.3807
   9323SM  C15F12597   1.448   4.770   6.637  0.0732  0.4736 -0.3997
   9323SM  H15F12598   1.553   4.779   6.605  0.5437  0.5470  1.0750
   9323SM  H15G12599   1.451   4.695   6.719  0.6270  1.5829  0.6330
   9323SM  C16F12600   1.394   4.904   6.703  0.6264  0.1084  0.9709
   9323SM  H16F12601   1.296   4.886   6.751 -0.5644 -1.1332 -1.7572
   9323SM  H16G12602   1.387   4.985   6.628 -1.2982 -0.3097  0.6645
   9323SM  C17F12603   1.493   4.962   6.800 -0.7334  0.3667 -0.0106
   9323SM  H17F12604   1.587   4.986   6.745 -0.9068  1.0328 -0.0270
   9323SM  H17G12605   1.522   4.885   6.874 -1.0524 -0.3970 -0.6649
   9323SM  C18F12606   1.429   5.083   6.874  0.7137  0.2043  0.4175
   9323SM  H18F12607   1.334   5.062   6.927  0.2425  2.0306  0.3905
   9323SM  H18G12608   1.413   5.160   6.795  0.3845 -1.3102 -1.0575
   9323SM  C19F12609   1.518   5.144   6.979  0.0200  0.2518 -0.0620
   9323SM  H19F12610   1.594   5.207   6.928  0.7768 -1.4917 -1.1848
   9323SM  H19G12611   1.569   5.055   7.023 -2.3819 -1.2257 -0.1143
   9323SM  C20F12612   1.445   5.221   7.086  0.0284  0.1932  0.0759
   9323SM  H20F12613   1.360   5.163   7.125 -0.0471  1.0193  1.1813
   9323SM  H20G12614   1.405   5.316   7.045 -1.2794 -0.4672 -0.2120
   9323SM  C21F12615   1.520   5.270   7.210  0.1824 -0.2113 -1.0349
   9323SM  H21F12616   1.600   5.337   7.171  0.5249  0.5649  0.8869
   9323SM  H21G12617   1.570   5.179   7.250 -0.3051  0.1855  0.5690
   9323SM  C22F12618   1.436   5.338   7.320 -0.5139  0.1271  0.2817
   9323SM  H22F12619   1.350   5.272   7.342 -0.0738 -1.1669 -1.6224
   9323SM  H22G12620   1.394   5.431   7.275 -0.1175  0.7818  1.2399
   9323SM  C23F12621   1.510   5.367   7.445  0.0923 -0.2116 -0.0654
   9323SM  H23F12622   1.609   5.415   7.432  0.8093 -1.7454 -0.5126
   9323SM  H23G12623   1.531   5.268   7.492  1.1909  0.4015  0.7847
   9323SM  H23H12624   1.450   5.419   7.523  0.6415  1.0684 -0.4805
   9423SM     N12625   5.593   0.727   2.656 -0.2217 -0.1581 -0.6435
   9423SM   C1512626   5.570   0.731   2.510  0.1290 -0.2057  0.4427
   9423SM  H15A12627   5.622   0.819   2.473 -0.1320 -0.4141 -0.4347
   9423SM  H15B12628   5.464   0.739   2.492  0.3108 -2.2462 -1.9585
   9423SM  H15C12629   5.610   0.646   2.458 -3.1923 -2.3593  1.0729
   9423SM   C1412630   5.738   0.697   2.674  0.3324 -0.0875  0.3199
   9423SM  H14A12631   5.764   0.596   2.647 -1.2591 -0.1314 -1.2200
   9423SM  H14B12632   5.766   0.714   2.777  3.9981 -1.2323 -0.3188
   9423SM  H14C12633   5.797   0.759   2.607 -1.7795  1.1923 -0.4607
   9423SM   C1312634   5.567   0.861   2.711  0.0597  0.2594 -0.3579
   9423SM  H13A12635   5.602   0.863   2.813 -0.2617  1.4932 -0.2592
   9423SM  H13B12636   5.461   0.881   2.710 -0.3006 -1.5166 -1.5524
   9423SM  H13C12637   5.618   0.937   2.652 -0.1659  0.4189 -0.3496
   9423SM   C1212638   5.500   0.619   2.715 -0.5375 -0.1962  0.1937
   9423SM  H12A12639   5.524   0.531   2.657 -0.1592  1.5838 -2.5556
   9423SM  H12B12640   5.401   0.648   2.681  0.8826  2.1621 -2.4427
   9423SM   C1112641   5.502   0.585   2.866  0.0059  0.0265  0.4351
   9423SM  H11A12642   5.407   0.538   2.902  0.0580 -0.4650 -0.0610
   9423SM  H11B12643   5.508   0.678   2.927 -1.6910 -0.6558  1.7605
   9423SM     P12644   5.696   0.513   3.030  0.3593  0.3207 -0.1234
   9423SM   O1312645   5.736   0.376   3.073  0.4075  0.6369 -1.0392
   9423SM   O1412646   5.806   0.613   3.003  0.0006  0.2385  0.1460
   9423SM   O1112647   5.602   0.577   3.143  0.1365  0.0781 -0.3774
   9423SM   O1212648   5.616   0.498   2.893  0.5125 -0.5047  0.1812
   9423SM   C1S12649   5.499   0.488   3.194 -0.2318  0.3673  0.1136
   9423SM   H1S12650   5.548   0.392   3.223 -0.0197 -0.1453 -1.7856
   9423SM   H1T12651   5.425   0.468   3.114 -2.0758  0.5460  1.7139
   9423SM    NF12652   5.344   0.463   3.392  0.5338  0.3800 -0.2343
   9423SM   HNF12653   5.246   0.456   3.376  0.6926  1.6693 -2.0967
   9423SM   C2S12654   5.413   0.558   3.303  0.4795  0.4881  0.5452
   9423SM   H2S12655   5.480   0.617   3.368  0.7746 -1.0143  1.6420
   9423SM   C3S12656   5.317   0.674   3.243 -0.0034  0.1643  0.1107
   9423SM   H3S12657   5.243   0.626   3.175  1.1777  1.2084 -2.0024
   9423SM    O312658   5.384   0.756   3.156 -0.0519 -0.4728 -0.4353
   9423SM   HO312659   5.470   0.717   3.139  1.1549  0.4721  2.7997
   9423SM   C4S12660   5.246   0.739   3.353  0.0019 -0.0199 -0.3400
   9423SM   H4S12661   5.143   0.706   3.369 -0.2773  0.3877 -1.2414
   9423SM   C5S12662   5.296   0.843   3.422  0.6206  0.1103 -0.2278
   9423SM   H5S12663   5.399   0.878   3.403  2.3164 -2.9650  2.3119
   9423SM   C6S12664   5.214   0.901   3.537  0.9452  0.5099  0.6052
   9423SM   H6S12665   5.149   0.824   3.582  1.5914  0.1444  0.9324
   9423SM   H6T12666   5.141   0.978   3.504  0.1381 -0.4570  0.1047
   9423SM   C7S12667   5.300   0.963   3.647 -0.2269  0.1017  0.5823
   9423SM   H7S12668   5.234   1.016   3.719  2.2333  1.1944  2.1745
   9423SM   H7T12669   5.368   1.041   3.606  0.5818 -0.8276  0.1133
   9423SM   C8S12670   5.390   0.860   3.714  0.4599 -0.2632 -0.7287
   9423SM   H8S12671   5.447   0.794   3.645  2.0586 -0.5285  0.7669
   9423SM   H8T12672   5.325   0.788   3.769 -0.3913  0.3604 -0.9034
   9423SM   C9S12673   5.493   0.919   3.814 -0.1298 -0.6435 -0.4940
   9423SM   H9S12674   5.425   0.975   3.882 -0.3963 -1.1105 -0.3756
   9423SM   H9T12675   5.569   0.991   3.776 -0.3507  1.2880  2.4077
   9423SM  C10S12676   5.565   0.817   3.905  0.1325 -0.0882 -0.4219
   9423SM  H10S12677   5.673   0.835   3.890  0.0362  1.7116  0.8080
   9423SM  H10T12678   5.544   0.716   3.863  1.9866 -0.0499 -1.5148
   9423SM  C11S12679   5.522   0.825   4.056 -0.2713  0.2689 -0.3597
   9423SM  H11S12680   5.412   0.834   4.066 -0.2125 -0.3343  0.9877
   9423SM  H11T12681   5.578   0.919   4.074 -0.9237  0.6478 -0.3164
   9423SM  C12S12682   5.566   0.710   4.143  0.4914  0.2089  0.1269
   9423SM  H12S12683   5.661   0.671   4.101  1.5489  2.7114  0.0025
   9423SM  H12T12684   5.486   0.634   4.135  0.0943  0.5692  0.5737
   9423SM  C13S12685   5.592   0.746   4.286 -0.8012  0.3794  0.3726
   9423SM  H13S12686   5.506   0.803   4.327 -0.7817 -0.2401  1.2979
   9423SM  H13T12687   5.687   0.803   4.277 -1.0446  0.6242 -0.8851
   9423SM  C14S12688   5.621   0.624   4.377  0.1743  0.9269 -0.2447
   9423SM  H14S12689   5.633   0.535   4.312 -1.7383 -0.0363  0.6459
   9423SM  H14T12690   5.534   0.609   4.445 -0.5931 -1.2426 -1.6065
   9423SM  C15S12691   5.743   0.653   4.466  0.1556  0.1663  0.1564
   9423SM  H15S12692   5.725   0.753   4.512  2.5119  2.1778 -2.8729
   9423SM  H15T12693   5.830   0.665   4.398  1.8841 -1.1227  2.0421
   9423SM  C16S12694   5.761   0.539   4.567 -0.5756 -0.3657 -0.6544
   9423SM  H16S12695   5.739   0.443   4.516  0.3905 -0.6015 -0.6495
   9423SM  H16T12696   5.680   0.550   4.642 -0.3704 -2.7684 -0.0022
   9423SM  C17S12697   5.897   0.539   4.640  0.2557  0.7314  0.3663
   9423SM  H17S12698   5.979   0.538   4.565 -0.7491 -1.5139 -0.7957
   9423SM  H17T12699   5.911   0.442   4.692 -1.3635  1.6655  2.7638
   9423SM  C18S12700   5.923   0.666   4.725 -0.3534 -0.7020 -0.1031
   9423SM  H18S12701   5.939   0.754   4.659  1.0471  1.6270  3.0228
   9423SM  H18T12702   6.022   0.648   4.772  0.0737  0.6005 -0.4585
   9423SM  H18U12703   5.859   0.686   4.814  0.4631 -0.5736  0.4739
   9423SM   C1F12704   5.403   0.377   3.479 -0.2150 -0.3562  0.3601
   9423SM    OF12705   5.522   0.400   3.512  0.3441 -0.6041  0.3614
   9423SM   C2F12706   5.321   0.264   3.532  0.0658 -0.0830  0.1178
   9423SM   H2F12707   5.385   0.183   3.571  0.6529 -0.2406 -1.1249
   9423SM   H2G12708   5.262   0.225   3.446 -0.9501  1.3190  0.1285
   9423SM   C3F12709   5.216   0.315   3.629 -0.3763  0.2027 -0.5465
   9423SM   H3F12710   5.166   0.224   3.667  1.2267 -0.1688  0.7705
   9423SM   H3G12711   5.141   0.381   3.579 -0.8546 -0.4604 -0.7111
   9423SM   C4F12712   5.280   0.382   3.748  0.4623 -0.0915 -0.2516
   9423SM   H4F12713   5.356   0.460   3.723  1.3273 -0.3041  1.5433
   9423SM   H4G12714   5.342   0.303   3.795 -0.4928 -0.5497  0.2393
   9423SM   C5F12715   5.186   0.432   3.860 -0.4122 -0.2332  1.0841
   9423SM   H5F12716   5.108   0.356   3.881  0.5586 -1.3017  0.9699
   9423SM   H5G12717   5.136   0.528   3.837 -1.0935 -0.3302  2.0812
   9423SM   C6F12718   5.259   0.470   3.990 -0.1426 -0.2292  0.0826
   9423SM   H6F12719   5.347   0.533   3.965  0.6390 -2.2637 -2.9105
   9423SM   H6G12720   5.311   0.381   4.029  0.5285 -0.1299 -0.5604
   9423SM   C7F12721   5.154   0.524   4.080  0.0632 -0.5822  0.5499
   9423SM   H7F12722   5.076   0.444   4.080 -0.7506 -0.0517 -3.7129
   9423SM   H7G12723   5.111   0.612   4.028  0.0657 -1.6702 -1.4260
   9423SM   C8F12724   5.215   0.548   4.214 -0.5152 -0.2390 -0.3007
   9423SM   H8F12725   5.285   0.633   4.200 -0.3135 -0.0409  1.6971
   9423SM   H8G12726   5.280   0.462   4.243 -0.6926 -0.1736  0.3029
   9423SM   C9F12727   5.116   0.597   4.322 -0.7354  0.4203 -0.5121
   9423SM   H9F12728   5.042   0.516   4.338  1.5576 -1.1701  3.3584
   9423SM   H9G12729   5.072   0.693   4.286  1.1888  1.7106  0.4310
   9423SM  C10F12730   5.189   0.615   4.461  0.5540  0.4513  0.0396
   9423SM  H10F12731   5.240   0.714   4.462  0.0748  0.6952  0.4545
   9423SM  H10G12732   5.270   0.539   4.461 -0.0504 -0.2602 -1.8029
   9423SM  C11F12733   5.094   0.606   4.583 -0.4479 -0.1180  0.2538
   9423SM  H11F12734   5.054   0.503   4.596  0.8020 -0.8704 -1.5371
   9423SM  H11G12735   5.011   0.679   4.595 -0.2240 -0.2294  3.1229
   9423SM  C12F12736   5.179   0.622   4.710 -0.5038 -0.1811  0.0612
   9423SM  H12F12737   5.242   0.713   4.715  2.4508 -2.0892  0.1972
   9423SM  H12G12738   5.252   0.539   4.696  2.3320  1.3456  3.9182
   9423SM  C13F12739   5.098   0.603   4.840 -0.1609  0.6324  0.2228
   9423SM  H13F12740   5.077   0.496   4.858  0.0176  0.5601  0.0029
   9423SM  H13G12741   4.997   0.646   4.824 -1.0055 -1.6792 -1.0149
   9423SM  C14F12742   5.156   0.670   4.961 -0.0478 -0.3620 -0.3756
   9423SM  H14F12743   5.165   0.781   4.962 -1.2675 -0.2510  0.2322
   9423SM  H14G12744   5.254   0.619   4.971  0.0522 -0.3783 -1.3417
   9423SM  C15F12745   5.070   0.637   5.078 -0.0342 -0.7141  0.2476
   9423SM  H15F12746   5.058   0.527   5.089  1.4753 -0.7348  2.4278
   9423SM  H15G12747   4.975   0.694   5.081  1.3648  1.7882 -0.1932
   9423SM  C16F12748   5.144   0.683   5.205  0.2011  0.1628 -0.6432
   9423SM  H16F12749   5.150   0.794   5.199  1.6092  0.3115  2.0212
   9423SM  H16G12750   5.248   0.645   5.204  0.1440  0.0224 -1.7195
   9423SM  C17F12751   5.077   0.642   5.347  0.6102 -0.0250  0.7744
   9423SM  H17F12752   5.059   0.533   5.351  1.6502 -0.2272  0.3185
   9423SM  H17G12753   4.976   0.688   5.349  0.9074  0.6295  2.3578
   9423SM  C18F12754   5.162   0.676   5.470  0.1565  0.0367  0.2564
   9423SM  H18F12755   5.157   0.786   5.481 -0.9109 -0.0319  0.5731
   9423SM  H18G12756   5.264   0.643   5.442 -0.1153  1.2992 -2.6325
   9423SM  C19F12757   5.093   0.611   5.588 -0.1278 -0.8280  0.4196
   9423SM  H19F12758   5.090   0.501   5.581  0.7441 -0.8149 -0.3246
   9423SM  H19G12759   4.988   0.648   5.581 -0.6248 -1.9973  1.3991
   9423SM  C20F12760   5.152   0.656   5.724 -0.5111  1.2694 -0.3128
   9423SM  H20F12761   5.175   0.764   5.718 -0.0553  1.1927  0.0330
   9423SM  H20G12762   5.236   0.592   5.757 -1.5035 -0.4050 -0.9104
   9423SM  C21F12763   5.054   0.662   5.839 -0.0335 -0.0587 -0.3883
   9423SM  H21F12764   4.991   0.751   5.818  0.6604  0.5159 -0.0906
   9423SM  H21G12765   5.114   0.688   5.929  0.0061  0.0718 -0.4529
   9423SM  C22F12766   4.988   0.530   5.869 -0.8945  0.2675 -0.2278
   9423SM  H22F12767   4.934   0.496   5.777 -0.3433  1.5252 -1.0470
   9423SM  H22G12768   4.902   0.556   5.934 -1.2072 -0.8044 -0.1856
   9423SM  C23F12769   5.076   0.431   5.946  1.3142 -0.4527  0.4242
   9423SM  H23F12770   5.155   0.392   5.879  1.4634 -1.5165  1.1851
   9423SM  H23G12771   5.014   0.348   5.986  1.6641 -1.0809 -0.3136
   9423SM  H23H12772   5.129   0.480   6.031  0.1482  0.8952  0.4063
   9523SM     N12773   2.274   3.829   4.090  0.4846 -0.9464  0.0879
   9523SM   C1512774   2.248   3.985   4.104 -0.1326  0.1643 -0.2049
   9523SM  H15A12775   2.154   4.011   4.058  0.7388  0.7143 -1.7906
   9523SM  H15B12776   2.327   4.040   4.054 -0.2592  0.2574 -0.3051
   9523SM  H15C12777   2.245   4.000   4.211 -0.5916  0.7914 -0.3018
   9523SM   C1412778   2.224   3.795   3.949  0.2589  0.2535  0.4790
   9523SM  H14A12779   2.272   3.707   3.908 -0.3218  0.9157 -1.7460
   9523SM  H14B12780   2.263   3.873   3.885  1.7021  0.7043  1.8113
   9523SM  H14C12781   2.117   3.788   3.945  0.2166  1.1915 -0.5107
   9523SM   C1312782   2.420   3.818   4.095  0.4475 -0.4876  0.0496
   9523SM  H13A12783   2.458   3.719   4.075 -1.5117 -1.3072  0.0580
   9523SM  H13B12784   2.471   3.855   4.182 -1.1078 -0.1978  0.8813
   9523SM  H13C12785   2.468   3.874   4.016 -0.7230 -0.0371 -0.3696
   9523SM   C1212786   2.204   3.734   4.183 -0.3834 -0.3713 -1.0120
   9523SM  H12A12787   2.206   3.639   4.130  0.5071 -1.1975  0.4371
   9523SM  H12B12788   2.100   3.760   4.180  0.1666  2.1094 -0.6069
   9523SM   C1112789   2.254   3.711   4.329 -0.3689 -0.7552  0.5296
   9523SM  H11A12790   2.361   3.684   4.322  0.2054  1.5473 -0.5059
   9523SM  H11B12791   2.198   3.630   4.381  0.0338 -1.8930 -0.7465
   9523SM     P12792   2.113   3.896   4.450 -0.0015 -0.0573 -0.7184
   9523SM   O1312793   2.130   4.036   4.485 -0.0882 -0.0552 -0.0747
   9523SM   O1412794   2.009   3.858   4.351 -0.1880 -0.1602  0.6501
   9523SM   O1112795   2.081   3.803   4.582 -0.2987  0.1090 -0.2009
   9523SM   O1212796   2.247   3.837   4.396 -0.0916  0.5784  0.2158
   9523SM   C1S12797   2.195   3.766   4.659  0.4692  0.0030  0.2441
   9523SM   H1S12798   2.254   3.860   4.669 -0.0879  0.2278  1.7352
   9523SM   H1T12799   2.247   3.688   4.599 -0.1618 -0.6393  0.5140
   9523SM    NF12800   2.276   3.702   4.895 -0.3642 -0.7607 -0.2415
   9523SM   HNF12801   2.317   3.612   4.902  2.1095  0.2428 -0.5591
   9523SM   C2S12802   2.159   3.710   4.809 -0.5175  0.3878  0.1817
   9523SM   H2S12803   2.104   3.797   4.851 -1.0905  0.0980  0.0532
   9523SM   C3S12804   2.065   3.587   4.808  0.5942 -0.0993  0.1892
   9523SM   H3S12805   2.118   3.507   4.751 -1.0209 -1.1032  0.0289
   9523SM    O312806   1.951   3.618   4.731  0.4123  0.1952 -0.1222
   9523SM   HO312807   1.972   3.690   4.672 -0.9142  1.2410  0.6153
   9523SM   C4S12808   2.028   3.541   4.948 -0.3790 -0.0563 -0.0087
   9523SM   H4S12809   1.981   3.624   5.002 -0.5245  0.1952 -0.5201
   9523SM   C5S12810   2.048   3.421   5.013  0.7243  0.8714 -0.0885
   9523SM   H5S12811   2.123   3.350   4.973  1.1104  0.3142  1.5663
   9523SM   C6S12812   1.998   3.403   5.154 -0.7550 -0.1038  0.2663
   9523SM   H6S12813   1.898   3.354   5.156 -1.5764  1.4171 -0.8003
   9523SM   H6T12814   1.991   3.494   5.218 -0.2460 -1.2142  1.9647
   9523SM   C7S12815   2.101   3.304   5.217  0.3049 -0.1279  0.7776
   9523SM   H7S12816   2.204   3.343   5.210  0.6158 -0.9661  0.5174
   9523SM   H7T12817   2.101   3.205   5.165 -1.2361  0.2816 -0.0816
   9523SM   C8S12818   2.068   3.274   5.362  0.2120 -0.0620 -0.1347
   9523SM   H8S12819   1.973   3.216   5.360  0.7732 -0.9827 -1.2812
   9523SM   H8T12820   2.059   3.373   5.412  0.9381  0.5182 -1.1250
   9523SM   C9S12821   2.179   3.193   5.427 -0.3133 -0.5075 -0.5492
   9523SM   H9S12822   2.282   3.234   5.415 -0.8666  0.8240 -0.9018
   9523SM   H9T12823   2.191   3.101   5.365 -0.4914 -0.2977 -0.8926
   9523SM  C10S12824   2.136   3.151   5.568 -0.5426  0.2390  0.5631
   9523SM  H10S12825   2.032   3.114   5.574 -0.4547 -0.0425  0.3620
   9523SM  H10T12826   2.136   3.242   5.632  0.5349 -0.0790  1.0416
   9523SM  C11S12827   2.221   3.043   5.643  0.8891  0.3171  0.0236
   9523SM  H11S12828   2.324   3.083   5.649  0.1599  2.1052  2.1409
   9523SM  H11T12829   2.210   2.953   5.580  2.9695 -0.2927  0.4584
   9523SM  C12S12830   2.174   3.022   5.793  1.0139  0.6528  0.9423
   9523SM  H12S12831   2.066   2.996   5.797  0.6575  1.2477 -2.1878
   9523SM  H12T12832   2.203   3.113   5.849  2.0538  1.7875 -1.3235
   9523SM  C13S12833   2.250   2.906   5.855  0.6877 -0.4137 -0.1109
   9523SM  H13S12834   2.359   2.905   5.838  1.3415  1.1286  3.1886
   9523SM  H13T12835   2.206   2.810   5.821 -0.6519  0.8427 -2.1353
   9523SM  C14S12836   2.229   2.907   6.012  0.1172  0.5119  0.2874
   9523SM  H14S12837   2.262   2.809   6.052  2.7030  1.9541  1.9654
   9523SM  H14T12838   2.121   2.923   6.032  0.0163  0.1059  0.0816
   9523SM  C15S12839   2.307   3.019   6.081  0.3134  0.8391 -0.0714
   9523SM  H15S12840   2.262   3.119   6.062 -3.2724 -0.3611  1.3588
   9523SM  H15T12841   2.412   3.024   6.043  0.7539  1.0535  1.1221
   9523SM  C16S12842   2.324   3.001   6.234  0.5911 -0.2610 -0.4527
   9523SM  H16S12843   2.387   2.911   6.251  1.9054  0.7367  0.1719
   9523SM  H16T12844   2.226   2.979   6.283 -0.7166 -0.7994 -3.1336
   9523SM  C17S12845   2.390   3.131   6.301  0.0014 -0.0287  0.9036
   9523SM  H17S12846   2.328   3.219   6.277 -0.7867 -0.4530  1.3158
   9523SM  H17T12847   2.487   3.159   6.255 -0.7397  2.4896  0.7647
   9523SM  C18S12848   2.424   3.114   6.448  0.3219 -0.0370  0.1174
   9523SM  H18S12849   2.325   3.100   6.496 -0.0090  1.4018 -0.0822
   9523SM  H18T12850   2.479   3.193   6.505  0.9019  0.8289 -1.5676
   9523SM  H18U12851   2.482   3.021   6.467 -0.0335  0.1059  2.1488
   9523SM   C1F12852   2.348   3.811   4.939 -0.2149 -0.4831 -0.4017
   9523SM    OF12853   2.332   3.922   4.890 -0.4830 -0.1758 -0.1538
   9523SM   C2F12854   2.458   3.794   5.044  0.3490  0.4355 -0.1960
   9523SM   H2F12855   2.542   3.856   5.006  1.3858 -1.2019 -0.7322
   9523SM   H2G12856   2.484   3.686   5.044 -0.8596  0.0815 -2.6595
   9523SM   C3F12857   2.406   3.840   5.185 -0.1336 -0.4565  0.5725
   9523SM   H3F12858   2.301   3.810   5.200  0.3925 -1.8554  1.6768
   9523SM   H3G12859   2.414   3.951   5.177 -0.7871 -0.3027  1.8598
   9523SM   C4F12860   2.486   3.790   5.298 -0.5894 -0.0949  0.2508
   9523SM   H4F12861   2.454   3.838   5.393  1.0263 -0.4661  1.0040
   9523SM   H4G12862   2.591   3.809   5.269 -0.7607  0.3955 -0.0634
   9523SM   C5F12863   2.477   3.636   5.312  0.1661  0.5918 -0.5612
   9523SM   H5F12864   2.571   3.602   5.361  0.3998  0.2940 -1.2105
   9523SM   H5G12865   2.465   3.590   5.211 -2.2941  0.3751 -0.2513
   9523SM   C6F12866   2.356   3.591   5.394 -0.1520 -0.0532 -0.2035
   9523SM   H6F12867   2.327   3.488   5.364 -0.8257 -0.4539  1.6677
   9523SM   H6G12868   2.268   3.652   5.368  0.6649  2.0214  1.5707
   9523SM   C7F12869   2.396   3.583   5.542 -0.7086  0.1200 -0.2748
   9523SM   H7F12870   2.394   3.685   5.586  0.1713  0.5514 -1.1998
   9523SM   H7G12871   2.491   3.528   5.556 -1.9400 -2.5409 -1.5557
   9523SM   C8F12872   2.301   3.505   5.629 -0.1800 -0.3194  0.2086
   9523SM   H8F12873   2.323   3.397   5.615  0.6263 -0.6164  3.0154
   9523SM   H8G12874   2.201   3.533   5.591 -1.0072 -0.8329  1.9099
   9523SM   C9F12875   2.318   3.534   5.777 -0.1561 -0.8973  0.0417
   9523SM   H9F12876   2.216   3.512   5.816 -0.2373  0.0974  0.4148
   9523SM   H9G12877   2.333   3.643   5.791 -2.4519 -0.6430  0.9895
   9523SM  C10F12878   2.416   3.437   5.846  0.7905  0.6040  0.6999
   9523SM  H10F12879   2.520   3.473   5.832  1.8477 -2.5241 -0.6270
   9523SM  H10G12880   2.408   3.340   5.793 -1.4216  1.5824 -0.8965
   9523SM  C11F12881   2.387   3.412   5.996 -0.1729  0.4000 -0.1244
   9523SM  H11F12882   2.452   3.329   6.030  0.9354  1.0049 -0.6996
   9523SM  H11G12883   2.279   3.397   6.020  0.0201  1.8852  1.9582
   9523SM  C12F12884   2.439   3.533   6.076 -0.4229 -0.0415 -0.1495
   9523SM  H12F12885   2.394   3.628   6.039 -0.7012 -0.3076 -0.5005
   9523SM  H12G12886   2.547   3.541   6.051 -0.3640 -0.7521 -0.1423
   9523SM  C13F12887   2.416   3.503   6.228 -0.9197  1.1288  0.2126
   9523SM  H13F12888   2.446   3.398   6.244 -1.2584  0.9000 -0.5960
   9523SM  H13G12889   2.312   3.517   6.263 -0.9800  3.7010 -0.7664
   9523SM  C14F12890   2.505   3.603   6.308 -0.2819  0.2430  0.3622
   9523SM  H14F12891   2.501   3.710   6.280 -0.6383 -0.2249 -1.5130
   9523SM  H14G12892   2.611   3.575   6.292 -0.0903  1.7080 -1.2066
   9523SM  C15F12893   2.487   3.596   6.462 -0.0768 -0.1816  0.6497
   9523SM  H15F12894   2.553   3.670   6.512 -0.3247  0.5625 -0.0930
   9523SM  H15G12895   2.515   3.492   6.490  1.3220  0.4151  1.5754
   9523SM  C16F12896   2.345   3.622   6.503  0.2026 -0.7035 -0.6730
   9523SM  H16F12897   2.274   3.537   6.507 -2.3721  1.2749 -1.3787
   9523SM  H16G12898   2.296   3.697   6.438 -0.2570  2.4158  2.8669
   9523SM  C17F12899   2.338   3.679   6.643  0.6989  0.1082 -0.4730
   9523SM  H17F12900   2.396   3.773   6.659  0.3427  0.5778 -1.8655
   9523SM  H17G12901   2.372   3.598   6.711 -0.4955  0.8262  1.0320
   9523SM  C18F12902   2.192   3.714   6.688  0.6526  0.4601  0.4826
   9523SM  H18F12903   2.122   3.631   6.667  2.2750 -1.1455  1.0629
   9523SM  H18G12904   2.152   3.802   6.634 -2.1067 -0.5882  0.6951
   9523SM  C19F12905   2.177   3.756   6.836  0.2819  0.2706  0.5205
   9523SM  H19F12906   2.210   3.673   6.902 -3.2599 -2.0583 -0.3508
   9523SM  H19G12907   2.071   3.783   6.856  0.3209  3.1738 -2.4159
   9523SM  C20F12908   2.251   3.893   6.861  0.5650  0.1414  0.7755
   9523SM  H20F12909   2.231   3.958   6.774 -2.1201  0.7330  1.7545
   9523SM  H20G12910   2.360   3.869   6.860  0.8729  1.4577 -0.3948
   9523SM  C21F12911   2.210   3.957   6.993  0.1274  1.0072 -0.2958
   9523SM  H21F12912   2.238   3.898   7.083  0.7327 -0.4524 -1.4103
   9523SM  H21G12913   2.099   3.963   6.980  0.1885 -1.4438 -2.9215
   9523SM  C22F12914   2.269   4.095   7.022 -0.4532 -0.2872  0.1680
   9523SM  H22F12915   2.251   4.162   6.935 -0.1882 -0.2314  0.1566
   9523SM  H22G12916   2.378   4.076   7.027 -0.1839  0.9597 -0.4882
   9523SM  C23F12917   2.219   4.152   7.154  0.1027  0.1363 -0.3979
   9523SM  H23F12918   2.240   4.261   7.160 -0.7987  0.2848  0.4119
   9523SM  H23G12919   2.264   4.112   7.248 -1.7401 -0.2797  0.3687
   9523SM  H23H12920   2.110   4.131   7.163  0.3793 -0.7176  1.5057
   9623SM     N12921   2.552   2.757   3.688  0.7248 -0.1062  0.9859
   9623SM   C1512922   2.628   2.673   3.596  0.1177  0.6077 -0.0520
   9623SM  H15A12923   2.733   2.695   3.590  0.2071  0.3812  0.5718
   9623SM  H15B12924   2.590   2.674   3.495  1.9392 -2.0009 -0.8714
   9623SM  H15C12925   2.619   2.572   3.632  1.9548  0.6631  0.6478
   9623SM   C1412926   2.591   2.898   3.649 -0.6423 -0.3557  0.0679
   9623SM  H14A12927   2.517   2.968   3.683 -0.2181  0.4560 -0.6632
   9623SM  H14B12928   2.595   2.901   3.542  1.1934  0.1409  0.1119
   9623SM  H14C12929   2.690   2.930   3.680 -1.4219  0.9633  1.3226
   9623SM   C1312930   2.409   2.752   3.661  0.2189  0.4130  0.5394
   9623SM  H13A12931   2.391   2.741   3.556  1.8233  1.2154  0.1441
   9623SM  H13B12932   2.358   2.841   3.696 -1.3466 -0.1201 -0.3187
   9623SM  H13C12933   2.363   2.668   3.711  0.9396  0.7958  1.9007
   9623SM   C1212934   2.580   2.727   3.833  0.4438  0.0969  0.6349
   9623SM  H12A12935   2.529   2.639   3.868 -2.5810  1.7656  0.7389
   9623SM  H12B12936   2.548   2.811   3.893 -1.9318 -0.4962  0.2950
   9623SM   C1112937   2.727   2.735   3.885  0.4736 -0.0848 -0.0413
   9623SM  H11A12938   2.732   2.718   3.995 -1.3784  1.4625  0.3337
   9623SM  H11B12939   2.749   2.842   3.863 -1.6528  0.2974 -0.5245
   9623SM     P12940   2.972   2.653   3.834  0.1788  0.1245  0.1223
   9623SM   O1312941   3.041   2.544   3.758  0.0328  0.5182 -0.1646
   9623SM   O1412942   3.017   2.798   3.817 -0.0839 -0.0172  0.1391
   9623SM   O1112943   2.978   2.623   3.990 -0.0860  0.2022  0.6478
   9623SM   O1212944   2.815   2.661   3.803 -0.4552  0.1295 -0.1074
   9623SM   C1S12945   3.086   2.546   4.056  0.3972 -0.6406 -0.0613
   9623SM   H1S12946   3.186   2.592   4.042  1.2329 -2.1402  0.7686
   9623SM   H1T12947   3.091   2.442   4.018  0.3690 -0.3529 -0.8890
   9623SM    NF12948   3.161   2.486   4.286 -0.5091 -0.3809 -0.3033
   9623SM   HNF12949   3.148   2.390   4.309 -1.3619 -0.1919  0.0581
   9623SM   C2S12950   3.047   2.529   4.202 -0.5930 -0.2586 -0.2246
   9623SM   H2S12951   3.037   2.630   4.248  1.8980  0.3253 -0.8227
   9623SM   C3S12952   2.921   2.447   4.228 -0.4638  0.2793  0.5294
   9623SM   H3S12953   2.938   2.342   4.194  0.3267 -0.0966  1.9968
   9623SM    O312954   2.807   2.489   4.156 -0.1622  0.8286 -0.2212
   9623SM   HO312955   2.837   2.567   4.109  3.1250 -0.2932 -0.1948
   9623SM   C4S12956   2.895   2.454   4.371 -0.0148 -0.5660 -0.2445
   9623SM   H4S12957   2.923   2.361   4.423  0.7698 -0.1197  0.1398
   9623SM   C5S12958   2.842   2.564   4.434  0.6354 -0.1810 -0.0658
   9623SM   H5S12959   2.831   2.656   4.375 -1.5694 -0.4190 -0.0891
   9623SM   C6S12960   2.836   2.580   4.581  0.1659 -0.1611  0.2434
   9623SM   H6S12961   2.892   2.670   4.614  1.8702 -0.6226 -1.2879
   9623SM   H6T12962   2.891   2.495   4.627  0.1564  0.0242  0.6079
   9623SM   C7S12963   2.691   2.589   4.636 -0.5035 -0.1187  0.2395
   9623SM   H7S12964   2.650   2.491   4.604 -0.3360 -0.1715  0.1867
   9623SM   H7T12965   2.649   2.678   4.585  0.5974  1.5056  1.9816
   9623SM   C8S12966   2.678   2.590   4.785 -0.3861 -0.1999 -0.2657
   9623SM   H8S12967   2.569   2.593   4.805 -0.6755  0.6544 -1.8680
   9623SM   H8T12968   2.715   2.687   4.825 -1.2860 -0.5745  1.6133
   9623SM   C9S12969   2.744   2.475   4.862  0.2204 -0.4056  0.6760
   9623SM   H9S12970   2.854   2.472   4.846  0.4014  0.9617  1.5179
   9623SM   H9T12971   2.705   2.375   4.833  0.0403 -0.2128  0.2589
   9623SM  C10S12972   2.727   2.500   5.011  0.1877 -0.3885  0.3672
   9623SM  H10S12973   2.619   2.526   5.018 -0.2433 -2.0833  0.3624
   9623SM  H10T12974   2.789   2.582   5.053 -0.0714 -0.4133  0.7942
   9623SM  C11S12975   2.737   2.375   5.097 -0.6502  0.1304  0.6352
   9623SM  H11S12976   2.843   2.341   5.099 -0.5268  0.3958 -0.5670
   9623SM  H11T12977   2.678   2.294   5.049 -1.0242  0.7789 -0.0106
   9623SM  C12S12978   2.687   2.394   5.239  0.0514  0.1696  0.2695
   9623SM  H12S12979   2.578   2.409   5.229  0.1764 -0.1832 -2.2763
   9623SM  H12T12980   2.723   2.487   5.290 -0.1083  0.1700  0.3793
   9623SM  C13S12981   2.733   2.275   5.330 -0.0899  0.2094  0.4147
   9623SM  H13S12982   2.844   2.274   5.337  0.1550 -2.3197 -1.9716
   9623SM  H13T12983   2.712   2.176   5.286 -3.6037  0.8201  0.4117
   9623SM  C14S12984   2.675   2.274   5.468  0.1957 -0.2643  0.2800
   9623SM  H14S12985   2.565   2.287   5.472 -0.0074 -1.7438 -0.0228
   9623SM  H14T12986   2.707   2.370   5.515 -0.7251 -0.4469  1.3140
   9623SM  C15S12987   2.701   2.141   5.549  0.1439 -0.2440 -0.7599
   9623SM  H15S12988   2.801   2.138   5.598 -1.5952 -1.8619  3.1371
   9623SM  H15T12989   2.685   2.050   5.487  1.7350 -0.6265 -0.6611
   9623SM  C16S12990   2.603   2.153   5.664  0.4334 -0.1071  0.2873
   9623SM  H16S12991   2.500   2.151   5.621 -0.0942 -1.4239  1.5285
   9623SM  H16T12992   2.613   2.249   5.720  0.5685  2.0623 -3.1446
   9623SM  C17S12993   2.604   2.036   5.776  0.3974 -0.1606 -0.0404
   9623SM  H17S12994   2.595   1.941   5.719 -1.9236  0.9561 -1.7246
   9623SM  H17T12995   2.515   2.033   5.842  0.7297  0.4882  0.4445
   9623SM  C18S12996   2.728   2.033   5.859  0.1758 -0.3400 -0.1247
   9623SM  H18S12997   2.729   2.124   5.923 -2.7872 -0.9959  0.9957
   9623SM  H18T12998   2.824   2.020   5.804 -0.0211 -1.1461 -0.2853
   9623SM  H18U12999   2.722   1.948   5.931  0.0512 -0.2064  0.0222
   9623SM   C1F13000   3.277   2.550   4.309 -0.1988 -0.1065  0.5905
   9623SM    OF13001   3.296   2.659   4.260  0.2947 -0.2138 -0.6283
   9623SM   C2F13002   3.374   2.478   4.393  1.1505 -0.9798  0.2942
   9623SM   H2F13003   3.476   2.516   4.368  0.2054  0.3011 -1.8236
   9623SM   H2G13004   3.366   2.369   4.370  0.5213 -0.5713 -1.6117
   9623SM   C3F13005   3.348   2.490   4.548 -0.8674  0.3233 -0.1569
   9623SM   H3F13006   3.436   2.444   4.599  0.4767  2.8542 -0.0413
   9623SM   H3G13007   3.259   2.428   4.574 -0.9330  0.7044  0.5577
   9623SM   C4F13008   3.330   2.635   4.593  0.2191 -0.1555 -0.0538
   9623SM   H4F13009   3.243   2.684   4.544 -0.6258 -1.6484 -0.1175
   9623SM   H4G13010   3.420   2.698   4.577  0.9089 -0.7991  1.1084
   9623SM   C5F13011   3.298   2.638   4.751 -0.4770  0.6731  0.3073
   9623SM   H5F13012   3.311   2.746   4.775 -2.8136  0.8867  0.8879
   9623SM   H5G13013   3.371   2.579   4.811 -0.7820  1.1739  1.1878
   9623SM   C6F13014   3.155   2.593   4.794  0.1767  0.3917  0.8262
   9623SM   H6F13015   3.137   2.487   4.764 -0.4798  1.0528 -1.3084
   9623SM   H6G13016   3.091   2.661   4.735  0.7628  1.4762  1.4173
   9623SM   C7F13017   3.127   2.598   4.945 -0.6729  0.5548 -0.2408
   9623SM   H7F13018   3.018   2.601   4.965 -0.5067 -2.1222  1.5032
   9623SM   H7G13019   3.177   2.687   4.991  2.1035 -0.4832 -1.0696
   9623SM   C8F13020   3.177   2.475   5.023 -0.4777 -0.5093 -0.9367
   9623SM   H8F13021   3.287   2.468   5.008  0.1549  0.1744  2.6003
   9623SM   H8G13022   3.118   2.390   4.981 -0.1108 -1.1833 -0.1082
   9623SM   C9F13023   3.167   2.480   5.179  0.2047  0.0217 -0.0637
   9623SM   H9F13024   3.060   2.472   5.208  0.3700 -1.0152  0.2974
   9623SM   H9G13025   3.220   2.570   5.217  0.3132 -0.1897  0.2943
   9623SM  C10F13026   3.217   2.352   5.247 -0.2320 -0.1422  0.3144
   9623SM  H10F13027   3.328   2.355   5.242 -0.2287  0.9758  0.7157
   9623SM  H10G13028   3.172   2.265   5.195 -2.0103 -0.7841  2.7403
   9623SM  C11F13029   3.196   2.343   5.402 -0.1090  0.0155 -0.1144
   9623SM  H11F13030   3.089   2.344   5.432 -0.5935  0.3802 -1.7264
   9623SM  H11G13031   3.245   2.429   5.452  0.9901 -1.6522  1.8185
   9623SM  C12F13032   3.260   2.211   5.453  0.4069  0.3151 -0.2686
   9623SM  H12F13033   3.361   2.196   5.410  0.0918 -0.0634 -0.8995
   9623SM  H12G13034   3.200   2.123   5.418 -0.0423  1.1769 -1.7752
   9623SM  C13F13035   3.259   2.212   5.606  0.1085  0.4084 -1.0162
   9623SM  H13F13036   3.153   2.205   5.640  0.5094  0.8464  0.3920
   9623SM  H13G13037   3.305   2.304   5.649  1.5755 -1.6374  2.1415
   9623SM  C14F13038   3.331   2.090   5.666 -0.0982 -0.1262  0.2175
   9623SM  H14F13039   3.437   2.118   5.650 -0.0068  0.6259  1.9472
   9623SM  H14G13040   3.311   1.988   5.626  1.0108 -0.3814  0.2848
   9623SM  C15F13041   3.323   2.078   5.819 -0.1946  0.6304 -0.4760
   9623SM  H15F13042   3.216   2.070   5.847  0.0025  0.9112  0.4037
   9623SM  H15G13043   3.366   2.177   5.848 -1.5841  0.9185  0.7291
   9623SM  C16F13044   3.419   1.978   5.875 -0.6740  0.6558 -0.9456
   9623SM  H16F13045   3.519   1.981   5.826  0.0787  1.7006  0.5717
   9623SM  H16G13046   3.374   1.881   5.846 -1.2253  0.4609  0.4929
   9623SM  C17F13047   3.432   1.999   6.030 -0.9384  0.5037 -0.1900
   9623SM  H17F13048   3.344   1.960   6.085  0.2102 -1.4789  0.3810
   9623SM  H17G13049   3.450   2.103   6.065  0.9408 -0.0334  0.5849
   9623SM  C18F13050   3.562   1.924   6.091 -0.3844  0.3588  0.3708
   9623SM  H18F13051   3.646   1.971   6.037 -2.1972  1.5762 -1.5352
   9623SM  H18G13052   3.563   1.817   6.062  1.4857  0.3034  0.5452
   9623SM  C19F13053   3.578   1.961   6.241 -0.2733 -0.3271  0.0590
   9623SM  H19F13054   3.577   2.071   6.260  1.0384 -0.2813 -0.1056
   9623SM  H19G13055   3.672   1.919   6.282 -1.3808 -1.4928  1.5031
   9623SM  C20F13056   3.469   1.902   6.326  0.4057  0.3597  0.4951
   9623SM  H20F13057   3.450   1.794   6.309  1.4311  0.1565  0.5482
   9623SM  H20G13058   3.369   1.946   6.306  0.8872  0.9497 -0.7083
   9623SM  C21F13059   3.497   1.922   6.475  0.2615 -0.3463  0.1155
   9623SM  H21F13060   3.496   2.031   6.497 -1.1268  0.3360 -2.8496
   9623SM  H21G13061   3.593   1.875   6.506  0.8992 -1.0611 -2.6425
   9623SM  C22F13062   3.385   1.854   6.551 -0.5761 -0.2810 -0.6244
   9623SM  H22F13063   3.381   1.756   6.499  0.8938 -0.6502 -0.0648
   9623SM  H22G13064   3.294   1.916   6.532 -0.1092  1.1977  1.6284
   9623SM  C23F13065   3.407   1.859   6.707  0.0743 -0.4035 -0.0169
   9623SM  H23F13066   3.512   1.832   6.732 -0.3249 -1.8558  0.1452
   9623SM  H23G13067   3.331   1.793   6.752  0.2212 -0.7486 -0.2723
   9623SM  H23H13068   3.380   1.963   6.735  2.7870  1.2464 -2.8744
   9723SM     N13069   4.693   1.195   2.732  0.1913  0.7019 -0.6348
   9723SM   C1513070   4.740   1.093   2.629 -0.8594  0.1977 -0.4614
   9723SM  H15A13071   4.651   1.038   2.602 -0.1913 -0.6029 -1.1110
   9723SM  H15B13072   4.813   1.028   2.676 -0.0524  0.9981 -0.5913
   9723SM  H15C13073   4.786   1.144   2.546 -0.5326  2.5389  1.0877
   9723SM   C1413074   4.799   1.298   2.760 -0.2900  0.2168 -0.3821
   9723SM  H14A13075   4.899   1.258   2.768 -0.3464 -0.1001 -1.1947
   9723SM  H14B13076   4.780   1.362   2.845  1.5645  2.7359 -1.7168
   9723SM  H14C13077   4.813   1.369   2.680  1.5684 -2.2476 -2.3922
   9723SM   C1313078   4.572   1.255   2.674 -0.3712 -0.9727  0.5634
   9723SM  H13A13079   4.492   1.186   2.652 -1.9477  1.2007 -0.9301
   9723SM  H13B13080   4.597   1.310   2.585  1.4975 -1.0744  0.9848
   9723SM  H13C13081   4.520   1.320   2.742 -1.0882 -0.4918 -0.4228
   9723SM   C1213082   4.652   1.129   2.864 -0.9054  0.0725  0.2790
   9723SM  H12A13083   4.747   1.101   2.905  0.1440  0.9327 -1.4497
   9723SM  H12B13084   4.598   1.036   2.855  0.5656 -0.9398  1.5239
   9723SM   C1113085   4.589   1.215   2.973 -0.0949  0.3610 -0.1592
   9723SM  H11A13086   4.548   1.152   3.055 -0.9275  2.9788  1.5433
   9723SM  H11B13087   4.502   1.265   2.925 -1.0000 -1.4504 -0.4979
   9723SM     P13088   4.639   1.416   3.137 -0.3162  0.0085 -0.2975
   9723SM   O1313089   4.761   1.460   3.214  0.1223  0.1130  0.6394
   9723SM   O1413090   4.566   1.523   3.068 -0.1566  0.2106 -0.2602
   9723SM   O1113091   4.551   1.335   3.234  0.4906 -0.2095 -0.2196
   9723SM   O1213092   4.683   1.310   3.021  0.9281  0.1834 -0.4137
   9723SM   C1S13093   4.600   1.227   3.312  0.4124  0.5460 -0.1435
   9723SM   H1S13094   4.694   1.182   3.274  1.0620  0.5076  1.4306
   9723SM   H1T13095   4.516   1.154   3.309 -1.6229  2.6363  2.0207
   9723SM    NF13096   4.678   1.148   3.518  0.2029 -0.0047  0.0040
   9723SM   HNF13097   4.614   1.081   3.553  0.4516 -0.7620 -0.9238
   9723SM   C2S13098   4.624   1.266   3.457 -0.1908  0.4352 -0.5142
   9723SM   H2S13099   4.696   1.350   3.455  0.7633 -0.2849  1.0584
   9723SM   C3S13100   4.490   1.313   3.524  0.1998 -0.3111  0.7975
   9723SM   H3S13101   4.424   1.223   3.525  0.2870 -0.5172 -1.9843
   9723SM    O313102   4.426   1.423   3.453  0.0650 -0.8864 -0.0255
   9723SM   HO313103   4.483   1.429   3.376  1.4985  2.3160  1.1087
   9723SM   C4S13104   4.514   1.352   3.664 -0.1841 -0.4172  0.1124
   9723SM   H4S13105   4.463   1.288   3.738 -2.0221  1.3170  0.4265
   9723SM   C5S13106   4.589   1.455   3.707 -0.4297  0.0137  0.4150
   9723SM   H5S13107   4.628   1.526   3.633 -0.2565 -1.4185 -0.9367
   9723SM   C6S13108   4.619   1.486   3.845  0.3675  0.2995  0.3380
   9723SM   H6S13109   4.572   1.587   3.855 -2.0480 -0.8218  1.1258
   9723SM   H6T13110   4.726   1.502   3.867  0.5147 -1.8049  1.3464
   9723SM   C7S13111   4.557   1.395   3.952 -0.5257  0.4045  0.0677
   9723SM   H7S13112   4.569   1.286   3.935 -2.0820  0.0204  1.2385
   9723SM   H7T13113   4.450   1.420   3.935 -0.6262  0.3364  0.5903
   9723SM   C8S13114   4.602   1.432   4.097  0.0080  0.1557  0.2486
   9723SM   H8S13115   4.620   1.541   4.108  0.7055 -0.0453  1.2362
   9723SM   H8T13116   4.703   1.389   4.112  0.5664  1.1967 -0.4347
   9723SM   C9S13117   4.516   1.360   4.204  0.4574  0.3441  0.0542
   9723SM   H9S13118   4.529   1.251   4.189 -1.2022  0.2057 -0.6051
   9723SM   H9T13119   4.410   1.379   4.180 -0.2648 -2.2118  0.9148
   9723SM  C10S13120   4.558   1.403   4.341 -0.8372 -0.4800  0.1436
   9723SM  H10S13121   4.541   1.512   4.355 -0.2246 -0.5658  1.7969
   9723SM  H10T13122   4.669   1.394   4.336 -0.7058  1.1611 -0.5867
   9723SM  C11S13123   4.483   1.329   4.449  0.7842 -0.3617  0.5144
   9723SM  H11S13124   4.511   1.222   4.457 -0.3279 -0.7347 -0.3096
   9723SM  H11T13125   4.375   1.328   4.423  0.9370 -2.1937 -0.1735
   9723SM  C12S13126   4.489   1.387   4.587 -0.1038  0.5434  0.1023
   9723SM  H12S13127   4.496   1.498   4.581  0.4678  0.5846  1.2796
   9723SM  H12T13128   4.589   1.364   4.631  0.1046  0.3623 -0.4593
   9723SM  C13S13129   4.384   1.329   4.683  0.2077 -0.1138  0.0520
   9723SM  H13S13130   4.409   1.223   4.706  0.4515  0.3849  2.2647
   9723SM  H13T13131   4.287   1.339   4.631  0.4595  0.6644 -0.2775
   9723SM  C14S13132   4.370   1.401   4.818 -0.1063 -0.2912  0.8182
   9723SM  H14S13133   4.262   1.413   4.842  0.3607 -0.0261  2.9091
   9723SM  H14T13134   4.413   1.502   4.799 -3.1725  1.0568  0.4124
   9723SM  C15S13135   4.435   1.320   4.933 -0.5050 -0.0852  0.7140
   9723SM  H15S13136   4.540   1.294   4.910 -0.0326  0.6321  1.9347
   9723SM  H15T13137   4.375   1.227   4.941 -0.3374 -0.1819  0.8554
   9723SM  C16S13138   4.451   1.406   5.059 -0.1461  0.7161 -0.9691
   9723SM  H16S13139   4.354   1.456   5.079  0.1679  2.1460 -2.7239
   9723SM  H16T13140   4.515   1.495   5.040  0.5423  0.3643 -0.3559
   9723SM  C17S13141   4.515   1.329   5.177  0.2294  0.4228 -0.8920
   9723SM  H17S13142   4.446   1.246   5.202  0.1153  0.8429  0.2402
   9723SM  H17T13143   4.522   1.391   5.269  1.8366 -1.2394  0.1782
   9723SM  C18S13144   4.655   1.269   5.154  0.5537 -0.3339  0.5940
   9723SM  H18S13145   4.728   1.344   5.118 -0.4549  0.6080  0.4409
   9723SM  H18T13146   4.646   1.187   5.079 -2.1930 -1.1703  1.7207
   9723SM  H18U13147   4.699   1.221   5.243 -0.9392 -0.7991  1.1199
   9723SM   C1F13148   4.802   1.115   3.504  0.2452  0.2214 -1.0708
   9723SM    OF13149   4.885   1.188   3.453  0.2414 -0.2293 -0.1117
   9723SM   C2F13150   4.834   0.974   3.551  0.4054 -0.3477 -0.2035
   9723SM   H2F13151   4.895   0.928   3.470  2.4967  1.5796  0.1801
   9723SM   H2G13152   4.738   0.918   3.559  0.1761 -0.5508 -3.2405
   9723SM   C3F13153   4.901   0.964   3.686 -0.4029 -0.1834 -0.5438
   9723SM   H3F13154   4.988   1.032   3.686 -0.4394  0.0251  2.7988
   9723SM   H3G13155   4.938   0.860   3.701 -2.0651 -0.7729 -0.3056
   9723SM   C4F13156   4.816   1.002   3.803  0.1204  0.5891 -0.2409
   9723SM   H4F13157   4.731   0.930   3.804 -0.5684  1.3897  1.2773
   9723SM   H4G13158   4.768   1.102   3.799 -1.1240  0.0531  0.6467
   9723SM   C5F13159   4.887   1.007   3.940  0.1245 -0.0988 -0.2481
   9723SM   H5F13160   4.971   1.079   3.939  0.8955 -0.9763 -1.3212
   9723SM   H5G13161   4.926   0.908   3.970  0.2737 -0.4715 -1.6000
   9723SM   C6F13162   4.802   1.056   4.068 -0.2248  0.7716  0.5259
   9723SM   H6F13163   4.711   0.993   4.076 -0.1583  0.2019 -2.2533
   9723SM   H6G13164   4.767   1.161   4.060  1.0677  1.1995  0.3098
   9723SM   C7F13165   4.894   1.050   4.192  0.1744 -0.2019 -0.2759
   9723SM   H7F13166   4.991   1.100   4.172  0.2208 -0.2431 -0.1563
   9723SM   H7G13167   4.925   0.947   4.217  1.4914  0.2974  0.2206
   9723SM   C8F13168   4.825   1.115   4.315 -0.4701  0.4031  0.4110
   9723SM   H8F13169   4.741   1.046   4.335  0.7993 -2.1019 -2.2014
   9723SM   H8G13170   4.783   1.213   4.285 -0.9698  0.2123  0.4772
   9723SM   C9F13171   4.919   1.131   4.436  0.2207  0.2209 -0.1070
   9723SM   H9F13172   4.861   1.135   4.531  3.1322  1.9920  1.7504
   9723SM   H9G13173   4.973   1.228   4.437 -0.9274  0.9026  1.4551
   9723SM  C10F13174   5.020   1.021   4.459  0.1571  0.9307 -0.2737
   9723SM  H10F13175   5.088   1.016   4.371  0.5003  1.4141 -0.0467
   9723SM  H10G13176   4.963   0.926   4.451  1.9650 -0.3705  1.3545
   9723SM  C11F13177   5.095   1.019   4.591  0.5599 -0.3056 -0.0244
   9723SM  H11F13178   5.149   1.116   4.597  1.2754 -0.6982 -0.0052
   9723SM  H11G13179   5.179   0.946   4.579  1.6116  1.0036 -1.0214
   9723SM  C12F13180   5.011   0.993   4.712  0.1728 -0.2263  0.0228
   9723SM  H12F13181   4.968   0.891   4.712 -0.0470 -0.1417 -1.2398
   9723SM  H12G13182   4.932   1.071   4.709  0.2756 -0.1268 -2.9314
   9723SM  C13F13183   5.094   1.008   4.839  0.1884  0.0756 -0.2221
   9723SM  H13F13184   5.150   1.104   4.838  2.5265 -1.1099  2.4319
   9723SM  H13G13185   5.177   0.934   4.843  2.0542  2.1242  1.6646
   9723SM  C14F13186   5.009   1.013   4.968  0.6067 -0.3858 -0.0429
   9723SM  H14F13187   4.949   0.919   4.971 -0.8153  0.3738 -2.5351
   9723SM  H14G13188   4.936   1.096   4.964  0.8586 -0.0968  0.9134
   9723SM  C15F13189   5.081   1.039   5.099 -0.3494 -1.0546  0.3483
   9723SM  H15F13190   5.105   1.147   5.109  0.8315 -1.2985  0.2843
   9723SM  H15G13191   5.171   0.975   5.102 -0.2076 -1.2211 -3.0987
   9723SM  C16F13192   4.983   1.019   5.215  0.0380 -0.8200 -0.3544
   9723SM  H16F13193   4.924   0.926   5.198  0.7812 -1.1952 -0.9096
   9723SM  H16G13194   4.909   1.102   5.218  0.5796 -0.3561  0.7718
   9723SM  C17F13195   5.057   1.046   5.350 -0.1138 -0.1749  0.2185
   9723SM  H17F13196   5.102   1.147   5.357 -0.0218 -0.2933  1.6362
   9723SM  H17G13197   5.147   0.981   5.345  0.4498  0.6357 -0.3152
   9723SM  C18F13198   4.971   1.023   5.471 -0.0250 -0.0641 -0.1198
   9723SM  H18F13199   4.931   0.920   5.484 -1.2963  0.6658  2.3052
   9723SM  H18G13200   4.886   1.093   5.469  2.4333  3.1750  0.2143
   9723SM  C19F13201   5.050   1.049   5.602 -0.2785  0.5056 -0.3059
   9723SM  H19F13202   5.120   0.966   5.625 -2.2930 -1.2374 -0.1436
   9723SM  H19G13203   4.974   1.054   5.684 -1.9911 -0.6542 -1.7391
   9723SM  C20F13204   5.125   1.183   5.610  0.1010 -0.2579 -0.2993
   9723SM  H20F13205   5.053   1.256   5.567 -0.3988 -1.8295 -2.3267
   9723SM  H20G13206   5.208   1.173   5.536 -0.8846  1.0561 -1.6544
   9723SM  C21F13207   5.156   1.211   5.757  1.0138 -0.1921 -0.4042
   9723SM  H21F13208   5.059   1.223   5.810  0.2525 -1.0540 -1.5433
   9723SM  H21G13209   5.208   1.308   5.755  1.4748 -0.4363 -0.3475
   9723SM  C22F13210   5.243   1.116   5.839 -0.1098  0.3557  0.3473
   9723SM  H22F13211   5.213   1.011   5.858 -1.7282  0.7254  0.0042
   9723SM  H22G13212   5.238   1.163   5.940  0.1326  0.2756  0.3971
   9723SM  C23F13213   5.388   1.105   5.776 -0.4516 -0.2306  0.3478
   9723SM  H23F13214   5.437   1.016   5.821  3.7282  0.4044 -2.4017
   9723SM  H23G13215   5.450   1.197   5.793  0.4723 -0.9248  0.8439
   9723SM  H23H13216   5.375   1.090   5.667 -0.6438  0.6661  0.2373
   9823SM     N13217   6.690   0.423   3.262  0.8212  0.9654  0.0150
   9823SM   C1513218   6.635   0.297   3.204  1.2667  0.0083 -0.1445
   9823SM  H15A13219   6.712   0.235   3.162  0.7975  0.1322 -1.2116
   9823SM  H15B13220   6.562   0.318   3.127  0.9458 -0.8647 -0.0868
   9823SM  H15C13221   6.584   0.236   3.277 -0.2676 -0.2343 -1.3749
   9823SM   C1413222   6.744   0.504   3.153 -0.8677 -0.5924 -0.2198
   9823SM  H14A13223   6.826   0.456   3.101 -0.9121  0.7801 -1.6394
   9823SM  H14B13224   6.785   0.595   3.192 -1.0789 -0.7173  0.3125
   9823SM  H14C13225   6.674   0.539   3.079 -2.2806  3.0940  2.5627
   9823SM   C1313226   6.583   0.504   3.323  0.8910 -0.4644  0.4938
   9823SM  H13A13227   6.555   0.451   3.413  2.5703  1.4483  2.2942
   9823SM  H13B13228   6.505   0.534   3.255  1.3175  1.8107  0.9267
   9823SM  H13C13229   6.636   0.595   3.350  1.8651 -1.3428  1.6439
   9823SM   C1213230   6.796   0.389   3.365 -0.7257  0.3344 -0.1318
   9823SM  H12A13231   6.843   0.481   3.395  0.1756  0.3918 -1.5794
   9823SM  H12B13232   6.875   0.336   3.312  0.0589  2.2133 -0.9343
   9823SM   C1113233   6.756   0.305   3.488  0.1566  0.0364  0.0290
   9823SM  H11A13234   6.702   0.214   3.452 -0.7826  0.4282  0.4195
   9823SM  H11B13235   6.689   0.368   3.549  0.4405  1.3316 -0.9539
   9823SM     P13236   6.958   0.137   3.503  0.1777 -0.1385  0.4606
   9823SM   O1313237   6.949   0.138   3.358  0.0870  0.1055  0.3552
   9823SM   O1413238   7.092   0.129   3.563 -0.2468 -0.6478 -0.2304
   9823SM   O1113239   6.887   0.007   3.546 -0.0480 -0.0223  0.1392
   9823SM   O1213240   6.878   0.262   3.559  0.4493 -0.6424 -0.8621
   9823SM   C1S13241   6.870  -0.025   3.687 -0.6384  0.0363 -0.1880
   9823SM   H1S13242   6.912   0.052   3.755  0.9353 -2.4313  1.8010
   9823SM   H1T13243   6.936  -0.111   3.707  0.4256  1.2656  1.9365
   9823SM    NF13244   6.740  -0.098   3.885  0.8221 -1.0118 -0.6296
   9823SM   HNF13245   6.747  -0.195   3.906  2.5854 -1.0564 -1.2244
   9823SM   C2S13246   6.729  -0.064   3.742 -0.3956  0.5236 -0.6535
   9823SM   H2S13247   6.659   0.021   3.727 -0.7350  0.0086 -2.1836
   9823SM   C3S13248   6.676  -0.169   3.643 -0.1254 -0.0278  0.3179
   9823SM   H3S13249   6.753  -0.247   3.629  1.8020  1.9805 -0.9964
   9823SM    O313250   6.653  -0.101   3.511 -0.0352 -0.2687  0.7177
   9823SM   HO313251   6.717  -0.031   3.523 -1.0171  0.7249  0.3027
   9823SM   C4S13252   6.550  -0.237   3.706  0.1412 -0.3744  0.3381
   9823SM   H4S13253   6.577  -0.299   3.793  1.7703  0.2718  0.3373
   9823SM   C5S13254   6.420  -0.213   3.679  0.0611 -0.0171  0.6990
   9823SM   H5S13255   6.396  -0.144   3.597  0.0728 -1.0238 -0.1724
   9823SM   C6S13256   6.300  -0.279   3.749 -0.3217 -0.0461 -0.3254
   9823SM   H6S13257   6.264  -0.364   3.687 -3.0393  2.3448 -2.2545
   9823SM   H6T13258   6.215  -0.210   3.766 -0.1674  0.0131  0.2387
   9823SM   C7S13259   6.330  -0.330   3.899 -0.3237  0.7312  0.2630
   9823SM   H7S13260   6.417  -0.399   3.905 -1.0429 -0.0476  2.6015
   9823SM   H7T13261   6.245  -0.391   3.937  0.5310 -1.3555 -0.9880
   9823SM   C8S13262   6.354  -0.219   4.007  0.6066  0.0332 -0.3602
   9823SM   H8S13263   6.260  -0.162   4.026  0.6902 -1.0126  4.0652
   9823SM   H8T13264   6.439  -0.156   3.972  1.8096  0.5587  3.1213
   9823SM   C9S13265   6.395  -0.276   4.138 -0.1841  0.1838  0.4616
   9823SM   H9S13266   6.496  -0.320   4.150 -0.5981 -0.2196  2.9750
   9823SM   H9T13267   6.328  -0.354   4.182  0.9359 -0.2009  1.5456
   9823SM  C10S13268   6.405  -0.170   4.245  0.5669 -0.0202 -0.2824
   9823SM  H10S13269   6.308  -0.116   4.246  0.0869 -0.8224 -1.6978
   9823SM  H10T13270   6.479  -0.095   4.210 -0.3974  1.4749  0.7535
   9823SM  C11S13271   6.443  -0.218   4.390 -0.5186  0.4800  0.2468
   9823SM  H11S13272   6.551  -0.240   4.381 -0.6879 -0.2340 -0.1460
   9823SM  H11T13273   6.389  -0.308   4.426  1.6032  0.7399  4.7960
   9823SM  C12S13274   6.433  -0.097   4.488  0.2461  0.1346 -0.1504
   9823SM  H12S13275   6.334  -0.049   4.469  0.7107  0.4678 -1.9183
   9823SM  H12T13276   6.503  -0.016   4.459  0.2492  0.6666  1.2630
   9823SM  C13S13277   6.462  -0.149   4.633 -0.8479 -0.1350 -0.0682
   9823SM  H13S13278   6.560  -0.200   4.627 -0.6194  0.3961 -1.0495
   9823SM  H13T13279   6.388  -0.230   4.654 -1.1783  0.0874 -0.3501
   9823SM  C14S13280   6.455  -0.028   4.730 -0.4123 -0.3301 -0.0144
   9823SM  H14S13281   6.358   0.027   4.727 -0.8103 -1.0541 -0.7609
   9823SM  H14T13282   6.543   0.038   4.722  0.3948 -1.5564 -1.8790
   9823SM  C15S13283   6.463  -0.082   4.870  0.3034  0.4347 -0.3010
   9823SM  H15S13284   6.556  -0.138   4.895 -1.4566 -1.4820  2.5543
   9823SM  H15T13285   6.389  -0.162   4.891  0.0932  0.8025  0.3997
   9823SM  C16S13286   6.435   0.014   4.987 -0.5162 -0.2474 -0.3968
   9823SM  H16S13287   6.331   0.040   4.962 -1.1802 -0.7714  1.6102
   9823SM  H16T13288   6.496   0.104   4.966  0.6394 -1.0171 -0.4513
   9823SM  C17S13289   6.449  -0.053   5.119  0.2400 -0.0621 -0.4093
   9823SM  H17S13290   6.553  -0.092   5.119  0.4603  0.4502 -2.2406
   9823SM  H17T13291   6.378  -0.137   5.135 -0.2661  0.5892  0.9113
   9823SM  C18S13292   6.437   0.049   5.233 -0.4984  0.0960 -0.4563
   9823SM  H18S13293   6.514   0.128   5.222  0.0370 -0.4106 -0.4133
   9823SM  H18T13294   6.456   0.005   5.333  1.6231  0.6228 -0.5718
   9823SM  H18U13295   6.342   0.104   5.251 -0.7894 -0.9805  1.5373
   9823SM   C1F13296   6.758  -0.003   3.981 -0.4381  0.0730 -0.5749
   9823SM    OF13297   6.774   0.112   3.946  0.3510  0.0988 -0.4304
   9823SM   C2F13298   6.777  -0.050   4.125  0.2043 -0.4336  0.1785
   9823SM   H2F13299   6.876  -0.100   4.125  1.0601  1.0990 -2.4552
   9823SM   H2G13300   6.697  -0.122   4.152 -0.3114  0.9918  2.7958
   9823SM   C3F13301   6.778   0.069   4.231  0.1059  0.1424 -0.6256
   9823SM   H3F13302   6.684   0.123   4.251 -0.1771 -0.7837  0.6876
   9823SM   H3G13303   6.839   0.154   4.194  1.0296  0.2174  0.9523
   9823SM   C4F13304   6.805   0.025   4.377  0.4908  0.3995  0.1948
   9823SM   H4F13305   6.902  -0.027   4.389 -0.1013 -1.1067 -1.2361
   9823SM   H4G13306   6.729  -0.050   4.407  0.3047  1.0875  1.5150
   9823SM   C5F13307   6.803   0.153   4.476 -0.2476 -0.2971  0.2323
   9823SM   H5F13308   6.706   0.205   4.462  0.2624  0.7024  0.3584
   9823SM   H5G13309   6.883   0.216   4.432 -2.0079  1.2157 -0.9373
   9823SM   C6F13310   6.814   0.108   4.626 -0.1939 -0.1366 -0.4292
   9823SM   H6F13311   6.908   0.050   4.634  0.3290  0.1903 -3.0798
   9823SM   H6G13312   6.731   0.035   4.640 -1.7187  1.7362  0.6526
   9823SM   C7F13313   6.795   0.221   4.727 -1.1513  0.7210  0.9141
   9823SM   H7F13314   6.691   0.262   4.719 -1.4271 -0.2582 -1.0448
   9823SM   H7G13315   6.867   0.303   4.707  0.0224 -0.6541 -0.7293
   9823SM   C8F13316   6.815   0.176   4.874  0.0342  0.7283 -0.4502
   9823SM   H8F13317   6.918   0.135   4.880  0.0829  1.1113  2.0522
   9823SM   H8G13318   6.752   0.085   4.885  0.6369  0.4292  0.6384
   9823SM   C9F13319   6.785   0.283   4.979  0.2360  0.2090  0.0992
   9823SM   H9F13320   6.680   0.320   4.970  0.9814  2.6496  0.8075
   9823SM   H9G13321   6.845   0.373   4.955  1.3292 -0.9930 -2.0099
   9823SM  C10F13322   6.801   0.248   5.121  0.7518 -0.3431 -0.1735
   9823SM  H10F13323   6.898   0.202   5.148  0.4377  0.1175  1.9030
   9823SM  H10G13324   6.725   0.169   5.139  0.3958  0.1833  0.7078
   9823SM  C11F13325   6.772   0.363   5.213 -0.0152  0.5287 -0.5005
   9823SM  H11F13326   6.681   0.417   5.182  0.5275  1.4129 -0.5942
   9823SM  H11G13327   6.860   0.431   5.210  1.7828 -1.5947  0.6927
   9823SM  C12F13328   6.749   0.314   5.359  0.0325  0.0292  0.1198
   9823SM  H12F13329   6.838   0.255   5.390  0.1785  0.7333  1.1235
   9823SM  H12G13330   6.671   0.235   5.366  1.4714 -1.5253 -0.7536
   9823SM  C13F13331   6.731   0.420   5.462  0.1676  0.3344 -0.7729
   9823SM  H13F13332   6.628   0.458   5.452  0.2670  0.5782 -0.8626
   9823SM  H13G13333   6.814   0.494   5.453 -0.5919  1.0851 -1.8510
   9823SM  C14F13334   6.729   0.365   5.603  0.3604 -0.0721 -0.0069
   9823SM  H14F13335   6.826   0.322   5.638 -0.1498 -0.3469  1.1037
   9823SM  H14G13336   6.660   0.280   5.622  0.1412 -0.3002 -1.6569
   9823SM  C15F13337   6.696   0.481   5.703 -0.2647  0.2584 -0.3101
   9823SM  H15F13338   6.587   0.501   5.711 -0.3028  0.4229 -1.1686
   9823SM  H15G13339   6.731   0.583   5.674 -0.9318  0.6064  0.0819
   9823SM  C16F13340   6.746   0.442   5.841 -0.6748  0.2758 -0.5843
   9823SM  H16F13341   6.857   0.453   5.836 -0.5136 -1.0122 -0.2023
   9823SM  H16G13342   6.719   0.338   5.869 -1.7802  0.3101 -1.4646
   9823SM  C17F13343   6.678   0.522   5.955  0.2692  0.3892  0.3979
   9823SM  H17F13344   6.574   0.483   5.961  0.3018  0.3751  0.9520
   9823SM  H17G13345   6.676   0.628   5.922  1.2791  0.7015  1.2792
   9823SM  C18F13346   6.756   0.502   6.085 -0.1241 -0.1366  0.1072
   9823SM  H18F13347   6.866   0.514   6.078 -0.0744 -0.3527  0.4432
   9823SM  H18G13348   6.753   0.400   6.130  2.9304 -0.4424 -0.1302
   9823SM  C19F13349   6.720   0.604   6.195 -0.7031 -0.1268 -0.0125
   9823SM  H19F13350   6.610   0.610   6.206 -0.8800 -2.8592  0.4145
   9823SM  H19G13351   6.761   0.700   6.156  1.9913 -1.6213 -1.0714
   9823SM  C20F13352   6.778   0.574   6.332  0.1795  0.5451  0.1203
   9823SM  H20F13353   6.889   0.574   6.335  0.1554  0.5421  1.4697
   9823SM  H20G13354   6.748   0.468   6.348 -1.5278  0.9038 -0.5561
   9823SM  C21F13355   6.716   0.663   6.439 -0.5923 -0.2527 -0.2804
   9823SM  H21F13356   6.613   0.630   6.464 -0.1780 -0.7398  0.8350
   9823SM  H21G13357   6.709   0.768   6.402 -1.4620 -0.9905 -2.3794
   9823SM  C22F13358   6.790   0.675   6.575  0.2838  0.5406  0.7170
   9823SM  H22F13359   6.897   0.697   6.559  0.3786 -0.2439  0.1999
   9823SM  H22G13360   6.794   0.579   6.630 -0.6514  0.1950  0.2166
   9823SM  C23F13361   6.712   0.775   6.668 -0.5894  0.1927 -0.6760
   9823SM  H23F13362   6.772   0.785   6.762  0.2637  0.6815 -1.2615
   9823SM  H23G13363   6.616   0.723   6.688  1.2099 -3.1679 -0.0938
   9823SM  H23H13364   6.702   0.873   6.616 -0.2600 -0.7058 -2.4983
   9923SM     N13365   0.639   0.640   3.278  0.3406  0.2938  0.3244
   9923SM   C1513366   0.731   0.527   3.299 -0.5046 -0.0372  0.5245
   9923SM  H15A13367   0.794   0.514   3.212 -0.3850  2.7375  0.1092
   9923SM  H15B13368   0.685   0.432   3.323 -0.1791 -0.2271  0.4094
   9923SM  H15C13369   0.798   0.535   3.383 -1.4777  0.4484  1.2750
   9923SM   C1413370   0.713   0.757   3.225 -0.6792  0.4921  0.0778
   9923SM  H14A13371   0.760   0.727   3.132 -1.5423 -1.5724  0.2657
   9923SM  H14B13372   0.791   0.776   3.298 -0.9133 -2.6362  1.3231
   9923SM  H14C13373   0.647   0.840   3.210 -2.2573 -0.6017  0.7344
   9923SM   C1313374   0.532   0.588   3.183 -0.3507  1.3984  0.0621
   9923SM  H13A13375   0.470   0.515   3.233  0.0112 -0.1333 -1.6479
   9923SM  H13B13376   0.574   0.535   3.099 -1.1050  0.4854  0.2451
   9923SM  H13C13377   0.472   0.669   3.142  0.5100  1.9950 -0.0386
   9923SM   C1213378   0.575   0.688   3.408  0.5813  1.1926 -0.5691
   9923SM  H12A13379   0.512   0.607   3.443  1.9688 -0.1630 -1.1059
   9923SM  H12B13380   0.506   0.767   3.382 -0.1153  0.8682  0.2558
   9923SM   C1113381   0.656   0.729   3.521 -0.0955 -0.0652 -0.5788
   9923SM  H11A13382   0.735   0.652   3.533 -0.5588 -0.5594 -0.6677
   9923SM  H11B13383   0.602   0.723   3.618  1.7978 -0.2061  0.5216
   9923SM     P13384   0.660   0.988   3.545 -0.1152  0.2965  0.2187
   9923SM   O1313385   0.761   1.092   3.524 -0.0098 -0.2284 -0.1653
   9923SM   O1413386   0.526   1.018   3.496 -0.1396 -0.1504  0.4512
   9923SM   O1113387   0.653   0.961   3.701 -1.2221 -0.2338  0.5104
   9923SM   O1213388   0.716   0.852   3.494 -0.4311 -0.6310 -0.4194
   9923SM   C1S13389   0.564   1.035   3.782  0.9672  0.6087 -0.9758
   9923SM   H1S13390   0.460   1.004   3.756  0.7139  1.2471 -0.7301
   9923SM   H1T13391   0.569   1.145   3.772  0.3315  0.6154 -1.3285
   9923SM    NF13392   0.491   1.090   4.018  0.2730 -0.0088  0.2474
   9923SM   HNF13393   0.522   1.177   4.056  0.0470  0.0520  0.2956
   9923SM   C2S13394   0.586   1.013   3.932 -0.9392  0.4446 -0.2702
   9923SM   H2S13395   0.568   0.905   3.951 -0.3111  0.5245  0.8362
   9923SM   C3S13396   0.736   1.025   3.973  0.6160 -0.3166  0.1852
   9923SM   H3S13397   0.775   1.129   3.971  1.5894 -0.5405  3.0161
   9923SM    O313398   0.823   0.939   3.890 -0.2709 -0.1179 -0.2806
   9923SM   HO313399   0.766   0.925   3.815 -0.2645 -0.8906 -0.1537
   9923SM   C4S13400   0.754   0.987   4.118 -0.2462 -0.3354 -0.3133
   9923SM   H4S13401   0.761   0.877   4.125  1.6457 -0.1620  1.5057
   9923SM   C5S13402   0.769   1.052   4.233  0.7955  0.2871  0.0881
   9923SM   H5S13403   0.779   1.161   4.229 -1.0280  0.4679 -0.7196
   9923SM   C6S13404   0.789   0.989   4.366 -0.4068 -0.5350 -0.2068
   9923SM   H6S13405   0.695   1.002   4.425  0.7142  0.0533  1.5134
   9923SM   H6T13406   0.855   1.062   4.416 -1.7235 -0.0412  0.8668
   9923SM   C7S13407   0.824   0.843   4.392 -0.0985 -0.1713 -0.2576
   9923SM   H7S13408   0.897   0.816   4.312 -1.6157 -0.5282 -1.5747
   9923SM   H7T13409   0.733   0.784   4.371 -1.0397  0.7404  1.1277
   9923SM   C8S13410   0.882   0.813   4.534 -0.2135 -0.7141  0.3879
   9923SM   H8S13411   0.969   0.878   4.556 -0.8902  0.1504  0.5591
   9923SM   H8T13412   0.912   0.706   4.528 -0.9366 -0.8769 -0.5952
   9923SM   C9S13413   0.786   0.835   4.644 -0.2899 -0.1069  0.0968
   9923SM   H9S13414   0.702   0.765   4.623  0.8512 -1.7591  0.8821
   9923SM   H9T13415   0.756   0.942   4.655 -0.5331 -0.3357  1.9790
   9923SM  C10S13416   0.845   0.802   4.776  0.4842 -0.1801 -0.1189
   9923SM  H10S13417   0.931   0.869   4.799  1.2336 -1.4373  0.9588
   9923SM  H10T13418   0.884   0.698   4.772 -1.0221 -0.7340 -1.8035
   9923SM  C11S13419   0.729   0.817   4.873  0.3819  0.4130  0.5136
   9923SM  H11S13420   0.665   0.730   4.848 -0.2616  1.2079 -0.7347
   9923SM  H11T13421   0.676   0.913   4.852  1.7414  1.3901  1.3663
   9923SM  C12S13422   0.778   0.815   5.015  0.4658 -0.2176 -0.2135
   9923SM  H12S13423   0.707   0.877   5.073 -1.5204 -1.4613 -1.2372
   9923SM  H12T13424   0.877   0.865   5.032 -0.0969  0.7690  0.2612
   9923SM  C13S13425   0.781   0.675   5.075  0.0714  0.5966 -0.1720
   9923SM  H13S13426   0.849   0.608   5.018 -0.8493  0.2630 -0.9253
   9923SM  H13T13427   0.679   0.634   5.060  1.5163 -3.4805 -0.1436
   9923SM  C14S13428   0.811   0.662   5.226  0.7123  0.5537  0.1663
   9923SM  H14S13429   0.915   0.701   5.227  1.9338 -2.3908 -0.7026
   9923SM  H14T13430   0.817   0.555   5.254 -0.5970  0.4152 -0.0386
   9923SM  C15S13431   0.730   0.744   5.320 -0.3792 -0.3465 -0.2977
   9923SM  H15S13432   0.626   0.704   5.329 -0.3622 -0.2068  0.5929
   9923SM  H15T13433   0.725   0.852   5.295  0.5030 -0.1261  0.4423
   9923SM  C16S13434   0.785   0.742   5.465  0.0775  0.0928  0.0766
   9923SM  H16S13435   0.885   0.789   5.463 -0.3916  1.1610  0.8675
   9923SM  H16T13436   0.806   0.640   5.502 -2.0562 -0.5413 -0.2867
   9923SM  C17S13437   0.693   0.791   5.584 -0.4154 -0.5077  0.4824
   9923SM  H17S13438   0.601   0.728   5.584 -0.8227  0.0706 -0.2124
   9923SM  H17T13439   0.673   0.899   5.571 -0.2333 -0.4461  0.7204
   9923SM  C18S13440   0.748   0.763   5.726  0.8652 -0.2031  0.5724
   9923SM  H18S13441   0.819   0.677   5.726  0.9163 -0.1603  0.2724
   9923SM  H18T13442   0.664   0.731   5.792 -0.5582  0.5403 -0.8235
   9923SM  H18U13443   0.790   0.852   5.777  0.7204 -0.2519  0.7818
   9923SM   C1F13444   0.364   1.069   4.006  0.1301  0.0330  0.2087
   9923SM    OF13445   0.312   0.984   3.937 -0.3281 -0.9742 -0.8154
   9923SM   C2F13446   0.275   1.163   4.085 -1.0069  0.0421 -0.2230
   9923SM   H2F13447   0.192   1.199   4.021  1.1893  0.3753 -3.0546
   9923SM   H2G13448   0.328   1.259   4.105  1.4309 -1.1814 -0.3799
   9923SM   C3F13449   0.230   1.102   4.219  0.7022  0.3514 -0.6531
   9923SM   H3F13450   0.197   1.186   4.284 -0.4164  0.5155 -1.3881
   9923SM   H3G13451   0.318   1.058   4.271 -0.9464  1.3199  3.4057
   9923SM   C4F13452   0.123   0.991   4.217 -0.2435 -0.2531  0.6405
   9923SM   H4F13453   0.159   0.907   4.153 -1.2331  0.3018 -0.6763
   9923SM   H4G13454   0.037   1.025   4.157  1.8893  0.8140 -2.0095
   9923SM   C5F13455   0.085   0.936   4.350 -0.4298 -0.4628 -0.3492
   9923SM   H5F13456   0.006   0.860   4.333 -0.4699 -0.8884  1.4625
   9923SM   H5G13457   0.064   1.016   4.425 -1.5005 -1.1207  0.0804
   9923SM   C6F13458   0.196   0.851   4.414  0.6981 -0.6177 -0.0069
   9923SM   H6F13459   0.284   0.913   4.439 -0.8505  0.5381  3.0159
   9923SM   H6G13460   0.221   0.764   4.350 -2.4798 -0.6501 -1.4345
   9923SM   C7F13461   0.156   0.796   4.549 -0.7020  0.3216  0.8000
   9923SM   H7F13462   0.047   0.775   4.547 -0.5948 -0.1594 -0.7683
   9923SM   H7G13463   0.163   0.881   4.621  2.0619  2.8880 -2.2083
   9923SM   C8F13464   0.248   0.682   4.601  0.3058 -0.2851  0.5157
   9923SM   H8F13465   0.354   0.712   4.591 -0.5158  2.0686 -3.0320
   9923SM   H8G13466   0.251   0.607   4.519  0.8889 -0.6103  0.8232
   9923SM   C9F13467   0.205   0.629   4.739  0.4129 -0.8476  0.2127
   9923SM   H9F13468   0.247   0.528   4.756  0.8555 -0.1179  5.0971
   9923SM   H9G13469   0.094   0.619   4.741 -0.1548  2.9231 -2.2495
   9923SM  C10F13470   0.253   0.720   4.845  0.1350 -0.7292  0.4973
   9923SM  H10F13471   0.206   0.820   4.834 -3.1976 -2.1168  1.0978
   9923SM  H10G13472   0.363   0.737   4.842  0.1899 -1.0996  0.3696
   9923SM  C11F13473   0.215   0.671   4.985 -0.1484 -0.4791 -0.0530
   9923SM  H11F13474   0.280   0.581   4.991 -1.3211 -1.3118  0.4213
   9923SM  H11G13475   0.108   0.654   5.008 -0.5378  1.8140  0.0192
   9923SM  C12F13476   0.244   0.776   5.094  0.4595 -0.7012  0.3289
   9923SM  H12F13477   0.188   0.866   5.060  0.3324 -1.4873 -1.6409
   9923SM  H12G13478   0.352   0.803   5.091  0.5329 -0.9585  0.5820
   9923SM  C13F13479   0.202   0.735   5.233  0.1056  0.0803 -0.5734
   9923SM  H13F13480   0.245   0.634   5.244 -1.2159 -0.6841 -1.9986
   9923SM  H13G13481   0.091   0.732   5.234  0.0987 -1.4655  2.5022
   9923SM  C14F13482   0.247   0.827   5.349  0.4811  0.9716 -0.0738
   9923SM  H14F13483   0.205   0.930   5.341  0.1737  0.9275  0.8566
   9923SM  H14G13484   0.357   0.844   5.345  0.3340  1.9008 -0.6250
   9923SM  C15F13485   0.199   0.784   5.492  0.1223 -0.0826 -0.7761
   9923SM  H15F13486   0.225   0.678   5.513 -1.3966 -0.2836  0.2229
   9923SM  H15G13487   0.092   0.809   5.501  0.3525  0.8496 -0.5243
   9923SM  C16F13488   0.274   0.868   5.597  0.6867  0.3677  0.1225
   9923SM  H16F13489   0.227   0.967   5.580 -1.6757 -0.4011  1.6337
   9923SM  H16G13490   0.381   0.881   5.574  1.0271 -0.3572  1.2181
   9923SM  C17F13491   0.248   0.805   5.736 -0.0186  0.8746  0.0940
   9923SM  H17F13492   0.277   0.699   5.719 -1.4466  0.1048  2.1017
   9923SM  H17G13493   0.140   0.814   5.763 -0.4293 -0.7971 -0.8709
   9923SM  C18F13494   0.346   0.862   5.844  0.6060 -0.3974 -0.5860
   9923SM  H18F13495   0.325   0.968   5.869  2.6390  0.6863 -3.0068
   9923SM  H18G13496   0.447   0.870   5.797  0.8142  2.2128  0.1502
   9923SM  C19F13497   0.365   0.763   5.969  0.1567 -0.3167  0.5135
   9923SM  H19F13498   0.398   0.662   5.937 -1.7057 -0.9962  0.6091
   9923SM  H19G13499   0.264   0.763   6.014 -0.9981 -0.7018 -1.9010
   9923SM  C20F13500   0.461   0.825   6.082  0.6416 -0.0917  0.0965
   9923SM  H20F13501   0.417   0.925   6.105 -0.1131 -0.4450  0.2368
   9923SM  H20G13502   0.562   0.836   6.038  0.2112 -1.5843 -1.3774
   9923SM  C21F13503   0.461   0.739   6.209 -0.2270 -0.0263 -0.1850
   9923SM  H21F13504   0.367   0.680   6.221  0.7004 -1.0812  2.5402
   9923SM  H21G13505   0.462   0.802   6.301  0.1323 -0.0211 -0.1906
   9923SM  C22F13506   0.563   0.621   6.216 -0.2543 -0.5530 -0.0951
   9923SM  H22F13507   0.566   0.571   6.116  0.7773 -0.2822 -0.2087
   9923SM  H22G13508   0.526   0.545   6.287 -1.4729 -1.5243 -1.6888
   9923SM  C23F13509   0.705   0.662   6.260  0.1516  0.6011  0.6502
   9923SM  H23F13510   0.756   0.564   6.274 -0.1661  0.4523  0.7903
   9923SM  H23G13511   0.700   0.714   6.358 -1.0037  1.4131  0.1793
   9923SM  H23H13512   0.765   0.718   6.185  0.9859 -1.4422 -0.2941
  10023SM     N13513   0.322   1.797   3.521  0.4901 -0.1499 -0.5352
  10023SM   C1513514   0.408   1.805   3.402  0.3414 -0.1875 -0.5221
  10023SM  H15A13515   0.409   1.900   3.351 -0.3165 -1.0981 -2.3527
  10023SM  H15B13516   0.366   1.731   3.335 -0.2172 -0.8953  0.5778
  10023SM  H15C13517   0.506   1.770   3.428  0.6266  1.9673  1.6668
  10023SM   C1413518   0.384   1.872   3.629  0.7121 -0.0902 -0.5200
  10023SM  H14A13519   0.476   1.824   3.659  1.4174  1.0032 -0.8755
  10023SM  H14B13520   0.326   1.869   3.720  1.1840  0.0634 -0.2114
  10023SM  H14C13521   0.403   1.977   3.608 -1.8960  1.0023  1.9692
  10023SM   C1313522   0.192   1.864   3.497  0.9051  0.7439  0.4679
  10023SM  H13A13523   0.141   1.870   3.592  0.5673  0.3541  0.3152
  10023SM  H13B13524   0.118   1.820   3.432 -0.0481  3.1778 -0.1909
  10023SM  H13C13525   0.196   1.963   3.454  2.3268  0.5397  0.0685
  10023SM   C1213526   0.302   1.649   3.574  0.5934  0.1472  0.9027
  10023SM  H12A13527   0.283   1.584   3.490  0.0959 -0.8745  1.7881
  10023SM  H12B13528   0.213   1.655   3.635  0.3764 -0.9108  0.7145
  10023SM   C1113529   0.412   1.583   3.660  0.2474 -0.1373 -0.1127
  10023SM  H11A13530   0.363   1.486   3.683 -1.5297  0.6127 -0.6284
  10023SM  H11B13531   0.420   1.641   3.755 -0.1811  0.6314 -0.5404
  10023SM     P13532   0.614   1.454   3.552 -0.3080  0.1024 -0.1612
  10023SM   O1313533   0.511   1.350   3.512 -0.4751 -0.6879  0.0620
  10023SM   O1413534   0.713   1.481   3.450  0.3905  0.4667  0.1182
  10023SM   O1113535   0.692   1.404   3.683  0.3078 -0.2753  0.0379
  10023SM   O1213536   0.534   1.578   3.597 -0.3564 -0.4140 -0.2838
  10023SM   C1S13537   0.672   1.479   3.803  0.3846  0.0393  0.4548
  10023SM   H1S13538   0.568   1.471   3.842  0.2712 -1.0023 -0.0349
  10023SM   H1T13539   0.698   1.586   3.783 -0.2929  0.1167 -0.0521
  10023SM    NF13540   0.743   1.488   4.048  0.2921 -0.5191 -0.1994
  10023SM   HNF13541   0.778   1.578   4.072  0.3314 -0.2735 -1.1163
  10023SM   C2S13542   0.765   1.425   3.912  0.2758 -0.3505  0.4525
  10023SM   H2S13543   0.740   1.316   3.914 -1.7708  0.0598 -0.5031
  10023SM   C3S13544   0.914   1.425   3.862 -0.9282  0.6388 -0.9242
  10023SM   H3S13545   0.952   1.525   3.833  1.1174  0.7688  1.7957
  10023SM    O313546   0.933   1.343   3.745 -0.2676  0.2490 -0.1903
  10023SM   HO313547   0.842   1.350   3.716 -1.2674 -1.4512  2.1396
  10023SM   C4S13548   0.994   1.358   3.971 -0.0836  0.1105  0.5108
  10023SM   H4S13549   0.991   1.248   3.974  0.8700  0.0507  4.1026
  10023SM   C5S13550   1.065   1.414   4.070  0.3675 -0.2200 -0.0090
  10023SM   H5S13551   1.078   1.523   4.084 -0.0023  0.0919 -1.8125
  10023SM   C6S13552   1.104   1.331   4.188  0.6308  0.0027  0.5635
  10023SM   H6S13553   1.214   1.324   4.198  0.5179 -2.2022  0.9605
  10023SM   H6T13554   1.062   1.228   4.183 -0.2362  0.3977 -3.0585
  10023SM   C7S13555   1.050   1.377   4.323 -0.1336  0.3177 -0.2841
  10023SM   H7S13556   0.939   1.369   4.321 -0.1176 -0.0134 -0.0401
  10023SM   H7T13557   1.072   1.482   4.352 -0.9611  0.1149  1.2440
  10023SM   C8S13558   1.087   1.278   4.445  0.2707  0.0614 -0.3365
  10023SM   H8S13559   1.189   1.307   4.476 -0.3406  1.8272  0.1390
  10023SM   H8T13560   1.099   1.175   4.407  2.6089 -0.1233  0.7570
  10023SM   C9S13561   0.997   1.303   4.570 -0.1288  0.8265 -0.3350
  10023SM   H9S13562   0.893   1.274   4.544 -0.4252  0.1791  1.4232
  10023SM   H9T13563   1.004   1.412   4.591 -1.6232  0.8595  0.0976
  10023SM  C10S13564   1.017   1.222   4.704  0.3432  0.2654  0.0447
  10023SM  H10S13565   1.126   1.229   4.726  0.1168 -2.8188  2.7816
  10023SM  H10T13566   0.989   1.117   4.684 -0.3448  0.4947 -0.2221
  10023SM  C11S13567   0.926   1.272   4.813  0.0005 -0.4495 -0.0402
  10023SM  H11S13568   0.822   1.269   4.775 -0.1640 -0.3968  0.4056
  10023SM  H11T13569   0.950   1.377   4.839  0.3845 -0.7681  0.9418
  10023SM  C12S13570   0.931   1.167   4.927 -0.9499 -0.0426 -0.7044
  10023SM  H12S13571   1.041   1.164   4.941 -1.2108  2.1565  2.9097
  10023SM  H12T13572   0.891   1.068   4.896  1.7845 -0.8812 -1.8445
  10023SM  C13S13573   0.881   1.213   5.063 -0.2965 -0.2453  0.0362
  10023SM  H13S13574   0.770   1.211   5.060 -0.2892 -3.3630 -1.1045
  10023SM  H13T13575   0.918   1.315   5.087  1.7252 -1.0602  0.5330
  10023SM  C14S13576   0.933   1.124   5.170  0.0515  0.4751 -0.2482
  10023SM  H14S13577   1.037   1.099   5.139  0.3485 -2.0307  2.3748
  10023SM  H14T13578   0.879   1.029   5.192  2.3235 -0.2586  2.8121
  10023SM  C15S13579   0.932   1.200   5.307  0.0399  0.8536  0.4605
  10023SM  H15S13580   0.828   1.233   5.330 -0.6690 -0.1743 -1.1032
  10023SM  H15T13581   0.978   1.301   5.294 -2.3666  1.9451 -0.1511
  10023SM  C16S13582   0.988   1.119   5.422  0.7787  0.0389 -0.0601
  10023SM  H16S13583   1.097   1.100   5.409  1.0519  1.2298  0.3088
  10023SM  H16T13584   0.956   1.013   5.424 -0.8516  0.4419 -1.7880
  10023SM  C17S13585   0.960   1.177   5.559  0.1855 -0.0743  0.2274
  10023SM  H17S13586   0.849   1.171   5.570  0.2466 -0.9126  0.4602
  10023SM  H17T13587   1.003   1.279   5.562 -0.2890  0.1068  0.9954
  10023SM  C18S13588   1.018   1.103   5.680 -0.2739 -0.0342  0.6569
  10023SM  H18S13589   0.997   0.994   5.682 -0.7315  0.0168 -0.7637
  10023SM  H18T13590   0.979   1.150   5.773 -0.5943  2.6323 -0.7153
  10023SM  H18U13591   1.129   1.112   5.673 -0.4543  1.0118 -1.7453
  10023SM   C1F13592   0.630   1.451   4.116 -0.2032  0.2719 -0.5542
  10023SM    OF13593   0.553   1.365   4.079 -0.4661  0.9123  0.6219
  10023SM   C2F13594   0.593   1.541   4.230 -0.1381 -0.3970  0.1637
  10023SM   H2F13595   0.514   1.612   4.198 -1.4753 -1.5523  0.7560
  10023SM   H2G13596   0.678   1.599   4.272 -1.1146  1.0298  0.2631
  10023SM   C3F13597   0.538   1.463   4.345  0.2974  0.1343 -0.6895
  10023SM   H3F13598   0.438   1.424   4.315  0.3639 -0.3840 -0.2575
  10023SM   H3G13599   0.526   1.520   4.439  2.3268  0.3272 -0.5014
  10023SM   C4F13600   0.619   1.340   4.391 -0.0363 -0.5855  0.0746
  10023SM   H4F13601   0.730   1.342   4.392 -0.0232  1.0034 -1.5782
  10023SM   H4G13602   0.597   1.253   4.326  1.1579 -1.4858  0.8262
  10023SM   C5F13603   0.580   1.286   4.532  1.0054  0.3235  0.0382
  10023SM   H5F13604   0.550   1.376   4.591 -0.8413 -0.7671  0.8516
  10023SM   H5G13605   0.673   1.242   4.574  0.3119 -0.8349  0.4135
  10023SM   C6F13606   0.455   1.191   4.527  0.2874  0.2591  0.7658
  10023SM   H6F13607   0.482   1.094   4.479  2.4800  1.2496 -0.1641
  10023SM   H6G13608   0.382   1.245   4.463  0.6480 -3.5613 -3.3671
  10023SM   C7F13609   0.389   1.167   4.656  0.5097 -0.2274 -0.6159
  10023SM   H7F13610   0.289   1.120   4.641 -0.6919  1.8614  0.5023
  10023SM   H7G13611   0.352   1.254   4.714  0.7573 -0.0757 -0.6856
  10023SM   C8F13612   0.489   1.085   4.743  0.0232  0.0039  0.4222
  10023SM   H8F13613   0.585   1.139   4.758 -0.9948  1.7702  0.7383
  10023SM   H8G13614   0.518   0.992   4.689  0.1638  1.1010 -1.5019
  10023SM   C9F13615   0.427   1.050   4.880  0.6065  0.2249 -0.0203
  10023SM   H9F13616   0.472   0.956   4.919 -0.0737 -0.0609  0.1082
  10023SM   H9G13617   0.316   1.041   4.871  0.4811  0.8733  0.7017
  10023SM  C10F13618   0.462   1.150   4.990 -0.1552  0.0172  0.2500
  10023SM  H10F13619   0.416   1.250   4.973  1.0388  0.5684  0.2211
  10023SM  H10G13620   0.571   1.167   4.982  0.2240 -2.1455  0.2361
  10023SM  C11F13621   0.433   1.108   5.133  0.1362  0.5619 -0.0670
  10023SM  H11F13622   0.459   1.001   5.148  1.4851  1.2883  3.5322
  10023SM  H11G13623   0.324   1.114   5.154 -0.3843 -0.6950 -2.1118
  10023SM  C12F13624   0.501   1.191   5.245 -0.3771  0.1974 -0.1767
  10023SM  H12F13625   0.453   1.291   5.232 -1.4114 -0.2853 -0.1566
  10023SM  H12G13626   0.611   1.209   5.249 -0.3373 -0.2905  2.8515
  10023SM  C13F13627   0.467   1.137   5.390 -0.2516  0.0699  1.0622
  10023SM  H13F13628   0.511   1.035   5.384  0.6092  0.4413  1.0486
  10023SM  H13G13629   0.356   1.128   5.398 -0.3877  0.0092 -0.5398
  10023SM  C14F13630   0.534   1.224   5.502  0.3183 -0.0240 -0.8122
  10023SM  H14F13631   0.499   1.330   5.503  0.4632  0.0266 -1.0784
  10023SM  H14G13632   0.645   1.225   5.496  0.7151  0.9564  3.2547
  10023SM  C15F13633   0.506   1.163   5.636 -0.4914  0.7688  0.3744
  10023SM  H15F13634   0.544   1.059   5.631  0.6928  1.1972  0.3126
  10023SM  H15G13635   0.404   1.173   5.678  0.1379  1.9307  1.6991
  10023SM  C16F13636   0.589   1.226   5.754  0.3624  0.0076  0.7205
  10023SM  H16F13637   0.573   1.336   5.764 -0.7483 -0.1530  0.8691
  10023SM  H16G13638   0.698   1.224   5.733  0.1617  1.9032 -0.8831
  10023SM  C17F13639   0.560   1.168   5.892 -0.0808 -0.4968 -0.2862
  10023SM  H17F13640   0.579   1.059   5.883 -2.2760 -1.0930  1.3071
  10023SM  H17G13641   0.453   1.181   5.920  0.6848  3.9935  1.3111
  10023SM  C18F13642   0.641   1.236   6.006  0.2521  0.8281 -0.9316
  10023SM  H18F13643   0.635   1.346   5.996  0.7269  0.9185 -0.3610
  10023SM  H18G13644   0.751   1.217   6.000  0.2431 -0.2733  1.1675
  10023SM  C19F13645   0.596   1.195   6.144 -0.1303  0.2329  0.1690
  10023SM  H19F13646   0.617   1.089   6.169 -0.0092  0.3239  0.4645
  10023SM  H19G13647   0.487   1.213   6.149  0.2517  2.8688  0.1479
  10023SM  C20F13648   0.652   1.285   6.253  1.1899 -0.0555 -0.1488
  10023SM  H20F13649   0.599   1.265   6.349  0.9534  2.7024  0.3752
  10023SM  H20G13650   0.623   1.389   6.228 -1.2700 -0.5473  0.4326
  10023SM  C21F13651   0.805   1.273   6.269  0.0841 -0.2268 -0.4648
  10023SM  H21F13652   0.861   1.302   6.177  1.4121  0.6273  0.5795
  10023SM  H21G13653   0.822   1.167   6.295  1.1060  0.2105  0.7000
  10023SM  C22F13654   0.874   1.353   6.389 -0.1050 -0.6711 -0.3551
  10023SM  H22F13655   0.826   1.323   6.485  0.3210 -1.2412 -0.3170
  10023SM  H22G13656   0.839   1.457   6.376  1.6941  0.2815  1.8038
  10023SM  C23F13657   1.027   1.343   6.399  0.2335 -0.0889  0.0434
  10023SM  H23F13658   1.085   1.403   6.473  2.1997  0.1374 -1.5857
  10023SM  H23G13659   1.071   1.369   6.301  0.4164 -1.4544 -0.2551
  10023SM  H23H13660   1.062   1.240   6.423 -0.0760  0.2561  2.2820
  101CHL1    C313661   3.788   4.995   8.437  0.6394 -0.7595 -0.4547
  101CHL1    H313662   3.691   5.046   8.417  0.9189  0.2988  0.7185
  101CHL1    O313663   3.810   4.992   8.578  0.2616  0.5296  0.1166
  101CHL1   H3'13664   3.750   4.925   8.610 -1.4906  1.3234 -1.3614
  101CHL1    C413665   3.790   4.855   8.371  0.2027 -0.1617 -0.0518
  101CHL1   H4A13666   3.885   4.800   8.385 -0.4606 -1.7753 -1.5033
  101CHL1   H4B13667   3.714   4.787   8.415  1.2322  0.0193  2.1343
  101CHL1    C513668   3.760   4.875   8.219  0.6306  0.9715 -0.4098
  101CHL1    C613669   3.653   4.827   8.160  0.4676 -0.0697 -0.1143
  101CHL1    H613670   3.582   4.772   8.223 -0.2079  0.4880 -0.3784
  101CHL1    C713671   3.615   4.842   8.011 -0.2028  0.1618 -0.8776
  101CHL1   H7A13672   3.575   4.746   7.970  1.1513 -0.8134 -0.0204
  101CHL1   H7B13673   3.542   4.925   8.005  0.9293  1.4522  1.6883
  101CHL1    C813674   3.738   4.891   7.921 -0.2231  0.5891  0.2278
  101CHL1    H813675   3.805   4.804   7.903 -1.4804  0.0975 -2.6673
  101CHL1   C1413676   3.701   4.933   7.780 -0.4490  0.3856  0.5095
  101CHL1   H1413677   3.631   5.019   7.781 -1.8457 -0.4866 -3.4749
  101CHL1   C1513678   3.620   4.832   7.693 -0.0159 -0.5574  0.2360
  101CHL1  H15A13679   3.686   4.744   7.677  2.5050  1.1087  0.9233
  101CHL1  H15B13680   3.523   4.802   7.739 -0.7134 -3.1308 -2.5549
  101CHL1   C1613681   3.621   4.902   7.551 -0.1387 -0.0806 -0.7931
  101CHL1  H16A13682   3.648   4.823   7.477 -0.7259 -0.2942 -0.7853
  101CHL1  H16B13683   3.516   4.931   7.530 -1.3877 -3.6577 -0.3340
  101CHL1   C1713684   3.732   5.009   7.565  0.1499  0.3392  0.8450
  101CHL1   H1713685   3.669   5.099   7.584 -1.5930 -0.2857 -1.5118
  101CHL1   C1313686   3.812   4.980   7.690 -0.3191 -0.4147 -0.2341
  101CHL1   C1813687   3.924   4.872   7.648  0.0698 -0.3007  0.5883
  101CHL1  H18A13688   3.880   4.785   7.596  1.2456 -1.4904  1.5218
  101CHL1  H18B13689   3.998   4.930   7.587 -1.0651 -0.5283 -1.0684
  101CHL1  H18C13690   3.971   4.830   7.739 -1.8938  0.5229  2.0605
  101CHL1   C1213691   3.881   5.096   7.772  0.5053  0.3216  0.0903
  101CHL1  H12A13692   3.973   5.120   7.714  2.1083 -1.3408  1.7980
  101CHL1  H12B13693   3.821   5.190   7.767 -1.7944 -1.0777  0.1820
  101CHL1   C1113694   3.935   5.058   7.908  0.1032 -0.8184 -0.4873
  101CHL1  H11A13695   4.015   4.982   7.890  1.1656  0.1403  0.0646
  101CHL1  H11B13696   3.968   5.150   7.960 -1.4099  1.0757 -2.7052
  101CHL1    C913697   3.820   4.997   8.001  0.1980 -0.2288 -0.3638
  101CHL1    H913698   3.746   5.080   8.005 -1.6627 -1.7777 -1.2777
  101CHL1   C1013699   3.863   4.966   8.142 -0.1092  0.7138  0.3352
  101CHL1   C1913700   3.998   4.883   8.138 -0.3158  0.5723  0.0270
  101CHL1  H19A13701   3.996   4.796   8.068  2.6950 -0.7774  1.4329
  101CHL1  H19B13702   4.085   4.944   8.105  2.6232 -3.1106  0.3299
  101CHL1  H19C13703   4.026   4.850   8.240 -0.6063  1.9922  0.5911
  101CHL1    C113704   3.865   5.100   8.226 -0.4748  0.2303  0.2935
  101CHL1   H1A13705   3.947   5.162   8.186 -0.4297 -0.6845 -1.1145
  101CHL1   H1B13706   3.773   5.160   8.207  1.2350  3.0827  0.6129
  101CHL1    C213707   3.900   5.080   8.375  0.1914  0.2014  0.0391
  101CHL1   H2A13708   3.909   5.179   8.424 -2.4298 -0.4800  2.1736
  101CHL1   H2B13709   3.999   5.031   8.386  1.6031  2.0725 -2.9848
  101CHL1   C2013710   3.807   5.040   7.430 -1.1671  0.2029 -0.8875
  101CHL1   H2013711   3.878   4.955   7.418 -0.6497  0.3141  1.0201
  101CHL1   C2113712   3.889   5.176   7.444  0.5001 -0.8522 -0.2632
  101CHL1  H21A13713   3.977   5.147   7.506 -0.1686 -3.0507 -0.2461
  101CHL1  H21B13714   3.831   5.257   7.493  0.9761 -1.6529  1.7232
  101CHL1  H21C13715   3.938   5.205   7.348  2.7349 -0.2628  0.9879
  101CHL1   C2213716   3.710   5.055   7.301  0.3666 -0.9886  0.3501
  101CHL1  H22A13717   3.632   4.976   7.302  0.6393 -1.2709  1.8917
  101CHL1  H22B13718   3.673   5.159   7.299 -0.1911 -1.1774  0.4319
  101CHL1   C2313719   3.790   5.017   7.172  0.0501 -0.2205 -0.1705
  101CHL1  H23A13720   3.878   5.082   7.158 -0.6340  0.2530 -2.7618
  101CHL1  H23B13721   3.813   4.908   7.181 -1.3945 -0.4199  1.9521
  101CHL1   C2413722   3.706   5.027   7.046  0.0486 -0.2150 -0.3237
  101CHL1  H24A13723   3.606   4.983   7.066  0.0824 -0.1512 -0.0136
  101CHL1  H24B13724   3.713   5.136   7.027  1.9538 -0.5586 -1.9724
  101CHL1   C2513725   3.766   4.955   6.922  0.7950 -0.7129  0.3469
  101CHL1   H2513726   3.821   4.867   6.963 -1.1941 -0.8991  2.8863
  101CHL1   C2613727   3.673   4.907   6.808 -0.0687  0.3264  0.3767
  101CHL1  H26A13728   3.593   4.845   6.853 -0.8080  0.9861 -0.0004
  101CHL1  H26B13729   3.641   4.973   6.724  0.9065 -0.8760 -0.9946
  101CHL1  H26C13730   3.730   4.823   6.763 -2.2756 -2.1168  1.8245
  101CHL1   C2713731   3.878   5.042   6.855 -0.9796 -0.2601 -0.4789
  101CHL1  H27A13732   3.919   4.986   6.769 -0.8340  1.3058 -1.4746
  101CHL1  H27B13733   3.827   5.138   6.829 -1.2128 -0.1301  0.4053
  101CHL1  H27C13734   3.960   5.074   6.924  0.6365  0.0853 -2.4487
  102CHL1    C313735   3.027   5.260   8.449 -0.7657  0.2563 -0.2553
  102CHL1    H313736   3.136   5.242   8.444 -0.4489  1.7023  0.6529
  102CHL1    O313737   2.983   5.277   8.586 -0.3461  0.0066 -0.2247
  102CHL1   H3'13738   3.057   5.324   8.625 -1.3091  1.7416 -0.3861
  102CHL1    C413739   2.999   5.397   8.380  0.1290 -0.5331 -0.0641
  102CHL1   H4A13740   2.891   5.413   8.402  0.5840  1.6290  0.7899
  102CHL1   H4B13741   3.053   5.480   8.429 -1.0376  0.5182 -0.5097
  102CHL1    C513742   3.019   5.391   8.223  0.4300 -0.1739 -0.0456
  102CHL1    C613743   3.104   5.480   8.162 -0.2756 -0.3778 -0.9942
  102CHL1    H613744   3.171   5.542   8.225 -1.5202 -1.8724  1.9896
  102CHL1    C713745   3.107   5.506   8.017  0.3980  0.0023 -0.1132
  102CHL1   H7A13746   3.079   5.609   7.985 -1.9606 -0.3037  0.7205
  102CHL1   H7B13747   3.206   5.474   7.978  0.4102 -0.4529  0.2857
  102CHL1    C813748   3.001   5.418   7.940 -0.2564 -0.2158 -0.4228
  102CHL1    H813749   2.910   5.481   7.947  0.3126  0.8149 -1.7669
  102CHL1   C1413750   3.030   5.406   7.794 -0.0048 -0.1133 -0.0777
  102CHL1   H1413751   3.131   5.362   7.796  0.4709  0.9701  0.4364
  102CHL1   C1513752   3.044   5.538   7.716  0.1223  0.3903  0.6209
  102CHL1  H15A13753   2.968   5.608   7.756  0.6560  2.5409 -1.8681
  102CHL1  H15B13754   3.151   5.570   7.722  0.0797  0.9610 -1.1333
  102CHL1   C1613755   3.016   5.499   7.575  0.4704 -0.1740  0.1498
  102CHL1  H16A13756   2.935   5.562   7.531  1.3752  0.4121 -0.7119
  102CHL1  H16B13757   3.107   5.505   7.513  0.7444  2.4557  0.7131
  102CHL1   C1713758   2.989   5.344   7.573 -0.1068 -0.2231  0.4694
  102CHL1   H1713759   3.091   5.301   7.570  0.5553  1.2878  0.4786
  102CHL1   C1313760   2.928   5.320   7.715 -0.0340 -0.0899  0.4709
  102CHL1   C1813761   2.791   5.373   7.731  0.4486  0.0647 -0.4322
  102CHL1  H18A13762   2.786   5.475   7.688  0.8910 -0.1200 -0.9297
  102CHL1  H18B13763   2.716   5.314   7.675  1.1225 -2.0539  0.7611
  102CHL1  H18C13764   2.758   5.373   7.837 -1.7121 -0.1140 -1.0546
  102CHL1   C1213765   2.945   5.179   7.771 -0.3718 -0.4507 -0.0540
  102CHL1  H12A13766   2.875   5.109   7.719 -0.9454 -0.4885  0.7367
  102CHL1  H12B13767   3.053   5.156   7.759 -0.0613  0.1447  1.3868
  102CHL1   C1113768   2.905   5.171   7.921 -0.2828 -0.0813 -0.2323
  102CHL1  H11A13769   2.796   5.191   7.930  0.1784  1.7976  1.7643
  102CHL1  H11B13770   2.922   5.066   7.955 -1.1420 -0.3095 -0.4946
  102CHL1    C913771   2.988   5.274   8.002  0.9201  0.5126  0.0308
  102CHL1    H913772   3.090   5.229   8.002  0.6222 -0.1826  0.4592
  102CHL1   C1013773   2.947   5.277   8.150  0.6099 -0.3085 -0.2754
  102CHL1   C1913774   2.793   5.319   8.163  0.4562  0.3362  0.1136
  102CHL1  H19A13775   2.781   5.414   8.107 -1.1386 -0.5781 -1.2004
  102CHL1  H19B13776   2.723   5.247   8.115  0.0255  1.5883 -1.2437
  102CHL1  H19C13777   2.762   5.332   8.268 -0.8564  1.0940 -0.3437
  102CHL1    C113778   2.982   5.149   8.220 -0.4926  0.0203 -0.5890
  102CHL1   H1A13779   2.911   5.072   8.181 -0.6232  0.3882 -1.1019
  102CHL1   H1B13780   3.086   5.122   8.193 -0.2860  0.8456 -0.6375
  102CHL1    C213781   2.950   5.149   8.377 -0.3697 -0.0547  0.1145
  102CHL1   H2A13782   2.968   5.047   8.416  0.6997  0.2313  0.4128
  102CHL1   H2B13783   2.843   5.177   8.387 -0.5558  0.0271 -1.8179
  102CHL1   C2013784   2.906   5.294   7.461 -0.4555  0.3598 -0.1198
  102CHL1   H2013785   2.804   5.332   7.484 -1.0545 -0.0022 -1.9865
  102CHL1   C2113786   2.926   5.142   7.447  0.8121 -0.4971  0.3239
  102CHL1  H21A13787   2.937   5.084   7.541  0.0096  1.1387  1.4571
  102CHL1  H21B13788   3.021   5.129   7.389  0.4570  0.8059 -0.5951
  102CHL1  H21C13789   2.841   5.098   7.390  0.1182  0.3070  0.7193
  102CHL1   C2213790   2.933   5.366   7.321 -0.1367 -0.7114 -0.6776
  102CHL1  H22A13791   2.919   5.475   7.335 -1.4593 -0.8098 -1.1232
  102CHL1  H22B13792   3.041   5.343   7.304 -0.0878 -0.5231 -0.6296
  102CHL1   C2313793   2.853   5.303   7.207 -0.4552  0.0523  0.2948
  102CHL1  H23A13794   2.898   5.202   7.202  0.9857  0.6130  1.1517
  102CHL1  H23B13795   2.744   5.307   7.229 -0.5930 -0.2524 -0.3422
  102CHL1   C2413796   2.869   5.385   7.080 -0.3469  0.4686  0.1185
  102CHL1  H24A13797   2.821   5.484   7.091 -0.7003  0.3792 -0.5409
  102CHL1  H24B13798   2.970   5.411   7.041 -0.9612  1.1523 -1.0906
  102CHL1   C2513799   2.791   5.331   6.959 -0.4107  0.5310 -0.0241
  102CHL1   H2513800   2.687   5.321   6.996  0.0770  0.6776  1.4334
  102CHL1   C2613801   2.786   5.433   6.842 -0.1307  0.3814 -0.1299
  102CHL1  H26A13802   2.772   5.541   6.865  1.1238  0.6399 -0.4788
  102CHL1  H26B13803   2.889   5.428   6.801  0.4503 -1.6455  1.4378
  102CHL1  H26C13804   2.716   5.401   6.761 -0.7591  0.0168  0.5503
  102CHL1   C2713805   2.854   5.201   6.922 -0.1381 -0.6983  0.0677
  102CHL1  H27A13806   2.949   5.226   6.869 -0.3178 -0.4987 -0.1637
  102CHL1  H27B13807   2.878   5.129   7.003  2.6830 -0.5087 -0.4785
  102CHL1  H27C13808   2.793   5.156   6.841  1.5545 -0.2494 -1.5474
  103CHL1    C313809   2.396   3.410   8.818  0.3511  0.4541  0.5755
  103CHL1    H313810   2.418   3.301   8.813 -1.8292 -0.2098  3.0482
  103CHL1    O313811   2.351   3.432   8.946  0.3813 -0.2930  0.3964
  103CHL1   H3'13812   2.434   3.461   8.985 -0.2332  2.1943  0.0805
  103CHL1    C413813   2.522   3.494   8.802 -0.3106  0.0356  0.8642
  103CHL1   H4A13814   2.504   3.603   8.818 -0.1638  0.4626 -1.5254
  103CHL1   H4B13815   2.599   3.447   8.868 -0.8046 -0.4905  1.0740
  103CHL1    C513816   2.570   3.480   8.655 -0.9670  0.2123  0.1278
  103CHL1    C613817   2.700   3.459   8.629  0.0966 -0.9070  0.5545
  103CHL1    H613818   2.771   3.454   8.713  0.1231  0.3898  0.6263
  103CHL1    C713819   2.765   3.451   8.493  0.4710 -0.1626  0.5812
  103CHL1   H7A13820   2.857   3.511   8.474  0.1070 -0.0922 -1.0757
  103CHL1   H7B13821   2.799   3.346   8.487  1.1048  0.0484  0.3688
  103CHL1    C813822   2.661   3.487   8.379  0.7287 -0.3387 -0.3063
  103CHL1    H813823   2.660   3.598   8.376  0.4867 -0.3018  0.8124
  103CHL1   C1413824   2.702   3.437   8.245  0.1997 -0.1748 -0.3226
  103CHL1   H1413825   2.699   3.327   8.235  0.6783 -0.0783 -1.6742
  103CHL1   C1513826   2.836   3.479   8.193  0.1988 -0.8119  0.9669
  103CHL1  H15A13827   2.828   3.585   8.227 -3.3044 -0.8690  0.7174
  103CHL1  H15B13828   2.918   3.431   8.251 -0.5158 -2.3077  0.7849
  103CHL1   C1613829   2.831   3.458   8.037 -0.3342  0.4549  0.1477
  103CHL1  H16A13830   2.890   3.542   7.992 -0.7480  0.3567 -0.5924
  103CHL1  H16B13831   2.887   3.365   8.015 -1.4224  0.5837 -3.8621
  103CHL1   C1713832   2.673   3.445   8.001 -0.2441 -0.6326 -0.2648
  103CHL1   H1713833   2.663   3.335   7.997  2.5464 -1.0288  1.2541
  103CHL1   C1313834   2.604   3.489   8.129 -0.3543 -0.1570 -0.0093
  103CHL1   C1813835   2.589   3.644   8.117 -0.1069  0.4575  0.3941
  103CHL1  H18A13836   2.521   3.671   8.034 -0.3891 -2.3520 -0.3924
  103CHL1  H18B13837   2.537   3.686   8.206 -0.0341  0.1430  0.5868
  103CHL1  H18C13838   2.686   3.693   8.094  0.6476 -1.0719  0.2089
  103CHL1   C1213839   2.470   3.423   8.150 -0.2789  0.3063 -0.6833
  103CHL1  H12A13840   2.394   3.463   8.079  0.1808  1.7883 -0.3905
  103CHL1  H12B13841   2.476   3.313   8.134 -1.0744  0.3815 -1.6276
  103CHL1   C1113842   2.413   3.451   8.288 -0.0331  0.5062  0.3392
  103CHL1  H11A13843   2.374   3.555   8.292 -1.6002 -0.0642  2.5515
  103CHL1  H11B13844   2.323   3.390   8.312 -2.1250  2.2953 -2.3569
  103CHL1    C913845   2.519   3.437   8.407 -0.2750  0.4748  0.0495
  103CHL1    H913846   2.530   3.329   8.430  0.8986  0.1413 -1.8819
  103CHL1   C1013847   2.464   3.493   8.541  0.6094 -0.1104  0.0817
  103CHL1   C1913848   2.423   3.650   8.528  0.6345  0.1059 -0.5294
  103CHL1  H19A13849   2.370   3.692   8.616 -0.3555 -0.9595 -0.5947
  103CHL1  H19B13850   2.508   3.715   8.497 -0.1030  1.3919  0.0731
  103CHL1  H19C13851   2.353   3.669   8.445 -0.5343  1.9166  0.7968
  103CHL1    C113852   2.328   3.424   8.580  0.7219 -0.1168  0.0742
  103CHL1   H1A13853   2.245   3.444   8.510  0.3855  0.6435  0.6760
  103CHL1   H1B13854   2.339   3.313   8.579 -0.2368 -0.2654  2.0451
  103CHL1    C213855   2.286   3.445   8.724 -0.6403 -0.5475 -0.3563
  103CHL1   H2A13856   2.195   3.384   8.746 -0.7605  0.0653  0.9092
  103CHL1   H2B13857   2.258   3.551   8.736 -1.3412 -0.7549 -0.0871
  103CHL1   C2013858   2.645   3.500   7.862 -0.3987 -0.1105  0.9913
  103CHL1   H2013859   2.664   3.610   7.860 -3.0698  0.4248 -1.1155
  103CHL1   C2113860   2.502   3.466   7.816 -0.2788 -0.1392  0.6404
  103CHL1  H21A13861   2.476   3.481   7.709 -0.0251 -2.3952  0.2279
  103CHL1  H21B13862   2.436   3.536   7.873 -1.3590  1.6417 -2.5466
  103CHL1  H21C13863   2.474   3.362   7.841  0.3882 -0.6218 -0.5298
  103CHL1   C2213864   2.738   3.434   7.748 -0.1949 -0.1485 -0.4045
  103CHL1  H22A13865   2.847   3.429   7.772  0.2437 -2.3171 -2.4375
  103CHL1  H22B13866   2.707   3.328   7.755  0.3308 -0.2039  1.9719
  103CHL1   C2313867   2.715   3.494   7.616  0.2689 -0.6418 -0.8022
  103CHL1  H23A13868   2.615   3.460   7.581  0.0810 -0.1264 -0.7717
  103CHL1  H23B13869   2.698   3.603   7.628  1.0166 -0.6798  0.9206
  103CHL1   C2413870   2.821   3.464   7.512 -1.2989 -0.3621 -0.3783
  103CHL1  H24A13871   2.916   3.511   7.545  0.5816 -0.6897 -4.5936
  103CHL1  H24B13872   2.835   3.354   7.512  3.1988  0.0307 -0.6132
  103CHL1   C2513873   2.810   3.526   7.369 -0.9561  0.1407  0.4423
  103CHL1   H2513874   2.805   3.637   7.381 -0.4614  0.0728  1.4442
  103CHL1   C2613875   2.930   3.497   7.281  0.4210 -0.3540 -0.5353
  103CHL1  H26A13876   3.000   3.580   7.300 -0.3197  0.1891 -0.1329
  103CHL1  H26B13877   2.969   3.395   7.302 -1.9582 -1.2638 -0.1796
  103CHL1  H26C13878   2.907   3.497   7.172  1.5260  5.1944 -1.0510
  103CHL1   C2713879   2.685   3.477   7.299  0.8795 -0.0965  0.8176
  103CHL1  H27A13880   2.607   3.527   7.359  0.0018  1.1475 -1.2463
  103CHL1  H27B13881   2.680   3.531   7.201 -1.2081  2.0597  2.0044
  103CHL1  H27C13882   2.661   3.369   7.290  0.2700  0.0664  0.4488
  104CHL1    C313883   6.220   6.340   8.134 -0.2576  0.2749 -0.3868
  104CHL1    H313884   6.222   6.237   8.092  0.4385 -0.2965  0.9879
  104CHL1    O313885   6.247   6.327   8.269  0.3503 -0.1037  0.0164
  104CHL1   H3'13886   6.288   6.407   8.300 -0.4906  0.0750  0.6909
  104CHL1    C413887   6.324   6.433   8.067 -0.1666  0.0816  0.4453
  104CHL1   H4A13888   6.304   6.531   8.115 -3.7465  0.6315 -1.7426
  104CHL1   H4B13889   6.429   6.411   8.093  0.3367  1.4956 -0.2815
  104CHL1    C513890   6.303   6.442   7.913 -0.5342  0.1688 -0.2925
  104CHL1    C613891   6.403   6.411   7.829  0.6608 -0.0023 -0.0721
  104CHL1    H613892   6.498   6.372   7.868  0.8061 -1.1268 -1.4775
  104CHL1    C713893   6.384   6.412   7.679 -0.2081 -0.0274  0.1812
  104CHL1   H7A13894   6.476   6.447   7.627 -0.4025  0.7227  0.3344
  104CHL1   H7B13895   6.368   6.310   7.639 -1.5286  0.4167 -0.4821
  104CHL1    C813896   6.262   6.496   7.630  0.3565  0.8826 -0.1877
  104CHL1    H813897   6.277   6.606   7.632  1.4822  0.8007 -2.0393
  104CHL1   C1413898   6.230   6.443   7.485  0.2620  0.1363  0.1947
  104CHL1   H1413899   6.207   6.335   7.493  1.1892 -0.0020  1.2246
  104CHL1   C1513900   6.339   6.471   7.375  0.1453  0.0288 -0.3172
  104CHL1  H15A13901   6.375   6.571   7.406  0.4238 -1.0803  3.3553
  104CHL1  H15B13902   6.423   6.398   7.372 -0.0148 -0.2073  0.7267
  104CHL1   C1613903   6.262   6.475   7.241  0.1329 -0.7772 -0.3279
  104CHL1  H16A13904   6.277   6.569   7.185 -1.1968 -0.5951 -0.4104
  104CHL1  H16B13905   6.301   6.393   7.177  0.1002 -1.4714  0.5232
  104CHL1   C1713906   6.113   6.453   7.284  0.2912 -0.3526  0.3828
  104CHL1   H1713907   6.102   6.343   7.294 -1.0484 -0.2822 -0.0587
  104CHL1   C1313908   6.106   6.504   7.431  0.4738  0.4696  0.3522
  104CHL1   C1813909   6.123   6.651   7.431  0.0264 -0.1999 -0.1342
  104CHL1  H18A13910   6.141   6.700   7.529  0.6504  0.7928 -0.7207
  104CHL1  H18B13911   6.195   6.680   7.351 -0.5249 -1.8315 -1.2880
  104CHL1  H18C13912   6.026   6.694   7.395 -0.4596 -0.9377  0.2602
  104CHL1   C1213913   5.984   6.459   7.513  0.2567 -0.3367 -0.0083
  104CHL1  H12A13914   5.889   6.503   7.474  0.4273  0.4925  0.4912
  104CHL1  H12B13915   5.967   6.352   7.487  2.1601 -0.5755 -0.4082
  104CHL1   C1113916   6.002   6.498   7.662  0.1201 -0.5758 -0.1478
  104CHL1  H11A13917   5.988   6.609   7.666 -0.1914 -0.6334  0.4028
  104CHL1  H11B13918   5.914   6.463   7.720 -0.2122 -0.6373 -0.6764
  104CHL1    C913919   6.140   6.458   7.722 -0.3490  0.4710  0.9326
  104CHL1    H913920   6.142   6.347   7.725 -1.1956  0.2695 -2.1515
  104CHL1   C1013921   6.161   6.493   7.869 -0.3777  0.7284 -0.1617
  104CHL1   C1913922   6.140   6.647   7.898 -0.3687  0.8652  0.5438
  104CHL1  H19A13923   6.043   6.689   7.864  0.7243  1.2435 -2.4077
  104CHL1  H19B13924   6.152   6.665   8.007  0.7100 -0.6793  0.7092
  104CHL1  H19C13925   6.216   6.715   7.853  1.2173 -0.3973  1.2033
  104CHL1    C113926   6.059   6.410   7.957  0.5961 -0.2052  0.2665
  104CHL1   H1A13927   5.966   6.469   7.944  0.8098 -0.1387 -1.1301
  104CHL1   H1B13928   6.043   6.306   7.922  1.9906  0.0990 -1.4152
  104CHL1    C213929   6.084   6.400   8.109  0.0373 -0.1993  0.3487
  104CHL1   H2A13930   6.011   6.329   8.153 -1.7115  1.3407  0.0607
  104CHL1   H2B13931   6.077   6.500   8.159 -3.2784 -1.1410  2.0161
  104CHL1   C2013932   6.016   6.501   7.176 -0.0308 -0.1075  0.1322
  104CHL1   H2013933   6.013   6.612   7.183 -3.0039 -0.1527  0.9313
  104CHL1   C2113934   5.864   6.463   7.202 -0.0007  0.1029 -0.1505
  104CHL1  H21A13935   5.807   6.476   7.107  1.3115  2.9131 -0.6509
  104CHL1  H21B13936   5.834   6.528   7.287  0.6811 -1.0727  1.0317
  104CHL1  H21C13937   5.862   6.357   7.236 -1.6473 -0.1699 -0.9680
  104CHL1   C2213938   6.042   6.452   7.034 -1.1166  0.0227 -0.7429
  104CHL1  H22A13939   5.971   6.486   6.956 -0.7246 -0.4536 -1.3149
  104CHL1  H22B13940   6.143   6.486   7.003 -0.3107 -1.3654  0.2174
  104CHL1   C2313941   6.055   6.305   7.018  0.2340  0.1482 -0.0576
  104CHL1  H23A13942   6.123   6.257   7.093 -0.7136 -1.3061 -0.0728
  104CHL1  H23B13943   5.953   6.265   7.040 -0.0487  0.9179  0.0398
  104CHL1   C2413944   6.085   6.259   6.870 -0.3732  0.0861  0.3938
  104CHL1  H24A13945   6.097   6.148   6.876  0.4527  0.1369 -0.1353
  104CHL1  H24B13946   5.993   6.271   6.810 -0.9192 -0.8738  1.0075
  104CHL1   C2513947   6.204   6.319   6.796 -0.2172  0.1055 -0.7162
  104CHL1   H2513948   6.201   6.429   6.784 -0.9631 -0.0411 -2.0659
  104CHL1   C2613949   6.333   6.286   6.859 -0.3556  0.3234  0.0760
  104CHL1  H26A13950   6.420   6.343   6.820 -0.8931  1.3867  0.3950
  104CHL1  H26B13951   6.338   6.303   6.969  1.6489  1.0010 -0.0871
  104CHL1  H26C13952   6.373   6.184   6.839  0.3999 -0.1247  3.2173
  104CHL1   C2713953   6.196   6.268   6.652 -0.7175 -0.0634  0.8392
  104CHL1  H27A13954   6.208   6.158   6.651 -0.6007 -0.0823 -1.2399
  104CHL1  H27B13955   6.095   6.288   6.609  0.5288  0.1771 -2.2224
  104CHL1  H27C13956   6.272   6.321   6.590 -0.9021  1.7669  2.0932
  105CHL1    C313957   6.232   3.768   8.670  1.0713 -0.0899 -0.1636
  105CHL1    H313958   6.341   3.791   8.660  0.9310  2.8674  3.0090
  105CHL1    O313959   6.213   3.775   8.811  0.8165 -0.0146 -0.1495
  105CHL1   H3'13960   6.236   3.864   8.839 -0.6625  0.8021 -1.3777
  105CHL1    C413961   6.150   3.878   8.599 -0.0009  0.8548  0.4300
  105CHL1   H4A13962   6.043   3.866   8.626 -0.4659  1.1750 -1.1229
  105CHL1   H4B13963   6.182   3.978   8.634 -1.7350  2.0446 -1.1682
  105CHL1    C513964   6.162   3.859   8.450 -0.0243  0.0401 -0.3544
  105CHL1    C613965   6.195   3.967   8.376 -0.3669 -0.5574 -0.3799
  105CHL1    H613966   6.209   4.062   8.430 -1.5120 -0.9531  0.6711
  105CHL1    C713967   6.198   3.971   8.230 -0.5727 -0.7652 -0.1181
  105CHL1   H7A13968   6.141   4.060   8.197 -1.7773 -1.3892  0.2510
  105CHL1   H7B13969   6.305   3.978   8.199 -0.4624  0.3230  0.4576
  105CHL1    C813970   6.139   3.844   8.162 -0.5456 -0.2331  0.0085
  105CHL1    H813971   6.031   3.862   8.178 -0.3576  0.3475  0.6786
  105CHL1   C1413972   6.180   3.840   8.013  0.3673 -0.4174  1.0447
  105CHL1   H1413973   6.290   3.832   8.020  0.4177 -1.2909 -0.2998
  105CHL1   C1513974   6.154   3.958   7.923 -0.0311 -0.1886 -0.0088
  105CHL1  H15A13975   6.044   3.972   7.923  0.0505  0.4916  0.0197
  105CHL1  H15B13976   6.201   4.055   7.952 -0.4187 -0.2343  0.8146
  105CHL1   C1613977   6.178   3.911   7.780 -0.4682  0.3256  0.3796
  105CHL1  H16A13978   6.084   3.936   7.726 -1.3469  0.4126  1.8956
  105CHL1  H16B13979   6.269   3.957   7.735  0.0155 -1.5645 -0.7017
  105CHL1   C1713980   6.205   3.759   7.796 -0.1509 -0.2688  0.2741
  105CHL1   H1713981   6.316   3.756   7.804 -0.0153  0.9209 -0.7811
  105CHL1   C1313982   6.137   3.720   7.927 -0.0143  0.0026  0.1430
  105CHL1   C1813983   5.987   3.709   7.923  0.2978 -0.2725  0.1167
  105CHL1  H18A13984   5.952   3.710   8.029 -0.5823  1.5939 -0.1601
  105CHL1  H18B13985   5.941   3.795   7.871  2.4623  0.2114 -1.1200
  105CHL1  H18C13986   5.948   3.618   7.873 -0.8529 -0.6385  1.5905
  105CHL1   C1213987   6.188   3.597   8.000  0.3944 -0.2214 -0.0178
  105CHL1  H12A13988   6.156   3.502   7.951 -0.9665  0.0766  0.2715
  105CHL1  H12B13989   6.298   3.582   7.986  0.1976  0.6103 -2.9773
  105CHL1   C1113990   6.160   3.590   8.150  0.6411  0.5586 -0.1670
  105CHL1  H11A13991   6.058   3.546   8.151 -0.1731  2.2473 -1.9146
  105CHL1  H11B13992   6.235   3.518   8.189  1.8498  2.1970  0.6252
  105CHL1    C913993   6.181   3.721   8.237 -0.8275  0.1720 -0.6011
  105CHL1    H913994   6.292   3.726   8.246 -0.8212 -1.4092  0.4576
  105CHL1   C1013995   6.147   3.714   8.390 -0.5599  0.3468  0.1466
  105CHL1   C1913996   6.004   3.666   8.395  0.0440  0.2269  0.1496
  105CHL1  H19A13997   6.009   3.558   8.370 -2.8398  0.1281 -0.3221
  105CHL1  H19B13998   5.944   3.680   8.488  2.5591 -0.2089  1.9417
  105CHL1  H19C13999   5.948   3.730   8.323  0.7566  1.3985  0.6121
  105CHL1    C114000   6.238   3.610   8.472  0.0436  0.1461  0.2514
  105CHL1   H1A14001   6.214   3.508   8.435  0.8675 -0.4264  1.2441
  105CHL1   H1B14002   6.339   3.654   8.460  0.2628 -0.1192  1.0686
  105CHL1    C214003   6.206   3.627   8.623 -0.0366  0.0565 -0.1458
  105CHL1   H2A14004   6.258   3.552   8.687  0.0488 -0.6089 -0.9796
  105CHL1   H2B14005   6.100   3.597   8.639 -0.0167 -0.6513 -1.2682
  105CHL1   C2014006   6.174   3.667   7.685  0.4163 -0.4387 -0.1367
  105CHL1   H2014007   6.070   3.629   7.680  1.0440 -2.2331 -0.2785
  105CHL1   C2114008   6.279   3.553   7.674 -0.0398 -0.7141 -0.3288
  105CHL1  H21A14009   6.300   3.514   7.572 -1.4754 -0.1892 -0.8511
  105CHL1  H21B14010   6.244   3.465   7.733  1.3989 -0.1317  1.4722
  105CHL1  H21C14011   6.375   3.586   7.719  0.5433  1.0665 -2.7051
  105CHL1   C2214012   6.166   3.739   7.546 -0.5144 -0.2965 -0.1326
  105CHL1  H22A14013   6.101   3.829   7.550  0.0273  0.1788 -1.5104
  105CHL1  H22B14014   6.272   3.770   7.537 -0.5426  0.3293  1.3183
  105CHL1   C2314015   6.132   3.653   7.427  0.3251 -0.7959  0.5145
  105CHL1  H23A14016   6.181   3.554   7.438  1.9030 -0.5924 -3.0302
  105CHL1  H23B14017   6.021   3.644   7.416  0.2553  1.5168 -1.5077
  105CHL1   C2414018   6.184   3.712   7.296  0.1081  0.5043  0.6709
  105CHL1  H24A14019   6.118   3.800   7.278 -1.7294 -0.7670  0.9169
  105CHL1  H24B14020   6.288   3.746   7.317  0.5599  0.2719 -1.0776
  105CHL1   C2514021   6.183   3.618   7.168 -0.4105  0.2128 -0.3165
  105CHL1   H2514022   6.242   3.529   7.200 -0.7379 -0.0429 -0.4108
  105CHL1   C2614023   6.031   3.577   7.133  0.6822 -0.6191 -0.6816
  105CHL1  H26A14024   6.015   3.502   7.052 -0.2181 -0.9803 -0.1789
  105CHL1  H26B14025   5.990   3.514   7.214  0.0976 -0.9625 -1.2402
  105CHL1  H26C14026   5.969   3.669   7.122  0.9389 -0.5562 -1.7557
  105CHL1   C2714027   6.258   3.682   7.059  0.1260  0.1578 -0.1781
  105CHL1  H27A14028   6.218   3.777   7.018  0.7823  0.7858  0.6106
  105CHL1  H27B14029   6.361   3.688   7.100 -0.4144 -3.1934  2.0741
  105CHL1  H27C14030   6.265   3.617   6.968 -1.1118  0.5698 -0.5844
  106CHL1    C314031   1.293   4.382   8.722  0.1059  0.3060  0.0616
  106CHL1    H314032   1.371   4.458   8.704  1.4109 -0.8895  0.5448
  106CHL1    O314033   1.284   4.353   8.857 -0.3386  0.2064  0.1454
  106CHL1   H3'14034   1.226   4.278   8.868 -1.3625  0.9239 -0.1993
  106CHL1    C414035   1.152   4.425   8.678  0.1529  0.8502 -0.0960
  106CHL1   H4A14036   1.082   4.345   8.710  1.3137 -0.8069 -1.5159
  106CHL1   H4B14037   1.111   4.510   8.736  0.2135 -0.3361  1.7936
  106CHL1    C514038   1.148   4.446   8.532  0.1317  0.3254  0.4328
  106CHL1    C614039   1.108   4.566   8.490  0.1321 -0.4175  0.3497
  106CHL1    H614040   1.090   4.649   8.560 -2.3343  0.6533 -1.4023
  106CHL1    C714041   1.090   4.606   8.346 -0.2290 -0.0868  0.9631
  106CHL1   H7A14042   1.004   4.675   8.334 -0.7355 -0.5694  1.7218
  106CHL1   H7B14043   1.185   4.653   8.313 -0.3491 -0.0438  0.6746
  106CHL1    C814044   1.085   4.483   8.255  0.8585  0.1253  0.1549
  106CHL1    H814045   0.984   4.436   8.258  1.0062 -0.4942 -2.2606
  106CHL1   C1414046   1.108   4.521   8.099  0.0330  0.2317  0.5177
  106CHL1   H1414047   1.213   4.555   8.089  0.6646 -1.7769 -0.1760
  106CHL1   C1514048   1.031   4.635   8.032  0.0854 -0.2581  0.3661
  106CHL1  H15A14049   0.922   4.640   8.052  0.5337  0.3549  2.9124
  106CHL1  H15B14050   1.074   4.734   8.058 -1.1463  0.3962 -0.0125
  106CHL1   C1614051   1.052   4.608   7.882  0.2960 -0.6715 -0.2813
  106CHL1  H16A14052   0.961   4.602   7.818  1.1729 -0.1931 -1.5869
  106CHL1  H16B14053   1.115   4.690   7.843 -0.9797  0.5803  0.1842
  106CHL1   C1714054   1.124   4.469   7.874 -0.7251 -0.8891  0.3866
  106CHL1   H1714055   1.231   4.498   7.883 -0.3176 -2.4604  1.1583
  106CHL1   C1314056   1.099   4.400   8.009  0.2530  0.5245  0.3797
  106CHL1   C1814057   0.953   4.340   8.005 -0.3782  0.1941  0.5323
  106CHL1  H18A14058   0.890   4.428   7.981  1.1488  0.8592 -1.3563
  106CHL1  H18B14059   0.936   4.257   7.932 -1.2845  1.5205 -0.8265
  106CHL1  H18C14060   0.928   4.306   8.107 -1.7312  2.2880  0.9425
  106CHL1   C1214061   1.202   4.297   8.055  0.5776  0.6242  0.2320
  106CHL1  H12A14062   1.196   4.211   7.985  0.5032  0.8858 -0.0874
  106CHL1  H12B14063   1.300   4.343   8.028  1.7612 -0.3707  2.5255
  106CHL1   C1114064   1.190   4.247   8.202 -0.6433 -0.7455  0.0736
  106CHL1  H11A14065   1.090   4.200   8.210 -0.7269 -0.5771  0.0323
  106CHL1  H11B14066   1.279   4.186   8.228  1.2059  1.5865 -0.3740
  106CHL1    C914067   1.190   4.370   8.298 -0.1927 -0.0240 -0.3019
  106CHL1    H914068   1.286   4.424   8.280  0.6737 -0.6413  2.1187
  106CHL1   C1014069   1.186   4.324   8.447 -0.3147 -0.4836 -0.3440
  106CHL1   C1914070   1.081   4.211   8.470  0.1306  0.8477  0.2189
  106CHL1  H19A14071   0.978   4.245   8.448 -0.1774 -0.1205  0.0778
  106CHL1  H19B14072   1.111   4.118   8.416 -3.3638 -1.1484  1.3728
  106CHL1  H19C14073   1.084   4.182   8.577  0.5002 -0.1414 -0.0432
  106CHL1    C114074   1.335   4.283   8.488  0.0425 -0.3091 -0.1463
  106CHL1   H1A14075   1.354   4.187   8.436 -2.2791 -1.7812  1.5381
  106CHL1   H1B14076   1.406   4.363   8.456 -2.0483  1.1821 -1.2943
  106CHL1    C214077   1.345   4.256   8.639  0.2901 -0.4002 -1.1194
  106CHL1   H2A14078   1.448   4.225   8.666  0.5379  0.8292 -0.6158
  106CHL1   H2B14079   1.273   4.173   8.656  0.4961 -0.6097 -1.2441
  106CHL1   C2014080   1.107   4.404   7.736 -0.2517 -0.2678 -0.8052
  106CHL1   H2014081   1.001   4.380   7.714 -0.5348  0.9381 -0.8136
  106CHL1   C2114082   1.174   4.265   7.736  0.5006 -0.2770 -0.9733
  106CHL1  H21A14083   1.178   4.222   7.634 -1.0237  1.7998 -1.9739
  106CHL1  H21B14084   1.117   4.191   7.797  2.2259 -0.2986  0.7088
  106CHL1  H21C14085   1.277   4.262   7.778  0.1840 -0.5041 -0.1796
  106CHL1   C2214086   1.170   4.488   7.619 -0.6705 -0.2093 -0.4977
  106CHL1  H22A14087   1.118   4.585   7.614 -1.2074 -0.3033  1.9238
  106CHL1  H22B14088   1.280   4.498   7.632 -0.5672 -1.1058 -0.6106
  106CHL1   C2314089   1.157   4.435   7.475 -0.8946 -0.3938  0.1647
  106CHL1  H23A14090   1.170   4.520   7.404  0.4054 -1.1551 -0.5294
  106CHL1  H23B14091   1.244   4.372   7.448  0.7595  1.1723  1.5313
  106CHL1   C2414092   1.020   4.365   7.441  0.2924  0.1391 -0.1290
  106CHL1  H24A14093   1.011   4.275   7.506  2.9251  0.3705  0.6545
  106CHL1  H24B14094   0.947   4.442   7.473  0.7804  0.4116  0.3250
  106CHL1   C2514095   1.010   4.337   7.288 -0.3372 -0.1760 -0.2157
  106CHL1   H2514096   1.101   4.285   7.253  0.4433  0.6888  0.4744
  106CHL1   C2614097   0.897   4.242   7.262 -0.4180 -1.1232 -0.5404
  106CHL1  H26A14098   0.792   4.258   7.297  0.1380  1.3334  0.1902
  106CHL1  H26B14099   0.899   4.231   7.151  3.1302 -3.4538 -0.3996
  106CHL1  H26C14100   0.944   4.145   7.291 -0.6856 -1.5699 -1.5328
  106CHL1   C2714101   0.995   4.461   7.202  0.1918  0.3639 -0.3223
  106CHL1  H27A14102   0.973   4.431   7.098 -0.0024 -2.6524  0.4978
  106CHL1  H27B14103   0.913   4.529   7.233 -0.6673 -1.0447  0.6059
  106CHL1  H27C14104   1.091   4.518   7.198  0.2542  0.3922  1.0881
  107CHL1    C314105   3.663   0.531   8.040 -0.2633 -0.2444 -0.3138
  107CHL1    H314106   3.676   0.637   8.012 -1.3212 -0.0043  0.0498
  107CHL1    O314107   3.656   0.516   8.181  0.3948  0.4118  0.3759
  107CHL1   H3'14108   3.728   0.457   8.206 -0.5209 -0.7703  0.3386
  107CHL1    C414109   3.536   0.468   7.983 -0.4751  0.0513 -0.2461
  107CHL1   H4A14110   3.523   0.366   8.024 -1.5851  0.3336  0.1297
  107CHL1   H4B14111   3.453   0.534   8.016  2.5254  3.9818  0.2953
  107CHL1    C514112   3.548   0.464   7.828  0.4214  0.3464 -0.4047
  107CHL1    C614113   3.448   0.526   7.761 -0.4806  0.5986 -0.1331
  107CHL1    H614114   3.371   0.581   7.816  1.0637  3.0422 -0.2560
  107CHL1    C714115   3.434   0.520   7.609 -0.0435  0.4687 -0.0620
  107CHL1   H7A14116   3.333   0.479   7.583 -0.1205 -0.7944  2.0330
  107CHL1   H7B14117   3.450   0.618   7.559  1.2833 -0.3853 -1.3911
  107CHL1    C814118   3.541   0.426   7.543  0.7770 -0.2787  0.1835
  107CHL1    H814119   3.509   0.320   7.536  0.7999 -0.2128 -1.4146
  107CHL1   C1414120   3.558   0.472   7.397 -0.3436 -0.0366 -0.3740
  107CHL1   H1414121   3.604   0.573   7.403  3.6289 -1.6742  0.2645
  107CHL1   C1514122   3.434   0.486   7.308 -0.6799  0.6907  0.0808
  107CHL1  H15A14123   3.350   0.417   7.333 -1.2140  1.7613  1.3317
  107CHL1  H15B14124   3.387   0.586   7.313 -1.7289  0.2116  0.3335
  107CHL1   C1614125   3.488   0.467   7.167 -0.3515  0.3779 -0.1472
  107CHL1  H16A14126   3.436   0.387   7.109 -3.9862  2.2805  0.2076
  107CHL1  H16B14127   3.475   0.558   7.105 -1.0125  0.0421 -0.5125
  107CHL1   C1714128   3.647   0.440   7.180 -0.4168 -0.1178  0.0577
  107CHL1   H1714129   3.699   0.538   7.184 -0.3877 -0.1699  1.2558
  107CHL1   C1314130   3.662   0.388   7.321 -0.2850 -0.4305 -0.3094
  107CHL1   C1814131   3.628   0.237   7.319 -0.1575  0.5648 -0.4446
  107CHL1  H18A14132   3.701   0.175   7.264  1.1957  2.4845 -0.9104
  107CHL1  H18B14133   3.615   0.188   7.418 -2.4162 -1.0579 -1.4573
  107CHL1  H18C14134   3.530   0.225   7.267 -1.3295  0.7421  1.5969
  107CHL1   C1214135   3.799   0.401   7.394  0.0583 -0.1226 -0.1508
  107CHL1  H12A14136   3.868   0.330   7.343 -1.4317  0.2476 -2.8969
  107CHL1  H12B14137   3.825   0.509   7.384  0.9638 -0.4725 -2.1837
  107CHL1   C1114138   3.792   0.359   7.542  0.4719 -0.2019 -0.1321
  107CHL1  H11A14139   3.774   0.250   7.553  4.0311 -0.6463  4.1247
  107CHL1  H11B14140   3.892   0.374   7.587  0.9787  0.6462 -1.4821
  107CHL1    C914141   3.678   0.432   7.614  0.1996 -0.1112  0.3192
  107CHL1    H914142   3.719   0.535   7.606  0.1110 -0.1059 -0.0901
  107CHL1   C1014143   3.666   0.394   7.765 -0.0687 -0.8921 -0.4441
  107CHL1   C1914144   3.638   0.250   7.784  0.4756 -0.7291  0.7947
  107CHL1  H19A14145   3.545   0.231   7.727  0.3352 -1.8265  1.3699
  107CHL1  H19B14146   3.720   0.188   7.740 -1.2216 -0.4584 -3.1056
  107CHL1  H19C14147   3.612   0.225   7.889  4.0929 -0.5487  1.8730
  107CHL1    C114148   3.795   0.446   7.838  0.0878  0.1558  0.8559
  107CHL1   H1A14149   3.885   0.388   7.809  0.8183  1.2731  0.8265
  107CHL1   H1B14150   3.830   0.546   7.806  5.1273 -1.3559  0.7353
  107CHL1    C214151   3.778   0.443   7.990  0.3899 -0.0449 -0.2263
  107CHL1   H2A14152   3.875   0.484   8.026 -0.0906 -0.2016  1.3096
  107CHL1   H2B14153   3.770   0.337   8.022  1.6376 -0.4282 -1.1035
  107CHL1   C2014154   3.704   0.365   7.059 -0.3796  0.2426  0.1616
  107CHL1   H2014155   3.675   0.258   7.060 -2.4920  0.7674  1.5110
  107CHL1   C2114156   3.860   0.385   7.067  0.7395 -0.2317  0.5125
  107CHL1  H21A14157   3.913   0.363   6.972  0.4724 -1.4887  0.6453
  107CHL1  H21B14158   3.894   0.319   7.149  1.1781 -0.6377  0.0131
  107CHL1  H21C14159   3.876   0.491   7.096  1.1012  0.6290 -2.4670
  107CHL1   C2214160   3.652   0.416   6.918 -0.4399 -0.3270 -0.0847
  107CHL1  H22A14161   3.547   0.449   6.912 -0.3399 -0.1544 -1.0162
  107CHL1  H22B14162   3.712   0.507   6.894 -0.5180  1.2469  4.6353
  107CHL1   C2314163   3.675   0.315   6.805 -0.8752 -0.3140 -0.4791
  107CHL1  H23A14164   3.783   0.291   6.812 -0.8411  0.3454  2.0797
  107CHL1  H23B14165   3.620   0.222   6.830 -0.5190 -0.4933 -0.3586
  107CHL1   C2414166   3.646   0.373   6.662 -0.2168  0.3502  0.1781
  107CHL1  H24A14167   3.538   0.371   6.637 -0.1173  0.0745 -0.2355
  107CHL1  H24B14168   3.692   0.471   6.639 -0.3348 -0.0064 -1.6992
  107CHL1   C2514169   3.708   0.282   6.546 -0.0751  0.6178 -0.1373
  107CHL1   H2514170   3.817   0.288   6.564  0.3170  1.0885 -2.4338
  107CHL1   C2614171   3.678   0.129   6.558 -0.6641  0.2161  0.3805
  107CHL1  H26A14172   3.725   0.069   6.476  1.1984  1.7876  0.2201
  107CHL1  H26B14173   3.701   0.085   6.657  1.1399 -0.5185 -0.3136
  107CHL1  H26C14174   3.569   0.113   6.547 -0.4986 -0.6961 -0.0291
  107CHL1   C2714175   3.687   0.351   6.410 -0.2266  0.2479 -0.4428
  107CHL1  H27A14176   3.578   0.349   6.387 -0.4648 -0.9985  0.6336
  107CHL1  H27B14177   3.726   0.454   6.422 -1.3788  0.8804 -1.8772
  107CHL1  H27C14178   3.739   0.305   6.323  1.7142  1.0659  0.2427
  108CHL1    C314179   6.517   3.429   8.854  0.6967 -0.4000  0.3388
  108CHL1    H314180   6.420   3.482   8.844  1.2422  0.5073 -0.2794
  108CHL1    O314181   6.552   3.427   8.991 -0.1131 -0.3103 -0.0293
  108CHL1   H3'14182   6.637   3.382   8.987 -0.4266 -0.8298 -1.7551
  108CHL1    C414183   6.506   3.283   8.808  0.2076  0.0844  1.0858
  108CHL1   H4A14184   6.608   3.238   8.816  0.4988  0.5705  0.2493
  108CHL1   H4B14185   6.432   3.235   8.875 -0.1897  0.9629  1.2868
  108CHL1    C514186   6.469   3.286   8.658 -0.2762 -0.0937  0.1117
  108CHL1    C614187   6.360   3.215   8.619 -0.2988  0.0892 -0.1004
  108CHL1    H614188   6.298   3.158   8.690  0.5420 -1.1053 -0.3042
  108CHL1    C714189   6.323   3.203   8.475 -0.4159  0.2024 -0.0721
  108CHL1   H7A14190   6.286   3.102   8.451 -0.3907  0.1046  0.2903
  108CHL1   H7B14191   6.242   3.276   8.455  0.0701  1.2120  1.4105
  108CHL1    C814192   6.449   3.243   8.386 -0.5885  0.2887  0.6056
  108CHL1    H814193   6.521   3.159   8.398 -4.3201 -3.7818 -2.1093
  108CHL1   C1414194   6.409   3.231   8.238  0.0873 -0.2637 -0.1428
  108CHL1   H1414195   6.315   3.288   8.230 -0.2483 -0.7895  0.0334
  108CHL1   C1514196   6.363   3.091   8.189  0.0805  0.0928 -0.1804
  108CHL1  H15A14197   6.433   3.010   8.219  0.1919  0.5163  0.7493
  108CHL1  H15B14198   6.260   3.066   8.224  0.5957 -2.0630 -0.0521
  108CHL1   C1614199   6.362   3.113   8.031  0.0081 -0.0801 -0.6074
  108CHL1  H16A14200   6.419   3.030   7.984  0.7644  0.6281 -0.9524
  108CHL1  H16B14201   6.261   3.119   7.985  0.5065 -1.3645 -1.9573
  108CHL1   C1714202   6.442   3.245   8.008 -0.4926 -0.3027  0.7394
  108CHL1   H1714203   6.361   3.321   8.003  0.9622  1.2952  0.6814
  108CHL1   C1314204   6.515   3.279   8.137 -0.1912 -0.0659  0.1556
  108CHL1   C1814205   6.631   3.183   8.139  0.1748 -0.2885 -0.2279
  108CHL1  H18A14206   6.606   3.078   8.111  1.4929 -0.5496 -0.5311
  108CHL1  H18B14207   6.711   3.212   8.068  0.0326  0.1509 -0.2132
  108CHL1  H18C14208   6.664   3.177   8.245 -2.5089  0.3961  0.7197
  108CHL1   C1214209   6.545   3.424   8.174  0.4781 -0.3170  0.2540
  108CHL1  H12A14210   6.621   3.469   8.108 -1.1793  0.6475 -1.0707
  108CHL1  H12B14211   6.453   3.484   8.159 -0.0005  0.0625  3.7946
  108CHL1   C1114212   6.590   3.443   8.325 -0.3848 -0.9208  0.0920
  108CHL1  H11A14213   6.696   3.409   8.321  0.6678  2.0862 -0.1047
  108CHL1  H11B14214   6.594   3.550   8.357  2.1932 -0.6091 -1.0089
  108CHL1    C914215   6.503   3.373   8.432 -0.4610  0.0441 -0.5603
  108CHL1    H914216   6.423   3.451   8.439 -0.8229  0.0896 -3.6969
  108CHL1   C1014217   6.569   3.366   8.573  0.3625 -0.4481  0.2125
  108CHL1   C1914218   6.713   3.307   8.559 -0.2652 -0.1129  0.4417
  108CHL1  H19A14219   6.765   3.302   8.657 -1.1708 -0.6827  0.9008
  108CHL1  H19B14220   6.712   3.204   8.518 -0.1090 -0.1682  0.5782
  108CHL1  H19C14221   6.784   3.359   8.490 -1.1874 -1.0715 -1.3088
  108CHL1    C114222   6.580   3.511   8.631 -0.3766 -0.2119  0.7864
  108CHL1   H1A14223   6.640   3.573   8.561  0.1353 -0.9907  0.5293
  108CHL1   H1B14224   6.484   3.566   8.614  0.4690  0.6362 -1.7599
  108CHL1    C214225   6.620   3.516   8.777  0.7443 -0.4232 -0.1192
  108CHL1   H2A14226   6.622   3.614   8.829  2.7501 -0.2061 -0.5204
  108CHL1   H2B14227   6.721   3.470   8.780  0.4054 -1.1366  0.9396
  108CHL1   C2014228   6.526   3.243   7.874  0.3879 -0.4361 -0.1033
  108CHL1   H2014229   6.595   3.155   7.867 -0.4603 -0.9814 -2.5289
  108CHL1   C2114230   6.605   3.377   7.865  0.1287 -0.0833  0.0369
  108CHL1  H21A14231   6.552   3.474   7.875  1.5554  0.8617 -1.1950
  108CHL1  H21B14232   6.666   3.382   7.773  2.2802 -1.6665  1.2672
  108CHL1  H21C14233   6.690   3.386   7.936  1.1035  1.4912 -1.2697
  108CHL1   C2214234   6.434   3.231   7.750  0.0298  0.2418 -0.5627
  108CHL1  H22A14235   6.326   3.244   7.773 -0.4688 -0.7573 -2.2148
  108CHL1  H22B14236   6.464   3.313   7.681 -1.5153 -0.5002 -2.2009
  108CHL1   C2314237   6.442   3.098   7.681 -0.4065 -0.0682 -0.2641
  108CHL1  H23A14238   6.546   3.071   7.653 -1.1840 -3.0396 -0.6401
  108CHL1  H23B14239   6.408   3.028   7.760 -0.8564 -1.5911 -1.7594
  108CHL1   C2414240   6.358   3.093   7.549  0.2356 -0.5599 -0.3547
  108CHL1  H24A14241   6.367   2.994   7.499 -0.4419  0.4490 -2.6070
  108CHL1  H24B14242   6.253   3.107   7.582  1.4994  1.2313  3.3394
  108CHL1   C2514243   6.397   3.188   7.430 -0.3331  0.6192 -0.0941
  108CHL1   H2514244   6.375   3.293   7.461  1.2265  1.4768 -1.6827
  108CHL1   C2614245   6.548   3.174   7.402  0.0466  0.0182  0.5229
  108CHL1  H26A14246   6.596   3.242   7.476 -0.9496  4.2253 -2.3533
  108CHL1  H26B14247   6.576   3.066   7.404 -0.2465 -0.0912 -0.6413
  108CHL1  H26C14248   6.586   3.216   7.307 -0.7292 -1.3069 -0.3992
  108CHL1   C2714249   6.306   3.175   7.301  0.4354 -0.2623  0.3505
  108CHL1  H27A14250   6.350   3.244   7.226  0.4559  1.5356  1.9079
  108CHL1  H27B14251   6.311   3.067   7.276  0.6621 -0.1738  0.0031
  108CHL1  H27C14252   6.199   3.200   7.313  0.4627 -1.1609  3.6978
  109CHL1    C314253   2.979   6.557   7.780 -0.5405  0.5514 -0.3625
  109CHL1    H314254   3.059   6.628   7.752 -1.1749  0.8231 -1.5743
  109CHL1    O314255   2.978   6.528   7.921  0.4843  0.4613  0.0308
  109CHL1   H3'14256   2.991   6.434   7.932  2.0601  0.6216 -0.2254
  109CHL1    C414257   2.844   6.625   7.740 -0.0811 -0.0547  0.3628
  109CHL1   H4A14258   2.757   6.560   7.762 -0.0684 -0.8905 -1.8607
  109CHL1   H4B14259   2.835   6.722   7.795  1.0561  0.8759 -1.0189
  109CHL1    C514260   2.842   6.659   7.587  0.4480 -0.4585 -0.4705
  109CHL1    C614261   2.832   6.788   7.536  0.7426  0.0696 -0.4920
  109CHL1    H614262   2.824   6.875   7.603  0.4842 -1.5621  1.7552
  109CHL1    C714263   2.808   6.819   7.389  0.3305 -0.0288 -0.2825
  109CHL1   H7A14264   2.724   6.887   7.363  0.3340  0.2739  0.4756
  109CHL1   H7B14265   2.900   6.865   7.345  0.3527  0.8588  0.6485
  109CHL1    C814266   2.782   6.693   7.306 -0.1594  0.5452  0.0061
  109CHL1    H814267   2.676   6.662   7.319  0.4114 -1.3876  0.2920
  109CHL1   C1414268   2.809   6.728   7.160  0.6523  0.4397  0.6193
  109CHL1   H1414269   2.918   6.745   7.151  0.6908 -0.5265 -1.3118
  109CHL1   C1514270   2.724   6.843   7.102 -0.5534 -0.0043 -0.1017
  109CHL1  H15A14271   2.620   6.809   7.119  0.1055 -3.8356 -2.3268
  109CHL1  H15B14272   2.750   6.934   7.159 -1.4413 -0.8349  1.7004
  109CHL1   C1614273   2.753   6.832   6.951 -0.6783  0.1326  0.0496
  109CHL1  H16A14274   2.663   6.863   6.894 -1.1902  2.2994  1.8960
  109CHL1  H16B14275   2.832   6.906   6.927  0.1922 -0.3322  1.3415
  109CHL1   C1714276   2.807   6.681   6.926  0.1135  0.0967 -0.0567
  109CHL1   H1714277   2.918   6.679   6.924  0.1399  0.6695  0.6959
  109CHL1   C1314278   2.785   6.600   7.061 -0.0481 -0.1299  0.5500
  109CHL1   C1814279   2.641   6.536   7.057 -0.4017 -0.2637 -0.1587
  109CHL1  H18A14280   2.635   6.445   6.994 -1.2287  0.6394 -1.4059
  109CHL1  H18B14281   2.599   6.504   7.155 -0.3810 -0.3531 -0.1793
  109CHL1  H18C14282   2.587   6.626   7.021  0.4442  1.6037  2.8609
  109CHL1   C1214283   2.897   6.502   7.099  0.9274  0.8177  1.1069
  109CHL1  H12A14284   2.897   6.416   7.029 -0.8227  0.0666  1.9843
  109CHL1  H12B14285   2.994   6.547   7.069  0.8805  0.9476  1.1461
  109CHL1   C1114286   2.884   6.457   7.247 -0.9897 -0.0250 -0.5384
  109CHL1  H11A14287   2.783   6.412   7.254 -0.5129 -1.2103 -0.9892
  109CHL1  H11B14288   2.962   6.379   7.267 -1.1928 -0.0064  0.3591
  109CHL1    C914289   2.874   6.578   7.349 -0.9338  0.0965  0.3827
  109CHL1    H914290   2.971   6.632   7.344 -0.7241  0.6819  5.2956
  109CHL1   C1014291   2.853   6.542   7.501 -0.3906  0.5635  0.5013
  109CHL1   C1914292   2.730   6.441   7.505 -0.1480  0.0055 -0.1310
  109CHL1  H19A14293   2.640   6.489   7.462 -0.4327  0.4829  0.9676
  109CHL1  H19B14294   2.752   6.349   7.447 -1.8095  0.2479 -1.2295
  109CHL1  H19C14295   2.690   6.419   7.606 -1.4600 -4.4134 -1.4102
  109CHL1    C114296   2.979   6.458   7.542 -0.1770 -0.5763 -0.0530
  109CHL1   H1A14297   2.966   6.363   7.486  0.9002 -0.7502 -0.0274
  109CHL1   H1B14298   3.071   6.513   7.513  0.1049 -1.1234 -0.2068
  109CHL1    C214299   2.985   6.428   7.693 -0.5320  1.1095 -0.0531
  109CHL1   H2A14300   3.084   6.386   7.720 -0.2355  2.4986  1.2003
  109CHL1   H2B14301   2.899   6.362   7.718  0.3322  0.1194  0.3635
  109CHL1   C2014302   2.764   6.624   6.791  0.9916  0.3992 -0.4827
  109CHL1   H2014303   2.653   6.626   6.789  0.9744  2.2155  0.3714
  109CHL1   C2114304   2.827   6.484   6.776 -0.0179  0.6879 -0.2634
  109CHL1  H21A14305   2.934   6.468   6.799 -0.1327 -0.1677 -0.2727
  109CHL1  H21B14306   2.806   6.446   6.673  2.4774 -1.0269 -0.2362
  109CHL1  H21C14307   2.767   6.413   6.837 -0.8234  1.2570 -0.3699
  109CHL1   C2214308   2.813   6.701   6.664 -0.1146 -0.4420 -0.6317
  109CHL1  H22A14309   2.800   6.806   6.698  4.2593 -0.2223  1.0114
  109CHL1  H22B14310   2.921   6.679   6.647 -0.0781 -0.2477 -0.6587
  109CHL1   C2314311   2.739   6.685   6.528 -0.1847  0.0449  0.9778
  109CHL1  H23A14312   2.762   6.586   6.483  1.4658  0.8734 -0.1097
  109CHL1  H23B14313   2.630   6.680   6.549  0.0297 -0.7377  2.0256
  109CHL1   C2414314   2.787   6.793   6.432  0.3276  0.4387 -0.0821
  109CHL1  H24A14315   2.780   6.893   6.480  1.8983  0.3683  0.3595
  109CHL1  H24B14316   2.892   6.779   6.398  0.3194  1.6869 -0.6540
  109CHL1   C2514317   2.714   6.787   6.294 -0.7934 -0.2048  0.5083
  109CHL1   H2514318   2.605   6.806   6.304 -1.7139 -2.5984 -3.0341
  109CHL1   C2614319   2.776   6.904   6.212  0.7517  0.0054  0.3261
  109CHL1  H26A14320   2.887   6.896   6.209  0.8931  1.6558 -0.1417
  109CHL1  H26B14321   2.735   6.904   6.109 -3.4443  1.3609  1.7872
  109CHL1  H26C14322   2.757   7.003   6.259  1.8006  0.5447 -0.3434
  109CHL1   C2714323   2.735   6.654   6.221  0.5647 -0.3710 -0.0308
  109CHL1  H27A14324   2.840   6.617   6.218  0.4726 -0.7323  0.7421
  109CHL1  H27B14325   2.669   6.577   6.267 -1.3040  0.7174 -0.8161
  109CHL1  H27C14326   2.695   6.666   6.118 -1.0830  0.9653  0.7118
  110CHL1    C314327   2.049   6.583   7.813  0.0176 -0.2512 -0.6912
  110CHL1    H314328   2.136   6.649   7.791  0.0816 -0.3833 -0.8418
  110CHL1    O314329   2.052   6.559   7.951 -0.4135 -0.5845  0.1804
  110CHL1   H3'14330   1.974   6.509   7.974 -0.4512 -0.5110  0.2139
  110CHL1    C414331   1.923   6.667   7.785  0.1189 -0.7407 -0.0680
  110CHL1   H4A14332   1.834   6.608   7.817  0.6911 -0.9904  1.1328
  110CHL1   H4B14333   1.931   6.764   7.839  2.1331  0.5774 -2.5266
  110CHL1    C514334   1.908   6.689   7.634  0.1770 -0.3827 -0.5345
  110CHL1    C614335   1.915   6.817   7.590  0.2936  0.4635 -0.3290
  110CHL1    H614336   1.914   6.899   7.664 -1.9365 -1.2230  1.6502
  110CHL1    C714337   1.905   6.851   7.450  0.0533 -0.3186  0.3136
  110CHL1   H7A14338   1.833   6.935   7.441  0.6638  0.2808  0.8544
  110CHL1   H7B14339   2.003   6.880   7.407 -0.0917 -2.0448 -1.3199
  110CHL1    C814340   1.864   6.734   7.363  0.6450 -0.1952  0.3614
  110CHL1    H814341   1.757   6.715   7.384  0.2760  1.0606 -0.2700
  110CHL1   C1414342   1.893   6.772   7.216  0.1592 -0.3697 -0.1620
  110CHL1   H1414343   2.003   6.787   7.205  0.0670  1.5482  1.0477
  110CHL1   C1514344   1.835   6.906   7.168 -0.3603  0.4358  0.7807
  110CHL1  H15A14345   1.725   6.910   7.181 -0.7525  0.8448 -2.0897
  110CHL1  H15B14346   1.880   6.994   7.218  0.8888  0.0776  0.3256
  110CHL1   C1614347   1.861   6.899   7.017 -0.0847 -0.2275 -0.4117
  110CHL1  H16A14348   1.765   6.921   6.967 -1.6459  0.1877  2.5628
  110CHL1  H16B14349   1.942   6.970   6.990 -1.1678  0.7008 -1.3376
  110CHL1   C1714350   1.906   6.748   6.981 -0.1430  0.4149  0.1174
  110CHL1   H1714351   2.017   6.747   6.980  0.1476 -0.9615  5.0593
  110CHL1   C1314352   1.865   6.669   7.110  0.0514  0.1916  0.0189
  110CHL1   C1814353   1.710   6.663   7.103  0.3962  0.0875 -0.5327
  110CHL1  H18A14354   1.650   6.644   7.194 -0.5693 -0.2667 -1.2241
  110CHL1  H18B14355   1.665   6.758   7.067  3.8161  1.7557 -0.7670
  110CHL1  H18C14356   1.686   6.585   7.028  1.5336 -1.1895  0.3762
  110CHL1   C1214357   1.941   6.541   7.141  0.0542 -0.2961  0.4873
  110CHL1  H12A14358   1.916   6.473   7.057 -2.0562  0.4219  0.4818
  110CHL1  H12B14359   2.050   6.556   7.125 -0.4321  0.5025 -2.9497
  110CHL1   C1114360   1.915   6.493   7.283  1.0919  0.2822  0.2362
  110CHL1  H11A14361   1.809   6.459   7.291  0.4076  1.8645 -1.4220
  110CHL1  H11B14362   1.987   6.414   7.314 -0.8726 -1.6969  0.0207
  110CHL1    C914363   1.941   6.606   7.391 -0.2975 -0.0613 -0.7093
  110CHL1    H914364   2.046   6.641   7.392  0.3403 -1.8971 -0.3798
  110CHL1   C1014365   1.919   6.563   7.541 -0.1896 -0.1811  0.2748
  110CHL1   C1914366   1.783   6.485   7.558  0.4516  0.3469 -0.6360
  110CHL1  H19A14367   1.698   6.551   7.530 -0.2339 -0.4073 -0.3748
  110CHL1  H19B14368   1.792   6.390   7.500  2.0564  0.6408 -0.8999
  110CHL1  H19C14369   1.783   6.447   7.662  1.5025  2.1759  0.0739
  110CHL1    C114370   2.037   6.475   7.586  0.3268  0.0758 -0.1969
  110CHL1   H1A14371   2.049   6.382   7.527  0.4612  0.6945 -1.1667
  110CHL1   H1B14372   2.127   6.527   7.547  1.4669 -1.1476  0.7123
  110CHL1    C214373   2.041   6.453   7.736 -0.1291  0.0655 -0.2558
  110CHL1   H2A14374   2.123   6.389   7.775  0.8854  1.7532  0.4895
  110CHL1   H2B14375   1.951   6.402   7.779 -0.7342  0.1563 -1.3660
  110CHL1   C2014376   1.853   6.712   6.834 -0.7590  0.3764  0.0147
  110CHL1   H2014377   1.743   6.721   6.851 -1.0231 -1.0019 -0.8715
  110CHL1   C2114378   1.874   6.559   6.808  0.2411  1.0663 -0.3776
  110CHL1  H21A14379   1.849   6.511   6.711 -2.6762  0.1518  0.7390
  110CHL1  H21B14380   1.816   6.502   6.883  2.0378 -1.5071 -0.8292
  110CHL1  H21C14381   1.981   6.539   6.831 -0.2609 -0.0886  1.0801
  110CHL1   C2214382   1.915   6.794   6.731 -0.2347  0.5127 -0.4562
  110CHL1  H22A14383   1.936   6.894   6.775 -2.1906  1.0826 -0.7289
  110CHL1  H22B14384   2.006   6.743   6.694 -2.2088 -2.3741 -1.6725
  110CHL1   C2314385   1.821   6.827   6.609  0.5153  0.1446  0.2856
  110CHL1  H23A14386   1.792   6.729   6.565 -2.3071  0.6683  0.7519
  110CHL1  H23B14387   1.738   6.879   6.661  1.0988  2.3910 -0.8795
  110CHL1   C2414388   1.888   6.917   6.505 -0.9236  0.1162 -0.9211
  110CHL1  H24A14389   1.949   6.989   6.563  0.1586 -0.7881 -0.9010
  110CHL1  H24B14390   1.965   6.851   6.459 -0.5518 -1.0691  1.2904
  110CHL1   C2514391   1.808   6.974   6.389  0.4448 -0.1118 -0.3474
  110CHL1   H2514392   1.711   6.993   6.439  0.8953  1.7188 -0.1038
  110CHL1   C2614393   1.863   7.113   6.348 -0.6767  0.1833 -0.0117
  110CHL1  H26A14394   1.859   7.178   6.438  0.2152 -0.5449  0.5724
  110CHL1  H26B14395   1.971   7.107   6.322 -0.8145 -0.6666 -0.3970
  110CHL1  H26C14396   1.804   7.154   6.264  0.7785 -1.1436 -1.7522
  110CHL1   C2714397   1.794   6.874   6.277  0.3688 -0.0143  0.5169
  110CHL1  H27A14398   1.893   6.839   6.241  1.4036  3.8504 -0.8896
  110CHL1  H27B14399   1.725   6.789   6.298 -1.8644  1.7786  0.8482
  110CHL1  H27C14400   1.739   6.918   6.191 -0.3634 -1.6340  0.1000
  111CHL1    C314401   2.567   1.472   7.899  0.6146 -0.4090  0.9236
  111CHL1    H314402   2.604   1.576   7.884 -0.5168 -0.1578 -0.3219
  111CHL1    O314403   2.620   1.425   8.024 -1.0231  0.5259  0.8505
  111CHL1   H3'14404   2.598   1.491   8.090 -1.7602  0.0704  1.0738
  111CHL1    C414405   2.408   1.469   7.910  0.1009 -0.3133 -0.7085
  111CHL1   H4A14406   2.378   1.364   7.930  0.3302 -0.0274  1.3506
  111CHL1   H4B14407   2.375   1.532   7.996  0.8657 -1.3424  0.3655
  111CHL1    C514408   2.345   1.520   7.785  0.6549 -0.0416  0.7016
  111CHL1    C614409   2.257   1.629   7.793 -0.0855 -0.0291  0.4631
  111CHL1    H614410   2.230   1.677   7.889  1.3955 -0.0643  0.9268
  111CHL1    C714411   2.181   1.676   7.673 -0.3929 -0.2319  0.0067
  111CHL1   H7A14412   2.074   1.663   7.702 -0.1760 -0.2564  0.8274
  111CHL1   H7B14413   2.203   1.779   7.639  0.2503  0.0045  1.0916
  111CHL1    C814414   2.202   1.588   7.542  0.1708  0.0157  0.1244
  111CHL1    H814415   2.133   1.501   7.546 -0.1557  0.3012  1.6922
  111CHL1   C1414416   2.175   1.667   7.418  0.0174 -1.3207  0.6078
  111CHL1   H1414417   2.254   1.743   7.403 -1.5061 -0.0702 -1.6015
  111CHL1   C1514418   2.044   1.750   7.417  0.7131 -0.5528 -0.8479
  111CHL1  H15A14419   1.964   1.709   7.481  0.0088  0.8256 -0.8053
  111CHL1  H15B14420   2.071   1.849   7.462  1.7812 -0.3964 -1.7837
  111CHL1   C1614421   2.003   1.759   7.269 -0.7653 -0.3715  0.1019
  111CHL1  H16A14422   1.896   1.740   7.242 -1.1438  2.6291 -0.9538
  111CHL1  H16B14423   2.011   1.864   7.233 -0.1538 -0.5932 -0.4275
  111CHL1   C1714424   2.114   1.685   7.191 -0.4372  0.1039 -0.2554
  111CHL1   H1714425   2.194   1.758   7.166 -0.9389  0.6251 -0.3488
  111CHL1   C1314426   2.177   1.585   7.286 -0.1161  0.7468 -0.1346
  111CHL1   C1814427   2.086   1.457   7.280 -0.0187  0.6846  0.0175
  111CHL1  H18A14428   2.096   1.388   7.367 -0.7906  0.4286 -0.0892
  111CHL1  H18B14429   1.978   1.484   7.281 -0.1087  0.3255  0.1420
  111CHL1  H18C14430   2.111   1.387   7.197 -2.1974 -1.3846  0.9822
  111CHL1   C1214431   2.327   1.547   7.268  0.1759  0.1273 -0.7845
  111CHL1  H12A14432   2.341   1.484   7.178  1.8314 -0.3193 -0.2498
  111CHL1  H12B14433   2.387   1.640   7.268 -0.7852  0.7974  0.9062
  111CHL1   C1114434   2.369   1.465   7.392  0.0732  0.1540  1.1249
  111CHL1  H11A14435   2.321   1.366   7.384 -0.1114  0.2423  1.1334
  111CHL1  H11B14436   2.480   1.454   7.382 -0.3144 -2.1282 -1.9748
  111CHL1    C914437   2.346   1.537   7.529 -0.1293  0.4657 -0.5872
  111CHL1    H914438   2.414   1.625   7.532  2.6289 -1.5277  1.3894
  111CHL1   C1014439   2.393   1.455   7.649 -0.9367 -0.2478  0.2656
  111CHL1   C1914440   2.328   1.312   7.651 -0.1234 -0.3237 -0.4164
  111CHL1  H19A14441   2.227   1.307   7.606 -0.6363  0.3076  0.6232
  111CHL1  H19B14442   2.392   1.244   7.591  0.6289 -1.0282  1.1127
  111CHL1  H19C14443   2.336   1.271   7.754  0.9361  0.7560 -0.0438
  111CHL1    C114444   2.547   1.449   7.647 -0.3799 -0.8763 -0.6905
  111CHL1   H1A14445   2.575   1.382   7.563  2.5776  0.0564 -0.5935
  111CHL1   H1B14446   2.585   1.549   7.616 -0.5909 -0.8106 -0.7399
  111CHL1    C214447   2.608   1.391   7.776  0.2839 -0.1749  0.0596
  111CHL1   H2A14448   2.718   1.402   7.773  0.6413 -2.7196  1.1382
  111CHL1   H2B14449   2.581   1.284   7.794  1.8549 -0.7577 -0.9032
  111CHL1   C2014450   2.062   1.639   7.050 -0.2938 -0.0531 -0.5564
  111CHL1   H2014451   1.982   1.564   7.068 -0.6192  0.4080 -0.0703
  111CHL1   C2114452   2.171   1.556   6.973  0.1134 -0.0505 -0.5035
  111CHL1  H21A14453   2.197   1.460   7.021 -1.9793  0.3563  1.5969
  111CHL1  H21B14454   2.260   1.622   6.964  1.2798 -1.2182  1.6921
  111CHL1  H21C14455   2.128   1.536   6.872  0.2509 -0.7217 -0.4331
  111CHL1   C2214456   2.020   1.761   6.959  0.0956  0.4096 -0.0832
  111CHL1  H22A14457   1.979   1.728   6.861 -0.6257  2.1019 -0.3914
  111CHL1  H22B14458   1.934   1.810   7.009 -0.3216  1.5406 -1.8068
  111CHL1   C2314459   2.135   1.860   6.922  0.0503 -0.0100 -0.1794
  111CHL1  H23A14460   2.204   1.891   7.004  1.3314 -2.6721 -0.1453
  111CHL1  H23B14461   2.208   1.804   6.860  1.2625  2.0918 -0.7640
  111CHL1   C2414462   2.094   1.985   6.854  0.1682  0.4498 -0.1962
  111CHL1  H24A14463   2.172   2.060   6.827 -0.0170  0.2289 -1.4287
  111CHL1  H24B14464   2.038   1.962   6.760 -0.6217  0.1774  0.3305
  111CHL1   C2514465   2.015   2.084   6.945  0.1727 -0.7970 -0.1461
  111CHL1   H2514466   1.938   2.025   7.000 -1.3199 -0.0589 -1.3580
  111CHL1   C2614467   2.091   2.151   7.067 -0.3716 -0.2492  0.1531
  111CHL1  H26A14468   2.018   2.188   7.142  0.0220  1.1714 -0.1325
  111CHL1  H26B14469   2.170   2.087   7.112  1.7974  0.2854 -2.6207
  111CHL1  H26C14470   2.152   2.238   7.035 -0.3873 -0.1778  0.3130
  111CHL1   C2714471   1.934   2.180   6.867  0.3634 -0.4735  0.4201
  111CHL1  H27A14472   1.872   2.245   6.932  1.3054  0.2284  0.6413
  111CHL1  H27B14473   1.993   2.246   6.799 -2.4711  0.3013 -1.4837
  111CHL1  H27C14474   1.878   2.129   6.786 -0.9390  1.0166  0.3275
  112CHL1    C314475   5.221   2.565   8.544  0.4222 -1.1367 -0.2587
  112CHL1    H314476   5.328   2.592   8.529 -0.0981  0.4349 -1.5051
  112CHL1    O314477   5.206   2.573   8.689 -0.0093  0.1880  0.2641
  112CHL1   H3'14478   5.131   2.518   8.712  1.7591 -2.3655  0.3185
  112CHL1    C414479   5.129   2.674   8.482  0.7399 -0.6459  0.2890
  112CHL1   H4A14480   5.027   2.639   8.508 -0.3219  1.1576 -1.1523
  112CHL1   H4B14481   5.145   2.775   8.525  3.8609 -0.4358 -1.1199
  112CHL1    C514482   5.150   2.678   8.330 -0.9347  0.3738 -0.4584
  112CHL1    C614483   5.189   2.788   8.266 -0.1081  0.9542 -0.4722
  112CHL1    H614484   5.192   2.881   8.324  1.8861  0.1237  0.8882
  112CHL1    C714485   5.214   2.791   8.118 -0.0514  0.1916 -0.6511
  112CHL1   H7A14486   5.165   2.880   8.073 -0.8213  1.3177  2.1721
  112CHL1   H7B14487   5.321   2.782   8.090  0.1529  1.4939 -0.3431
  112CHL1    C814488   5.148   2.671   8.039  0.0687  0.0703 -0.5220
  112CHL1    H814489   5.039   2.690   8.037  0.0026  0.3338  2.3753
  112CHL1   C1414490   5.213   2.653   7.903  0.0346  0.8808  0.0123
  112CHL1   H1414491   5.317   2.621   7.924 -0.2163  0.0482  0.0165
  112CHL1   C1514492   5.210   2.780   7.813  0.4728 -0.0587  0.2512
  112CHL1  H15A14493   5.123   2.845   7.836 -0.0928 -0.5296 -0.5002
  112CHL1  H15B14494   5.299   2.841   7.841  0.2420  1.2208 -1.5930
  112CHL1   C1614495   5.201   2.732   7.670 -0.3651  0.4580  0.3291
  112CHL1  H16A14496   5.102   2.766   7.635  0.3273  0.7971 -1.3559
  112CHL1  H16B14497   5.287   2.771   7.611  0.3906  1.7552  2.1790
  112CHL1   C1714498   5.210   2.575   7.677  0.4092  0.2105  0.5091
  112CHL1   H1714499   5.320   2.556   7.685  0.3833 -0.6331 -0.8158
  112CHL1   C1314500   5.152   2.539   7.814  0.0923 -0.6370 -0.0622
  112CHL1   C1814501   4.997   2.560   7.810 -0.2617  0.1443  0.0148
  112CHL1  H18A14502   4.948   2.545   7.909 -1.1973  1.8818 -0.1479
  112CHL1  H18B14503   4.964   2.648   7.751 -1.3906  1.0052  1.8500
  112CHL1  H18C14504   4.947   2.478   7.755  0.8022 -0.0669 -0.6734
  112CHL1   C1214505   5.189   2.407   7.885  0.0399 -0.8056 -0.1783
  112CHL1  H12A14506   5.137   2.324   7.833 -0.8513 -1.0122  0.9984
  112CHL1  H12B14507   5.300   2.394   7.879  1.0078  3.3187  3.3964
  112CHL1   C1114508   5.137   2.410   8.027  0.6783  0.1598 -0.9774
  112CHL1  H11A14509   5.026   2.401   8.031  0.7677 -1.0629 -0.9421
  112CHL1  H11B14510   5.178   2.318   8.075  0.7821  1.1643  0.9853
  112CHL1    C914511   5.175   2.535   8.108 -0.0139  0.2369 -0.0721
  112CHL1    H914512   5.286   2.533   8.108 -0.0168 -1.7027 -0.6769
  112CHL1   C1014513   5.141   2.537   8.260 -0.2311 -0.5186 -0.9264
  112CHL1   C1914514   4.991   2.501   8.267 -1.1839  0.1133 -0.1958
  112CHL1  H19A14515   4.959   2.403   8.226 -2.7106  0.1731  0.7541
  112CHL1  H19B14516   4.957   2.505   8.373  2.4795 -1.4247  1.1998
  112CHL1  H19C14517   4.934   2.584   8.220 -1.3120 -0.3898 -0.9431
  112CHL1    C114518   5.221   2.426   8.341  0.1513 -0.3459 -0.0711
  112CHL1   H1A14519   5.191   2.323   8.313 -0.2216 -0.8292  1.9570
  112CHL1   H1B14520   5.328   2.426   8.309 -0.2447 -1.2077 -1.4605
  112CHL1    C214521   5.183   2.431   8.490 -0.1440  0.1213 -0.1112
  112CHL1   H2A14522   5.232   2.366   8.566 -0.8733  1.1224  1.2407
  112CHL1   H2B14523   5.076   2.402   8.490  0.5935 -3.0036 -0.2863
  112CHL1   C2014524   5.162   2.488   7.561 -0.3114 -0.0485  0.5090
  112CHL1   H2014525   5.061   2.443   7.571 -0.2028 -0.7025 -1.0595
  112CHL1   C2114526   5.260   2.376   7.554 -0.2777 -0.6763  0.2084
  112CHL1  H21A14527   5.274   2.315   7.646  1.7060 -1.3762 -0.5023
  112CHL1  H21B14528   5.356   2.420   7.519 -1.5351  2.1454  0.0379
  112CHL1  H21C14529   5.225   2.302   7.479 -0.0066 -0.9865  0.3867
  112CHL1   C2214530   5.145   2.563   7.421  0.3102  0.2012  0.8516
  112CHL1  H22A14531   5.051   2.622   7.419 -0.1779 -0.5761 -0.4106
  112CHL1  H22B14532   5.226   2.637   7.403 -2.8869  3.4422 -1.8212
  112CHL1   C2314533   5.141   2.475   7.290 -0.2182 -0.5793  0.0709
  112CHL1  H23A14534   5.221   2.398   7.291  0.9519  0.5324 -1.7639
  112CHL1  H23B14535   5.043   2.423   7.280 -0.4939 -0.7705  2.9237
  112CHL1   C2414536   5.157   2.570   7.171 -0.0296 -0.1277  0.3246
  112CHL1  H24A14537   5.090   2.658   7.174  1.3738  1.0355 -0.6294
  112CHL1  H24B14538   5.261   2.611   7.167 -0.1454  0.2026  0.6615
  112CHL1   C2514539   5.133   2.500   7.041 -0.3150  0.3621  0.1529
  112CHL1   H2514540   5.032   2.455   7.027 -0.0424 -0.1451 -0.2395
  112CHL1   C2614541   5.147   2.607   6.934 -0.4810  0.3877 -0.2016
  112CHL1  H26A14542   5.124   2.569   6.833 -0.8076  1.6901 -0.6392
  112CHL1  H26B14543   5.084   2.693   6.966 -2.1371 -2.2084  4.5313
  112CHL1  H26C14544   5.253   2.640   6.925 -0.8352  1.5389 -0.3520
  112CHL1   C2714545   5.225   2.378   7.019  0.3115 -0.5253  0.4947
  112CHL1  H27A14546   5.328   2.419   7.011 -0.5956  1.4910 -3.0944
  112CHL1  H27B14547   5.228   2.311   7.108  0.4646  0.2599  1.0980
  112CHL1  H27C14548   5.206   2.316   6.929  2.3691 -4.0492  2.2739
  113CHL1    C314549   1.405   6.355   7.967  0.1975 -0.1989 -0.4166
  113CHL1    H314550   1.487   6.430   7.961  0.2533 -0.2295 -0.0125
  113CHL1    O314551   1.369   6.327   8.102 -0.3640  0.2034 -0.1051
  113CHL1   H3'14552   1.332   6.238   8.098 -2.6042  0.9944  1.3074
  113CHL1    C414553   1.277   6.393   7.890  0.0141  0.3907  0.2608
  113CHL1   H4A14554   1.196   6.320   7.912  1.1698 -1.3326 -0.9649
  113CHL1   H4B14555   1.239   6.486   7.939 -1.1093 -0.5550  1.2535
  113CHL1    C514556   1.299   6.407   7.745  0.3931 -0.0532  0.3560
  113CHL1    C614557   1.267   6.521   7.681  0.2659  0.1259  1.3119
  113CHL1    H614558   1.228   6.607   7.737 -0.1923  2.7299 -2.5752
  113CHL1    C714559   1.285   6.536   7.533 -0.1539  0.4098  0.1466
  113CHL1   H7A14560   1.214   6.598   7.475  0.0106 -0.0419 -0.5633
  113CHL1   H7B14561   1.380   6.588   7.508 -0.7914  0.9615 -1.2071
  113CHL1    C814562   1.299   6.398   7.452  0.3878 -0.7711  0.3119
  113CHL1    H814563   1.202   6.345   7.455  0.1487 -0.3420  0.1573
  113CHL1   C1414564   1.347   6.422   7.314  0.3786 -0.2426  0.3339
  113CHL1   H1414565   1.438   6.482   7.331 -0.2832  0.4434  1.6007
  113CHL1   C1514566   1.261   6.512   7.213  0.5145  0.3360 -0.1719
  113CHL1  H15A14567   1.152   6.492   7.223 -0.0160  2.6229 -0.7934
  113CHL1  H15B14568   1.266   6.618   7.244 -2.3130  0.5564 -0.1732
  113CHL1   C1614569   1.310   6.482   7.075  0.1018 -0.0554  0.4521
  113CHL1  H16A14570   1.224   6.445   7.016 -0.9903  0.7571  1.4746
  113CHL1  H16B14571   1.362   6.566   7.024  1.1935 -0.9051  0.1364
  113CHL1   C1714572   1.422   6.367   7.095  0.1444 -0.5697  0.4281
  113CHL1   H1714573   1.516   6.423   7.116  0.0799 -0.6697  1.0122
  113CHL1   C1314574   1.389   6.300   7.233 -0.1157 -0.7960 -0.1959
  113CHL1   C1814575   1.266   6.203   7.221 -0.1457  0.2314 -0.0960
  113CHL1  H18A14576   1.184   6.259   7.171 -1.6009 -0.6097  1.2497
  113CHL1  H18B14577   1.275   6.106   7.167  0.3194  0.7055 -0.8864
  113CHL1  H18C14578   1.242   6.173   7.325  0.1232  2.5822  0.7066
  113CHL1   C1214579   1.504   6.223   7.301  0.6046 -0.3199 -0.7201
  113CHL1  H12A14580   1.534   6.125   7.258  0.8774 -0.6268  0.1494
  113CHL1  H12B14581   1.595   6.287   7.299  0.0554  0.9227  3.8000
  113CHL1   C1114582   1.469   6.198   7.449  0.0889 -0.4456  0.4548
  113CHL1  H11A14583   1.409   6.105   7.457  0.5131 -0.7175  0.4899
  113CHL1  H11B14584   1.562   6.160   7.496  0.4460 -1.2990 -0.8671
  113CHL1    C914585   1.410   6.318   7.527 -0.2802  0.7786 -0.6164
  113CHL1    H914586   1.498   6.385   7.539 -0.4842  0.7986  1.0218
  113CHL1   C1014587   1.357   6.284   7.672  0.3521 -0.3682  0.1167
  113CHL1   C1914588   1.258   6.166   7.675  0.4317  0.3597 -0.0936
  113CHL1  H19A14589   1.196   6.158   7.767 -1.4013  0.0418 -1.3000
  113CHL1  H19B14590   1.186   6.194   7.595  0.6897 -0.0889 -0.4825
  113CHL1  H19C14591   1.310   6.072   7.649  1.1936  0.2766  1.6229
  113CHL1    C114592   1.484   6.246   7.751 -0.0384 -0.1437  0.8786
  113CHL1   H1A14593   1.517   6.152   7.702 -1.9061 -0.2107 -0.3734
  113CHL1   H1B14594   1.562   6.321   7.728  1.3766 -1.5404  0.9763
  113CHL1    C214595   1.466   6.224   7.897  0.2012  0.3333 -0.1102
  113CHL1   H2A14596   1.565   6.200   7.942  1.3095 -0.6164 -2.8572
  113CHL1   H2B14597   1.399   6.137   7.913  2.3952 -1.0729  2.3747
  113CHL1   C2014598   1.444   6.281   6.970 -0.4477  0.3320 -0.4928
  113CHL1   H2014599   1.346   6.235   6.947 -1.4666  1.4918  1.2686
  113CHL1   C2114600   1.541   6.164   6.991  1.0545 -0.3852  0.2456
  113CHL1  H21A14601   1.574   6.119   6.895 -0.0266  1.8203 -1.2326
  113CHL1  H21B14602   1.488   6.087   7.051 -0.8379  2.6259  2.8070
  113CHL1  H21C14603   1.635   6.198   7.039  0.6082  1.3603 -0.0545
  113CHL1   C2214604   1.474   6.357   6.839  0.0595  0.0415 -0.0843
  113CHL1  H22A14605   1.389   6.427   6.824  0.7273  1.8502  3.5421
  113CHL1  H22B14606   1.558   6.424   6.869 -0.4022  1.1158 -1.0852
  113CHL1   C2314607   1.502   6.273   6.710  0.1051  0.6398  0.2609
  113CHL1  H23A14608   1.545   6.344   6.636 -1.1887  0.9872 -0.1755
  113CHL1  H23B14609   1.576   6.192   6.731 -0.8665  0.2482  2.4691
  113CHL1   C2414610   1.377   6.214   6.650  0.1702 -0.1613 -0.1455
  113CHL1  H24A14611   1.320   6.145   6.715 -2.4011  0.6124 -1.4579
  113CHL1  H24B14612   1.304   6.295   6.628 -1.6510 -2.1218 -1.7951
  113CHL1   C2514613   1.403   6.140   6.510  0.1489 -0.0857  0.1783
  113CHL1   H2514614   1.465   6.213   6.454  0.4397 -0.0975  0.4835
  113CHL1   C2614615   1.472   6.000   6.519 -0.1916 -0.2669  0.2909
  113CHL1  H26A14616   1.567   6.011   6.576  1.8278 -1.1940 -2.6260
  113CHL1  H26B14617   1.406   5.923   6.563 -0.2858 -0.0513  0.5283
  113CHL1  H26C14618   1.507   5.959   6.422  0.9903 -0.4646  0.7827
  113CHL1   C2714619   1.279   6.124   6.417 -0.4383 -0.1846 -0.3002
  113CHL1  H27A14620   1.300   6.069   6.323  0.4775 -1.7261  0.7783
  113CHL1  H27B14621   1.202   6.069   6.475 -0.3227  1.1179  1.1508
  113CHL1  H27C14622   1.235   6.224   6.395  0.8056  0.5435  0.3901
  114CHL1    C314623   4.505   0.760   8.097  0.1130 -0.0312  0.6739
  114CHL1    H314624   4.461   0.857   8.063  0.5754  0.1489  0.5805
  114CHL1    O314625   4.540   0.777   8.232  0.2132 -0.3798  0.0274
  114CHL1   H3'14626   4.454   0.779   8.273 -0.7572 -3.5554 -1.5748
  114CHL1    C414627   4.401   0.653   8.074  0.1445 -0.4140 -0.0072
  114CHL1   H4A14628   4.436   0.557   8.118 -1.3372 -0.9758 -0.0001
  114CHL1   H4B14629   4.313   0.676   8.138 -0.2819 -0.2077 -0.6499
  114CHL1    C514630   4.368   0.630   7.928 -0.2331 -0.2966 -0.4338
  114CHL1    C614631   4.241   0.631   7.879 -0.0976  0.2274 -0.4428
  114CHL1    H614632   4.151   0.651   7.938 -1.0453 -0.6395 -1.5507
  114CHL1    C714633   4.202   0.607   7.736 -0.2774  0.3095  0.8188
  114CHL1   H7A14634   4.121   0.531   7.727  0.5093 -0.5408  0.7337
  114CHL1   H7B14635   4.163   0.704   7.700  0.8882  0.6048  0.2991
  114CHL1    C814636   4.320   0.552   7.652  0.3863 -0.3150  0.0035
  114CHL1    H814637   4.326   0.443   7.673  2.1699  0.3945  4.3305
  114CHL1   C1414638   4.292   0.573   7.505 -0.0783  0.5081 -0.4954
  114CHL1   H1414639   4.292   0.682   7.482 -4.1638  1.2346  1.8870
  114CHL1   C1514640   4.146   0.540   7.453 -0.3110 -0.3458  0.3271
  114CHL1  H15A14641   4.093   0.450   7.491  1.8566 -1.8765 -0.0728
  114CHL1  H15B14642   4.083   0.625   7.486 -0.4427 -0.8046  1.2919
  114CHL1   C1614643   4.169   0.539   7.300 -0.1634 -0.6118  0.5638
  114CHL1  H16A14644   4.151   0.434   7.268 -1.1532 -0.1410 -0.4613
  114CHL1  H16B14645   4.104   0.605   7.239  1.3390  0.5320  0.1323
  114CHL1   C1714646   4.329   0.563   7.275 -0.5191  0.0394  0.1536
  114CHL1   H1714647   4.345   0.673   7.267  2.4181 -0.3178  0.2975
  114CHL1   C1314648   4.399   0.522   7.406  0.3033 -0.6912  0.7552
  114CHL1   C1814649   4.413   0.369   7.414 -0.7109 -0.2655 -0.1456
  114CHL1  H18A14650   4.449   0.337   7.514 -0.3126 -1.4926 -0.6654
  114CHL1  H18B14651   4.321   0.311   7.393 -1.0156  0.3069 -0.4337
  114CHL1  H18C14652   4.487   0.322   7.347  0.1254  0.5911  0.1455
  114CHL1   C1214653   4.524   0.603   7.447  0.2979  0.3647 -0.1697
  114CHL1  H12A14654   4.608   0.578   7.378  0.4206  0.1100  0.0727
  114CHL1  H12B14655   4.498   0.710   7.436 -0.6938 -0.0277 -2.1708
  114CHL1   C1114656   4.568   0.590   7.598 -0.2399  0.4569  0.1461
  114CHL1  H11A14657   4.594   0.485   7.620 -1.9493  0.1444  0.8740
  114CHL1  H11B14658   4.656   0.656   7.614 -0.0575  0.6001 -1.2942
  114CHL1    C914659   4.450   0.626   7.686  0.4517  0.0677  0.0058
  114CHL1    H914660   4.434   0.734   7.666  0.6350  0.0644 -0.1612
  114CHL1   C1014661   4.493   0.611   7.839 -0.3360 -0.3701  0.2331
  114CHL1   C1914662   4.557   0.473   7.862 -0.1520  0.1387  0.0733
  114CHL1  H19A14663   4.498   0.399   7.804 -1.1522  0.9089  0.0769
  114CHL1  H19B14664   4.657   0.472   7.814  0.2922  1.1424  0.9147
  114CHL1  H19C14665   4.562   0.436   7.967  0.6606  0.1442  0.0426
  114CHL1    C114666   4.594   0.727   7.869  0.3575  0.6859 -0.3196
  114CHL1   H1A14667   4.692   0.712   7.818  1.0039  0.0347  1.0410
  114CHL1   H1B14668   4.556   0.825   7.836  1.1788  0.6732 -1.3729
  114CHL1    C214669   4.628   0.746   8.022  0.0613 -0.1602  0.4195
  114CHL1   H2A14670   4.699   0.831   8.030  0.4723 -0.0460 -2.9091
  114CHL1   H2B14671   4.678   0.653   8.058  1.4271  0.2826 -0.2724
  114CHL1   C2014672   4.370   0.492   7.146  0.2749  0.1523 -0.3281
  114CHL1   H2014673   4.358   0.382   7.155 -0.7258  0.4000  3.2316
  114CHL1   C2114674   4.515   0.529   7.101 -0.2500  0.0160 -0.2426
  114CHL1  H21A14675   4.581   0.503   7.186 -1.8809 -2.3781  0.4013
  114CHL1  H21B14676   4.521   0.638   7.078  1.1758 -0.1800 -0.9340
  114CHL1  H21C14677   4.539   0.477   7.005 -1.5946  0.5201 -0.8857
  114CHL1   C2214678   4.269   0.534   7.028  0.1128 -0.2947 -0.3949
  114CHL1  H22A14679   4.175   0.478   7.049 -0.4784  0.8392  0.0663
  114CHL1  H22B14680   4.251   0.641   7.005 -0.6897 -0.3457 -0.0512
  114CHL1   C2314681   4.311   0.470   6.889  0.1607  0.3846  0.3511
  114CHL1  H23A14682   4.384   0.534   6.836  1.2210  0.8497  2.2548
  114CHL1  H23B14683   4.356   0.372   6.917  0.2304  0.6201  1.1021
  114CHL1   C2414684   4.193   0.445   6.799  0.8649 -0.2633 -0.2536
  114CHL1  H24A14685   4.108   0.412   6.862  0.7094  0.5867 -0.0020
  114CHL1  H24B14686   4.157   0.542   6.759  2.1883  1.6118  2.7058
  114CHL1   C2514687   4.221   0.353   6.671  0.3098 -0.6872 -0.1196
  114CHL1   H2514688   4.257   0.254   6.708  0.1703  0.3648  3.1548
  114CHL1   C2614689   4.091   0.325   6.600  0.7088  0.1789 -0.2609
  114CHL1  H26A14690   4.029   0.285   6.683  1.5742 -0.5181  0.0647
  114CHL1  H26B14691   4.038   0.420   6.575 -0.2004 -0.0872  0.5752
  114CHL1  H26C14692   4.092   0.268   6.505 -0.6013  2.0505 -1.4848
  114CHL1   C2714693   4.328   0.420   6.585 -0.6025 -0.7801 -0.3212
  114CHL1  H27A14694   4.308   0.526   6.558  0.6114  0.0747  1.8665
  114CHL1  H27B14695   4.431   0.426   6.626 -0.2849  2.4418 -1.2862
  114CHL1  H27C14696   4.340   0.363   6.491  0.5386 -1.3144  0.1328
  115CHL1    C314697   1.484   1.802   8.068  0.2851 -0.0121 -0.0812
  115CHL1    H314698   1.455   1.705   8.023  2.9882 -1.0802  0.2818
  115CHL1    O314699   1.490   1.777   8.212  0.5135 -0.2477  0.2380
  115CHL1   H3'14700   1.442   1.846   8.257  0.1246 -0.7441  0.5917
  115CHL1    C414701   1.609   1.857   8.012 -1.3632  0.2543 -0.0737
  115CHL1   H4A14702   1.641   1.950   8.064 -0.2333  0.3298 -0.8708
  115CHL1   H4B14703   1.692   1.786   8.035 -0.4659  0.6691 -1.8546
  115CHL1    C514704   1.616   1.882   7.863  0.4077 -0.1212 -0.6223
  115CHL1    C614705   1.695   1.819   7.773 -0.1715 -0.3030 -0.0995
  115CHL1    H614706   1.775   1.755   7.814  1.0043  1.8982  1.2200
  115CHL1    C714707   1.691   1.839   7.629 -0.1426 -0.5555 -1.1461
  115CHL1   H7A14708   1.794   1.828   7.588  1.3562  0.2531  2.0662
  115CHL1   H7B14709   1.639   1.761   7.570 -0.6424 -0.5670 -0.6966
  115CHL1    C814710   1.622   1.968   7.593 -0.5077  1.0175 -0.0166
  115CHL1    H814711   1.690   2.054   7.613  0.5835  0.8095 -2.4109
  115CHL1   C1414712   1.596   1.977   7.445  0.1044 -0.5684  0.5197
  115CHL1   H1414713   1.522   1.897   7.422  0.0739 -0.1618 -0.9210
  115CHL1   C1514714   1.722   1.955   7.349 -0.2375  0.6804 -0.3593
  115CHL1  H15A14715   1.814   2.005   7.386  1.5018 -0.4613 -2.8730
  115CHL1  H15B14716   1.750   1.850   7.328  1.0424  1.0340 -0.4754
  115CHL1   C1614717   1.677   2.022   7.222 -0.2453  0.0448  0.1175
  115CHL1  H16A14718   1.745   2.106   7.195 -0.5137 -0.0324 -0.8347
  115CHL1  H16B14719   1.677   1.949   7.138  1.8155 -0.3640  0.4075
  115CHL1   C1714720   1.532   2.082   7.241  0.9344 -0.3909 -0.1046
  115CHL1   H1714721   1.454   2.007   7.217  0.1869  0.1809  0.5011
  115CHL1   C1314722   1.528   2.103   7.392  0.4311  0.1148  0.3404
  115CHL1   C1814723   1.622   2.223   7.427 -0.0389  0.0510  0.2004
  115CHL1  H18A14724   1.581   2.310   7.372  0.7778  0.5464  0.3493
  115CHL1  H18B14725   1.628   2.238   7.537  0.2321  1.8303 -0.0322
  115CHL1  H18C14726   1.729   2.210   7.399 -0.3055 -1.4392 -0.2321
  115CHL1   C1214727   1.393   2.108   7.453  0.5949  0.0931  0.1487
  115CHL1  H12A14728   1.348   2.204   7.421 -1.2159 -0.6729  0.2465
  115CHL1  H12B14729   1.330   2.028   7.407  0.8003  1.3688 -2.5184
  115CHL1   C1114730   1.401   2.091   7.609 -0.0669  0.0373  0.4177
  115CHL1  H11A14731   1.438   2.188   7.647  0.8659  0.8213 -2.2582
  115CHL1  H11B14732   1.294   2.068   7.631 -0.2690  0.5832  0.0253
  115CHL1    C914733   1.496   1.977   7.665  0.6908  0.1783  0.1705
  115CHL1    H914734   1.439   1.886   7.637  3.0641 -1.5047  0.5049
  115CHL1   C1014735   1.508   1.974   7.814  0.3779  0.0260 -0.0545
  115CHL1   C1914736   1.541   2.120   7.864 -0.6483  0.0706 -0.5796
  115CHL1  H19A14737   1.634   2.152   7.812 -0.1032 -1.4276 -0.5948
  115CHL1  H19B14738   1.459   2.194   7.855 -0.1264  0.5058 -1.9541
  115CHL1  H19C14739   1.561   2.115   7.974 -1.3103 -0.2562 -0.4690
  115CHL1    C114740   1.369   1.936   7.884 -0.3459  0.6644 -0.1660
  115CHL1   H1A14741   1.291   2.014   7.872 -2.1620 -0.9433  0.7218
  115CHL1   H1B14742   1.312   1.857   7.831  1.5453  0.1343 -1.5188
  115CHL1    C214743   1.381   1.906   8.037  0.0571 -0.4984 -0.8180
  115CHL1   H2A14744   1.283   1.877   8.081 -0.4783  2.8609  0.4770
  115CHL1   H2B14745   1.414   2.000   8.085 -0.1722  0.3726 -2.2966
  115CHL1   C2014746   1.500   2.197   7.136 -0.2538  0.0562 -0.0458
  115CHL1   H2014747   1.558   2.288   7.163 -0.1050 -0.4499  1.4306
  115CHL1   C2114748   1.352   2.235   7.138  0.4310 -0.0542 -0.2702
  115CHL1  H21A14749   1.321   2.311   7.063  1.5305 -0.0203 -0.7071
  115CHL1  H21B14750   1.335   2.293   7.232  0.3678 -0.9440  0.2842
  115CHL1  H21C14751   1.289   2.144   7.142  1.6813 -0.9915  4.3505
  115CHL1   C2214752   1.523   2.159   6.992  0.2373 -0.8112  0.1414
  115CHL1  H22A14753   1.479   2.243   6.933  1.3522 -0.7374 -0.6240
  115CHL1  H22B14754   1.631   2.162   6.964  0.0729  1.2976 -0.4287
  115CHL1   C2314755   1.462   2.032   6.942 -0.1095  0.0377  0.0712
  115CHL1  H23A14756   1.499   1.945   7.000 -0.2764  0.6980  1.1882
  115CHL1  H23B14757   1.353   2.029   6.964  0.0797 -3.2013  1.1963
  115CHL1   C2414758   1.482   1.998   6.796  0.1096  0.3247 -0.0665
  115CHL1  H24A14759   1.434   1.900   6.778 -0.6158  1.0351 -2.3449
  115CHL1  H24B14760   1.417   2.068   6.739 -0.7309 -1.5026 -1.4487
  115CHL1   C2514761   1.623   1.999   6.736 -0.8000 -0.1641  0.6874
  115CHL1   H2514762   1.681   2.083   6.780 -0.3733 -0.1642  0.1440
  115CHL1   C2614763   1.689   1.866   6.766 -0.1867  0.0363  0.2236
  115CHL1  H26A14764   1.696   1.860   6.877 -1.6852 -2.0542  0.2682
  115CHL1  H26B14765   1.626   1.781   6.734 -0.0927  0.3479 -0.8023
  115CHL1  H26C14766   1.795   1.865   6.732  0.2387  2.3747  1.3183
  115CHL1   C2714767   1.619   2.024   6.578 -0.0344 -0.6575  0.4074
  115CHL1  H27A14768   1.596   2.130   6.555  0.7897 -0.8829 -1.6702
  115CHL1  H27B14769   1.710   1.997   6.520 -0.7733  1.5347 -1.9273
  115CHL1  H27C14770   1.539   1.958   6.541  1.3474 -2.5099  0.5669
  116CHL1    C314771   2.976   1.522   7.995  0.1595  0.0156  0.0855
  116CHL1    H314772   2.871   1.485   7.996  0.5291 -1.1422  1.9173
  116CHL1    O314773   3.024   1.517   8.132  0.9212  0.1996  0.6449
  116CHL1   H3'14774   3.029   1.424   8.152  0.5792  0.3806  1.6309
  116CHL1    C414775   3.072   1.447   7.898  0.6068 -0.4229 -0.5651
  116CHL1   H4A14776   3.175   1.472   7.931  0.3272 -1.6600  1.4440
  116CHL1   H4B14777   3.065   1.342   7.934  1.8136 -0.0849  0.7125
  116CHL1    C514778   3.042   1.454   7.750  0.4274 -0.0414 -0.2778
  116CHL1    C614779   3.018   1.345   7.683 -0.1589  0.6833 -0.1310
  116CHL1    H614780   3.018   1.251   7.741 -0.2791  1.0962  0.5522
  116CHL1    C714781   2.979   1.338   7.537 -0.2934  0.6743 -0.1425
  116CHL1   H7A14782   3.027   1.255   7.482 -2.9695 -0.6517 -0.6349
  116CHL1   H7B14783   2.874   1.302   7.542 -0.0186 -1.1681 -4.0109
  116CHL1    C814784   2.986   1.475   7.468  0.5855 -0.2634 -0.1716
  116CHL1    H814785   3.089   1.500   7.434  0.3658  1.7155  0.5330
  116CHL1   C1414786   2.893   1.475   7.344 -0.1176  0.8009 -0.5775
  116CHL1   H1414787   2.789   1.462   7.381  1.0755 -0.6917  2.5839
  116CHL1   C1514788   2.899   1.356   7.243  0.1250 -0.1947  0.7195
  116CHL1  H15A14789   2.998   1.345   7.196 -1.3400  0.2656 -2.7804
  116CHL1  H15B14790   2.870   1.254   7.278  2.9975 -1.0682  0.7917
  116CHL1   C1614791   2.810   1.416   7.132  0.5230 -0.1426  0.0450
  116CHL1  H16A14792   2.851   1.388   7.032  0.1689 -0.3595 -0.0425
  116CHL1  H16B14793   2.714   1.360   7.135  0.4722 -0.0212  1.5108
  116CHL1   C1714794   2.789   1.569   7.156  0.5019  0.2094 -0.5642
  116CHL1   H1714795   2.692   1.585   7.209 -0.0408 -1.5262 -0.9645
  116CHL1   C1314796   2.894   1.607   7.259 -0.5351  0.2829 -0.4557
  116CHL1   C1814797   3.032   1.632   7.188  0.0077 -0.2427  0.0256
  116CHL1  H18A14798   3.029   1.560   7.103 -0.6922 -2.1634  1.6082
  116CHL1  H18B14799   3.040   1.739   7.160  0.6986 -0.2105  0.3220
  116CHL1  H18C14800   3.118   1.601   7.251  1.3532  2.3089 -0.4305
  116CHL1   C1214801   2.855   1.719   7.360 -0.8543  0.0513  0.0305
  116CHL1  H12A14802   2.851   1.814   7.302 -0.3433  0.6532  0.9567
  116CHL1  H12B14803   2.753   1.700   7.399 -1.5218  1.4950 -0.9231
  116CHL1   C1114804   2.939   1.727   7.486  0.1230  0.1835  0.8074
  116CHL1  H11A14805   3.041   1.762   7.462  0.6527 -2.3713 -1.1048
  116CHL1  H11B14806   2.888   1.796   7.558  1.8145  0.7256  1.5386
  116CHL1    C914807   2.949   1.590   7.561  0.3725 -0.3078  1.1396
  116CHL1    H914808   2.844   1.565   7.587  0.3209 -1.2934  0.1126
  116CHL1   C1014809   3.023   1.586   7.696 -0.6592 -0.0525 -0.3672
  116CHL1   C1914810   3.164   1.646   7.672 -0.3984  0.5119  0.4501
  116CHL1  H19A14811   3.170   1.740   7.613  2.9259 -0.5930 -1.2443
  116CHL1  H19B14812   3.212   1.662   7.771  0.8009  1.7950 -0.3061
  116CHL1  H19C14813   3.232   1.576   7.618 -1.1381  0.0963  0.0392
  116CHL1    C114814   2.941   1.674   7.792  0.6431  0.6306 -0.2746
  116CHL1   H1A14815   2.958   1.779   7.759  0.2535 -0.2386 -3.6941
  116CHL1   H1B14816   2.835   1.655   7.767  0.3069  2.0565  0.0003
  116CHL1    C214817   2.973   1.661   7.941  0.1716 -0.7191 -0.3506
  116CHL1   H2A14818   2.908   1.722   8.008 -0.2059 -2.6945  1.2063
  116CHL1   H2B14819   3.076   1.702   7.951 -0.6231  1.7655 -1.5746
  116CHL1   C2014820   2.772   1.651   7.023  0.1715  0.4494  0.0046
  116CHL1   H2014821   2.866   1.670   6.967 -0.2076 -0.8726 -1.1552
  116CHL1   C2114822   2.725   1.796   7.060 -0.3790 -0.3599  0.0827
  116CHL1  H21A14823   2.798   1.864   7.108 -0.3939 -1.6499  2.0448
  116CHL1  H21B14824   2.634   1.781   7.122  0.6414 -1.2517  1.4356
  116CHL1  H21C14825   2.691   1.841   6.964  1.1179 -0.3079 -0.4486
  116CHL1   C2214826   2.671   1.589   6.925  0.8014  0.0771  0.5422
  116CHL1  H22A14827   2.677   1.478   6.915  1.3696  0.1098  0.5015
  116CHL1  H22B14828   2.567   1.611   6.959 -0.4263 -3.7664 -0.2012
  116CHL1   C2314829   2.690   1.629   6.781  0.2025  0.0460  0.3678
  116CHL1  H23A14830   2.695   1.738   6.761  0.4023  0.1587  1.0102
  116CHL1  H23B14831   2.782   1.581   6.743  1.2617  1.2356  1.3676
  116CHL1   C2414832   2.569   1.593   6.698  0.0441  0.4199 -0.0355
  116CHL1  H24A14833   2.607   1.600   6.594 -1.2197 -0.8895 -0.6214
  116CHL1  H24B14834   2.545   1.484   6.701 -1.0790  0.3316 -4.6347
  116CHL1   C2514835   2.450   1.680   6.713 -0.2444  0.8394  0.3322
  116CHL1   H2514836   2.447   1.699   6.822  1.2561  0.9018  0.3773
  116CHL1   C2614837   2.463   1.826   6.648  0.6064  0.2288  0.1055
  116CHL1  H26A14838   2.372   1.884   6.674 -1.0403 -2.2874  0.2716
  116CHL1  H26B14839   2.553   1.884   6.678 -0.5927  1.7879  0.8921
  116CHL1  H26C14840   2.465   1.806   6.539 -1.8305  1.8193 -0.3252
  116CHL1   C2714841   2.324   1.619   6.656  1.0113  0.2802 -0.7011
  116CHL1  H27A14842   2.338   1.587   6.551  1.7339 -1.4210 -0.1165
  116CHL1  H27B14843   2.310   1.525   6.713  2.3598 -0.2555 -1.2079
  116CHL1  H27C14844   2.239   1.690   6.671  1.3268  0.1831  1.9304
  117CHL1    C314845   4.981   1.707   7.788  0.0612  0.2319 -0.3159
  117CHL1    H314846   5.091   1.708   7.778 -0.0381  2.4044 -1.9414
  117CHL1    O314847   4.941   1.766   7.912 -0.3042  0.7848 -0.3445
  117CHL1   H3'14848   4.845   1.766   7.914 -0.2978  0.2672  0.7151
  117CHL1    C414849   4.918   1.798   7.675 -0.0675  0.1047 -0.3016
  117CHL1   H4A14850   4.808   1.806   7.684 -0.0198 -0.5479  1.2022
  117CHL1   H4B14851   4.963   1.898   7.695 -0.6064  0.4502 -0.7883
  117CHL1    C514852   4.956   1.733   7.540  0.3873  0.7104 -0.5125
  117CHL1    C614853   5.021   1.803   7.447  0.5677 -0.3918 -0.1763
  117CHL1    H614854   5.039   1.909   7.469 -0.3889  0.1262 -1.7073
  117CHL1    C714855   5.053   1.751   7.308  0.4606  0.2012 -0.3692
  117CHL1   H7A14856   5.027   1.833   7.237 -1.1211 -0.1035 -0.1620
  117CHL1   H7B14857   5.161   1.724   7.299 -0.2522 -2.6615 -1.3440
  117CHL1    C814858   4.977   1.624   7.269 -0.2248 -0.2934 -0.0844
  117CHL1    H814859   4.871   1.653   7.250 -0.8383 -2.4265 -0.2053
  117CHL1   C1414860   5.051   1.566   7.146 -0.0740  0.1224 -0.4500
  117CHL1   H1414861   5.151   1.538   7.186 -0.4589  1.7081  1.7779
  117CHL1   C1514862   5.063   1.657   7.024 -0.0740  1.0213 -0.0458
  117CHL1  H15A14863   4.967   1.703   6.995  0.0762  1.1261 -0.3772
  117CHL1  H15B14864   5.138   1.738   7.033  0.4915  0.3313  2.0768
  117CHL1   C1614865   5.112   1.551   6.922 -0.0496  0.1929  0.4995
  117CHL1  H16A14866   5.047   1.581   6.837  1.5564 -0.6820 -1.0974
  117CHL1  H16B14867   5.218   1.560   6.888 -0.3034  0.8303 -0.1528
  117CHL1   C1714868   5.080   1.406   6.980  0.0335 -0.3092  0.8242
  117CHL1   H1714869   5.182   1.370   7.000  0.5763 -1.5152 -3.1752
  117CHL1   C1314870   4.996   1.433   7.107  0.0547  0.3579  0.5613
  117CHL1   C1814871   4.853   1.444   7.072  0.9853 -0.4346  0.0551
  117CHL1  H18A14872   4.831   1.523   6.997 -1.7252 -2.5613 -1.6149
  117CHL1  H18B14873   4.799   1.356   7.030 -3.6969  1.1625  2.0826
  117CHL1  H18C14874   4.787   1.473   7.157  1.4688  1.1966 -0.1088
  117CHL1   C1214875   5.011   1.326   7.222  0.3436 -0.6674 -0.6360
  117CHL1  H12A14876   4.970   1.226   7.199 -1.7297 -0.4579  1.6387
  117CHL1  H12B14877   5.120   1.328   7.244 -0.2832 -0.4077  3.2115
  117CHL1   C1114878   4.943   1.383   7.356  0.6654  0.3092 -0.4103
  117CHL1  H11A14879   4.833   1.376   7.342  0.2374 -0.8400  2.7981
  117CHL1  H11B14880   4.970   1.317   7.442  0.3239  0.5556 -0.1120
  117CHL1    C914881   4.985   1.526   7.385 -0.4181  0.1057  0.3516
  117CHL1    H914882   5.092   1.509   7.408 -0.7461 -1.3252  0.9782
  117CHL1   C1014883   4.926   1.586   7.519  0.0600  0.5293  0.6890
  117CHL1   C1914884   4.770   1.573   7.511  0.4434 -0.1718  0.3366
  117CHL1  H19A14885   4.715   1.625   7.592 -0.9781 -0.8915 -0.1263
  117CHL1  H19B14886   4.727   1.621   7.421 -1.1199 -0.7535  0.7449
  117CHL1  H19C14887   4.732   1.469   7.514 -0.5215  0.1715  0.3878
  117CHL1    C114888   4.972   1.500   7.638  0.1272  0.7067 -0.5909
  117CHL1   H1A14889   4.932   1.397   7.630  1.2670  0.2193 -0.1538
  117CHL1   H1B14890   5.082   1.498   7.626  0.1323  0.1899 -0.4412
  117CHL1    C214891   4.937   1.558   7.777  0.8431 -0.3200  0.4452
  117CHL1   H2A14892   4.991   1.501   7.855 -0.0873 -0.3137  1.1089
  117CHL1   H2B14893   4.827   1.543   7.787  1.1721 -2.2383  1.4342
  117CHL1   C2014894   5.030   1.312   6.871  0.2448  0.0330  0.6726
  117CHL1   H2014895   4.923   1.329   6.845  0.0849 -1.3478  0.3150
  117CHL1   C2114896   5.024   1.164   6.907 -0.6512  0.4316 -0.2389
  117CHL1  H21A14897   4.956   1.160   6.995 -0.8156  3.3042 -0.1247
  117CHL1  H21B14898   5.125   1.128   6.938 -0.8865  0.8604  1.1129
  117CHL1  H21C14899   4.981   1.095   6.831  1.2833 -1.7514  0.5253
  117CHL1   C2214900   5.111   1.324   6.733 -0.2365 -0.2035  0.6931
  117CHL1  H22A14901   5.121   1.432   6.708  1.7417 -0.6180 -0.6351
  117CHL1  H22B14902   5.210   1.276   6.744 -0.6404 -1.4627 -0.8005
  117CHL1   C2314903   5.042   1.270   6.596 -0.0468  0.0338 -0.6649
  117CHL1  H23A14904   5.022   1.161   6.608 -0.3088  0.3501  2.7254
  117CHL1  H23B14905   4.947   1.327   6.590 -1.0357 -1.4093  0.4022
  117CHL1   C2414906   5.133   1.292   6.480  0.4599 -0.1007  0.1884
  117CHL1  H24A14907   5.162   1.399   6.475 -1.5438  0.4797 -0.1263
  117CHL1  H24B14908   5.226   1.232   6.477  0.0441 -0.7458 -0.1437
  117CHL1   C2514909   5.071   1.271   6.334  0.4699  0.2058 -0.4109
  117CHL1   H2514910   4.987   1.344   6.335  0.6018  0.4658  2.8263
  117CHL1   C2614911   5.170   1.316   6.232  0.2718 -0.3580 -0.5697
  117CHL1  H26A14912   5.262   1.255   6.225  0.2838 -0.4353  0.1506
  117CHL1  H26B14913   5.123   1.320   6.132 -0.4967 -1.6736 -0.2867
  117CHL1  H26C14914   5.204   1.417   6.262 -0.2345  0.5065 -2.7427
  117CHL1   C2714915   5.011   1.134   6.301  0.1955 -0.4585  0.4237
  117CHL1  H27A14916   4.941   1.149   6.216 -2.5488 -0.7892  2.4883
  117CHL1  H27B14917   5.095   1.064   6.281  0.9324  0.4716  0.1933
  117CHL1  H27C14918   4.956   1.084   6.383  0.3921 -0.2682  0.6754
  118CHL1    C314919   0.840   2.723   8.423  0.7089 -0.2574 -0.1479
  118CHL1    H314920   0.909   2.810   8.426  0.0651  0.3352 -1.4962
  118CHL1    O314921   0.809   2.663   8.549 -0.1278  0.0179 -0.3048
  118CHL1   H3'14922   0.787   2.572   8.530 -1.1345 -0.3682  2.3039
  118CHL1    C414923   0.707   2.781   8.365 -0.0965  0.0953 -0.2169
  118CHL1   H4A14924   0.625   2.706   8.370 -0.5828  0.4447 -2.0405
  118CHL1   H4B14925   0.671   2.873   8.416 -0.4918  0.2972 -0.8482
  118CHL1    C514926   0.721   2.817   8.215  0.0714  0.5355 -0.4431
  118CHL1    C614927   0.690   2.934   8.170  0.4531  0.3227  0.9720
  118CHL1    H614928   0.636   3.000   8.239  0.6958 -0.3130  1.7941
  118CHL1    C714929   0.686   2.971   8.018  0.3803  0.0239  0.1600
  118CHL1   H7A14930   0.590   3.026   8.003 -0.4510 -1.1771  0.9554
  118CHL1   H7B14931   0.766   3.045   7.993 -0.6158  0.4457 -1.9966
  118CHL1    C814932   0.704   2.848   7.926 -0.3748 -0.0096 -0.3638
  118CHL1    H814933   0.610   2.789   7.920  0.1409 -0.8200 -0.7849
  118CHL1   C1414934   0.729   2.882   7.785  0.4881  0.5064  0.3577
  118CHL1   H1414935   0.829   2.931   7.789  0.1497  1.3138 -0.8021
  118CHL1   C1514936   0.628   2.980   7.720 -0.3318 -0.5012  0.2390
  118CHL1  H15A14937   0.520   2.957   7.737 -0.3304 -0.9466 -0.3244
  118CHL1  H15B14938   0.642   3.083   7.761  0.2951  0.5490 -2.4146
  118CHL1   C1614939   0.664   2.977   7.571  0.1031 -0.5608 -0.5190
  118CHL1  H16A14940   0.580   2.975   7.499 -0.3830  0.8080 -0.0225
  118CHL1  H16B14941   0.723   3.065   7.538 -1.8986  0.9888 -0.1416
  118CHL1   C1714942   0.771   2.858   7.555  0.1190 -0.4217  0.5370
  118CHL1   H1714943   0.874   2.898   7.564  0.2241 -0.8977  1.6186
  118CHL1   C1314944   0.747   2.772   7.680  0.1472 -0.2159 -0.7142
  118CHL1   C1814945   0.613   2.681   7.668 -0.7048  0.1525 -0.0694
  118CHL1  H18A14946   0.566   2.647   7.763  0.0696 -1.3201 -0.1830
  118CHL1  H18B14947   0.528   2.720   7.609 -0.4525  1.9005  0.6479
  118CHL1  H18C14948   0.650   2.586   7.623  1.6858  1.3118 -0.7636
  118CHL1   C1214949   0.866   2.685   7.732  0.3899  0.4445 -0.1215
  118CHL1  H12A14950   0.886   2.591   7.677 -1.3860 -0.3052  0.4250
  118CHL1  H12B14951   0.960   2.743   7.727  0.9374 -0.3373  0.8185
  118CHL1   C1114952   0.850   2.644   7.878 -0.1086  0.1474 -0.3247
  118CHL1  H11A14953   0.762   2.577   7.872 -0.3677  0.4374  0.1520
  118CHL1  H11B14954   0.947   2.595   7.901  1.1114  2.6216  0.1779
  118CHL1    C914955   0.816   2.756   7.981  0.5074  0.5718 -0.2545
  118CHL1    H914956   0.910   2.814   7.992  2.4311 -2.5855  1.3058
  118CHL1   C1014957   0.785   2.707   8.124  0.3649  0.2995 -0.9727
  118CHL1   C1914958   0.684   2.586   8.111 -0.3886  0.1800  0.4819
  118CHL1  H19A14959   0.674   2.540   8.211 -0.2153 -1.2919 -0.1578
  118CHL1  H19B14960   0.593   2.628   8.063 -0.0116 -0.3359 -0.7193
  118CHL1  H19C14961   0.730   2.505   8.050 -0.1670  0.6967 -0.0540
  118CHL1    C114962   0.917   2.657   8.191  0.1581  0.1162  0.0156
  118CHL1   H1A14963   0.946   2.572   8.125 -2.3701 -1.0340  0.2458
  118CHL1   H1B14964   0.990   2.741   8.186  0.8586 -0.1981  3.1535
  118CHL1    C214965   0.901   2.612   8.337 -0.0121 -0.4330  0.1677
  118CHL1   H2A14966   1.000   2.592   8.383 -0.8604  0.8501  2.7385
  118CHL1   H2B14967   0.836   2.522   8.340 -0.2537 -0.3443 -1.4385
  118CHL1   C2014968   0.763   2.794   7.420 -0.3401 -0.0055 -0.4615
  118CHL1   H2014969   0.664   2.744   7.416 -0.9770  1.2274 -0.4204
  118CHL1   C2114970   0.865   2.677   7.406 -0.1740 -0.4670 -0.2266
  118CHL1  H21A14971   0.863   2.633   7.304 -0.5841 -1.0063  0.0106
  118CHL1  H21B14972   0.849   2.598   7.482  5.0793 -0.1111  1.6670
  118CHL1  H21C14973   0.971   2.710   7.420  0.0414 -0.7260 -1.1340
  118CHL1   C2214974   0.789   2.892   7.305 -0.6095  0.5513 -0.2168
  118CHL1  H22A14975   0.705   2.965   7.302 -0.6966  0.4483 -0.2984
  118CHL1  H22B14976   0.877   2.955   7.329 -1.0742  0.9144  0.5769
  118CHL1   C2314977   0.824   2.841   7.166 -0.8981 -0.5884  0.1307
  118CHL1  H23A14978   0.922   2.793   7.187  0.3817  2.2445  1.2151
  118CHL1  H23B14979   0.743   2.772   7.134 -0.3635 -0.6135 -1.2288
  118CHL1   C2414980   0.846   2.948   7.058 -0.7726 -0.0034 -0.4847
  118CHL1  H24A14981   0.838   3.047   7.107 -1.3268 -0.9542  1.4320
  118CHL1  H24B14982   0.939   2.938   6.998 -0.0038  3.2405 -0.0344
  118CHL1   C2514983   0.735   2.972   6.951  0.4823  0.7470  0.4424
  118CHL1   H2514984   0.644   2.999   7.009  0.2415  3.3219 -0.9909
  118CHL1   C2614985   0.777   3.089   6.856  0.2522  0.1742  0.5692
  118CHL1  H26A14986   0.693   3.133   6.799  1.0605  0.4318 -0.4689
  118CHL1  H26B14987   0.830   3.170   6.911  1.1377 -1.4903  2.2774
  118CHL1  H26C14988   0.843   3.052   6.774  0.2590  2.5813 -0.5959
  118CHL1   C2714989   0.702   2.846   6.876  0.3695  0.3463 -0.8222
  118CHL1  H27A14990   0.609   2.842   6.816 -0.7772 -0.1486  0.9366
  118CHL1  H27B14991   0.789   2.817   6.813  1.4064  0.6595  0.4080
  118CHL1  H27C14992   0.705   2.761   6.947 -0.9036 -0.0132 -1.1794
  119CHL1    C314993   1.363   1.392   7.855 -0.3816  0.1808 -0.3994
  119CHL1    H314994   1.415   1.297   7.829 -1.5965 -0.8569  0.8174
  119CHL1    O314995   1.345   1.401   7.994 -0.0480 -0.1899  0.2898
  119CHL1   H3'14996   1.289   1.479   8.000 -0.0049  0.2769 -3.1199
  119CHL1    C414997   1.471   1.500   7.816 -0.2013  0.2756  0.2545
  119CHL1   H4A14998   1.430   1.600   7.842 -1.7977 -0.3238  0.1713
  119CHL1   H4B14999   1.567   1.488   7.870  0.5609  2.8834 -0.3623
  119CHL1    C515000   1.491   1.498   7.668  0.7600  0.6731  0.3127
  119CHL1    C615001   1.614   1.499   7.613  0.0771 -0.2038  0.5303
  119CHL1    H615002   1.703   1.518   7.675  2.3375 -0.0182 -2.5318
  119CHL1    C715003   1.653   1.503   7.473 -0.2532  0.4099  0.4875
  119CHL1   H7A15004   1.745   1.565   7.464  0.0451 -0.1880 -0.9027
  119CHL1   H7B15005   1.684   1.405   7.433  2.8741  1.7383 -0.6316
  119CHL1    C815006   1.533   1.546   7.378  0.1969 -0.0434  0.1389
  119CHL1    H815007   1.510   1.654   7.391 -0.8581 -0.2406  0.0051
  119CHL1   C1415008   1.561   1.513   7.235  0.7821  0.4967  0.7414
  119CHL1   H1415009   1.574   1.403   7.223 -0.0682  0.6660 -3.1921
  119CHL1   C1515010   1.690   1.573   7.163 -0.0504 -0.0179 -0.1605
  119CHL1  H15A15011   1.691   1.683   7.181  0.8656  0.1221 -1.0054
  119CHL1  H15B15012   1.789   1.538   7.198  0.6457  0.0675 -1.9869
  119CHL1   C1615013   1.664   1.545   7.009  0.9182 -0.2707 -0.0978
  119CHL1  H16A15014   1.677   1.642   6.957  0.3405  0.0142  0.2846
  119CHL1  H16B15015   1.731   1.466   6.969  1.3383  0.1107 -0.1508
  119CHL1   C1715016   1.511   1.504   6.997  0.7719 -0.2306 -0.2267
  119CHL1   H1715017   1.511   1.393   6.993 -1.8282 -0.2989 -0.1962
  119CHL1   C1315018   1.450   1.543   7.141 -0.0904 -0.4929  0.6931
  119CHL1   C1815019   1.416   1.692   7.138 -0.0219  0.5860 -0.0356
  119CHL1  H18A15020   1.320   1.698   7.083  0.7085 -0.7054 -1.5336
  119CHL1  H18B15021   1.405   1.735   7.240  1.2453  0.2172  0.2826
  119CHL1  H18C15022   1.493   1.748   7.080 -0.3476 -1.0066 -2.1360
  119CHL1   C1215023   1.323   1.463   7.179  0.2156  0.0537  0.7533
  119CHL1  H12A15024   1.233   1.494   7.121 -0.2173 -1.6573  0.4435
  119CHL1  H12B15025   1.342   1.356   7.159 -0.7448  0.0112 -0.0016
  119CHL1   C1115026   1.281   1.487   7.325 -0.1247 -0.5522 -0.1786
  119CHL1  H11A15027   1.239   1.590   7.327  0.5749 -0.2213 -1.4361
  119CHL1  H11B15028   1.206   1.414   7.362  2.0359 -2.0276  1.4933
  119CHL1    C915029   1.403   1.473   7.421  0.3311 -0.0633 -0.5262
  119CHL1    H915030   1.443   1.370   7.414  0.9767  0.2448 -1.4808
  119CHL1   C1015031   1.369   1.499   7.569 -0.1215  0.0802  0.1371
  119CHL1   C1915032   1.312   1.634   7.569  0.9515  0.6154  0.1467
  119CHL1  H19A15033   1.205   1.623   7.541  0.7866 -3.0241  1.6777
  119CHL1  H19B15034   1.315   1.682   7.669  0.3195  2.2059 -0.5708
  119CHL1  H19C15035   1.366   1.702   7.500  0.7676  0.5015 -0.1117
  119CHL1    C115036   1.262   1.389   7.617 -0.6347  0.0618  0.0985
  119CHL1   H1A15037   1.171   1.412   7.557  0.9472  0.7450 -2.1601
  119CHL1   H1B15038   1.280   1.281   7.599 -0.1850 -0.2134  1.9263
  119CHL1    C215039   1.235   1.410   7.771  0.7890 -0.1598  0.3688
  119CHL1   H2A15040   1.154   1.344   7.808 -0.5787  0.6641 -1.0028
  119CHL1   H2B15041   1.191   1.510   7.792  0.4047 -0.6503  2.0734
  119CHL1   C2015042   1.440   1.537   6.863  0.4473  0.1982 -0.2614
  119CHL1   H2015043   1.423   1.647   6.867 -1.5429 -0.0649  4.0677
  119CHL1   C2115044   1.307   1.463   6.859  0.9520  0.4847 -0.1807
  119CHL1  H21A15045   1.313   1.360   6.899  0.7557 -0.0838 -1.5777
  119CHL1  H21B15046   1.270   1.445   6.756  0.9095  0.3743 -0.1460
  119CHL1  H21C15047   1.229   1.518   6.916  0.8512 -0.4898  0.6476
  119CHL1   C2215048   1.528   1.500   6.741 -0.3092  0.3061 -0.1489
  119CHL1  H22A15049   1.632   1.535   6.761  1.0454 -3.1117 -0.5503
  119CHL1  H22B15050   1.542   1.390   6.748 -2.9320 -0.0165  1.6078
  119CHL1   C2315051   1.474   1.534   6.604 -0.0355 -0.5888 -0.4054
  119CHL1  H23A15052   1.383   1.476   6.582  0.1548 -1.1897  0.3683
  119CHL1  H23B15053   1.445   1.641   6.599  0.8139 -0.2138  1.6879
  119CHL1   C2415054   1.587   1.506   6.497 -0.8936 -0.8199 -0.2638
  119CHL1  H24A15055   1.670   1.565   6.542 -2.4177  0.8561  0.4766
  119CHL1  H24B15056   1.609   1.398   6.503  3.7252 -0.0376  1.2064
  119CHL1   C2515057   1.555   1.554   6.351 -0.3803 -0.0181 -0.1119
  119CHL1   H2515058   1.447   1.542   6.329 -0.6591 -0.4269  1.3919
  119CHL1   C2615059   1.583   1.705   6.336  0.0145 -0.5358  0.1215
  119CHL1  H26A15060   1.693   1.719   6.332 -0.0922  0.1017 -1.2899
  119CHL1  H26B15061   1.546   1.733   6.235 -1.3432  1.3969  1.0705
  119CHL1  H26C15062   1.534   1.767   6.414  0.0009 -1.1304  0.5944
  119CHL1   C2715063   1.631   1.457   6.252 -0.2964  0.0791  0.2746
  119CHL1  H27A15064   1.604   1.352   6.275  0.8423 -0.4548 -0.7144
  119CHL1  H27B15065   1.606   1.487   6.147  0.5451 -0.3042 -0.0432
  119CHL1  H27C15066   1.739   1.470   6.276 -0.5529  1.8375  0.6313
  120CHL1    C315067   6.361   2.137   8.137  0.1182  0.0493 -0.1119
  120CHL1    H315068   6.256   2.171   8.149  0.5018  1.4076 -0.3540
  120CHL1    O315069   6.406   2.127   8.273 -0.0340  0.2591  0.6260
  120CHL1   H3'15070   6.375   2.042   8.305 -1.7328  0.1690 -1.0978
  120CHL1    C415071   6.358   1.997   8.068  0.4390  0.0843  0.2095
  120CHL1   H4A15072   6.463   1.962   8.074  0.5427  0.5678  1.7422
  120CHL1   H4B15073   6.296   1.923   8.123  0.9395  0.3750  1.1830
  120CHL1    C515074   6.315   2.006   7.922 -0.5563 -0.9506  0.6333
  120CHL1    C615075   6.207   1.946   7.865  0.1158  0.1704 -1.0188
  120CHL1    H615076   6.148   1.881   7.931  0.2463  0.8588 -0.2096
  120CHL1    C715077   6.171   1.949   7.720  0.3089 -0.5229 -0.2730
  120CHL1   H7A15078   6.140   1.852   7.675 -0.0578 -0.8466  0.6546
  120CHL1   H7B15079   6.078   2.007   7.709 -1.1045 -3.0434 -3.3028
  120CHL1    C815080   6.278   2.019   7.628  0.6400  0.2423 -0.7046
  120CHL1    H815081   6.353   1.942   7.599 -0.9469 -1.9242  0.6492
  120CHL1   C1415082   6.209   2.058   7.501  0.1430  0.0534  0.4147
  120CHL1   H1415083   6.123   2.123   7.525 -0.3088 -1.3726  3.0736
  120CHL1   C1515084   6.154   1.947   7.420  0.6326 -0.5498 -0.7575
  120CHL1  H15A15085   6.227   1.864   7.413 -0.3467 -1.7913  2.4205
  120CHL1  H15B15086   6.064   1.904   7.468  0.5999  1.0374  0.6823
  120CHL1   C1615087   6.120   2.018   7.285  0.1141  0.0252  0.7181
  120CHL1  H16A15088   6.137   1.937   7.211 -0.5791  1.5879 -1.2340
  120CHL1  H16B15089   6.014   2.051   7.286 -0.0141 -0.3831  1.1232
  120CHL1   C1715090   6.217   2.143   7.277 -0.1798 -0.0199  0.4169
  120CHL1   H1715091   6.155   2.235   7.282 -1.0350 -0.5973  0.8757
  120CHL1   C1315092   6.305   2.131   7.402 -0.4622  0.8539 -0.1024
  120CHL1   C1815093   6.422   2.028   7.365  0.1332  0.2337 -0.0468
  120CHL1  H18A15094   6.473   1.985   7.454  1.1624 -1.3213 -1.3370
  120CHL1  H18B15095   6.384   1.952   7.295 -1.2880  1.2035 -0.3689
  120CHL1  H18C15096   6.498   2.092   7.316 -2.3304  2.7623 -0.8183
  120CHL1   C1215097   6.352   2.255   7.475 -0.1833 -0.0522 -0.2859
  120CHL1  H12A15098   6.421   2.309   7.407 -1.5177  0.9135 -0.9333
  120CHL1  H12B15099   6.264   2.322   7.488 -1.3155 -1.0530 -2.4104
  120CHL1   C1115100   6.438   2.223   7.595  0.0999 -0.4670 -0.6764
  120CHL1  H11A15101   6.536   2.174   7.573  0.4162 -1.3286  2.2211
  120CHL1  H11B15102   6.457   2.317   7.651 -0.0420 -0.1483 -1.1623
  120CHL1    C915103   6.340   2.140   7.696  0.0513  0.0945 -0.2876
  120CHL1    H915104   6.256   2.211   7.714 -0.3441 -0.3391 -0.3908
  120CHL1   C1015105   6.396   2.115   7.840 -0.0423 -0.2820  0.1691
  120CHL1   C1915106   6.539   2.051   7.828 -0.0780 -0.8183 -0.9038
  120CHL1  H19A15107   6.531   1.957   7.770 -0.1976 -2.7737  2.0766
  120CHL1  H19B15108   6.610   2.123   7.781  0.5115 -0.0835  1.0234
  120CHL1  H19C15109   6.573   2.031   7.932  0.0189  2.4976 -0.1652
  120CHL1    C115110   6.405   2.258   7.912 -0.1720  0.2409 -0.2144
  120CHL1   H1A15111   6.497   2.305   7.871  0.5015 -0.2969  0.6326
  120CHL1   H1B15112   6.310   2.311   7.889 -1.3668 -2.2378 -1.4471
  120CHL1    C215113   6.438   2.251   8.060  0.3753 -0.3790  0.2124
  120CHL1   H2A15114   6.409   2.352   8.095  1.2705  0.2151 -0.7266
  120CHL1   H2B15115   6.549   2.248   8.060  0.4580  1.4330 -0.9040
  120CHL1   C2015116   6.278   2.168   7.133 -0.8790 -0.0127  0.0099
  120CHL1   H2015117   6.342   2.079   7.116  0.1990  0.2903  2.1085
  120CHL1   C2115118   6.365   2.298   7.128  0.3186 -0.1089  0.6613
  120CHL1  H21A15119   6.293   2.383   7.120 -0.6178 -0.9597 -0.2276
  120CHL1  H21B15120   6.439   2.300   7.045 -1.4509  0.2305 -0.9763
  120CHL1  H21C15121   6.413   2.326   7.224 -1.0890  3.3215  0.5294
  120CHL1   C2215122   6.176   2.174   7.023  0.1053  0.2688  0.0125
  120CHL1  H22A15123   6.118   2.079   7.015  0.4763  0.0744 -0.4690
  120CHL1  H22B15124   6.102   2.256   7.032 -0.3902  0.5347 -4.2767
  120CHL1   C2315125   6.235   2.193   6.881 -0.2563  0.2136 -0.1564
  120CHL1  H23A15126   6.250   2.302   6.869 -0.6024  0.3477  0.5513
  120CHL1  H23B15127   6.336   2.148   6.878  0.1489  1.0503  0.5381
  120CHL1   C2415128   6.149   2.140   6.766 -0.1326 -0.1571 -0.1673
  120CHL1  H24A15129   6.102   2.046   6.803  0.8717  0.2194  2.3104
  120CHL1  H24B15130   6.065   2.205   6.736  0.6004  0.3498 -1.1854
  120CHL1   C2515131   6.228   2.126   6.627 -0.0448  0.7420 -0.2853
  120CHL1   H2515132   6.316   2.070   6.665 -1.3129 -0.8309  0.4307
  120CHL1   C2615133   6.162   2.059   6.503 -0.0942  0.2546 -0.0468
  120CHL1  H26A15134   6.100   2.132   6.447  0.9500  0.1238 -1.4386
  120CHL1  H26B15135   6.240   2.019   6.435 -0.8502 -0.8355 -0.2786
  120CHL1  H26C15136   6.096   1.976   6.534  2.0949 -1.6742 -0.2329
  120CHL1   C2715137   6.298   2.256   6.588 -0.1346  0.1108 -0.4013
  120CHL1  H27A15138   6.354   2.310   6.667  1.1949 -1.9477  0.1335
  120CHL1  H27B15139   6.359   2.235   6.499 -0.8016 -0.3084 -0.7685
  120CHL1  H27C15140   6.216   2.319   6.547 -0.6706 -0.1037  0.3041
  121CHL1    C315141   4.565   5.229   4.402  0.3954 -0.1648  0.3424
  121CHL1    H315142   4.519   5.328   4.419  0.8712  0.6635 -2.6427
  121CHL1    O315143   4.560   5.211   4.262 -0.4507  0.4513  0.8987
  121CHL1   H3'15144   4.466   5.205   4.241 -0.8930  0.2369  2.7524
  121CHL1    C415145   4.712   5.218   4.451 -0.5532  0.3960 -0.7672
  121CHL1   H4A15146   4.740   5.115   4.418 -1.6945 -0.4112  0.6671
  121CHL1   H4B15147   4.768   5.291   4.389 -0.7448  0.3614 -0.9801
  121CHL1    C515148   4.722   5.241   4.607  0.2828  0.1228 -0.4074
  121CHL1    C615149   4.797   5.339   4.658  0.8145 -0.0437 -0.2365
  121CHL1    H615150   4.858   5.395   4.585  2.5077 -0.4584  0.8041
  121CHL1    C715151   4.791   5.385   4.797  0.1633  0.7095 -0.6584
  121CHL1   H7A15152   4.895   5.401   4.831  0.4667  0.9772 -1.6663
  121CHL1   H7B15153   4.735   5.481   4.806  1.6403  1.6405 -1.0930
  121CHL1    C815154   4.726   5.287   4.894 -0.0063  0.9008  0.1875
  121CHL1    H815155   4.786   5.193   4.898 -2.8145 -1.0010  0.7440
  121CHL1   C1415156   4.702   5.346   5.025 -0.0237 -0.8707 -0.4909
  121CHL1   H1415157   4.638   5.435   5.007  1.5822  0.5863  0.7152
  121CHL1   C1515158   4.821   5.403   5.102 -0.3579 -0.3656  0.1049
  121CHL1  H15A15159   4.905   5.332   5.121 -0.4640  0.0261  2.3007
  121CHL1  H15B15160   4.865   5.480   5.035 -1.5032 -1.1089 -1.5731
  121CHL1   C1615161   4.761   5.448   5.240  0.0413 -0.4077  0.5974
  121CHL1  H16A15162   4.830   5.419   5.323  1.8056  1.4373 -0.1536
  121CHL1  H16B15163   4.740   5.557   5.236 -0.1474 -0.4904 -0.8686
  121CHL1   C1715164   4.621   5.374   5.242  0.7014 -0.2382 -0.9218
  121CHL1   H1715165   4.545   5.446   5.205 -0.5223  0.4566  2.6319
  121CHL1   C1315166   4.628   5.269   5.126  0.0379 -0.9644  0.3556
  121CHL1   C1815167   4.705   5.141   5.173 -0.4118  1.1167 -0.5043
  121CHL1  H18A15168   4.721   5.071   5.088 -0.6415 -0.3961  0.6350
  121CHL1  H18B15169   4.806   5.164   5.214 -0.2065 -1.0361  0.3541
  121CHL1  H18C15170   4.647   5.096   5.257  2.2753  2.5217  2.3301
  121CHL1   C1215171   4.494   5.230   5.072  0.4496 -0.4383 -0.1851
  121CHL1  H12A15172   4.423   5.173   5.135  0.4907  0.3872  0.6264
  121CHL1  H12B15173   4.437   5.324   5.057 -1.7448 -1.2646  2.2254
  121CHL1   C1115174   4.498   5.167   4.929  0.0743  0.3239  0.2920
  121CHL1  H11A15175   4.538   5.063   4.931  2.3007  1.1234 -0.0853
  121CHL1  H11B15176   4.393   5.159   4.895 -0.9709  1.1185  3.0242
  121CHL1    C915177   4.594   5.235   4.832 -0.3058 -0.5468 -0.1848
  121CHL1    H915178   4.539   5.329   4.809 -1.2784 -0.8329  0.8711
  121CHL1   C1015179   4.610   5.168   4.694  0.0385  0.3789 -0.1798
  121CHL1   C1915180   4.680   5.027   4.713  0.5376 -0.7625  0.2903
  121CHL1  H19A15181   4.614   4.953   4.765 -1.7907  0.7794 -0.3064
  121CHL1  H19B15182   4.690   4.988   4.610  0.2440  1.6920 -0.7182
  121CHL1  H19C15183   4.777   5.036   4.767 -0.2529 -2.6437  2.1946
  121CHL1    C115184   4.470   5.152   4.623  0.4103 -0.4198 -0.1065
  121CHL1   H1A15185   4.401   5.075   4.664  1.8614 -2.7874 -1.8576
  121CHL1   H1B15186   4.423   5.253   4.623 -0.8276 -0.9680  1.1185
  121CHL1    C215187   4.483   5.118   4.473  0.4999 -0.3012 -0.1184
  121CHL1   H2A15188   4.380   5.111   4.432  0.3050 -1.4016  0.5063
  121CHL1   H2B15189   4.532   5.019   4.460 -0.8863 -1.3224  1.9284
  121CHL1   C2015190   4.585   5.333   5.387  0.6104  0.1449 -0.1398
  121CHL1   H2015191   4.671   5.273   5.424  0.3429  0.5621  1.2220
  121CHL1   C2115192   4.459   5.245   5.400  0.0315  0.7522 -0.5246
  121CHL1  H21A15193   4.431   5.213   5.502  0.3971  1.0732 -0.3232
  121CHL1  H21B15194   4.461   5.158   5.331 -0.4175  0.0514  0.3286
  121CHL1  H21C15195   4.371   5.310   5.378  0.5212  1.4133 -0.5525
  121CHL1   C2215196   4.575   5.457   5.485 -0.5680 -0.3067 -1.0600
  121CHL1  H22A15197   4.621   5.546   5.435  1.9653 -0.2442  1.1609
  121CHL1  H22B15198   4.469   5.489   5.492  0.1588  2.1159  0.0391
  121CHL1   C2315199   4.634   5.445   5.627  0.0004  0.7074 -0.5175
  121CHL1  H23A15200   4.616   5.340   5.659  1.1918 -0.3722 -3.1452
  121CHL1  H23B15201   4.745   5.449   5.620  0.1210 -0.1623  0.5104
  121CHL1   C2415202   4.562   5.527   5.730 -0.0949 -0.1379  0.5525
  121CHL1  H24A15203   4.452   5.512   5.734  0.0999 -1.5290  1.2077
  121CHL1  H24B15204   4.596   5.493   5.830 -1.1509 -1.1095  0.6082
  121CHL1   C2515205   4.574   5.678   5.702  0.5890  0.2345  0.1251
  121CHL1   H2515206   4.556   5.700   5.595  0.9163  0.0740  0.0360
  121CHL1   C2615207   4.476   5.760   5.786 -0.1153  0.3409  0.4178
  121CHL1  H26A15208   4.489   5.729   5.892  0.0633  1.7394  0.8135
  121CHL1  H26B15209   4.495   5.869   5.789 -0.6297  0.4378  0.2673
  121CHL1  H26C15210   4.370   5.742   5.758 -0.0558 -0.3383  0.5968
  121CHL1   C2715211   4.725   5.714   5.726 -0.1423 -0.5971 -0.0737
  121CHL1  H27A15212   4.750   5.684   5.830 -1.7316 -1.0792  0.2067
  121CHL1  H27B15213   4.787   5.650   5.660 -0.0405 -0.2066 -0.3607
  121CHL1  H27C15214   4.747   5.823   5.723 -1.2700 -0.3385  0.2788
  122CHL1    C315215   3.679   5.738   4.416 -0.5463  0.6149 -0.5247
  122CHL1    H315216   3.784   5.775   4.414  0.4630 -1.9583  0.3549
  122CHL1    O315217   3.629   5.697   4.290 -0.3968  0.4965 -0.3883
  122CHL1   H3'15218   3.686   5.627   4.259  2.4187  1.5563  1.9504
  122CHL1    C415219   3.680   5.616   4.513 -0.6588 -0.0092 -0.3139
  122CHL1   H4A15220   3.579   5.570   4.518 -1.0947  1.0452  1.5158
  122CHL1   H4B15221   3.748   5.536   4.477 -1.1395 -0.2662 -0.6566
  122CHL1    C515222   3.715   5.670   4.656  0.4713 -0.4367  0.0698
  122CHL1    C615223   3.825   5.630   4.715  0.8043 -0.1592  0.6451
  122CHL1    H615224   3.892   5.555   4.670 -1.0959 -1.2956 -0.4762
  122CHL1    C715225   3.866   5.662   4.860 -0.4026 -0.6024  0.2184
  122CHL1   H7A15226   3.907   5.581   4.925  0.8786  0.1983  0.4270
  122CHL1   H7B15227   3.948   5.735   4.846  1.0296 -2.1836  0.0516
  122CHL1    C815228   3.744   5.720   4.939 -0.1075  0.0104 -0.5312
  122CHL1    H815229   3.684   5.629   4.956  2.5828 -1.6729  0.5580
  122CHL1   C1415230   3.780   5.766   5.083  0.8808 -0.1324  0.3015
  122CHL1   H1415231   3.846   5.856   5.077  2.9747 -1.4244  2.2055
  122CHL1   C1515232   3.858   5.670   5.175  0.0454 -0.0799  1.2601
  122CHL1  H15A15233   3.813   5.568   5.180 -0.2815  0.0951  1.9749
  122CHL1  H15B15234   3.961   5.666   5.133 -1.8913  0.7552 -4.6061
  122CHL1   C1615235   3.831   5.736   5.311  0.2818  0.8717 -0.5707
  122CHL1  H16A15236   3.804   5.657   5.385  0.9361  0.9572 -0.2340
  122CHL1  H16B15237   3.931   5.773   5.341 -1.2919  2.5116  3.3742
  122CHL1   C1715238   3.726   5.847   5.291 -0.8029  0.0511 -0.8221
  122CHL1   H1715239   3.777   5.944   5.274  0.5476 -0.9595 -2.8429
  122CHL1   C1315240   3.656   5.816   5.166  0.7095 -0.1835  0.3639
  122CHL1   C1815241   3.554   5.704   5.190 -0.5597  0.8483  0.1163
  122CHL1  H18A15242   3.506   5.670   5.096  0.0228 -0.5725  0.3164
  122CHL1  H18B15243   3.599   5.614   5.237  0.1464  0.9594 -0.3181
  122CHL1  H18C15244   3.484   5.745   5.266  0.7657  0.5610  1.5434
  122CHL1   C1215245   3.589   5.934   5.084 -0.0041  1.0981 -0.5744
  122CHL1  H12A15246   3.496   5.956   5.141  0.2927 -2.8063  1.7324
  122CHL1  H12B15247   3.660   6.020   5.077  1.0078  0.1748 -2.1309
  122CHL1   C1115248   3.547   5.889   4.943 -0.1941  0.7773  1.1573
  122CHL1  H11A15249   3.462   5.820   4.959 -1.0217  1.3051 -0.7719
  122CHL1  H11B15250   3.493   5.970   4.891 -1.5186 -0.1160  1.1013
  122CHL1    C915251   3.664   5.828   4.860 -0.8874 -0.0775 -0.2257
  122CHL1    H915252   3.729   5.914   4.834 -1.2193 -0.0884 -1.1361
  122CHL1   C1015253   3.626   5.777   4.714  0.0152 -0.3871  0.5154
  122CHL1   C1915254   3.488   5.710   4.718 -0.0152 -0.4897  0.2289
  122CHL1  H19A15255   3.454   5.671   4.620 -0.4516  0.8688 -0.1960
  122CHL1  H19B15256   3.491   5.621   4.785  1.2865  0.1490  1.0723
  122CHL1  H19C15257   3.417   5.791   4.747  0.6851 -0.0516  0.7390
  122CHL1    C115258   3.624   5.895   4.610 -0.5738  0.0509 -0.0801
  122CHL1   H1A15259   3.546   5.967   4.642 -1.0962  0.1572 -1.5137
  122CHL1   H1B15260   3.719   5.950   4.601 -1.5013  1.8790  0.8466
  122CHL1    C215261   3.590   5.852   4.468 -0.4023  0.4649 -0.7215
  122CHL1   H2A15262   3.591   5.942   4.403  0.8693 -0.1108 -1.5356
  122CHL1   H2B15263   3.482   5.824   4.465  0.0700 -1.6512  0.4069
  122CHL1   C2015264   3.649   5.863   5.425  0.6353  0.3014  0.2978
  122CHL1   H2015265   3.591   5.769   5.437 -1.2941  0.8726 -3.1866
  122CHL1   C2115266   3.547   5.975   5.404  0.6812  0.2206 -0.3626
  122CHL1  H21A15267   3.583   6.062   5.345  1.1344 -0.0576 -0.5018
  122CHL1  H21B15268   3.496   6.006   5.497  1.0491 -1.0716  0.2928
  122CHL1  H21C15269   3.462   5.936   5.344  0.0761  1.2261 -0.1813
  122CHL1   C2215270   3.741   5.885   5.550 -0.1120 -0.6232 -0.8617
  122CHL1  H22A15271   3.802   5.793   5.557  0.0849 -0.4252  0.2230
  122CHL1  H22B15272   3.795   5.979   5.523 -0.9299  0.2143  0.3141
  122CHL1   C2315273   3.673   5.912   5.683  0.1530 -0.1127  0.3963
  122CHL1  H23A15274   3.639   6.018   5.680  1.3116  0.3475 -4.2382
  122CHL1  H23B15275   3.584   5.846   5.685  2.0836 -2.8853 -0.2655
  122CHL1   C2415276   3.762   5.894   5.804  0.1848  1.0663 -0.9071
  122CHL1  H24A15277   3.799   5.789   5.811 -0.2001  1.0288  1.4459
  122CHL1  H24B15278   3.858   5.949   5.796  1.6406 -0.7184  2.1325
  122CHL1   C2515279   3.694   5.936   5.942 -0.2184  1.0666  0.3603
  122CHL1   H2515280   3.584   5.938   5.924  0.0576  1.0084 -1.6308
  122CHL1   C2615281   3.719   5.818   6.045  0.2738 -0.3311  0.2422
  122CHL1  H26A15282   3.673   5.723   6.013  0.5779 -0.8487  1.2901
  122CHL1  H26B15283   3.824   5.793   6.069 -0.4915 -1.1196  3.1669
  122CHL1  H26C15284   3.677   5.851   6.143  0.3636  2.0951 -0.4645
  122CHL1   C2715285   3.731   6.078   5.992  0.6031  0.1977 -0.1204
  122CHL1  H27A15286   3.682   6.104   6.088  0.1938  0.0925 -0.3022
  122CHL1  H27B15287   3.841   6.076   6.012  0.7125 -0.3035 -0.7385
  122CHL1  H27C15288   3.703   6.155   5.917  1.0428 -0.5491 -1.0773
  123CHL1    C315289   6.563   5.326   4.482  0.1340 -0.2349  0.4014
  123CHL1    H315290   6.661   5.358   4.523  0.4588 -0.3705 -0.2460
  123CHL1    O315291   6.584   5.249   4.366  0.1848  0.4258  0.6158
  123CHL1   H3'15292   6.500   5.229   4.324  0.6448  1.3557 -0.8004
  123CHL1    C415293   6.487   5.228   4.578 -0.2551  0.4371  1.0319
  123CHL1   H4A15294   6.393   5.199   4.527  1.2506  1.3611 -2.5739
  123CHL1   H4B15295   6.556   5.142   4.595 -0.4647  0.1351  0.4044
  123CHL1    C515296   6.455   5.306   4.702  0.6563  0.5619 -1.3619
  123CHL1    C615297   6.492   5.252   4.823 -0.3410  0.2158 -0.2485
  123CHL1    H615298   6.554   5.162   4.834  2.1491  1.6238 -1.6086
  123CHL1    C715299   6.472   5.324   4.956  0.8091  0.1482  0.0767
  123CHL1   H7A15300   6.429   5.254   5.031  1.0006 -1.0144 -0.8643
  123CHL1   H7B15301   6.568   5.357   5.001 -0.2840 -0.8578  3.4380
  123CHL1    C815302   6.383   5.450   4.950 -0.8262  0.1592  0.2898
  123CHL1    H815303   6.281   5.405   4.947  0.2247 -2.3373 -0.4919
  123CHL1   C1415304   6.400   5.531   5.082 -0.4034  0.1744 -0.3637
  123CHL1   H1415305   6.503   5.570   5.092 -1.2540  2.3549  0.4950
  123CHL1   C1515306   6.370   5.451   5.210 -0.0113  0.1082 -0.0889
  123CHL1  H15A15307   6.289   5.376   5.204 -0.2776  0.5026 -1.8522
  123CHL1  H15B15308   6.453   5.384   5.243 -1.1339 -0.7636  1.0875
  123CHL1   C1615309   6.343   5.571   5.308  0.2917  0.4252 -0.9776
  123CHL1  H16A15310   6.257   5.553   5.375  1.9278 -1.7701  0.6979
  123CHL1  H16B15311   6.425   5.574   5.384 -1.8471 -1.4820  1.5802
  123CHL1   C1715312   6.335   5.705   5.230  0.7085 -0.1508  0.8747
  123CHL1   H1715313   6.434   5.756   5.227  1.1267 -0.9781  0.0667
  123CHL1   C1315314   6.317   5.652   5.081  0.6388 -0.1774 -0.6054
  123CHL1   C1815315   6.169   5.618   5.061  0.6969 -0.3367  0.4652
  123CHL1  H18A15316   6.116   5.716   5.059 -1.7401 -1.5597 -2.3154
  123CHL1  H18B15317   6.138   5.565   4.969  0.1331  1.8188 -0.6672
  123CHL1  H18C15318   6.146   5.559   5.152 -1.1013  2.1675  1.7867
  123CHL1   C1215319   6.368   5.740   4.966  0.9478 -0.7336  0.3280
  123CHL1  H12A15320   6.301   5.828   4.951  1.6661 -0.3608 -0.7886
  123CHL1  H12B15321   6.471   5.773   4.987  0.9361 -1.1642  1.1090
  123CHL1   C1115322   6.359   5.671   4.832 -0.3153  0.2492  0.6320
  123CHL1  H11A15323   6.255   5.670   4.792  0.3295  0.4032 -1.1156
  123CHL1  H11B15324   6.417   5.739   4.766  0.6106 -0.5991  0.5392
  123CHL1    C915325   6.411   5.527   4.828  0.4165 -0.4871  0.2934
  123CHL1    H915326   6.520   5.538   4.843  0.3606 -0.2021  0.4918
  123CHL1   C1015327   6.395   5.447   4.694 -0.2243 -0.4763  0.3195
  123CHL1   C1915328   6.245   5.436   4.666 -0.0489 -0.0048 -0.0536
  123CHL1  H19A15329   6.214   5.539   4.639  0.8576  0.7078  1.5585
  123CHL1  H19B15330   6.227   5.375   4.574 -0.9829 -0.7999  0.6304
  123CHL1  H19C15331   6.182   5.401   4.750 -1.1088  1.4242 -0.2027
  123CHL1    C115332   6.457   5.537   4.571  0.1756 -0.3773  0.2148
  123CHL1   H1A15333   6.394   5.628   4.559  0.7177 -0.0320 -0.0012
  123CHL1   H1B15334   6.549   5.581   4.615 -0.2142 -1.0438  1.7767
  123CHL1    C215335   6.479   5.449   4.446 -0.5673  0.4784 -1.3327
  123CHL1   H2A15336   6.536   5.513   4.375 -0.4275  0.3375 -1.3492
  123CHL1   H2B15337   6.383   5.434   4.392 -0.4212  1.1413 -1.7877
  123CHL1   C2015338   6.235   5.799   5.291 -0.4191 -0.1808  0.3507
  123CHL1   H2015339   6.140   5.742   5.281 -1.0576  0.8256  0.5582
  123CHL1   C2115340   6.234   5.930   5.209 -0.3324 -0.5562  0.3695
  123CHL1  H21A15341   6.164   5.920   5.123  0.2603  1.8800 -0.4761
  123CHL1  H21B15342   6.334   5.964   5.175 -1.0589  1.3191 -0.0317
  123CHL1  H21C15343   6.195   6.021   5.261  1.0761 -0.6860  1.7409
  123CHL1   C2215344   6.263   5.836   5.432  0.4443  0.3602  0.0968
  123CHL1  H22A15345   6.299   5.747   5.488 -1.1049  0.2521  0.9963
  123CHL1  H22B15346   6.344   5.910   5.444 -2.4999  3.7936  0.5359
  123CHL1   C2315347   6.140   5.892   5.503 -0.9641  0.9839  0.0466
  123CHL1  H23A15348   6.096   5.979   5.450 -0.6037  0.1377 -1.7294
  123CHL1  H23B15349   6.058   5.816   5.509  0.9895 -1.1344  2.0010
  123CHL1   C2415350   6.180   5.946   5.637  0.0938 -0.1449 -0.6283
  123CHL1  H24A15351   6.260   6.023   5.627 -0.1297 -0.0599 -1.8527
  123CHL1  H24B15352   6.090   5.993   5.682  0.1740 -0.4387 -0.1521
  123CHL1   C2515353   6.210   5.841   5.752  0.0983 -0.1736  1.1620
  123CHL1   H2515354   6.307   5.797   5.720  0.2201  2.3998 -2.7349
  123CHL1   C2615355   6.242   5.917   5.879 -0.0603 -0.0831 -0.2803
  123CHL1  H26A15356   6.154   5.981   5.901  2.4725  3.5987 -0.0125
  123CHL1  H26B15357   6.282   5.844   5.952  1.2697 -2.1303 -2.8909
  123CHL1  H26C15358   6.320   5.995   5.868  0.9340 -0.8649  0.8884
  123CHL1   C2715359   6.108   5.726   5.775 -0.2776 -0.0525 -0.6150
  123CHL1  H27A15360   6.148   5.661   5.856 -1.3487  1.3551  1.1056
  123CHL1  H27B15361   6.011   5.771   5.806 -0.5629 -1.8825  1.3819
  123CHL1  H27C15362   6.094   5.659   5.688 -3.1218 -0.0574 -0.2334
  124CHL1    C315363   4.155   6.537   4.183 -0.1570 -0.0341  0.1696
  124CHL1    H315364   4.045   6.552   4.181  0.1629  2.7207 -0.9532
  124CHL1    O315365   4.194   6.528   4.042 -0.0610  0.2998  0.0271
  124CHL1   H3'15366   4.289   6.543   4.036  0.0303 -0.5905 -0.9049
  124CHL1    C415367   4.227   6.659   4.248  0.1640  0.3689 -1.0076
  124CHL1   H4A15368   4.335   6.634   4.238 -0.0195 -0.8529 -0.1360
  124CHL1   H4B15369   4.205   6.750   4.188 -1.2697  0.8986  0.2755
  124CHL1    C515370   4.218   6.669   4.402  1.0270  0.3657 -0.1537
  124CHL1    C615371   4.185   6.782   4.463  0.3713 -0.1394 -0.2506
  124CHL1    H615372   4.169   6.869   4.398  2.4872  0.2945 -0.2624
  124CHL1    C715373   4.178   6.802   4.615  0.3887  0.0935 -0.0976
  124CHL1   H7A15374   4.241   6.888   4.645  0.6649 -0.1823  0.1188
  124CHL1   H7B15375   4.074   6.820   4.648  0.9074  3.8353 -0.0828
  124CHL1    C815376   4.230   6.676   4.697 -0.1309 -0.3055  0.2257
  124CHL1    H815377   4.340   6.670   4.688 -0.3417 -2.5569 -1.6840
  124CHL1   C1415378   4.191   6.684   4.847 -0.0635  0.1990  0.2334
  124CHL1   H1415379   4.080   6.687   4.838 -0.1362  0.1643  1.0472
  124CHL1   C1515380   4.223   6.815   4.925 -0.9093 -1.1030  0.3257
  124CHL1  H15A15381   4.323   6.859   4.904 -1.5971  0.7862  0.7950
  124CHL1  H15B15382   4.151   6.897   4.906 -0.2399 -0.1123  1.8620
  124CHL1   C1615383   4.217   6.771   5.073  0.0470 -0.2907 -0.1600
  124CHL1  H16A15384   4.319   6.784   5.117  0.5064  0.5697 -1.4166
  124CHL1  H16B15385   4.134   6.818   5.131  0.3493 -0.8113  0.7245
  124CHL1   C1715386   4.194   6.621   5.067 -0.1984 -0.3920  0.0668
  124CHL1   H1715387   4.084   6.610   5.074 -0.3414  1.3754  1.5863
  124CHL1   C1315388   4.240   6.572   4.927  0.5090 -0.3175  0.6764
  124CHL1   C1815389   4.391   6.558   4.921 -0.0517  0.0107 -0.0518
  124CHL1  H18A15390   4.426   6.494   5.005  3.0396  0.9071 -0.5320
  124CHL1  H18B15391   4.426   6.511   4.827 -0.1552 -1.1228  0.4644
  124CHL1  H18C15392   4.442   6.656   4.933 -0.6738  0.4552 -0.8890
  124CHL1   C1215393   4.172   6.445   4.874  0.0338  0.1099  0.3528
  124CHL1  H12A15394   4.207   6.355   4.930 -1.1536  0.0305  1.0205
  124CHL1  H12B15395   4.063   6.454   4.895 -0.5675 -2.8228 -0.9949
  124CHL1   C1115396   4.199   6.424   4.720  0.9921 -0.1143 -0.3269
  124CHL1  H11A15397   4.299   6.375   4.711  0.8676 -0.4123 -0.0970
  124CHL1  H11B15398   4.132   6.342   4.687 -1.2383  1.6466 -0.4374
  124CHL1    C915399   4.177   6.547   4.632  0.7256 -0.2680  0.3015
  124CHL1    H915400   4.068   6.558   4.616  1.1588  3.5148 -0.9083
  124CHL1   C1015401   4.232   6.540   4.482 -0.0967  0.7356 -0.2092
  124CHL1   C1915402   4.380   6.499   4.488 -0.1833 -0.1618 -0.3487
  124CHL1  H19A15403   4.411   6.472   4.384 -0.7446 -0.6610 -0.3898
  124CHL1  H19B15404   4.451   6.578   4.520 -1.3625  2.1627 -3.0632
  124CHL1  H19C15405   4.396   6.404   4.543  2.3378 -0.2306 -1.0782
  124CHL1    C115406   4.160   6.425   4.400  0.3686 -0.4282  0.0363
  124CHL1   H1A15407   4.162   6.329   4.456  1.4814  0.8623  2.3631
  124CHL1   H1B15408   4.053   6.451   4.411  0.2122 -0.2182 -1.6131
  124CHL1    C215409   4.187   6.405   4.253 -0.3485  0.6180 -0.9934
  124CHL1   H2A15410   4.128   6.320   4.213 -0.6770  0.4240 -0.1251
  124CHL1   H2B15411   4.293   6.377   4.232 -0.7077  0.2646 -2.4547
  124CHL1   C2015412   4.247   6.546   5.199 -0.2340 -0.3958 -0.4095
  124CHL1   H2015413   4.354   6.575   5.206 -1.1195  3.4502 -0.3414
  124CHL1   C2115414   4.222   6.393   5.191 -0.1793 -0.1634  1.2141
  124CHL1  H21A15415   4.113   6.389   5.174 -0.4646  0.9314  2.5579
  124CHL1  H21B15416   4.247   6.338   5.284 -0.0667  0.4436  1.5542
  124CHL1  H21C15417   4.286   6.351   5.111 -1.4883 -1.4622  0.8115
  124CHL1   C2215418   4.170   6.606   5.329  0.1152  0.2248  0.4438
  124CHL1  H22A15419   4.174   6.717   5.331 -1.4220  0.2924  1.8756
  124CHL1  H22B15420   4.060   6.597   5.317  0.0580 -0.0340  1.0944
  124CHL1   C2315421   4.222   6.552   5.462  0.4309 -0.3540  0.1654
  124CHL1  H23A15422   4.162   6.587   5.549 -2.8892 -2.7572 -0.9511
  124CHL1  H23B15423   4.205   6.443   5.471  0.9309 -0.4913 -0.5687
  124CHL1   C2415424   4.364   6.592   5.492  0.5620 -0.0530 -0.1967
  124CHL1  H24A15425   4.428   6.554   5.409  2.2410 -1.9008  1.8266
  124CHL1  H24B15426   4.386   6.699   5.515  0.5387 -0.0660 -0.1133
  124CHL1   C2515427   4.425   6.516   5.614 -0.2942 -0.2027 -0.3435
  124CHL1   H2515428   4.369   6.543   5.707 -0.0181 -2.4011  0.5133
  124CHL1   C2615429   4.422   6.368   5.596 -0.3551 -0.1022 -0.3135
  124CHL1  H26A15430   4.474   6.339   5.502 -3.7137 -0.1749 -2.2932
  124CHL1  H26B15431   4.473   6.319   5.681 -1.2991 -0.5228  0.0197
  124CHL1  H26C15432   4.322   6.321   5.592  0.2269 -1.3408 -0.5793
  124CHL1   C2715433   4.572   6.562   5.640 -0.4536  0.2420  0.0411
  124CHL1  H27A15434   4.622   6.497   5.715  0.0498  0.5545 -0.0166
  124CHL1  H27B15435   4.631   6.549   5.547  0.5018 -1.4862  0.8525
  124CHL1  H27C15436   4.584   6.669   5.670 -1.9103  0.3613  0.3104
  125CHL1    C315437   4.866   6.282   4.351 -0.1606  0.3950  0.3045
  125CHL1    H315438   4.760   6.249   4.352  0.0620 -0.5910 -2.0335
  125CHL1    O315439   4.899   6.285   4.209  0.3204 -0.3332 -0.3168
  125CHL1   H3'15440   4.891   6.195   4.175  2.8603 -0.5737 -0.4501
  125CHL1    C415441   4.885   6.419   4.413 -0.1384 -0.1936  0.1191
  125CHL1   H4A15442   4.990   6.446   4.389 -0.5310  0.6166 -0.7467
  125CHL1   H4B15443   4.821   6.495   4.363  0.1869  0.1281  0.1850
  125CHL1    C515444   4.857   6.420   4.558  0.2639 -0.6940  0.3811
  125CHL1    C615445   4.763   6.498   4.617 -0.0669  0.4265  0.8912
  125CHL1    H615446   4.718   6.572   4.549  2.5092 -1.0299 -2.7552
  125CHL1    C715447   4.729   6.511   4.761 -0.1191 -0.3808  0.2862
  125CHL1   H7A15448   4.714   6.618   4.783  0.7722 -0.1864 -0.0305
  125CHL1   H7B15449   4.639   6.454   4.793 -0.6053  0.0483 -0.2741
  125CHL1    C815450   4.848   6.449   4.843 -0.2469 -0.2687 -0.0334
  125CHL1    H815451   4.932   6.522   4.849 -0.2978 -0.2962  1.7117
  125CHL1   C1415452   4.808   6.420   4.985  0.4680  0.0354 -0.6148
  125CHL1   H1415453   4.728   6.343   4.974  0.1828  0.0305  1.1440
  125CHL1   C1515454   4.743   6.535   5.073 -0.2529  0.2272  0.1842
  125CHL1  H15A15455   4.802   6.627   5.053  2.2365 -1.6185 -1.6506
  125CHL1  H15B15456   4.636   6.545   5.045 -0.2101 -0.3732 -0.2073
  125CHL1   C1615457   4.748   6.492   5.218 -0.1098  0.2529 -0.2021
  125CHL1  H16A15458   4.806   6.569   5.273 -0.7252  1.4476 -1.1881
  125CHL1  H16B15459   4.649   6.487   5.268  0.0736  0.3850  0.1833
  125CHL1   C1715460   4.828   6.357   5.209  0.0522  0.1918  0.6737
  125CHL1   H1715461   4.754   6.278   5.187  0.8933 -0.4052 -0.0988
  125CHL1   C1315462   4.914   6.356   5.076  0.0316  0.0369 -0.1007
  125CHL1   C1815463   5.039   6.454   5.093 -0.3204 -0.0177 -0.2244
  125CHL1  H18A15464   5.129   6.404   5.134  0.7449  1.0078 -1.2360
  125CHL1  H18B15465   5.072   6.498   4.997 -2.5465  1.4863 -0.3840
  125CHL1  H18C15466   5.009   6.536   5.161 -1.3416 -2.4633  2.5211
  125CHL1   C1215467   4.952   6.226   5.018  0.5251 -0.0181  0.0702
  125CHL1  H12A15468   5.022   6.171   5.084 -1.1706  0.6239  2.5736
  125CHL1  H12B15469   4.865   6.157   5.013 -0.1321  0.4925  2.8994
  125CHL1   C1115470   5.000   6.241   4.882 -0.2805 -0.8699  0.2486
  125CHL1  H11A15471   5.097   6.295   4.887 -0.0143 -1.0978 -1.7205
  125CHL1  H11B15472   5.030   6.142   4.840 -0.8005 -1.2294  0.7219
  125CHL1    C915473   4.900   6.315   4.788  0.8777  0.4965 -0.1286
  125CHL1    H915474   4.816   6.243   4.791  1.9427 -0.7653  1.5872
  125CHL1   C1015475   4.943   6.321   4.637  0.2687 -0.0565  0.1973
  125CHL1   C1915476   5.094   6.380   4.637  0.8567 -0.3432 -0.9802
  125CHL1  H19A15477   5.101   6.464   4.709 -1.2917  0.1783 -1.3198
  125CHL1  H19B15478   5.163   6.302   4.677  0.9482  0.0833 -0.2917
  125CHL1  H19C15479   5.125   6.416   4.537 -2.3723 -1.3061 -2.4723
  125CHL1    C115480   4.935   6.183   4.572 -0.5303  0.0199 -0.5126
  125CHL1   H1A15481   4.998   6.114   4.632 -2.3697 -1.3190 -0.0251
  125CHL1   H1B15482   4.832   6.153   4.602  1.3927 -4.0494  3.0657
  125CHL1    C215483   4.958   6.183   4.418  0.3868  0.0593  0.2041
  125CHL1   H2A15484   4.930   6.080   4.386 -0.8530  0.0178  1.3414
  125CHL1   H2B15485   5.066   6.200   4.396  0.1118  2.1055  0.2739
  125CHL1   C2015486   4.903   6.322   5.338 -0.0743 -0.0713  1.0496
  125CHL1   H2015487   4.989   6.391   5.347 -1.1066  1.6216 -1.0305
  125CHL1   C2115488   4.957   6.180   5.335 -0.4834 -0.2373  0.5316
  125CHL1  H21A15489   5.051   6.173   5.275 -0.7268 -0.7287  0.2007
  125CHL1  H21B15490   4.882   6.109   5.294  0.0054 -0.0302 -0.7697
  125CHL1  H21C15491   4.978   6.139   5.436 -0.2386  0.0097  0.5832
  125CHL1   C2215492   4.813   6.334   5.467  0.0505  0.7919 -0.5301
  125CHL1  H22A15493   4.794   6.442   5.484 -2.4843  0.2618  0.4929
  125CHL1  H22B15494   4.718   6.276   5.459  2.1636 -3.0699 -0.1189
  125CHL1   C2315495   4.867   6.290   5.604 -0.1238  0.1715 -0.6368
  125CHL1  H23A15496   4.785   6.322   5.673  0.6561 -0.3608  0.5652
  125CHL1  H23B15497   4.862   6.181   5.623 -3.3156  0.4578  0.8301
  125CHL1   C2415498   4.998   6.364   5.643  0.5709  0.0794 -1.0639
  125CHL1  H24A15499   5.084   6.328   5.582 -1.3690 -0.4275 -3.6827
  125CHL1  H24B15500   4.974   6.471   5.625 -0.7885 -0.3394 -1.9200
  125CHL1   C2515501   5.036   6.334   5.788 -0.1895  0.2219 -0.5020
  125CHL1   H2515502   4.989   6.240   5.824 -1.3687  0.9393 -0.1058
  125CHL1   C2615503   5.191   6.331   5.812 -0.6213 -0.9014 -0.0908
  125CHL1  H26A15504   5.229   6.435   5.800 -2.2122 -0.3600 -0.7635
  125CHL1  H26B15505   5.216   6.307   5.917 -0.9236 -0.6194  0.0474
  125CHL1  H26C15506   5.241   6.265   5.737 -0.0639  1.0861 -1.5662
  125CHL1   C2715507   4.965   6.428   5.889  0.0760  0.2532  0.2195
  125CHL1  H27A15508   4.861   6.453   5.859  0.7581  2.0563 -0.8362
  125CHL1  H27B15509   4.982   6.386   5.990  4.2256 -0.3993 -0.5700
  125CHL1  H27C15510   5.016   6.527   5.881  1.5612 -0.5207 -0.0884
  126CHL1    C315511   2.797   6.597   4.293 -0.5539  0.9340 -0.4713
  126CHL1    H315512   2.722   6.673   4.322  0.8903  1.2476  2.9516
  126CHL1    O315513   2.828   6.602   4.155  0.1356  0.1831 -0.1269
  126CHL1   H3'15514   2.881   6.524   4.140 -0.4691 -0.6175  1.6508
  126CHL1    C415515   2.918   6.613   4.392 -0.3060 -0.1593  0.1655
  126CHL1   H4A15516   2.984   6.532   4.355  0.4106  0.0092  1.0379
  126CHL1   H4B15517   2.968   6.711   4.372 -0.9394  0.4992  1.6491
  126CHL1    C515518   2.899   6.598   4.540  0.4661  0.2608 -0.0628
  126CHL1    C615519   2.939   6.688   4.631  0.6612  0.0819  0.1004
  126CHL1    H615520   2.992   6.779   4.598 -0.2780  1.0793  1.2169
  126CHL1    C715521   2.925   6.667   4.781 -0.1961 -0.1623 -0.1910
  126CHL1   H7A15522   3.018   6.681   4.841 -0.8061 -1.5347  1.1365
  126CHL1   H7B15523   2.843   6.736   4.809  0.7103  0.4991  0.9075
  126CHL1    C815524   2.873   6.523   4.815  0.0792  0.5748  0.4447
  126CHL1    H815525   2.950   6.443   4.818  0.2515  0.7306  0.1928
  126CHL1   C1415526   2.819   6.526   4.950  0.2179  0.2324 -0.4805
  126CHL1   H1415527   2.734   6.597   4.943 -1.4553 -1.7634 -1.3304
  126CHL1   C1515528   2.904   6.583   5.066 -0.9917  0.6188  0.4722
  126CHL1  H15A15529   2.998   6.523   5.064 -1.1012  0.4665 -0.4871
  126CHL1  H15B15530   2.920   6.693   5.059 -1.6313  1.1769  4.9846
  126CHL1   C1615531   2.833   6.551   5.193  0.6004  0.3031 -0.3207
  126CHL1  H16A15532   2.909   6.500   5.255 -0.5186 -0.8613  0.1448
  126CHL1  H16B15533   2.772   6.635   5.233  1.1404 -0.1073  1.4344
  126CHL1   C1715534   2.723   6.447   5.151 -0.1163  0.7312  1.3244
  126CHL1   H1715535   2.630   6.506   5.138 -0.5333  0.2011  1.8044
  126CHL1   C1315536   2.764   6.396   5.007  0.5765  0.0376 -0.2591
  126CHL1   C1815537   2.860   6.283   5.008 -0.6887  0.6738 -0.5409
  126CHL1  H18A15538   2.825   6.194   5.064  2.9102 -0.3440  0.3140
  126CHL1  H18B15539   2.881   6.253   4.903 -1.6498  0.4000 -0.6657
  126CHL1  H18C15540   2.956   6.312   5.057 -0.9439 -0.5284  0.7140
  126CHL1   C1215541   2.642   6.371   4.915  0.3406  0.1261  0.3101
  126CHL1  H12A15542   2.593   6.275   4.942  0.8887 -0.6830 -1.3945
  126CHL1  H12B15543   2.569   6.453   4.924  1.4306  1.0844  0.6070
  126CHL1   C1115544   2.677   6.362   4.771 -0.1092 -0.1426 -0.2082
  126CHL1  H11A15545   2.731   6.271   4.738  2.0749  1.1053 -0.2381
  126CHL1  H11B15546   2.585   6.362   4.708 -0.1725 -1.0241 -0.1304
  126CHL1    C915547   2.759   6.483   4.720 -0.0061 -0.2151  0.2676
  126CHL1    H915548   2.697   6.575   4.710  0.1748 -0.2636 -1.6992
  126CHL1   C1015549   2.818   6.469   4.579 -0.0486 -0.4758 -0.0838
  126CHL1   C1915550   2.912   6.351   4.567  0.9302  0.1667  0.2314
  126CHL1  H19A15551   3.003   6.364   4.629  1.0313 -1.4655  0.4706
  126CHL1  H19B15552   2.869   6.253   4.597  0.3927  0.2145 -0.3570
  126CHL1  H19C15553   2.957   6.343   4.465  3.5166 -0.6080  1.3508
  126CHL1    C115554   2.706   6.454   4.481  0.4544  0.2723 -0.2187
  126CHL1   H1A15555   2.669   6.352   4.508  0.2750  0.6749  1.1606
  126CHL1   H1B15556   2.629   6.527   4.514 -0.9108 -0.8284 -0.8444
  126CHL1    C215557   2.741   6.462   4.327  0.1366 -0.0446 -0.8971
  126CHL1   H2A15558   2.641   6.455   4.279  0.1943 -0.7399 -0.9353
  126CHL1   H2B15559   2.805   6.380   4.287 -1.1887 -1.1162 -0.8900
  126CHL1   C2015560   2.697   6.353   5.263  0.7784  0.6957  0.5715
  126CHL1   H2015561   2.781   6.282   5.274 -0.6402 -1.2348 -0.3867
  126CHL1   C2115562   2.575   6.266   5.233 -0.4486  0.2710  0.6383
  126CHL1  H21A15563   2.571   6.202   5.142 -0.8918 -0.2771  1.0416
  126CHL1  H21B15564   2.483   6.327   5.220 -0.0771  0.8947  0.8825
  126CHL1  H21C15565   2.559   6.186   5.309  1.0649 -0.0416  0.6600
  126CHL1   C2215566   2.696   6.417   5.400 -0.1079 -0.0086 -0.3416
  126CHL1  H22A15567   2.785   6.478   5.424  1.1574 -1.8131 -0.3031
  126CHL1  H22B15568   2.614   6.492   5.404 -3.2295 -3.2316  1.9456
  126CHL1   C2315569   2.674   6.318   5.514  0.7826 -0.4090 -0.7497
  126CHL1  H23A15570   2.579   6.262   5.506  0.7651 -0.5265  0.1176
  126CHL1  H23B15571   2.758   6.245   5.524 -0.0645 -1.0817  3.2487
  126CHL1   C2415572   2.676   6.397   5.645  0.3536  0.4218  0.9104
  126CHL1  H24A15573   2.779   6.439   5.647  1.1846 -1.4291 -0.5855
  126CHL1  H24B15574   2.604   6.482   5.645  0.8119  0.8152  1.1841
  126CHL1   C2515575   2.651   6.329   5.777  0.0662 -0.3371  0.5894
  126CHL1   H2515576   2.725   6.250   5.802  0.6986 -0.3833 -1.2673
  126CHL1   C2615577   2.649   6.420   5.897  0.0417 -0.3077 -0.3633
  126CHL1  H26A15578   2.591   6.370   5.977  1.5200 -2.3294 -0.4840
  126CHL1  H26B15579   2.751   6.438   5.938  0.7180 -1.5759 -1.3829
  126CHL1  H26C15580   2.604   6.520   5.879 -1.6105 -1.0187 -0.3267
  126CHL1   C2715581   2.508   6.260   5.779  0.5521 -0.1922  0.3696
  126CHL1  H27A15582   2.505   6.195   5.869  0.6129 -1.3421 -0.4367
  126CHL1  H27B15583   2.437   6.345   5.766 -1.7102 -2.0808 -0.3556
  126CHL1  H27C15584   2.500   6.187   5.695 -0.1181 -0.6856  0.8510
  127CHL1    C315585   3.116   0.984   4.167  0.4978 -0.1537  0.0873
  127CHL1    H315586   3.038   1.063   4.164 -0.1197 -0.7848 -1.8086
  127CHL1    O315587   3.173   0.967   4.036  0.1750  0.1012  0.1270
  127CHL1   H3'15588   3.206   0.878   4.021 -0.0721  0.1111 -0.5066
  127CHL1    C415589   3.217   1.027   4.274 -0.4784  0.3183 -0.2350
  127CHL1   H4A15590   3.299   0.953   4.261 -0.7667  0.1098 -0.8752
  127CHL1   H4B15591   3.253   1.127   4.240 -1.3944 -0.0667 -2.5139
  127CHL1    C515592   3.160   1.024   4.414  0.3979  0.1821  0.1056
  127CHL1    C615593   3.156   1.132   4.491 -0.5543  0.0221  0.1764
  127CHL1    H615594   3.207   1.223   4.454  1.5065 -1.0836  0.1307
  127CHL1    C715595   3.115   1.134   4.634  0.1332 -0.2985 -0.0846
  127CHL1   H7A15596   3.182   1.200   4.693 -0.1735 -0.5177  0.5251
  127CHL1   H7B15597   3.016   1.185   4.632 -0.7733 -1.9866  0.1470
  127CHL1    C815598   3.108   0.990   4.693  0.5533  0.3518  0.0856
  127CHL1    H815599   3.214   0.954   4.696  0.8572  1.1739 -0.3601
  127CHL1   C1415600   3.037   0.992   4.827  0.5633  0.8841  0.0279
  127CHL1   H1415601   2.936   1.030   4.801  0.3303 -0.0657 -0.5205
  127CHL1   C1515602   3.082   1.091   4.931  0.6808 -0.0370  0.0625
  127CHL1  H15A15603   3.194   1.089   4.931  0.6915  0.4036 -0.3298
  127CHL1  H15B15604   3.044   1.193   4.909 -0.2425 -0.5839 -0.9923
  127CHL1   C1615605   3.021   1.039   5.062  0.2723 -0.1655 -0.6467
  127CHL1  H16A15606   3.105   1.027   5.134 -0.9853  0.2360  0.9267
  127CHL1  H16B15607   2.932   1.096   5.094 -0.6580 -1.8250 -0.1815
  127CHL1   C1715608   2.961   0.895   5.029 -0.0467 -0.1228  0.1979
  127CHL1   H1715609   2.851   0.910   5.018 -0.3048  0.0831  2.5977
  127CHL1   C1315610   3.023   0.860   4.900 -0.6126  0.2329  0.1228
  127CHL1   C1815611   3.164   0.800   4.939 -0.1929 -0.0373 -0.4889
  127CHL1  H18A15612   3.157   0.690   4.951  0.3078  0.0374  0.5120
  127CHL1  H18B15613   3.229   0.800   4.848  0.2454 -1.7135 -0.2069
  127CHL1  H18C15614   3.218   0.854   5.019  0.5189  2.1118 -2.2996
  127CHL1   C1215615   2.937   0.779   4.798 -0.4932 -0.3729  0.6808
  127CHL1  H12A15616   2.917   0.680   4.845  0.9542 -0.2125  1.7165
  127CHL1  H12B15617   2.835   0.823   4.794  0.1806  1.2508  0.4338
  127CHL1   C1115618   2.997   0.760   4.656 -0.5661  0.4813 -0.3365
  127CHL1  H11A15619   3.092   0.707   4.674  0.6043  1.8745 -2.0711
  127CHL1  H11B15620   2.925   0.708   4.589 -2.0994 -0.2731  1.7799
  127CHL1    C915621   3.021   0.903   4.595  0.2662  0.0147  0.7984
  127CHL1    H915622   2.926   0.958   4.576  1.0697  1.4341  0.7447
  127CHL1   C1015623   3.090   0.895   4.457 -0.2565 -0.0227  0.0924
  127CHL1   C1915624   3.196   0.784   4.459  0.3105 -0.1599 -0.5588
  127CHL1  H19A15625   3.151   0.683   4.447 -2.6615  0.8575  0.8964
  127CHL1  H19B15626   3.270   0.799   4.378 -1.9619  2.0431 -2.4033
  127CHL1  H19C15627   3.255   0.794   4.553 -1.0309 -1.0973  0.4277
  127CHL1    C115628   2.985   0.872   4.349  0.0831  0.8119 -0.3480
  127CHL1   H1A15629   2.928   0.780   4.375  0.9194  0.4805  0.3466
  127CHL1   H1B15630   2.915   0.959   4.347 -0.0826  0.6833 -0.2527
  127CHL1    C215631   3.042   0.854   4.210  0.3426  0.1329 -0.0283
  127CHL1   H2A15632   2.945   0.837   4.158  0.3979  1.8029 -0.7167
  127CHL1   H2B15633   3.110   0.766   4.201  0.7629  0.3543  0.8818
  127CHL1   C2015634   2.982   0.791   5.145  0.1171  0.2920 -0.4720
  127CHL1   H2015635   3.091   0.784   5.164  0.5619  2.5468 -1.8239
  127CHL1   C2115636   2.923   0.648   5.116 -0.1428 -0.1833 -0.0994
  127CHL1  H21A15637   2.821   0.650   5.072 -0.4292  0.3024  0.5707
  127CHL1  H21B15638   2.922   0.580   5.204  0.8927 -1.0933 -0.7593
  127CHL1  H21C15639   2.986   0.605   5.035  1.6078  0.9096  0.6158
  127CHL1   C2215640   2.924   0.842   5.277 -0.0378  0.1754 -0.0710
  127CHL1  H22A15641   2.927   0.952   5.291 -1.7007  0.2269 -0.0174
  127CHL1  H22B15642   2.819   0.815   5.297  0.1947 -1.1855 -0.5718
  127CHL1   C2315643   3.013   0.801   5.398 -0.3884  1.0430 -0.0747
  127CHL1  H23A15644   2.954   0.828   5.488 -2.7914  0.4102 -1.3580
  127CHL1  H23B15645   3.026   0.691   5.391 -1.7233  0.7250  1.6291
  127CHL1   C2415646   3.156   0.854   5.387  0.1632  0.7310  0.0497
  127CHL1  H24A15647   3.216   0.800   5.311 -0.6667 -0.7334  0.3752
  127CHL1  H24B15648   3.146   0.961   5.360  0.4226 -0.1450 -4.0681
  127CHL1   C2515649   3.249   0.830   5.511 -0.4167 -0.1321 -0.1475
  127CHL1   H2515650   3.239   0.722   5.533  0.8083 -0.6414 -1.9274
  127CHL1   C2615651   3.400   0.864   5.483 -0.7370 -0.2423  0.1552
  127CHL1  H26A15652   3.455   0.798   5.413 -1.5309  0.6243 -1.3385
  127CHL1  H26B15653   3.406   0.962   5.432  0.7943 -0.1973  0.3771
  127CHL1  H26C15654   3.451   0.884   5.579 -2.3196  3.2512  0.4098
  127CHL1   C2715655   3.200   0.921   5.627 -0.5462  0.0511 -0.6028
  127CHL1  H27A15656   3.094   0.897   5.649 -0.5070 -0.6176 -1.1332
  127CHL1  H27B15657   3.261   0.917   5.720 -2.7940 -2.2445  0.9245
  127CHL1  H27C15658   3.206   1.027   5.594  0.7346 -0.4678 -2.1843
  128CHL1    C315659   4.370   2.723   4.828  0.3249  0.3250  0.6568
  128CHL1    H315660   4.338   2.619   4.807 -1.7146  0.7251  1.5020
  128CHL1    O315661   4.425   2.762   4.707  0.2742 -0.7173  0.4829
  128CHL1   H3'15662   4.443   2.854   4.731  0.0741 -0.6175  0.2585
  128CHL1    C415663   4.245   2.803   4.868  0.1021 -0.3818  0.8980
  128CHL1   H4A15664   4.271   2.911   4.862 -1.7694  0.0645 -0.2962
  128CHL1   H4B15665   4.165   2.788   4.791  0.5927  0.3948  0.2224
  128CHL1    C515666   4.195   2.769   5.008 -0.2239 -0.4204 -0.1365
  128CHL1    C615667   4.075   2.724   5.028  0.2154 -0.0802 -0.5906
  128CHL1    H615668   4.008   2.713   4.942 -0.4051 -0.9742 -0.0042
  128CHL1    C715669   4.017   2.704   5.163  0.4440 -0.0034  0.9232
  128CHL1   H7A15670   3.915   2.747   5.171  1.5229  2.7336  0.7925
  128CHL1   H7B15671   4.004   2.597   5.192  2.9007 -0.4207  0.6693
  128CHL1    C815672   4.103   2.768   5.271  0.1797 -0.1405 -0.5035
  128CHL1    H815673   4.096   2.876   5.244  2.8869 -0.2841 -2.1572
  128CHL1   C1415674   4.052   2.735   5.417 -0.4802 -0.1365  0.5434
  128CHL1   H1415675   4.057   2.624   5.429 -0.7863 -0.3877 -1.2865
  128CHL1   C1515676   3.910   2.782   5.446  0.2228 -0.4169  0.6279
  128CHL1  H15A15677   3.886   2.881   5.400  1.2527 -0.3500  0.2113
  128CHL1  H15B15678   3.845   2.705   5.399  1.1360 -0.7699 -0.0706
  128CHL1   C1615679   3.904   2.780   5.601 -0.1358  0.3107 -0.6433
  128CHL1  H16A15680   3.866   2.874   5.646 -2.9036 -2.0749  2.4890
  128CHL1  H16B15681   3.833   2.703   5.639  0.0469  0.0213 -0.8836
  128CHL1   C1715682   4.046   2.738   5.647  0.3283 -0.4278 -0.2467
  128CHL1   H1715683   4.058   2.628   5.654  1.5615 -0.1982  3.3141
  128CHL1   C1315684   4.135   2.788   5.533  0.1571 -0.7389  0.4862
  128CHL1   C1815685   4.145   2.936   5.527  1.2375 -0.2302 -0.2355
  128CHL1  H18A15686   4.172   2.972   5.425  0.5114  1.8500  0.2431
  128CHL1  H18B15687   4.040   2.971   5.540  1.9622  1.2625  2.3945
  128CHL1  H18C15688   4.205   2.986   5.606 -0.2258 -2.7106  2.6111
  128CHL1   C1215689   4.274   2.725   5.504  0.8269 -0.0701 -0.2547
  128CHL1  H12A15690   4.350   2.739   5.584  0.7668 -0.3617 -0.1434
  128CHL1  H12B15691   4.263   2.615   5.492  0.4422 -0.3798  2.3806
  128CHL1   C1115692   4.337   2.779   5.378  0.5220  0.4413  0.6827
  128CHL1  H11A15693   4.348   2.889   5.381 -0.0429  0.5035  0.6298
  128CHL1  H11B15694   4.438   2.733   5.369 -0.5109 -1.5025 -2.8507
  128CHL1    C915695   4.251   2.739   5.250 -0.5347 -0.2478  0.2982
  128CHL1    H915696   4.262   2.629   5.246 -1.8938 -0.3571 -1.4081
  128CHL1   C1015697   4.302   2.787   5.118  0.4916 -0.6447  0.5739
  128CHL1   C1915698   4.348   2.935   5.129 -0.2499 -0.3978  0.8642
  128CHL1  H19A15699   4.427   2.955   5.205  1.4560  1.3422 -1.2249
  128CHL1  H19B15700   4.390   2.967   5.031  0.6511  1.5816  1.8355
  128CHL1  H19C15701   4.263   3.000   5.158  0.5351  0.8702  0.4161
  128CHL1    C115702   4.423   2.701   5.072  0.4349 -0.3322  0.3746
  128CHL1   H1A15703   4.505   2.712   5.147  0.4245 -1.7423  0.6241
  128CHL1   H1B15704   4.386   2.596   5.069 -2.7220  0.6474  1.2920
  128CHL1    C215705   4.478   2.733   4.930 -0.2954  0.6160 -0.0620
  128CHL1   H2A15706   4.558   2.661   4.904 -1.3280 -1.2835  1.7443
  128CHL1   H2B15707   4.507   2.840   4.922 -0.2773  0.4684 -3.1244
  128CHL1   C2015708   4.075   2.797   5.787  0.3271 -0.3248  0.5785
  128CHL1   H2015709   4.068   2.907   5.772  0.7113 -0.2610  0.8496
  128CHL1   C2115710   4.219   2.780   5.826  0.5848  0.0720  0.5669
  128CHL1  H21A15711   4.243   2.817   5.928  0.7202  0.4530  0.3988
  128CHL1  H21B15712   4.282   2.830   5.749 -1.3653  0.9579 -0.5268
  128CHL1  H21C15713   4.244   2.672   5.820  2.4260  0.5412 -2.6228
  128CHL1   C2215714   3.967   2.764   5.898  0.0024  0.7112  0.3815
  128CHL1  H22A15715   3.866   2.790   5.860  0.0670  0.8527  0.3083
  128CHL1  H22B15716   3.965   2.653   5.911 -0.6439  0.5892 -0.6097
  128CHL1   C2315717   3.976   2.844   6.030 -0.6930  0.1116 -0.1267
  128CHL1  H23A15718   4.084   2.849   6.053 -0.3555 -0.2576 -1.5507
  128CHL1  H23B15719   3.934   2.945   6.009  0.8427  0.8314  0.1324
  128CHL1   C2415720   3.910   2.779   6.151 -0.0136 -0.1766  0.3509
  128CHL1  H24A15721   3.801   2.796   6.146 -0.6254 -2.7921  2.5641
  128CHL1  H24B15722   3.936   2.671   6.148 -1.1402 -0.4698  0.8633
  128CHL1   C2515723   3.949   2.844   6.283  0.4081  0.2913  0.8652
  128CHL1   H2515724   4.059   2.856   6.280  0.2546  1.8407  0.9415
  128CHL1   C2615725   3.887   2.984   6.301 -0.5044  0.6553  0.1659
  128CHL1  H26A15726   3.910   3.035   6.205  0.6297  0.2768  0.2124
  128CHL1  H26B15727   3.781   2.960   6.319 -0.0591 -1.8515 -0.1695
  128CHL1  H26C15728   3.933   3.044   6.383  2.9743 -1.0635 -0.3322
  128CHL1   C2715729   3.907   2.750   6.397 -0.1710 -0.6570 -0.1966
  128CHL1  H27A15730   3.926   2.803   6.493 -1.7413  0.2364 -0.3455
  128CHL1  H27B15731   3.796   2.754   6.399 -0.1332  0.5107  1.1884
  128CHL1  H27C15732   3.943   2.645   6.389  0.5735 -0.6500  2.3124
  129CHL1    C315733   4.734   0.515   3.808 -1.0622  0.4130 -0.9610
  129CHL1    H315734   4.822   0.448   3.803 -0.8582 -0.2745  4.9065
  129CHL1    O315735   4.709   0.570   3.682 -0.4626  0.3587 -0.3373
  129CHL1   H3'15736   4.796   0.589   3.645 -0.8039  0.3779 -1.1461
  129CHL1    C415737   4.616   0.426   3.855  0.0220  0.0651 -0.1930
  129CHL1   H4A15738   4.522   0.482   3.836  0.1942  0.1227 -0.8889
  129CHL1   H4B15739   4.603   0.342   3.783 -0.2775  1.9255 -2.4218
  129CHL1    C515740   4.632   0.382   3.999 -0.4254  0.2625 -0.1458
  129CHL1    C615741   4.631   0.255   4.036  0.3213 -0.2921  0.3986
  129CHL1    H615742   4.620   0.172   3.965  1.2751 -0.8793  0.9201
  129CHL1    C715743   4.645   0.207   4.180 -0.2118  0.8007  0.6502
  129CHL1   H7A15744   4.576   0.120   4.185  0.7995 -0.0270  0.5278
  129CHL1   H7B15745   4.743   0.158   4.197 -0.4362  0.2731  0.4698
  129CHL1    C815746   4.609   0.319   4.279  0.2166 -0.1826  0.5940
  129CHL1    H815747   4.499   0.335   4.271  0.3311 -0.3099 -1.8944
  129CHL1   C1415748   4.641   0.270   4.420 -0.8783  0.2158 -0.1981
  129CHL1   H1415749   4.752   0.260   4.419 -0.9938 -1.2509 -0.1357
  129CHL1   C1515750   4.585   0.132   4.466 -0.0533  0.1943 -0.0705
  129CHL1  H15A15751   4.483   0.114   4.425 -0.0935 -1.3652  0.6348
  129CHL1  H15B15752   4.656   0.062   4.417 -1.6116 -1.2704 -0.3183
  129CHL1   C1615753   4.587   0.138   4.617 -0.5194 -0.0955  0.3863
  129CHL1  H16A15754   4.485   0.117   4.655 -0.1662 -0.1184  1.3660
  129CHL1  H16B15755   4.653   0.059   4.658  0.8052  1.4465  1.3818
  129CHL1   C1715756   4.628   0.286   4.656  0.8772  0.0301 -0.7041
  129CHL1   H1715757   4.737   0.273   4.672  0.5656 -0.5173  1.3632
  129CHL1   C1315758   4.612   0.373   4.529  0.1423 -0.7229 -0.6195
  129CHL1   C1815759   4.458   0.423   4.521 -0.1751  0.7456  0.6952
  129CHL1  H18A15760   4.391   0.335   4.528  0.4881 -0.4053 -4.0695
  129CHL1  H18B15761   4.425   0.496   4.598 -1.6206 -1.6524  2.5008
  129CHL1  H18C15762   4.430   0.461   4.420 -1.0249  1.0584  1.0399
  129CHL1   C1215763   4.704   0.496   4.503 -0.2690 -0.0596 -0.6587
  129CHL1  H12A15764   4.680   0.579   4.573 -0.5978 -1.0736  0.4542
  129CHL1  H12B15765   4.809   0.464   4.518  0.0785  1.6339  0.7680
  129CHL1   C1115766   4.689   0.553   4.360  0.2296  0.1044 -0.5167
  129CHL1  H11A15767   4.595   0.612   4.357  0.7582  0.9432 -1.0307
  129CHL1  H11B15768   4.776   0.619   4.343 -1.6350  2.4119 -1.5639
  129CHL1    C915769   4.687   0.446   4.248  0.0951 -0.5419  0.2488
  129CHL1    H915770   4.793   0.414   4.253  0.1543 -0.1770  1.8687
  129CHL1   C1015771   4.646   0.499   4.102 -0.4666 -0.4880 -0.2496
  129CHL1   C1915772   4.512   0.586   4.102  0.0244 -0.4523  0.0711
  129CHL1  H19A15773   4.436   0.512   4.136  2.5981 -2.8348  0.9726
  129CHL1  H19B15774   4.514   0.677   4.166  2.6390  0.4128 -1.1313
  129CHL1  H19C15775   4.487   0.625   4.001  1.6321  0.2325 -0.0951
  129CHL1    C115776   4.763   0.595   4.056  0.1507  0.1024  0.2222
  129CHL1   H1A15777   4.776   0.680   4.125 -1.1923  0.5837 -0.0916
  129CHL1   H1B15778   4.857   0.536   4.065  0.5831  0.6529 -0.5595
  129CHL1    C215779   4.751   0.638   3.907 -0.3897 -0.3464 -0.7735
  129CHL1   H2A15780   4.845   0.691   3.881 -0.9014  1.8650  1.4932
  129CHL1   H2B15781   4.671   0.715   3.903  0.8073  0.9788 -0.2352
  129CHL1   C2015782   4.577   0.343   4.797 -0.2166  0.0029  0.3679
  129CHL1   H2015783   4.469   0.369   4.788  0.1774  1.4590 -0.4530
  129CHL1   C2115784   4.653   0.477   4.818 -0.7937 -0.5175  0.3479
  129CHL1  H21A15785   4.758   0.469   4.785 -0.3794  0.8162  1.2938
  129CHL1  H21B15786   4.649   0.507   4.925 -3.4804 -0.8387  0.4231
  129CHL1  H21C15787   4.599   0.551   4.755 -0.2869 -0.3537  0.0989
  129CHL1   C2215788   4.603   0.245   4.914 -0.1227 -0.4806 -0.0300
  129CHL1  H22A15789   4.537   0.158   4.893 -0.5196  0.0067 -0.8525
  129CHL1  H22B15790   4.710   0.215   4.912  0.1981  0.5844  0.5407
  129CHL1   C2315791   4.572   0.289   5.058 -0.1932  0.7178  0.5974
  129CHL1  H23A15792   4.637   0.373   5.089 -1.2298  1.9311 -0.3637
  129CHL1  H23B15793   4.468   0.329   5.069  0.0378  1.2635  0.8174
  129CHL1   C2415794   4.614   0.178   5.157 -0.3763 -0.5122  0.0845
  129CHL1  H24A15795   4.550   0.087   5.151 -0.9213 -0.1863  0.8254
  129CHL1  H24B15796   4.719   0.148   5.139  0.4216  0.4723  2.7004
  129CHL1   C2515797   4.601   0.230   5.305  0.1831  0.9626 -0.1042
  129CHL1   H2515798   4.667   0.320   5.304  0.1638  0.9762 -0.8859
  129CHL1   C2615799   4.466   0.273   5.355 -0.2232  0.1451  0.2551
  129CHL1  H26A15800   4.464   0.265   5.465 -1.3317 -0.4168  0.2046
  129CHL1  H26B15801   4.437   0.377   5.329 -0.2398 -0.0096 -0.3850
  129CHL1  H26C15802   4.387   0.204   5.318 -0.1059  0.7616 -1.2557
  129CHL1   C2715803   4.674   0.131   5.399  0.3113  0.1068 -0.0958
  129CHL1  H27A15804   4.774   0.097   5.362  1.2925 -0.9990  3.2350
  129CHL1  H27B15805   4.687   0.181   5.497 -1.1163 -0.3160  0.3192
  129CHL1  H27C15806   4.615   0.037   5.403 -0.3036  0.3242 -2.4359
  130CHL1    C315807   3.399   1.659   4.074  0.7355  0.4560  1.1216
  130CHL1    H315808   3.289   1.660   4.087  0.6035  0.8113  0.0703
  130CHL1    O315809   3.444   1.698   3.946 -0.8344  0.2527 -0.8697
  130CHL1   H3'15810   3.424   1.792   3.942  0.2147  0.4584 -1.7229
  130CHL1    C415811   3.461   1.748   4.180  0.6065  0.2133 -0.9162
  130CHL1   H4A15812   3.569   1.755   4.153  1.1427  0.3416  1.0896
  130CHL1   H4B15813   3.426   1.853   4.183  1.3291  0.4510 -0.5307
  130CHL1    C515814   3.444   1.706   4.325 -0.4944  0.6463 -0.1579
  130CHL1    C615815   3.372   1.765   4.413 -0.3413 -0.3030 -0.4604
  130CHL1    H615816   3.336   1.862   4.378  1.2708  0.0421 -1.2828
  130CHL1    C715817   3.354   1.724   4.558 -0.2782 -0.4391  0.1389
  130CHL1   H7A15818   3.355   1.813   4.624  0.3134 -1.4945  1.6163
  130CHL1   H7B15819   3.254   1.678   4.567  0.1707 -1.9111 -1.7393
  130CHL1    C815820   3.467   1.626   4.599 -0.9449 -0.5320 -0.4096
  130CHL1    H815821   3.566   1.676   4.604 -0.1995 -2.0525  2.4554
  130CHL1   C1415822   3.433   1.566   4.737  0.5606  0.0502  0.6279
  130CHL1   H1415823   3.336   1.513   4.745  1.1293 -0.7605  2.7395
  130CHL1   C1515824   3.445   1.659   4.857  0.1310  0.9563  0.1835
  130CHL1  H15A15825   3.539   1.718   4.854  1.7944 -1.5539 -3.1637
  130CHL1  H15B15826   3.360   1.731   4.852 -2.0591 -1.4279  0.7022
  130CHL1   C1615827   3.434   1.569   4.980  0.2290 -0.5314  0.9034
  130CHL1  H16A15828   3.501   1.606   5.061  1.3864  0.7574 -0.5932
  130CHL1  H16B15829   3.329   1.569   5.017  0.3949  0.3264  1.4135
  130CHL1   C1715830   3.476   1.426   4.923 -0.2963 -0.5989 -0.2405
  130CHL1   H1715831   3.387   1.360   4.911 -1.0407  0.4769 -0.7456
  130CHL1   C1315832   3.523   1.451   4.771  0.3836  0.2010  0.0672
  130CHL1   C1815833   3.670   1.508   4.788 -0.0841 -0.0191 -1.0080
  130CHL1  H18A15834   3.706   1.555   4.694 -1.2636 -0.6980 -1.8172
  130CHL1  H18B15835   3.676   1.581   4.871 -0.6084  0.6182 -1.5212
  130CHL1  H18C15836   3.732   1.420   4.818  0.7218  0.5409 -0.9855
  130CHL1   C1215837   3.510   1.333   4.683 -0.2522  0.1232  0.0483
  130CHL1  H12A15838   3.578   1.249   4.706  0.9897  1.3085  0.8348
  130CHL1  H12B15839   3.404   1.302   4.694 -0.6136  0.7032 -1.4786
  130CHL1   C1115840   3.542   1.378   4.536 -0.6538  0.6798 -0.3685
  130CHL1  H11A15841   3.652   1.375   4.527 -0.7492 -0.1613 -1.6470
  130CHL1  H11B15842   3.505   1.292   4.475 -1.4067 -1.2349  2.6093
  130CHL1    C915843   3.472   1.514   4.494  0.6337 -0.4700 -0.3523
  130CHL1    H915844   3.369   1.472   4.489  0.3653  0.0509  0.5226
  130CHL1   C1015845   3.509   1.571   4.353  0.4678  0.1617  0.0509
  130CHL1   C1915846   3.658   1.573   4.342  0.6154 -0.0899  0.3635
  130CHL1  H19A15847   3.685   1.608   4.240  2.5840 -1.4310  0.3688
  130CHL1  H19B15848   3.694   1.655   4.408 -1.2158  0.3660  0.8479
  130CHL1  H19C15849   3.702   1.472   4.358 -1.1858 -0.8792  0.5166
  130CHL1    C115850   3.450   1.474   4.248 -0.0184  0.0362  1.1133
  130CHL1   H1A15851   3.488   1.370   4.244  0.8364  0.3621 -0.2291
  130CHL1   H1B15852   3.341   1.464   4.267 -0.9747  1.2154 -2.8031
  130CHL1    C215853   3.452   1.519   4.096 -0.3263 -0.1134  0.1001
  130CHL1   H2A15854   3.398   1.445   4.033  0.5546 -0.3784 -0.3562
  130CHL1   H2B15855   3.558   1.513   4.064 -0.0614  0.0187  0.9337
  130CHL1   C2015856   3.574   1.363   5.029  0.1928  0.1543  0.4088
  130CHL1   H2015857   3.671   1.417   5.032  0.4071 -0.1188 -0.9689
  130CHL1   C2115858   3.616   1.221   4.981  0.8077 -0.0389 -0.4306
  130CHL1  H21A15859   3.538   1.143   4.974  0.1336  0.7387 -1.9403
  130CHL1  H21B15860   3.701   1.181   5.041  0.4354  0.8060  0.7091
  130CHL1  H21C15861   3.658   1.244   4.881  1.7248  3.6619  0.6557
  130CHL1   C2215862   3.510   1.359   5.172  0.0637  0.6063  0.0148
  130CHL1  H22A15863   3.461   1.451   5.212  0.4570  0.9345 -0.2456
  130CHL1  H22B15864   3.428   1.285   5.155  1.2838 -0.1615 -3.3290
  130CHL1   C2315865   3.613   1.311   5.279 -0.7365  0.7681  0.1980
  130CHL1  H23A15866   3.657   1.215   5.245 -0.2233  1.4467 -1.1625
  130CHL1  H23B15867   3.697   1.385   5.285  0.8550 -1.0488  1.4152
  130CHL1   C2415868   3.544   1.288   5.413 -0.4691  0.4424 -0.4392
  130CHL1  H24A15869   3.531   1.384   5.468 -0.4966  1.1457 -1.6438
  130CHL1  H24B15870   3.449   1.232   5.397  0.8973 -1.8314 -1.0899
  130CHL1   C2515871   3.641   1.224   5.520 -0.0130  0.5065  0.4905
  130CHL1   H2515872   3.678   1.129   5.475 -1.1640  0.0179  0.5578
  130CHL1   C2615873   3.757   1.306   5.563 -0.3636 -0.1480 -0.2187
  130CHL1  H26A15874   3.824   1.311   5.475 -1.5447 -1.0372 -1.1966
  130CHL1  H26B15875   3.729   1.413   5.579 -0.1378 -0.0669 -0.3598
  130CHL1  H26C15876   3.799   1.263   5.657 -1.2811 -0.8430 -0.1223
  130CHL1   C2715877   3.561   1.181   5.644  0.3275  0.5234 -0.1832
  130CHL1  H27A15878   3.471   1.123   5.614  0.8499 -0.9810  0.9786
  130CHL1  H27B15879   3.620   1.107   5.704 -1.3172 -0.2236  0.5572
  130CHL1  H27C15880   3.540   1.266   5.712  2.1413 -1.0777  2.6101
  131CHL1    C315881   1.597   0.275   4.380  0.0923  1.0874  0.3784
  131CHL1    H315882   1.633   0.170   4.386 -2.3827  0.1617  0.0719
  131CHL1    O315883   1.583   0.294   4.237 -0.3464 -0.1068  0.4426
  131CHL1   H3'15884   1.667   0.335   4.215 -0.7696 -0.0465 -1.1822
  131CHL1    C415885   1.458   0.269   4.445  0.9478 -0.1015 -0.2227
  131CHL1   H4A15886   1.401   0.355   4.403 -1.1493 -1.6699 -0.8294
  131CHL1   H4B15887   1.385   0.193   4.408 -0.2445  1.4759 -1.2614
  131CHL1    C515888   1.476   0.248   4.594  0.7955 -0.6705 -0.3127
  131CHL1    C615889   1.433   0.136   4.658 -0.0673  0.2294  0.3670
  131CHL1    H615890   1.382   0.059   4.600  2.5855 -0.2278 -1.5485
  131CHL1    C715891   1.425   0.128   4.807  0.6967  0.5278 -0.0630
  131CHL1   H7A15892   1.324   0.094   4.838  1.0400 -1.2489 -0.7975
  131CHL1   H7B15893   1.484   0.039   4.837 -1.9140 -0.8197  1.3942
  131CHL1    C815894   1.448   0.260   4.882  0.3261 -0.7494  0.0536
  131CHL1    H815895   1.350   0.312   4.889 -0.4308 -2.0723 -0.2670
  131CHL1   C1415896   1.494   0.236   5.024 -0.0399 -0.1306 -0.3700
  131CHL1   H1415897   1.595   0.192   5.014 -1.0935 -3.0137  0.8395
  131CHL1   C1515898   1.416   0.134   5.108  0.6389  0.1574 -0.8502
  131CHL1  H15A15899   1.306   0.144   5.101  0.7101  1.4192 -0.2663
  131CHL1  H15B15900   1.452   0.033   5.077  1.6192  0.3823 -0.4817
  131CHL1   C1615901   1.446   0.178   5.249  0.1096  1.2413 -0.4755
  131CHL1  H16A15902   1.349   0.200   5.299 -2.0655  0.9792 -4.2035
  131CHL1  H16B15903   1.492   0.095   5.307 -0.3915  1.5801  0.4295
  131CHL1   C1715904   1.532   0.303   5.237 -0.6510 -0.2452  0.2165
  131CHL1   H1715905   1.634   0.262   5.227 -0.7529 -0.0799 -1.9741
  131CHL1   C1315906   1.496   0.366   5.113  0.3790  0.1014  0.5207
  131CHL1   C1815907   1.360   0.440   5.123  0.1694  0.0354 -0.4111
  131CHL1  H18A15908   1.350   0.502   5.031  1.5331  1.0270  0.0821
  131CHL1  H18B15909   1.276   0.372   5.148  0.7306 -0.2237  0.8538
  131CHL1  H18C15910   1.369   0.510   5.210  1.4154 -1.1121  0.4191
  131CHL1   C1215911   1.606   0.461   5.047  0.3920  0.2755  0.6245
  131CHL1  H12A15912   1.613   0.564   5.088  1.4838  0.8876 -1.0113
  131CHL1  H12B15913   1.707   0.415   5.040 -0.7548 -2.1591 -3.2687
  131CHL1   C1115914   1.585   0.485   4.896  0.1478 -0.2587  0.0166
  131CHL1  H11A15915   1.509   0.565   4.886  2.9071  2.8935  2.0510
  131CHL1  H11B15916   1.678   0.524   4.849  0.0732 -0.2454 -0.1203
  131CHL1    C915917   1.559   0.348   4.815  0.4347 -0.0816 -0.0699
  131CHL1    H915918   1.647   0.280   4.824  0.2538 -0.5267 -1.4033
  131CHL1   C1015919   1.541   0.370   4.660  0.5513 -0.1808  0.6445
  131CHL1   C1915920   1.453   0.500   4.636 -0.5477  0.2121 -0.2146
  131CHL1  H19A15921   1.508   0.589   4.673  0.1206  1.1975 -3.2778
  131CHL1  H19B15922   1.443   0.529   4.529  0.7157  1.3747 -0.0487
  131CHL1  H19C15923   1.354   0.495   4.687  0.0190  2.0166  1.1452
  131CHL1    C115924   1.688   0.372   4.595  0.5161  1.1041  0.4847
  131CHL1   H1A15925   1.750   0.454   4.638  2.1323  1.5945 -2.5291
  131CHL1   H1B15926   1.738   0.276   4.619  0.1346  0.9455  0.6435
  131CHL1    C215927   1.684   0.385   4.441 -0.4929  0.0909  0.9524
  131CHL1   H2A15928   1.785   0.384   4.395 -0.6023 -0.4302  0.7118
  131CHL1   H2B15929   1.631   0.474   4.401 -1.3635 -0.6650  0.3832
  131CHL1   C2015930   1.553   0.381   5.367 -0.2054 -0.4786  0.4834
  131CHL1   H2015931   1.461   0.440   5.391 -0.7133 -1.4277  0.9394
  131CHL1   C2115932   1.676   0.472   5.349 -0.1556 -0.7384 -0.2346
  131CHL1  H21A15933   1.749   0.421   5.284  1.5953  2.8848 -1.4191
  131CHL1  H21B15934   1.720   0.490   5.450 -0.6117 -0.5599 -0.0634
  131CHL1  H21C15935   1.650   0.574   5.313  1.8048  1.4430  3.7795
  131CHL1   C2215936   1.584   0.297   5.493 -0.1995  0.2821  1.0362
  131CHL1  H22A15937   1.517   0.208   5.497 -1.1861  0.8297 -1.3892
  131CHL1  H22B15938   1.687   0.255   5.495 -0.4235 -0.2485  1.5073
  131CHL1   C2315939   1.567   0.371   5.627 -0.3906  0.3313  0.4725
  131CHL1  H23A15940   1.649   0.446   5.631  1.4754 -1.3354 -2.7291
  131CHL1  H23B15941   1.468   0.421   5.615  0.2989  1.7703  0.5332
  131CHL1   C2415942   1.556   0.282   5.755 -0.0793 -0.3499 -0.3466
  131CHL1  H24A15943   1.502   0.188   5.728 -1.4073  0.1045  0.6323
  131CHL1  H24B15944   1.662   0.258   5.778 -0.3232  0.2619  1.5861
  131CHL1   C2515945   1.487   0.358   5.877  0.3267 -0.1298 -0.1400
  131CHL1   H2515946   1.380   0.362   5.846  0.1585 -0.3427  0.4002
  131CHL1   C2615947   1.500   0.266   6.007  0.3073 -0.0283 -0.2480
  131CHL1  H26A15948   1.485   0.160   5.977  0.6027 -0.2266  0.2920
  131CHL1  H26B15949   1.596   0.278   6.061 -0.6917  2.2952  1.1870
  131CHL1  H26C15950   1.422   0.306   6.076 -0.8195 -1.9556 -0.3187
  131CHL1   C2715951   1.541   0.494   5.904  0.2907  0.5293  0.0397
  131CHL1  H27A15952   1.649   0.488   5.932  0.9938  2.7562 -1.8586
  131CHL1  H27B15953   1.542   0.548   5.807  0.8109 -4.9930 -3.4386
  131CHL1  H27C15954   1.477   0.547   5.978 -0.0578  0.6374 -0.3398
  132CHL1    C315955   5.438   2.372   5.276  1.0828  1.0581  0.0715
  132CHL1    H315956   5.422   2.481   5.288 -2.4415  0.6812 -0.0635
  132CHL1    O315957   5.487   2.351   5.146 -0.2868 -0.2100  0.0756
  132CHL1   H3'15958   5.436   2.280   5.106  0.8323 -0.0168 -1.8250
  132CHL1    C415959   5.547   2.330   5.374 -0.1695 -0.1255 -0.3851
  132CHL1   H4A15960   5.566   2.221   5.381 -3.6394 -0.8092  0.1981
  132CHL1   H4B15961   5.644   2.382   5.357  0.1342  0.0275  1.5806
  132CHL1    C515962   5.508   2.365   5.519  0.0215 -0.0650 -0.1340
  132CHL1    C615963   5.582   2.443   5.603 -0.2347  0.1003  0.3613
  132CHL1    H615964   5.685   2.466   5.573  0.2449 -3.4612 -1.2917
  132CHL1    C715965   5.540   2.458   5.746 -0.0093 -0.4503  0.0727
  132CHL1   H7A15966   5.630   2.440   5.809  2.4909  0.2306 -3.0270
  132CHL1   H7B15967   5.517   2.566   5.749  0.5613 -0.1859 -2.5919
  132CHL1    C815968   5.428   2.361   5.793  0.1716  0.3330 -0.0255
  132CHL1    H815969   5.468   2.259   5.808  0.8431  0.3489 -1.5561
  132CHL1   C1415970   5.362   2.416   5.926  0.6204  0.0226  0.1513
  132CHL1   H1415971   5.319   2.512   5.890 -0.6318 -0.1973  1.0024
  132CHL1   C1515972   5.460   2.456   6.037 -0.7432  0.5994  0.8112
  132CHL1  H15A15973   5.527   2.367   6.037  0.0447  1.0600 -2.7711
  132CHL1  H15B15974   5.516   2.548   6.009  3.0825 -1.2616  1.6541
  132CHL1   C1615975   5.364   2.463   6.157  0.6276  0.2143 -0.3889
  132CHL1  H16A15976   5.392   2.386   6.232 -2.2557 -2.2894 -1.6572
  132CHL1  H16B15977   5.367   2.556   6.217 -0.1044 -0.8817  1.4278
  132CHL1   C1715978   5.220   2.420   6.114  0.6649  0.3707 -0.7960
  132CHL1   H1715979   5.155   2.497   6.067 -0.3352 -0.8782 -1.5184
  132CHL1   C1315980   5.248   2.334   5.990  0.0034  0.2800  0.4632
  132CHL1   C1815981   5.298   2.188   6.014  0.1568 -0.4510 -0.1008
  132CHL1  H18A15982   5.213   2.137   6.063 -1.0399  1.5545  0.0184
  132CHL1  H18B15983   5.334   2.144   5.919 -1.0911 -1.5179 -0.0937
  132CHL1  H18C15984   5.382   2.194   6.087  1.3069  0.3124 -1.4293
  132CHL1   C1215985   5.134   2.332   5.883  0.5016 -0.2257  1.0374
  132CHL1  H12A15986   5.050   2.263   5.905 -0.7784  0.2316 -1.8924
  132CHL1  H12B15987   5.098   2.435   5.861 -1.3442 -1.4216 -2.2846
  132CHL1   C1115988   5.185   2.290   5.742  0.0826  0.2138 -0.4100
  132CHL1  H11A15989   5.202   2.180   5.742  1.3624  0.3450  2.1420
  132CHL1  H11B15990   5.112   2.308   5.660  0.1532 -0.5958 -0.6660
  132CHL1    C915991   5.312   2.356   5.691  0.2555 -1.4146 -0.0928
  132CHL1    H915992   5.270   2.457   5.669  1.9751 -0.9192 -1.3207
  132CHL1   C1015993   5.365   2.305   5.555  0.3022  0.2173 -0.0836
  132CHL1   C1915994   5.365   2.145   5.558  0.1921 -0.0912  0.0056
  132CHL1  H19A15995   5.260   2.109   5.567 -0.9582  2.5160 -1.5480
  132CHL1  H19B15996   5.408   2.106   5.463 -0.3450  2.6240 -1.4840
  132CHL1  H19C15997   5.429   2.112   5.642  0.5816 -0.8727 -0.5829
  132CHL1    C115998   5.259   2.330   5.444  0.4583 -0.5570 -0.6163
  132CHL1   H1A15999   5.170   2.268   5.468 -0.2157  0.1896 -1.1182
  132CHL1   H1B16000   5.228   2.436   5.457  3.8478  0.4780  0.0376
  132CHL1    C216001   5.300   2.309   5.303 -0.0215 -0.1988 -0.5856
  132CHL1   H2A16002   5.218   2.348   5.239  0.4375  0.8234 -0.5612
  132CHL1   H2B16003   5.290   2.199   5.286  0.6172 -0.3403 -0.0678
  132CHL1   C2016004   5.136   2.349   6.224 -0.0638 -0.2163 -0.0564
  132CHL1   H2016005   5.197   2.262   6.256  1.7673  0.4672 -1.5087
  132CHL1   C2116006   4.997   2.305   6.169 -0.3990 -0.3292 -0.5438
  132CHL1  H21A16007   5.005   2.224   6.093 -0.8235 -0.8395 -0.0558
  132CHL1  H21B16008   4.947   2.394   6.124 -2.2583  0.1456  2.1874
  132CHL1  H21C16009   4.929   2.268   6.249  0.3560 -1.7633 -0.5335
  132CHL1   C2216010   5.116   2.439   6.348 -0.3410 -0.3703  0.1415
  132CHL1  H22A16011   5.070   2.390   6.436 -0.4038 -0.0451  0.2890
  132CHL1  H22B16012   5.214   2.486   6.369 -1.7230  1.9020  1.8231
  132CHL1   C2316013   5.029   2.564   6.316 -0.0607 -0.7916  0.1768
  132CHL1  H23A16014   5.083   2.632   6.248  1.3732 -0.9271  1.1297
  132CHL1  H23B16015   4.931   2.528   6.278 -0.7589 -1.1537  2.1741
  132CHL1   C2416016   5.004   2.642   6.448 -0.3481 -0.4185 -0.1003
  132CHL1  H24A16017   4.927   2.721   6.431  1.9444  2.1051  0.6012
  132CHL1  H24B16018   4.981   2.568   6.528  0.9485 -1.4650 -0.6688
  132CHL1   C2516019   5.130   2.714   6.506 -0.5825  0.0617  0.1894
  132CHL1   H2516020   5.210   2.639   6.521  0.0159  0.6586  0.0275
  132CHL1   C2616021   5.196   2.816   6.404 -0.0688  0.2657 -0.2583
  132CHL1  H26A16022   5.138   2.910   6.402  1.0961  0.9930 -0.2495
  132CHL1  H26B16023   5.292   2.849   6.449  0.4735  0.6486 -1.6543
  132CHL1  H26C16024   5.224   2.785   6.301  0.2928 -1.4179  0.3108
  132CHL1   C2716025   5.095   2.779   6.635 -0.2934 -0.0974  0.8056
  132CHL1  H27A16026   5.032   2.869   6.620 -0.8115 -0.7268 -1.0887
  132CHL1  H27B16027   5.031   2.705   6.688  0.7687 -1.5642  0.1047
  132CHL1  H27C16028   5.182   2.817   6.691  0.2120  1.3241 -0.8494
  133CHL1    C316029   2.766   4.342   4.869 -0.0611  0.1860  0.1401
  133CHL1    H316030   2.841   4.424   4.860  1.0001 -0.5398  1.7990
  133CHL1    O316031   2.709   4.320   4.737  0.3261  0.3279 -0.4608
  133CHL1   H3'16032   2.627   4.271   4.750  0.3362  0.6210  0.8480
  133CHL1    C416033   2.837   4.213   4.917 -0.1808 -0.4538 -0.4207
  133CHL1   H4A16034   2.784   4.119   4.891  1.1961 -1.2338 -0.5563
  133CHL1   H4B16035   2.931   4.206   4.857  1.0562 -1.5410  1.5311
  133CHL1    C516036   2.868   4.216   5.068  0.7305 -0.2579  0.5967
  133CHL1    C616037   2.985   4.180   5.118  0.7050 -0.1309  0.7601
  133CHL1    H616038   3.066   4.144   5.053  2.0919  2.2835  1.0233
  133CHL1    C716039   3.025   4.170   5.262  0.0980 -0.0799  0.5239
  133CHL1   H7A16040   3.074   4.070   5.263 -2.2220 -1.3342 -0.8641
  133CHL1   H7B16041   3.099   4.248   5.291  1.0409 -0.2280 -1.3452
  133CHL1    C816042   2.905   4.182   5.357 -0.2795 -0.3141 -0.1475
  133CHL1    H816043   2.844   4.089   5.358 -0.5254 -0.1756 -1.0778
  133CHL1   C1416044   2.948   4.204   5.499  0.6469 -0.1179  0.1486
  133CHL1   H1416045   3.009   4.297   5.494 -1.4386  1.3107  0.2644
  133CHL1   C1516046   3.024   4.089   5.566 -0.1774 -0.5281  0.6275
  133CHL1  H15A16047   2.975   3.990   5.555  0.1403 -0.5562 -0.6515
  133CHL1  H15B16048   3.123   4.105   5.519 -0.7155  1.4508  0.0811
  133CHL1   C1616049   3.010   4.128   5.715  0.3502 -0.4509  0.2890
  133CHL1  H16A16050   2.952   4.042   5.755 -1.3432  0.0138 -1.0502
  133CHL1  H16B16051   3.112   4.145   5.753  0.9036 -0.2189 -1.2329
  133CHL1   C1716052   2.924   4.258   5.721 -0.7196  0.4550 -0.1300
  133CHL1   H1716053   3.002   4.337   5.717 -1.4200  1.3479  2.2193
  133CHL1   C1316054   2.839   4.246   5.598 -0.4739  0.3764  0.5098
  133CHL1   C1816055   2.727   4.130   5.614 -0.3584 -0.2710  0.1066
  133CHL1  H18A16056   2.653   4.155   5.693  0.4368 -1.2335  1.1960
  133CHL1  H18B16057   2.670   4.112   5.520 -0.9655 -2.3206  0.8211
  133CHL1  H18C16058   2.776   4.034   5.638 -0.0298 -1.0338 -3.1271
  133CHL1   C1216059   2.770   4.367   5.543 -0.9069 -0.3194  0.3371
  133CHL1  H12A16060   2.694   4.425   5.600 -1.6406  1.4876 -2.2602
  133CHL1  H12B16061   2.840   4.449   5.516 -2.7381  0.3812 -2.8095
  133CHL1   C1116062   2.710   4.350   5.403 -0.1625  0.3944  0.4554
  133CHL1  H11A16063   2.614   4.294   5.412 -1.0174  1.1507 -2.7907
  133CHL1  H11B16064   2.674   4.446   5.361 -1.2470 -0.7104 -1.2681
  133CHL1    C916065   2.813   4.295   5.306 -0.6062 -0.4064 -0.6026
  133CHL1    H916066   2.884   4.380   5.298 -1.7963  0.8683  1.5569
  133CHL1   C1016067   2.754   4.267   5.159  0.1462 -0.5547  0.1602
  133CHL1   C1916068   2.645   4.158   5.160  0.5278 -0.4511  0.5303
  133CHL1  H19A16069   2.555   4.197   5.212  1.8032  2.7422  0.5944
  133CHL1  H19B16070   2.606   4.137   5.059 -0.9846  1.7151  0.6101
  133CHL1  H19C16071   2.686   4.068   5.212  0.5400 -0.0357  1.2543
  133CHL1    C116072   2.691   4.400   5.104 -0.2354 -0.4509  0.4637
  133CHL1   H1A16073   2.603   4.435   5.162 -0.7999  1.5301 -1.4625
  133CHL1   H1B16074   2.764   4.483   5.114  0.0420 -0.5478 -0.6164
  133CHL1    C216075   2.658   4.391   4.958  0.3311  0.0093 -0.3713
  133CHL1   H2A16076   2.631   4.492   4.918  0.1953 -0.5823 -1.8176
  133CHL1   H2B16077   2.565   4.332   4.946  0.9422 -0.8918 -0.7275
  133CHL1   C2016078   2.853   4.277   5.858 -0.0690 -0.5572  0.0792
  133CHL1   H2016079   2.780   4.195   5.876 -1.1719  0.2019 -0.7678
  133CHL1   C2116080   2.783   4.409   5.852  0.6179  0.2984 -0.8688
  133CHL1  H21A16081   2.681   4.400   5.808 -0.5582  1.6564  1.3884
  133CHL1  H21B16082   2.837   4.487   5.795  0.5717  2.0482  1.3249
  133CHL1  H21C16083   2.760   4.464   5.946  1.2940  0.8936 -1.0489
  133CHL1   C2216084   2.955   4.277   5.972 -0.5554 -0.2471 -0.0973
  133CHL1  H22A16085   2.988   4.172   5.982  0.5300  0.1853  1.1252
  133CHL1  H22B16086   3.038   4.338   5.931 -1.3793  1.2973  0.4414
  133CHL1   C2316087   2.925   4.322   6.116 -0.0096 -0.2447  0.2032
  133CHL1  H23A16088   2.909   4.432   6.117  0.6823 -0.1380 -0.1968
  133CHL1  H23B16089   2.826   4.278   6.143 -1.3271  2.4509  0.1903
  133CHL1   C2416090   3.026   4.277   6.221  0.5888 -0.0770  0.2827
  133CHL1  H24A16091   3.025   4.167   6.233  1.4757 -0.0504  0.7288
  133CHL1  H24B16092   3.130   4.303   6.192  0.1163 -0.3411 -1.7872
  133CHL1   C2516093   3.010   4.337   6.368 -0.0793  0.1870  0.0855
  133CHL1   H2516094   2.977   4.443   6.361  1.5174  0.6524 -1.1490
  133CHL1   C2616095   2.900   4.253   6.435 -0.1350  0.2775  1.2631
  133CHL1  H26A16096   2.909   4.143   6.426  0.9593  0.2739  2.1174
  133CHL1  H26B16097   2.895   4.282   6.543 -1.3329  0.1591  1.2584
  133CHL1  H26C16098   2.801   4.272   6.388  0.7080 -2.2912 -1.8395
  133CHL1   C2716099   3.147   4.326   6.442  0.3000 -0.3015 -1.0243
  133CHL1  H27A16100   3.221   4.397   6.400  0.6382  0.2605  0.4577
  133CHL1  H27B16101   3.134   4.359   6.548  0.8778 -1.1802 -0.6730
  133CHL1  H27C16102   3.180   4.221   6.452 -2.6066 -1.1360  1.8739
  134CHL1    C316103   6.109   4.593   5.039 -0.9074  0.3974  0.4665
  134CHL1    H316104   6.143   4.686   4.988 -0.4126 -1.3984 -2.7662
  134CHL1    O316105   6.100   4.507   4.927  0.3310 -0.0572 -0.0775
  134CHL1   H3'16106   6.023   4.532   4.877  0.0913  1.2461  0.8971
  134CHL1    C416107   6.211   4.532   5.131 -0.6442  0.2413 -0.8403
  134CHL1   H4A16108   6.168   4.430   5.136 -1.2412  0.5489  0.6107
  134CHL1   H4B16109   6.314   4.527   5.089  0.3451 -0.1932  1.4841
  134CHL1    C516110   6.218   4.598   5.270  0.0574 -0.0296 -0.1397
  134CHL1    C616111   6.332   4.627   5.330 -0.1418 -0.1856 -0.4331
  134CHL1    H616112   6.426   4.600   5.279  0.3566 -2.4505  1.5314
  134CHL1    C716113   6.341   4.684   5.469  0.3751  0.4343  0.7131
  134CHL1   H7A16114   6.420   4.627   5.523 -1.3890 -0.9423  1.9715
  134CHL1   H7B16115   6.379   4.788   5.460 -0.2489  0.5437 -1.1452
  134CHL1    C816116   6.208   4.691   5.550  0.6262 -0.1978 -0.2267
  134CHL1    H816117   6.191   4.589   5.588  0.0841 -0.4469 -1.1015
  134CHL1   C1416118   6.206   4.783   5.668 -0.2576 -0.4903 -0.3853
  134CHL1   H1416119   6.210   4.884   5.621 -1.1532 -0.5045 -0.4913
  134CHL1   C1516120   6.323   4.777   5.776  0.1606  0.7259  0.1394
  134CHL1  H15A16121   6.337   4.667   5.787  1.7456  0.9156  0.2374
  134CHL1  H15B16122   6.413   4.826   5.732 -0.3057  0.8266 -0.7185
  134CHL1   C1616123   6.265   4.856   5.896  0.6213  0.0242 -0.5877
  134CHL1  H16A16124   6.275   4.796   5.989  0.9222  0.0720 -0.5879
  134CHL1  H16B16125   6.322   4.951   5.902 -0.9416  0.9397  0.4108
  134CHL1   C1716126   6.117   4.895   5.858  0.0389  0.2571  0.5888
  134CHL1   H1716127   6.131   4.992   5.807 -1.0290 -0.1215 -0.4668
  134CHL1   C1316128   6.072   4.796   5.749  0.2373  0.3514  0.0410
  134CHL1   C1816129   6.039   4.661   5.819  0.4373 -0.3963 -0.5281
  134CHL1  H18A16130   6.026   4.573   5.752 -0.6192 -0.7509  0.1183
  134CHL1  H18B16131   6.109   4.621   5.895 -0.2767 -0.0153  0.3538
  134CHL1  H18C16132   5.940   4.666   5.870  0.6950 -2.3687  0.2632
  134CHL1   C1216133   5.968   4.841   5.650 -0.6104 -0.2162  0.3437
  134CHL1  H12A16134   5.865   4.846   5.693 -0.0419 -1.0221  1.8788
  134CHL1  H12B16135   5.987   4.940   5.603 -0.7676 -1.0011 -1.4380
  134CHL1   C1116136   5.964   4.738   5.536  0.0821  0.1923 -0.5923
  134CHL1  H11A16137   5.938   4.644   5.588  2.6661 -0.5594 -0.4961
  134CHL1  H11B16138   5.879   4.766   5.471 -2.8433 -0.9032  2.4895
  134CHL1    C916139   6.092   4.731   5.454  0.3457  0.5214 -0.8093
  134CHL1    H916140   6.129   4.831   5.423 -0.1105  0.9962  0.1334
  134CHL1   C1016141   6.082   4.636   5.334 -0.3827  0.8102 -0.1449
  134CHL1   C1916142   6.017   4.499   5.377  0.5765 -0.2270 -0.1083
  134CHL1  H19A16143   5.911   4.518   5.404  1.3497  0.6813  2.6333
  134CHL1  H19B16144   6.020   4.421   5.298 -0.0833 -0.5999  0.2285
  134CHL1  H19C16145   6.076   4.465   5.464  0.1230  2.0869  1.1804
  134CHL1    C116146   5.985   4.700   5.226 -0.1217 -0.2690  0.2801
  134CHL1   H1A16147   5.879   4.713   5.257 -0.1387 -1.2996  0.6692
  134CHL1   H1B16148   6.020   4.803   5.200 -2.3160  0.4631  0.0372
  134CHL1    C216149   5.971   4.617   5.101 -0.3084 -0.2697  0.6670
  134CHL1   H2A16150   5.901   4.676   5.038  0.3906 -0.2014 -0.0694
  134CHL1   H2B16151   5.924   4.520   5.128 -0.5392 -0.2502  0.3448
  134CHL1   C2016152   6.027   4.913   5.979 -0.4358 -0.4752  0.6416
  134CHL1   H2016153   6.025   4.819   6.038 -1.3755 -0.9628 -0.1577
  134CHL1   C2116154   5.887   4.953   5.929  0.5165  0.6819  0.0125
  134CHL1  H21A16155   5.830   4.866   5.890 -1.0287  0.9845  1.5054
  134CHL1  H21B16156   5.892   5.034   5.852 -1.7900  0.5283 -0.3585
  134CHL1  H21C16157   5.836   4.990   6.020 -0.6509 -2.4007  0.7206
  134CHL1   C2216158   6.089   5.021   6.075 -0.1095 -0.4964 -0.6524
  134CHL1  H22A16159   6.190   4.981   6.101 -1.0951 -2.2705  0.6610
  134CHL1  H22B16160   6.088   5.116   6.018 -3.1817 -0.2591 -0.3781
  134CHL1   C2316161   6.030   5.046   6.218  0.1533  0.0322 -0.0095
  134CHL1  H23A16162   5.923   5.076   6.219  0.7213  2.4762  3.1313
  134CHL1  H23B16163   6.042   4.949   6.271 -0.3681 -0.6060 -1.0338
  134CHL1   C2416164   6.123   5.140   6.301 -0.2482  0.4861  0.6915
  134CHL1  H24A16165   6.224   5.095   6.294 -0.3266  0.2859  0.8587
  134CHL1  H24B16166   6.141   5.223   6.229  0.3363 -2.1716 -2.4230
  134CHL1   C2516167   6.073   5.169   6.439 -0.2720 -0.9196  0.3602
  134CHL1   H2516168   6.109   5.271   6.464 -3.2076  0.5519 -0.8760
  134CHL1   C2616169   5.921   5.175   6.444 -0.0452 -0.1672  0.3477
  134CHL1  H26A16170   5.875   5.073   6.442  2.3871 -1.3419  0.5295
  134CHL1  H26B16171   5.895   5.217   6.543  2.4827  1.0343  0.5785
  134CHL1  H26C16172   5.875   5.245   6.372  2.7921  0.5094 -0.9414
  134CHL1   C2716173   6.128   5.073   6.539 -0.4624 -0.1436 -0.8985
  134CHL1  H27A16174   6.104   5.105   6.643 -1.3362 -2.6921 -0.2646
  134CHL1  H27B16175   6.102   4.967   6.522 -0.7875  0.1156 -2.0623
  134CHL1  H27C16176   6.239   5.080   6.542 -0.4883  0.2088 -0.6277
  135CHL1    C316177   6.278   4.126   5.352 -0.0382  0.0894 -0.7085
  135CHL1    H316178   6.181   4.178   5.363 -0.2705 -0.5490  0.5340
  135CHL1    O316179   6.299   4.102   5.217  0.2017 -0.1740  0.1539
  135CHL1   H3'16180   6.344   4.180   5.184  1.9689 -0.3309  1.9424
  135CHL1    C416181   6.397   4.195   5.418 -0.3275 -0.5313 -0.0161
  135CHL1   H4A16182   6.477   4.121   5.399 -1.7429 -2.1576  0.1547
  135CHL1   H4B16183   6.426   4.290   5.368  1.1518 -0.7120  0.4398
  135CHL1    C516184   6.375   4.217   5.569 -0.6318 -0.7470  0.3115
  135CHL1    C616185   6.380   4.340   5.615 -0.3257 -0.5189  0.4365
  135CHL1    H616186   6.411   4.421   5.547 -0.0821  0.2457  1.4319
  135CHL1    C716187   6.348   4.376   5.757  0.4136 -0.4137 -0.0016
  135CHL1   H7A16188   6.419   4.458   5.785  1.0407 -0.7928 -0.4493
  135CHL1   H7B16189   6.247   4.420   5.758  1.0872  1.2758 -1.2354
  135CHL1    C816190   6.365   4.257   5.855 -0.4684  0.0862  0.2116
  135CHL1    H816191   6.472   4.227   5.848  0.1078  2.4051 -3.1772
  135CHL1   C1416192   6.312   4.277   5.999 -0.2091 -0.4891 -0.4393
  135CHL1   H1416193   6.209   4.316   5.983  0.3900  1.3834  0.0720
  135CHL1   C1516194   6.384   4.390   6.081 -0.0353  0.0735  0.0229
  135CHL1  H15A16195   6.490   4.383   6.047  0.3714 -2.3623  1.5986
  135CHL1  H15B16196   6.342   4.488   6.049 -0.1706  1.1986  3.2383
  135CHL1   C1616197   6.358   4.364   6.226 -0.8238 -0.3292 -0.4608
  135CHL1  H16A16198   6.450   4.339   6.283  0.7717  1.6821 -1.9994
  135CHL1  H16B16199   6.296   4.441   6.278  0.1203 -0.5793  1.1024
  135CHL1   C1716200   6.259   4.248   6.229 -0.3189  0.4408  0.7262
  135CHL1   H1716201   6.160   4.291   6.204  0.3437  0.7432 -1.7078
  135CHL1   C1316202   6.295   4.161   6.100  0.4782  0.0050  0.1388
  135CHL1   C1816203   6.436   4.097   6.120 -0.1934  0.0489  0.8354
  135CHL1  H18A16204   6.510   4.174   6.151  0.9086 -1.0416  1.0264
  135CHL1  H18B16205   6.434   4.008   6.187 -0.6678 -0.2037  0.4920
  135CHL1  H18C16206   6.475   4.069   6.020 -1.4974 -0.4842  0.4602
  135CHL1   C1216207   6.192   4.065   6.036  0.0705 -0.5804 -0.5464
  135CHL1  H12A16208   6.182   3.979   6.105  0.1689 -1.5607 -1.7374
  135CHL1  H12B16209   6.092   4.114   6.029 -0.9942 -2.3852  0.9612
  135CHL1   C1116210   6.244   4.025   5.895 -0.0039  0.6767 -0.3400
  135CHL1  H11A16211   6.334   3.962   5.910  0.0024  0.6693 -0.4082
  135CHL1  H11B16212   6.161   3.961   5.857  0.1026 -0.2707  0.9436
  135CHL1    C916213   6.276   4.141   5.795 -0.3589 -0.7025 -0.8264
  135CHL1    H916214   6.173   4.177   5.776 -0.5252 -0.0475  1.1152
  135CHL1   C1016215   6.326   4.092   5.658 -0.5747 -0.7611  0.1612
  135CHL1   C1916216   6.450   3.995   5.683  0.1692 -0.7213 -0.0334
  135CHL1  H19A16217   6.526   4.046   5.747 -1.0560  0.9433  0.1726
  135CHL1  H19B16218   6.417   3.900   5.730  0.5544 -1.6728 -1.5985
  135CHL1  H19C16219   6.490   3.954   5.588 -1.8619 -0.7972 -0.9037
  135CHL1    C116220   6.220   4.020   5.576  0.1334 -0.0279  0.4170
  135CHL1   H1A16221   6.185   3.926   5.623 -2.1337  0.0845 -0.9297
  135CHL1   H1B16222   6.133   4.088   5.568 -2.2498 -3.0451 -1.2239
  135CHL1    C216223   6.253   3.994   5.427  0.7112 -0.0199 -0.0248
  135CHL1   H2A16224   6.180   3.924   5.381  1.0654  0.0078 -0.6333
  135CHL1   H2B16225   6.344   3.931   5.430 -0.2724 -1.5135 -0.0804
  135CHL1   C2016226   6.254   4.172   6.360 -0.1531  0.3308  0.1902
  135CHL1   H2016227   6.345   4.110   6.374  0.1471  1.0066  1.4121
  135CHL1   C2116228   6.125   4.089   6.366 -0.2670  0.0935 -0.1062
  135CHL1  H21A16229   6.144   3.994   6.310  0.4584 -0.8278  1.6255
  135CHL1  H21B16230   6.038   4.142   6.322 -0.2816  0.0543 -0.1242
  135CHL1  H21C16231   6.102   4.064   6.472  2.9926  0.7863  0.8895
  135CHL1   C2216232   6.247   4.258   6.484 -0.2768  0.5829 -0.7241
  135CHL1  H22A16233   6.260   4.190   6.572 -0.8661  4.0642  2.3141
  135CHL1  H22B16234   6.326   4.334   6.498  0.3582 -0.2827  0.7372
  135CHL1   C2316235   6.114   4.335   6.515  0.4162  0.5932 -0.2741
  135CHL1  H23A16236   6.079   4.364   6.413  0.1721  0.0756 -0.3392
  135CHL1  H23B16237   6.040   4.261   6.552 -1.4111  1.8314 -1.3017
  135CHL1   C2416238   6.140   4.441   6.618  0.6507 -0.4009 -1.0339
  135CHL1  H24A16239   6.196   4.399   6.704 -0.1050 -1.0532 -0.8418
  135CHL1  H24B16240   6.203   4.520   6.571 -0.4773  0.3565 -1.3155
  135CHL1   C2516241   6.022   4.526   6.666  0.1639 -0.2699 -0.4905
  135CHL1   H2516242   5.962   4.563   6.580 -0.4302  1.4187  0.6129
  135CHL1   C2616243   5.941   4.454   6.775  0.3843 -0.1830  0.1891
  135CHL1  H26A16244   5.900   4.355   6.747 -1.0562  0.5179 -0.2941
  135CHL1  H26B16245   6.008   4.429   6.860 -2.3913  1.4689  3.0654
  135CHL1  H26C16246   5.863   4.520   6.820  1.5467  1.4068 -0.0327
  135CHL1   C2716247   6.088   4.655   6.718 -0.8097 -0.2160  0.2662
  135CHL1  H27A16248   6.166   4.642   6.796 -1.6364  1.1268  1.3533
  135CHL1  H27B16249   6.132   4.720   6.638 -0.3894 -1.4833 -0.5660
  135CHL1  H27C16250   6.009   4.714   6.769 -1.7802 -2.1665  1.0838
  136CHL1    C316251   5.332   2.904   5.219  0.9264 -0.8252 -0.4784
  136CHL1    H316252   5.249   2.976   5.202  2.1357  1.1889  1.4421
  136CHL1    O316253   5.403   2.886   5.096 -0.0947  0.0738 -0.1891
  136CHL1   H3'16254   5.449   2.802   5.101 -0.9120 -0.3843 -0.1468
  136CHL1    C416255   5.420   2.959   5.334 -0.1558 -0.5128 -0.2360
  136CHL1   H4A16256   5.497   2.879   5.343  0.8203  0.5106  0.5911
  136CHL1   H4B16257   5.468   3.048   5.289 -1.4928  0.3449 -0.0132
  136CHL1    C516258   5.339   2.982   5.461  1.0761 -0.6384 -0.3031
  136CHL1    C616259   5.332   3.110   5.518 -0.4807  0.1463 -0.2486
  136CHL1    H616260   5.389   3.193   5.473  0.3380  0.2603  0.9454
  136CHL1    C716261   5.244   3.144   5.636  0.1188 -0.1675 -0.0787
  136CHL1   H7A16262   5.308   3.207   5.701  0.8709  2.3596 -3.0296
  136CHL1   H7B16263   5.155   3.195   5.594  1.0080  1.1654 -0.4004
  136CHL1    C816264   5.204   3.016   5.718 -0.0580 -0.6683  0.2932
  136CHL1    H816265   5.295   2.985   5.773  0.2481 -1.8024 -0.8016
  136CHL1   C1416266   5.099   3.056   5.816 -0.2298  1.2564  0.2175
  136CHL1   H1416267   5.013   3.088   5.753 -1.2710 -0.4423  0.7024
  136CHL1   C1516268   5.134   3.170   5.913 -0.2030 -0.7439  0.5410
  136CHL1  H15A16269   5.232   3.152   5.961  0.5062 -1.5141 -1.1143
  136CHL1  H15B16270   5.142   3.263   5.852 -0.6315 -0.0640  1.4904
  136CHL1   C1616271   5.022   3.167   6.011 -0.2969 -0.6400 -0.6736
  136CHL1  H16A16272   5.062   3.188   6.112 -0.4161 -1.8547 -0.3600
  136CHL1  H16B16273   4.944   3.242   5.983  0.3599  0.6257  0.7102
  136CHL1   C1716274   4.958   3.020   6.000 -0.3339 -0.3876 -0.4590
  136CHL1   H1716275   4.864   3.031   5.943 -1.0352  1.0789  0.8988
  136CHL1   C1316276   5.050   2.939   5.904  0.4592 -0.2851 -0.4402
  136CHL1   C1816277   5.171   2.889   5.991  0.0985 -0.3563  0.2446
  136CHL1  H18A16278   5.132   2.814   6.063  0.2606 -0.9006 -0.2281
  136CHL1  H18B16279   5.248   2.836   5.931  1.0125 -0.4060  1.4163
  136CHL1  H18C16280   5.205   2.965   6.064  0.7410 -0.5805  0.1870
  136CHL1   C1216281   4.991   2.835   5.808  0.7217  0.4853  0.6711
  136CHL1  H12A16282   4.944   2.763   5.878 -3.5898  2.0566 -0.3104
  136CHL1  H12B16283   4.907   2.881   5.751  0.8726 -0.2907 -0.2075
  136CHL1   C1116284   5.096   2.775   5.710  0.2136 -0.6289 -0.4681
  136CHL1  H11A16285   5.173   2.720   5.769  0.4390  0.3269  0.1358
  136CHL1  H11B16286   5.034   2.715   5.639 -1.6698  1.8192 -1.0334
  136CHL1    C916287   5.158   2.896   5.631  0.7588  0.0384  0.2426
  136CHL1    H916288   5.075   2.941   5.572  1.1495  2.2380  1.2429
  136CHL1   C1016289   5.258   2.859   5.515 -0.1125  0.3761 -0.1258
  136CHL1   C1916290   5.369   2.764   5.580  0.6999 -0.0202 -0.5631
  136CHL1  H19A16291   5.415   2.810   5.670 -0.1360 -0.1790 -0.0414
  136CHL1  H19B16292   5.304   2.679   5.611 -1.8838  1.9598 -0.1325
  136CHL1  H19C16293   5.440   2.720   5.508  0.8941 -1.0519  0.2368
  136CHL1    C116294   5.181   2.797   5.397  0.1643  0.2051  0.2661
  136CHL1   H1A16295   5.128   2.705   5.428  1.2992 -1.1184 -1.4980
  136CHL1   H1B16296   5.098   2.862   5.363 -1.0550 -1.9245 -1.0646
  136CHL1    C216297   5.268   2.770   5.271 -0.4878 -0.3482  0.5433
  136CHL1   H2A16298   5.195   2.732   5.197 -0.8001 -0.8668  1.1162
  136CHL1   H2B16299   5.349   2.694   5.281 -0.6451 -0.9322 -1.9469
  136CHL1   C2016300   4.930   2.963   6.136  0.2296 -0.3791  0.3118
  136CHL1   H2016301   5.021   2.966   6.199  0.8276 -0.6780 -0.5198
  136CHL1   C2116302   4.874   2.823   6.126  0.4625 -0.8648 -0.0834
  136CHL1  H21A16303   4.822   2.790   6.219  0.1577 -2.5685 -0.8048
  136CHL1  H21B16304   4.955   2.749   6.109  0.9696 -0.7664  1.6829
  136CHL1  H21C16305   4.788   2.820   6.055  1.2179 -3.0103 -0.9942
  136CHL1   C2216306   4.825   3.048   6.209 -0.0150 -0.2147  0.7697
  136CHL1  H22A16307   4.825   3.155   6.182 -0.0033 -0.4660 -0.2741
  136CHL1  H22B16308   4.722   3.011   6.190  0.8975 -1.8274 -1.5611
  136CHL1   C2316309   4.856   3.042   6.360  0.5214 -0.0279 -0.3938
  136CHL1  H23A16310   4.856   2.939   6.402  0.7814  0.2387  0.2776
  136CHL1  H23B16311   4.950   3.097   6.384  0.3877 -0.1534  0.4548
  136CHL1   C2416312   4.735   3.109   6.438  0.0391 -0.1273  0.3966
  136CHL1  H24A16313   4.722   3.212   6.397 -1.1900  0.1665  1.4463
  136CHL1  H24B16314   4.649   3.048   6.404  1.7067 -2.1558 -0.3738
  136CHL1   C2516315   4.748   3.116   6.589  0.3010  0.3750 -0.1497
  136CHL1   H2516316   4.663   3.173   6.632 -1.3955 -0.6635 -1.9764
  136CHL1   C2616317   4.727   2.972   6.654  0.0207  0.0147  0.4305
  136CHL1  H26A16318   4.621   2.939   6.647  0.6337 -1.7844 -1.1912
  136CHL1  H26B16319   4.789   2.906   6.590  0.3567  1.1696 -0.4807
  136CHL1  H26C16320   4.763   2.970   6.759  0.5100 -1.2974  0.2480
  136CHL1   C2716321   4.884   3.173   6.632  0.3699 -0.2866  0.4070
  136CHL1  H27A16322   4.966   3.099   6.624  0.5468  0.0499 -1.0889
  136CHL1  H27B16323   4.915   3.260   6.571  1.4682 -0.5741  0.5350
  136CHL1  H27C16324   4.905   3.191   6.740  1.2757 -0.7335  0.3112
  137CHL1    C316325   1.795   2.843   5.178 -0.8629 -0.4143  0.3179
  137CHL1    H316326   1.835   2.747   5.139  2.1703  0.4441  1.0279
  137CHL1    O316327   1.757   2.923   5.069  0.1299 -0.0404 -0.1642
  137CHL1   H3'16328   1.661   2.918   5.072  0.1754 -1.3934  2.4849
  137CHL1    C416329   1.674   2.814   5.268  0.2902 -0.2784 -0.5610
  137CHL1   H4A16330   1.630   2.909   5.304 -0.1623 -2.3915  5.6206
  137CHL1   H4B16331   1.598   2.760   5.207 -0.8987  2.2654 -1.4730
  137CHL1    C516332   1.711   2.728   5.387 -0.0329  0.4535 -0.2872
  137CHL1    C616333   1.660   2.606   5.406  0.6181  0.6854  0.1321
  137CHL1    H616334   1.579   2.569   5.341  0.5481 -2.5644  1.8674
  137CHL1    C716335   1.686   2.514   5.517  0.2020 -0.5027  0.5116
  137CHL1   H7A16336   1.596   2.455   5.547  1.6996 -2.6143  1.1005
  137CHL1   H7B16337   1.744   2.427   5.480  0.3166  0.4539 -1.6744
  137CHL1    C816338   1.762   2.582   5.636 -0.1212 -0.2346  0.7499
  137CHL1    H816339   1.686   2.635   5.697 -0.1284  0.5829  0.0352
  137CHL1   C1416340   1.842   2.484   5.722  0.2307 -0.0811 -0.3060
  137CHL1   H1416341   1.932   2.453   5.664  2.0360  5.9293 -1.4556
  137CHL1   C1516342   1.774   2.354   5.768  0.3180 -0.1033  0.0512
  137CHL1  H15A16343   1.674   2.374   5.810  1.0273  1.4752  1.0862
  137CHL1  H15B16344   1.752   2.287   5.682 -0.9627  1.6892 -1.0642
  137CHL1   C1616345   1.871   2.288   5.871 -0.3425  0.0831  0.0665
  137CHL1  H16A16346   1.802   2.248   5.949  0.4843  0.4763  1.0160
  137CHL1  H16B16347   1.931   2.210   5.820  1.4473  1.9250 -0.7953
  137CHL1   C1716348   1.956   2.410   5.919  0.6672  0.1797 -0.1568
  137CHL1   H1716349   2.049   2.382   5.865  0.5423  0.5971 -0.5969
  137CHL1   C1316350   1.902   2.542   5.852 -0.5826 -0.2800  0.1005
  137CHL1   C1816351   1.794   2.600   5.939  0.5958  0.1909 -0.2142
  137CHL1  H18A16352   1.847   2.649   6.024  1.0675  0.5429 -0.7039
  137CHL1  H18B16353   1.733   2.676   5.885 -0.3078 -0.3595  0.0132
  137CHL1  H18C16354   1.728   2.521   5.982  0.1076  0.0879 -1.1293
  137CHL1   C1216355   2.002   2.650   5.810 -0.2584 -0.2706 -0.2584
  137CHL1  H12A16356   2.033   2.724   5.887  1.5609  1.0737 -2.1634
  137CHL1  H12B16357   2.094   2.600   5.773 -0.5567 -0.9993 -0.0336
  137CHL1   C1116358   1.934   2.747   5.707  0.1820  0.1893  0.1970
  137CHL1  H11A16359   1.859   2.811   5.758  0.0463  0.5744 -0.4767
  137CHL1  H11B16360   2.010   2.820   5.672  1.6158 -0.3797  1.9496
  137CHL1    C916361   1.869   2.686   5.585  0.4673  0.1123 -0.3237
  137CHL1    H916362   1.943   2.628   5.526  0.2203 -0.5802  0.0342
  137CHL1   C1016363   1.824   2.785   5.475  0.1781 -0.2110 -0.6004
  137CHL1   C1916364   1.760   2.900   5.538  0.4407  0.1692 -1.1269
  137CHL1  H19A16365   1.839   2.955   5.593  1.2172 -1.3022 -0.7111
  137CHL1  H19B16366   1.717   2.977   5.470 -3.0866 -1.4533 -0.9796
  137CHL1  H19C16367   1.680   2.877   5.613  0.9037 -0.2996 -0.7681
  137CHL1    C116368   1.945   2.828   5.389  0.0266 -0.3077  0.4366
  137CHL1   H1A16369   2.028   2.875   5.446  2.2446 -1.3032 -1.7795
  137CHL1   H1B16370   1.985   2.730   5.356 -0.1470  0.1238 -1.1416
  137CHL1    C216371   1.909   2.906   5.260 -0.4719  0.5033  0.0459
  137CHL1   H2A16372   1.999   2.919   5.196  0.2769 -2.6790  0.2829
  137CHL1   H2B16373   1.867   3.006   5.284 -0.9672  0.1652  0.6139
  137CHL1   C2016374   1.995   2.414   6.069 -0.1355  0.7109  0.3360
  137CHL1   H2016375   1.901   2.425   6.126 -0.5686 -1.5843  0.1781
  137CHL1   C2116376   2.097   2.530   6.085  0.2181 -0.3778 -0.3415
  137CHL1  H21A16377   2.048   2.629   6.095 -1.9066 -1.3797 -0.1981
  137CHL1  H21B16378   2.169   2.527   6.001  3.3978  0.2110  2.1874
  137CHL1  H21C16379   2.154   2.522   6.180  1.3747 -0.0115 -0.9905
  137CHL1   C2216380   2.054   2.275   6.104 -0.3809  0.5030  0.4517
  137CHL1  H22A16381   1.985   2.202   6.056  0.0353  1.3747 -1.6132
  137CHL1  H22B16382   2.152   2.261   6.053 -0.7698  1.0176 -0.4717
  137CHL1   C2316383   2.069   2.272   6.254 -0.2779  0.0730  0.9404
  137CHL1  H23A16384   2.146   2.344   6.287 -1.6663  1.8102  0.5219
  137CHL1  H23B16385   1.974   2.302   6.302 -0.5791  1.7282 -0.5937
  137CHL1   C2416386   2.120   2.131   6.312  0.0027 -0.2327 -0.1619
  137CHL1  H24A16387   2.037   2.057   6.312  0.6162 -1.0229  2.4379
  137CHL1  H24B16388   2.202   2.083   6.255  0.3906 -1.9601  1.7282
  137CHL1   C2516389   2.184   2.153   6.453 -0.2700  0.3618 -0.1501
  137CHL1   H2516390   2.240   2.249   6.443 -1.4733  1.0366 -0.7542
  137CHL1   C2616391   2.071   2.166   6.563  0.1405  0.7010  0.1776
  137CHL1  H26A16392   2.001   2.080   6.564  3.1662 -1.9760 -0.8097
  137CHL1  H26B16393   2.132   2.163   6.656 -0.5095  2.2771  0.6968
  137CHL1  H26C16394   2.013   2.260   6.551  0.0634  0.4547 -1.6335
  137CHL1   C2716395   2.286   2.037   6.479 -0.4089 -0.5790  0.7927
  137CHL1  H27A16396   2.225   1.949   6.508 -1.5380 -0.4129 -0.9080
  137CHL1  H27B16397   2.349   2.013   6.391  0.3746  0.7265  0.9668
  137CHL1  H27C16398   2.349   2.074   6.563 -1.6459  1.5215  0.8571
  138CHL1    C316399   0.006   1.649   4.190 -1.7362 -0.6474  0.2008
  138CHL1    H316400  -0.105   1.652   4.184 -1.7981  2.3300  0.9268
  138CHL1    O316401   0.066   1.685   4.067  0.1299 -0.1330 -0.1246
  138CHL1   H3'16402   0.160   1.682   4.089 -0.4617 -1.2463  2.7243
  138CHL1    C416403   0.056   1.751   4.295 -0.7729 -0.0936  0.6850
  138CHL1   H4A16404   0.163   1.773   4.276 -0.5846 -0.7124  1.0158
  138CHL1   H4B16405  -0.004   1.838   4.260 -0.8368 -0.7357 -0.8941
  138CHL1    C516406   0.028   1.707   4.435  0.1284 -0.2849 -0.6865
  138CHL1    C616407  -0.048   1.782   4.518 -0.1191 -1.2060  0.0730
  138CHL1    H616408  -0.096   1.869   4.472 -1.4456 -2.1611 -0.4370
  138CHL1    C716409  -0.065   1.763   4.669  0.4477  0.0104  0.2693
  138CHL1   H7A16410  -0.040   1.851   4.732  1.7248 -0.9333  1.1303
  138CHL1   H7B16411  -0.171   1.733   4.683  0.5909 -0.4508  0.3671
  138CHL1    C816412   0.024   1.643   4.707  0.4105 -0.4094 -0.3483
  138CHL1    H816413   0.128   1.680   4.713  0.3092  1.3262 -5.2405
  138CHL1   C1416414  -0.023   1.590   4.846 -0.0545  0.4231  0.2532
  138CHL1   H1416415  -0.123   1.550   4.820 -0.4903  1.9120 -0.4930
  138CHL1   C1516416  -0.049   1.692   4.960 -0.5908 -0.1818 -0.1792
  138CHL1  H15A16417   0.029   1.770   4.944 -0.8147 -0.0769 -0.7721
  138CHL1  H15B16418  -0.153   1.726   4.940 -0.1970  0.2467 -1.6153
  138CHL1   C1616419  -0.019   1.620   5.097 -0.4570 -0.1156 -0.3505
  138CHL1  H16A16420   0.072   1.659   5.147 -1.5050 -0.0714  1.5889
  138CHL1  H16B16421  -0.106   1.630   5.166 -0.0297 -0.5006  0.2481
  138CHL1   C1716422   0.011   1.469   5.051  0.3899 -0.8193 -0.3213
  138CHL1   H1716423  -0.092   1.427   5.039 -0.1305 -0.2996  1.8356
  138CHL1   C1316424   0.067   1.481   4.908  0.1811 -0.3533  0.1502
  138CHL1   C1816425   0.210   1.533   4.927 -0.1104  0.1855  0.4191
  138CHL1  H18A16426   0.268   1.541   4.832  2.7277  0.2298  2.0547
  138CHL1  H18B16427   0.228   1.622   4.991 -1.6007  0.0548  1.0684
  138CHL1  H18C16428   0.266   1.450   4.974 -1.2391  0.0352  1.5296
  138CHL1   C1216429   0.056   1.361   4.816  0.2706  0.4765 -0.6033
  138CHL1  H12A16430   0.124   1.278   4.844 -1.1019 -0.6709 -0.5113
  138CHL1  H12B16431  -0.044   1.312   4.810  0.3553  0.0176  1.1261
  138CHL1   C1116432   0.104   1.397   4.678  0.0854  0.0792 -0.1797
  138CHL1  H11A16433   0.213   1.419   4.677  0.0952  0.3562  1.9643
  138CHL1  H11B16434   0.096   1.302   4.623 -2.1062 -1.2767  2.2416
  138CHL1    C916435   0.032   1.523   4.613 -0.6675 -0.7110 -0.1207
  138CHL1    H916436  -0.072   1.490   4.596 -0.1888 -2.1698 -0.3554
  138CHL1   C1016437   0.083   1.571   4.476  0.2781  0.0643 -0.1582
  138CHL1   C1916438   0.242   1.584   4.481  0.2690  0.3196  0.1889
  138CHL1  H19A16439   0.287   1.631   4.391 -0.2998  0.4525 -0.0244
  138CHL1  H19B16440   0.267   1.645   4.571  1.2121 -0.7711  0.6867
  138CHL1  H19C16441   0.285   1.482   4.484  0.9079  0.4901 -1.7354
  138CHL1    C116442   0.039   1.471   4.366  0.1219  0.6501  0.3969
  138CHL1   H1A16443   0.071   1.367   4.391 -2.0530 -0.1619  0.0115
  138CHL1   H1B16444  -0.072   1.464   4.367 -0.1743  3.9662 -0.0572
  138CHL1    C216445   0.066   1.511   4.219  0.6333  0.2389  0.9014
  138CHL1   H2A16446   0.034   1.437   4.143 -0.3527 -1.4779  2.8948
  138CHL1   H2B16447   0.177   1.503   4.214  0.6306 -0.3324  1.6187
  138CHL1   C2016448   0.079   1.380   5.153  0.0964 -0.6625 -0.3939
  138CHL1   H2016449   0.178   1.418   5.185 -1.3775  2.3836  0.9620
  138CHL1   C2116450   0.083   1.239   5.099 -0.2762 -0.2064 -0.3412
  138CHL1  H21A16451  -0.018   1.216   5.059 -0.1344  0.0357 -0.8456
  138CHL1  H21B16452   0.107   1.161   5.174  0.1998 -2.6610 -2.8628
  138CHL1  H21C16453   0.161   1.219   5.022  2.2798  0.3714  1.9677
  138CHL1   C2216454  -0.009   1.379   5.285  0.3482  0.1496  0.5706
  138CHL1  H22A16455  -0.016   1.485   5.316  0.4481 -0.3311  2.3866
  138CHL1  H22B16456  -0.111   1.337   5.270  1.3009 -1.6777 -1.3118
  138CHL1   C2316457   0.065   1.315   5.403  0.0816 -0.8661  0.0130
  138CHL1  H23A16458   0.056   1.205   5.402 -0.9448 -0.7934 -1.0000
  138CHL1  H23B16459   0.176   1.321   5.401  0.0700 -0.8016 -0.8292
  138CHL1   C2416460   0.032   1.380   5.539 -0.4786  0.1175  0.4500
  138CHL1  H24A16461   0.077   1.481   5.526  0.1677 -0.3445 -1.1289
  138CHL1  H24B16462  -0.079   1.381   5.548 -0.6235 -1.6490 -0.7039
  138CHL1   C2516463   0.087   1.317   5.668  0.0301  0.0580  1.2334
  138CHL1   H2516464   0.190   1.280   5.650 -0.0875 -0.2798  1.2499
  138CHL1   C2616465   0.095   1.415   5.786  0.5687 -0.1993  0.4974
  138CHL1  H26A16466   0.157   1.504   5.763  0.1027  0.6000  2.1376
  138CHL1  H26B16467  -0.004   1.461   5.808  1.4252  2.0771 -0.1223
  138CHL1  H26C16468   0.146   1.376   5.877  0.5888 -0.8386  0.2208
  138CHL1   C2716469   0.010   1.186   5.698 -0.2073 -0.5406 -0.9772
  138CHL1  H27A16470  -0.093   1.220   5.720 -0.6488 -1.9437 -0.7955
  138CHL1  H27B16471   0.014   1.106   5.621  1.5598 -1.4284 -0.0353
  138CHL1  H27C16472   0.029   1.139   5.797 -3.0827  0.1156 -0.0291
  139CHL1    C316473   1.523   1.614   4.383 -0.0635  0.3952  0.6439
  139CHL1    H316474   1.625   1.583   4.412 -0.1077  1.0465  1.5197
  139CHL1    O316475   1.518   1.650   4.241  0.3937  1.1244 -0.4575
  139CHL1   H3'16476   1.429   1.682   4.227  0.4615  1.5072 -0.0538
  139CHL1    C416477   1.425   1.497   4.404 -0.7712 -0.6685  0.6731
  139CHL1   H4A16478   1.331   1.514   4.348  0.8884  0.7272 -1.9395
  139CHL1   H4B16479   1.477   1.409   4.360 -0.8190  0.6153 -2.1708
  139CHL1    C516480   1.408   1.473   4.550 -0.7287  0.1718  0.0921
  139CHL1    C616481   1.437   1.356   4.608 -0.1151  0.0976 -0.5399
  139CHL1    H616482   1.489   1.271   4.561  0.1410 -1.9644  3.0737
  139CHL1    C716483   1.418   1.323   4.754 -0.5215  0.3329  0.2059
  139CHL1   H7A16484   1.372   1.222   4.768  1.4257 -0.7789 -0.9011
  139CHL1   H7B16485   1.518   1.332   4.803 -0.5364 -1.7818  0.7625
  139CHL1    C816486   1.341   1.431   4.827 -0.4170  0.2205  0.3313
  139CHL1    H816487   1.236   1.409   4.795 -0.2113 -0.9118  0.3860
  139CHL1   C1416488   1.361   1.418   4.981  0.4276  0.0958  0.2339
  139CHL1   H1416489   1.466   1.454   4.988 -0.3939  2.9465 -0.6950
  139CHL1   C1516490   1.333   1.280   5.037 -0.0406 -0.6981 -0.5943
  139CHL1  H15A16491   1.242   1.240   4.986  0.6483 -0.3972 -2.1266
  139CHL1  H15B16492   1.425   1.219   5.020 -0.0823 -0.4389 -1.8631
  139CHL1   C1616493   1.303   1.302   5.181  0.0876 -0.2639  0.6783
  139CHL1  H16A16494   1.206   1.263   5.216 -1.6184  1.8166 -1.3505
  139CHL1  H16B16495   1.378   1.252   5.245 -1.1048 -1.3200  1.2924
  139CHL1   C1716496   1.296   1.452   5.207  0.6975  0.6939  0.4608
  139CHL1   H1716497   1.397   1.492   5.231 -0.3632  2.8241  1.5801
  139CHL1   C1316498   1.274   1.514   5.065 -1.0126  0.2994 -0.2041
  139CHL1   C1816499   1.128   1.503   5.036  0.3727 -0.1792  0.0794
  139CHL1  H18A16500   1.112   1.521   4.927  2.6173 -0.3742 -0.3270
  139CHL1  H18B16501   1.094   1.399   5.051 -0.6158  0.0776 -0.3123
  139CHL1  H18C16502   1.064   1.575   5.091 -2.1995 -0.9993 -1.6682
  139CHL1   C1216503   1.339   1.653   5.033  0.3382 -0.3116 -0.1078
  139CHL1  H12A16504   1.291   1.741   5.081 -1.2168 -0.3591 -1.4951
  139CHL1  H12B16505   1.446   1.649   5.060  0.1938 -1.0838  0.3887
  139CHL1   C1116506   1.322   1.679   4.885  0.3524  0.1346  0.0833
  139CHL1  H11A16507   1.214   1.688   4.857  0.5957 -2.2413 -2.0129
  139CHL1  H11B16508   1.365   1.780   4.866  0.8201 -0.2510 -0.9785
  139CHL1    C916509   1.385   1.575   4.786  0.0624  0.2489  0.0947
  139CHL1    H916510   1.495   1.576   4.802  0.0917 -3.0310  0.8956
  139CHL1   C1016511   1.373   1.592   4.636  0.5148  0.3120  0.5025
  139CHL1   C1916512   1.221   1.620   4.602  0.4520 -0.0339  0.5190
  139CHL1  H19A16513   1.198   1.646   4.497  0.0207 -2.5740 -0.1041
  139CHL1  H19B16514   1.150   1.546   4.646  0.5617 -0.4538 -0.0001
  139CHL1  H19C16515   1.203   1.711   4.662 -0.6633 -1.6195  2.7736
  139CHL1    C116516   1.464   1.714   4.592  0.4747 -0.1128  0.4261
  139CHL1   H1A16517   1.432   1.806   4.645  0.3138  0.3634 -0.4867
  139CHL1   H1B16518   1.563   1.698   4.641  1.0760 -0.2562 -0.8102
  139CHL1    C216519   1.476   1.733   4.452 -0.6082 -0.1117 -0.5294
  139CHL1   H2A16520   1.540   1.823   4.437 -2.1456  0.8383 -1.7116
  139CHL1   H2B16521   1.378   1.766   4.410 -1.0467 -0.3462  0.3050
  139CHL1   C2016522   1.217   1.492   5.330  0.4934  0.0699  0.3280
  139CHL1   H2016523   1.112   1.460   5.309  0.2396  0.9519  0.2308
  139CHL1   C2116524   1.232   1.642   5.344  0.1210 -0.1793 -0.9772
  139CHL1  H21A16525   1.338   1.674   5.354  0.8586 -2.8422  0.5642
  139CHL1  H21B16526   1.188   1.676   5.440  1.3177  1.3921 -0.9320
  139CHL1  H21C16527   1.173   1.694   5.266  0.3463  0.7023 -0.5785
  139CHL1   C2216528   1.271   1.425   5.467  0.0417  0.2290  1.0565
  139CHL1  H22A16529   1.227   1.325   5.486  0.3414 -0.5952 -2.1201
  139CHL1  H22B16530   1.377   1.402   5.440  0.1391  2.7262 -0.9794
  139CHL1   C2316531   1.265   1.509   5.598  0.3668  0.8257 -0.5823
  139CHL1  H23A16532   1.333   1.597   5.593  1.6551  0.0114  1.4794
  139CHL1  H23B16533   1.161   1.534   5.627  0.5061 -0.4882  1.2061
  139CHL1   C2416534   1.319   1.427   5.718 -0.2673  0.5592  0.0980
  139CHL1  H24A16535   1.251   1.346   5.751 -1.3221  1.1025 -0.6768
  139CHL1  H24B16536   1.415   1.379   5.688 -0.4769 -1.3512  2.2440
  139CHL1   C2516537   1.353   1.514   5.842 -0.2257 -0.8336  0.5380
  139CHL1   H2516538   1.285   1.601   5.847  1.0534  0.3212 -1.1738
  139CHL1   C2616539   1.326   1.443   5.974 -0.0521  0.6215  0.4569
  139CHL1  H26A16540   1.396   1.361   6.001 -0.6195 -0.1141 -0.2689
  139CHL1  H26B16541   1.323   1.512   6.062  0.8028 -0.1111  1.0786
  139CHL1  H26C16542   1.225   1.396   5.973  0.3561 -0.2804  0.5989
  139CHL1   C2716543   1.494   1.574   5.830 -0.0091 -0.7673 -0.4580
  139CHL1  H27A16544   1.581   1.508   5.810  2.1366  1.9383 -0.6480
  139CHL1  H27B16545   1.495   1.651   5.750 -0.3526  1.5464  1.6603
  139CHL1  H27C16546   1.518   1.630   5.923  3.7936 -1.4593 -0.8716
  140CHL1    C316547   1.069   2.081   4.422  0.1950 -0.6985  0.0810
  140CHL1    H316548   1.148   2.003   4.430  0.1239 -0.9230 -1.2892
  140CHL1    O316549   1.081   2.163   4.302 -0.2778  0.1917  0.1021
  140CHL1   H3'16550   1.050   2.251   4.326 -1.6745 -0.1813 -0.2812
  140CHL1    C416551   0.938   2.003   4.408 -0.1505  0.3858 -0.0045
  140CHL1   H4A16552   0.858   2.077   4.388 -0.7063 -0.0180  0.6599
  140CHL1   H4B16553   0.938   1.949   4.310 -1.4174  1.2661 -0.5124
  140CHL1    C516554   0.882   1.916   4.517 -0.4113  0.2387 -0.1557
  140CHL1    C616555   0.850   1.790   4.497  0.8952 -0.0858  0.2500
  140CHL1    H616556   0.864   1.749   4.396  0.1383 -0.0423  0.1172
  140CHL1    C716557   0.809   1.689   4.602 -0.2930 -0.5195  0.2411
  140CHL1   H7A16558   0.719   1.633   4.567 -0.5270  1.8884 -3.4816
  140CHL1   H7B16559   0.886   1.610   4.615 -2.0306 -2.3701 -0.1268
  140CHL1    C816560   0.779   1.768   4.728  0.3479 -0.0789 -0.9418
  140CHL1    H816561   0.681   1.818   4.716 -0.3505 -0.9243  0.9352
  140CHL1   C1416562   0.763   1.668   4.846  0.1355 -0.1327  0.7790
  140CHL1   H1416563   0.863   1.623   4.860 -0.5983 -2.0663  0.1396
  140CHL1   C1516564   0.669   1.545   4.820  0.5106  0.3822 -0.0098
  140CHL1  H15A16565   0.577   1.582   4.769 -0.2264 -1.0146  0.2593
  140CHL1  H15B16566   0.729   1.473   4.761  1.1315  1.3747 -0.6163
  140CHL1   C1616567   0.628   1.500   4.963 -0.5907 -0.4117 -0.6382
  140CHL1  H16A16568   0.517   1.503   4.973 -0.8443 -3.6155 -1.5021
  140CHL1  H16B16569   0.651   1.392   4.976  1.4378 -0.2673 -2.4486
  140CHL1   C1716570   0.710   1.596   5.055 -0.5564  0.0574 -0.0764
  140CHL1   H1716571   0.814   1.559   5.052 -1.1250 -1.5520 -1.3463
  140CHL1   C1316572   0.729   1.730   4.982  0.5977  0.1190  0.0477
  140CHL1   C1816573   0.594   1.802   4.977 -0.6010  0.0585  0.1995
  140CHL1  H18A16574   0.587   1.866   5.068  0.8113  1.5474 -0.6733
  140CHL1  H18B16575   0.586   1.867   4.887 -1.7498 -1.3514 -0.7476
  140CHL1  H18C16576   0.503   1.739   4.985 -1.1745  0.8992  0.4682
  140CHL1   C1216577   0.842   1.824   5.016 -0.0155 -0.1665 -0.4147
  140CHL1  H12A16578   0.822   1.879   5.111 -1.8249 -2.1284  0.4074
  140CHL1  H12B16579   0.932   1.769   5.047  0.6343  1.6166  1.0460
  140CHL1   C1116580   0.866   1.932   4.912  0.5307  0.1027  1.1757
  140CHL1  H11A16581   0.783   2.006   4.915  0.8650  0.4528  1.9759
  140CHL1  H11B16582   0.957   1.989   4.938 -0.1801  2.0762 -0.4247
  140CHL1    C916583   0.889   1.871   4.764 -0.0522  0.2246  0.9004
  140CHL1    H916584   0.985   1.816   4.766 -0.9361 -1.6672 -1.7729
  140CHL1   C1016585   0.900   1.977   4.655  0.4913 -0.0987  0.7555
  140CHL1   C1916586   0.787   2.079   4.669 -0.2411 -0.1755  0.2680
  140CHL1  H19A16587   0.814   2.154   4.747  0.6922 -0.8746  0.6382
  140CHL1  H19B16588   0.778   2.140   4.576  0.4224  0.9538  0.9134
  140CHL1  H19C16589   0.689   2.039   4.702 -0.3556 -0.6274 -0.5837
  140CHL1    C116590   1.032   2.065   4.665  0.5209  0.5753  0.0062
  140CHL1   H1A16591   1.029   2.117   4.763  1.1194 -0.0467  0.3685
  140CHL1   H1B16592   1.118   1.994   4.668  0.0211 -0.0318  0.4664
  140CHL1    C216593   1.062   2.160   4.552  0.7177 -0.4351  0.7117
  140CHL1   H2A16594   1.151   2.224   4.567 -1.3686  2.5467  1.3541
  140CHL1   H2B16595   0.974   2.227   4.542  0.7048 -0.6807 -1.3173
  140CHL1   C2016596   0.671   1.577   5.206 -0.9169  0.0339 -0.6282
  140CHL1   H2016597   0.681   1.471   5.237  0.7087  0.5243  0.6900
  140CHL1   C2116598   0.523   1.617   5.229  0.0830 -1.9053 -0.3697
  140CHL1  H21A16599   0.512   1.727   5.232 -1.9138 -2.0917  1.7173
  140CHL1  H21B16600   0.495   1.590   5.333  0.5920 -0.1231  0.2655
  140CHL1  H21C16601   0.455   1.567   5.156 -1.4816 -0.1599 -0.1710
  140CHL1   C2216602   0.776   1.649   5.301  0.0943 -0.1232 -0.3486
  140CHL1  H22A16603   0.881   1.633   5.267  0.7180 -1.1220  1.8479
  140CHL1  H22B16604   0.752   1.757   5.310  2.0622  0.4816 -1.5996
  140CHL1   C2316605   0.775   1.593   5.443  0.9010 -0.6434  0.5434
  140CHL1  H23A16606   0.687   1.621   5.504 -0.5274 -0.8083 -1.3462
  140CHL1  H23B16607   0.767   1.482   5.446 -0.5646 -0.5333  2.5163
  140CHL1   C2416608   0.898   1.643   5.513 -0.3729 -0.1540 -0.3324
  140CHL1  H24A16609   0.978   1.576   5.475 -0.6904 -1.9755  1.9679
  140CHL1  H24B16610   0.916   1.748   5.481  0.2901 -0.1470  0.0455
  140CHL1   C2516611   0.884   1.661   5.668  0.2883 -0.1407 -0.2104
  140CHL1   H2516612   0.778   1.685   5.689  0.1264 -1.9304  1.3118
  140CHL1   C2616613   0.963   1.782   5.719  0.0441  0.0591  0.6121
  140CHL1  H26A16614   0.954   1.803   5.827 -1.1793  1.5019  0.2624
  140CHL1  H26B16615   1.070   1.760   5.696 -0.8084 -1.6804 -2.1874
  140CHL1  H26C16616   0.929   1.878   5.673  1.3368  0.9892  1.5027
  140CHL1   C2716617   0.903   1.537   5.753  0.1694 -1.3653 -0.2826
  140CHL1  H27A16618   1.000   1.486   5.732  1.7679  1.6957 -0.8537
  140CHL1  H27B16619   0.910   1.583   5.854  0.9529  1.4852 -1.5470
  140CHL1  H27C16620   0.811   1.474   5.752  0.2028 -1.4413  0.7633
  141DOPC     N16621   4.295   4.065   9.546  0.7162 -0.2976  0.9731
  141DOPC   C1216622   4.387   3.934   9.549  0.3198 -0.7634  0.3928
  141DOPC  H12A16623   4.329   3.856   9.501  0.2294 -0.0620 -0.6571
  141DOPC  H12B16624   4.399   3.908   9.653  1.0549 -0.4837  0.3793
  141DOPC   C1316625   4.262   4.099   9.403 -0.5878 -0.2449 -0.8518
  141DOPC  H13A16626   4.218   4.013   9.354  2.8172 -2.2423 -0.7489
  141DOPC  H13B16627   4.193   4.182   9.403 -0.5470 -0.1687  1.3298
  141DOPC  H13C16628   4.355   4.122   9.353 -0.8963  1.4756 -0.6866
  141DOPC   C1416629   4.362   4.180   9.610  0.3009 -0.1276 -0.8571
  141DOPC  H14A16630   4.379   4.160   9.714 -0.6351  0.8967 -0.4852
  141DOPC  H14B16631   4.461   4.208   9.576  1.2141  0.2802  1.9297
  141DOPC  H14C16632   4.299   4.268   9.607  0.6562  0.3388  2.0891
  141DOPC   C1516633   4.161   4.040   9.612 -0.3325  0.6862 -0.2471
  141DOPC  H15A16634   4.103   3.963   9.563 -1.3903  1.3528 -0.0827
  141DOPC  H15B16635   4.101   4.128   9.627 -1.0434  0.1896 -0.1067
  141DOPC  H15C16636   4.173   4.004   9.714 -0.6361  0.1414 -0.3972
  141DOPC   C1116637   4.520   3.949   9.478  0.0513 -0.5189  0.6540
  141DOPC  H11A16638   4.500   3.963   9.369  0.0030  2.7317  0.9803
  141DOPC  H11B16639   4.579   4.040   9.502  1.3402 -0.4864 -2.1665
  141DOPC     P16640   4.725   3.803   9.422  0.3811 -0.0329  0.0240
  141DOPC   O1316641   4.802   3.696   9.489 -0.6142  0.0409  0.4047
  141DOPC   O1416642   4.790   3.931   9.399 -0.5798 -0.3407  0.0244
  141DOPC   O1216643   4.588   3.832   9.506  0.1528  0.3852  0.0964
  141DOPC   O1116644   4.675   3.746   9.279 -0.7724 -0.4907  0.1251
  141DOPC    C116645   4.545   3.678   9.264 -0.9788 -0.4393  0.0225
  141DOPC    HA16646   4.458   3.728   9.312 -1.5450 -0.2595 -1.1518
  141DOPC    HB16647   4.557   3.573   9.296 -1.7513 -1.2342 -2.1040
  141DOPC    C216648   4.490   3.679   9.117 -0.8629  0.3155 -0.1497
  141DOPC    HS16649   4.410   3.602   9.108 -1.2975  0.9678 -2.7830
  141DOPC   O2116650   4.603   3.652   9.032 -0.3060  0.3969  0.1253
  141DOPC   C2116651   4.655   3.528   9.038 -0.3830  0.1004 -0.6415
  141DOPC   O2216652   4.594   3.429   9.083 -0.1627 -0.4678 -0.4036
  141DOPC   C2216653   4.804   3.522   8.988  0.0396 -0.1054 -0.1836
  141DOPC   H2R16654   4.862   3.476   9.070  0.4633  0.5792 -0.0992
  141DOPC   H2S16655   4.831   3.628   8.969  1.3777 -0.4775 -0.4495
  141DOPC    C316656   4.422   3.811   9.078 -0.0199 -0.1137  0.7132
  141DOPC    HX16657   4.494   3.895   9.089 -1.5529  1.4561 -0.8487
  141DOPC    HY16658   4.338   3.830   9.149 -1.5176  3.1252 -1.7170
  141DOPC   O3116659   4.382   3.805   8.938  0.0448 -0.1742  0.0541
  141DOPC   C3116660   4.409   3.906   8.852  0.1846 -0.3707 -1.0233
  141DOPC   O3216661   4.434   4.019   8.881  0.7047 -0.7361 -0.2557
  141DOPC   C3216662   4.405   3.858   8.713  0.1199  0.3777 -0.0965
  141DOPC   H2X16663   4.486   3.785   8.692  0.6368  0.9877 -0.2486
  141DOPC   H2Y16664   4.304   3.814   8.702  0.6785 -1.0772  0.4325
  141DOPC   C2316665   4.815   3.453   8.855  1.0635 -0.2045 -0.7703
  141DOPC   H3R16666   4.764   3.354   8.863  2.3212 -0.7450  1.6102
  141DOPC   H3S16667   4.922   3.436   8.828  0.7601 -1.5234 -1.2235
  141DOPC   C2416668   4.759   3.533   8.736  0.3186  0.5342  0.0148
  141DOPC   H4R16669   4.789   3.640   8.741 -1.7536  1.2081 -1.1108
  141DOPC   H4S16670   4.649   3.530   8.732  0.2617  1.6759  0.2461
  141DOPC   C2516671   4.813   3.471   8.600  0.4970 -0.6532  0.2869
  141DOPC   H5R16672   4.823   3.361   8.614  2.8769 -0.2775  2.2100
  141DOPC   H5S16673   4.921   3.496   8.591  0.2399  0.2294 -0.4793
  141DOPC   C2616674   4.747   3.524   8.476 -0.0647  0.3068 -0.0810
  141DOPC   H6R16675   4.654   3.467   8.450 -1.7187  1.6263  2.5073
  141DOPC   H6S16676   4.812   3.498   8.391 -0.4288  0.3672 -0.3829
  141DOPC   C2716677   4.713   3.676   8.473  0.0928  0.2806 -0.1999
  141DOPC   H7R16678   4.788   3.736   8.529 -1.4364 -0.1520  2.5479
  141DOPC   H7S16679   4.620   3.696   8.530 -2.3196  1.2100 -4.1024
  141DOPC   C2816680   4.708   3.738   8.335  0.7886 -0.3374 -0.2335
  141DOPC   H8R16681   4.801   3.742   8.274 -0.0834  0.7673 -1.5634
  141DOPC   H8S16682   4.678   3.845   8.334 -0.9465 -0.7433 -3.2333
  141DOPC   C2916683   4.593   3.678   8.257  0.3800 -0.5781 -0.1259
  141DOPC   H9R16684   4.507   3.654   8.321 -0.5301  1.2852 -0.5938
  141DOPC  C21016685   4.601   3.663   8.122  0.8016 -0.3923 -0.1610
  141DOPC  H10R16686   4.523   3.604   8.071 -2.6676  1.7067  2.3002
  141DOPC  C21116687   4.709   3.711   8.024  0.3195  0.2362 -1.2877
  141DOPC  H11R16688   4.799   3.646   8.025 -0.2597 -0.6097  1.0062
  141DOPC  H11S16689   4.757   3.808   8.050  1.8196 -0.5679 -0.9346
  141DOPC  C21216690   4.666   3.742   7.880  0.0847 -0.0851 -0.1364
  141DOPC  H12R16691   4.586   3.819   7.881  3.0785  3.3566 -1.5773
  141DOPC  H12S16692   4.616   3.658   7.828  0.7012 -0.6487  0.1595
  141DOPC  C21316693   4.774   3.797   7.783 -0.3455  0.4994  0.5638
  141DOPC  H13R16694   4.849   3.716   7.774 -0.9112 -0.2192  2.0779
  141DOPC  H13S16695   4.822   3.885   7.830  0.4905  1.6766 -2.2900
  141DOPC  C21416696   4.723   3.845   7.643 -0.3718  0.5517  0.0278
  141DOPC  H14R16697   4.654   3.931   7.651  0.9442  1.9791 -2.5745
  141DOPC  H14S16698   4.663   3.761   7.603 -0.5436  0.2915  0.8142
  141DOPC  C21516699   4.841   3.883   7.552  0.7039 -0.3279 -0.2918
  141DOPC  H15R16700   4.906   3.793   7.544 -0.7983 -1.6829  1.8796
  141DOPC  H15S16701   4.902   3.966   7.593  1.7113 -0.9224 -0.5663
  141DOPC  C21616702   4.798   3.916   7.409  0.0125 -0.6292 -0.1498
  141DOPC  H16R16703   4.761   4.020   7.396  1.3613 -0.1651 -0.4550
  141DOPC  H16S16704   4.724   3.841   7.375 -1.6430 -0.0380  1.9940
  141DOPC  C21716705   4.909   3.915   7.307  0.3767  0.0828 -0.4422
  141DOPC  H17R16706   4.963   3.819   7.314  0.7117  0.3346  0.6131
  141DOPC  H17S16707   4.985   3.996   7.318  1.3286 -0.7827 -0.5332
  141DOPC  C21816708   4.851   3.931   7.167 -0.3043 -0.9509 -0.4970
  141DOPC  H18R16709   4.763   4.000   7.170 -1.2149 -2.0971  0.1982
  141DOPC  H18S16710   4.800   3.838   7.133  0.3498 -1.1250 -1.0129
  141DOPC  H18T16711   4.917   3.981   7.093 -0.6632 -0.5605 -0.5603
  141DOPC   C3316712   4.418   3.974   8.607 -0.0206  0.8772 -0.1307
  141DOPC   H3X16713   4.521   4.014   8.610 -0.4328  2.0266 -0.7257
  141DOPC   H3Y16714   4.340   4.051   8.627 -1.3002 -0.4381  0.1978
  141DOPC   C3416715   4.389   3.928   8.458  0.1196  0.4938 -0.1867
  141DOPC   H4X16716   4.284   3.892   8.465  0.5824 -0.7357  0.7382
  141DOPC   H4Y16717   4.473   3.858   8.439 -0.1935  0.5404 -1.8805
  141DOPC   C3516718   4.411   4.053   8.369 -0.2668  0.1811  1.1465
  141DOPC   H5X16719   4.519   4.078   8.379  0.1924 -1.2179  0.0340
  141DOPC   H5Y16720   4.348   4.140   8.397 -1.0303  0.5652 -1.5291
  141DOPC   C3616721   4.377   4.029   8.222  0.2205  0.0986 -0.0634
  141DOPC   H6X16722   4.442   3.949   8.181 -2.7724 -2.7513  0.3251
  141DOPC   H6Y16723   4.279   3.982   8.202  1.1254 -1.1735 -1.7758
  141DOPC   C3716724   4.397   4.155   8.143  1.2156  0.5128  0.0974
  141DOPC   H7X16725   4.326   4.236   8.171  0.2397 -0.1112 -0.5442
  141DOPC   H7Y16726   4.501   4.190   8.162  1.8313 -0.6713 -0.9378
  141DOPC   C3816727   4.398   4.118   7.992  0.6971  0.4788  0.4744
  141DOPC   H8X16728   4.296   4.082   7.966  0.4736  0.0776  1.8293
  141DOPC   H8Y16729   4.472   4.037   7.974 -0.8854 -1.2742  1.3455
  141DOPC   C3916730   4.426   4.230   7.903 -1.0646 -0.8808 -0.5440
  141DOPC   H9X16731   4.444   4.324   7.958 -0.3877 -1.0074 -0.5336
  141DOPC  C31016732   4.405   4.242   7.771  1.0272  0.9855  0.1282
  141DOPC  H10X16733   4.455   4.320   7.711  1.3646  0.8678  0.2504
  141DOPC  C31116734   4.359   4.127   7.691  0.4719 -0.6590  0.2418
  141DOPC  H11X16735   4.251   4.136   7.665  0.2107 -1.1670  1.1103
  141DOPC  H11Y16736   4.368   4.031   7.746  1.3274  0.5223  2.2606
  141DOPC  C31216737   4.442   4.107   7.565 -0.3760  0.2105 -0.5236
  141DOPC  H12X16738   4.413   4.009   7.520 -0.6718 -0.2287  0.6056
  141DOPC  H12Y16739   4.552   4.109   7.578 -0.5021 -0.1790  0.6530
  141DOPC  C31316740   4.412   4.210   7.457 -0.1379 -0.3798  0.1111
  141DOPC  H13X16741   4.302   4.213   7.439 -0.1734  0.0068  0.3791
  141DOPC  H13Y16742   4.444   4.314   7.480  2.6890 -1.0114 -0.5716
  141DOPC  C31416743   4.486   4.166   7.327  0.4769 -0.1363  0.1145
  141DOPC  H14X16744   4.589   4.152   7.368  0.8491  2.8771  0.4223
  141DOPC  H14Y16745   4.439   4.073   7.289 -1.3521  0.9159 -0.3023
  141DOPC  C31516746   4.486   4.270   7.219 -0.2727 -0.1473  0.0017
  141DOPC  H15X16747   4.380   4.302   7.211  0.4122  2.0830 -1.0069
  141DOPC  H15Y16748   4.515   4.220   7.124  1.4067  0.8463 -0.0559
  141DOPC  C31616749   4.567   4.398   7.233  0.0480 -0.5132  0.1544
  141DOPC  H16X16750   4.547   4.449   7.330 -1.8661 -1.4181  0.2811
  141DOPC  H16Y16751   4.675   4.375   7.247  0.2160  0.6911  1.0121
  141DOPC  C31716752   4.534   4.492   7.114 -0.8002 -0.4810  0.3357
  141DOPC  H17X16753   4.566   4.437   7.023 -0.8753 -1.3758  0.8406
  141DOPC  H17Y16754   4.425   4.508   7.104 -0.8944 -0.3540  1.4330
  141DOPC  C31816755   4.620   4.623   7.096 -0.3257  0.4419  0.5548
  141DOPC  H18X16756   4.586   4.687   7.012  0.7947 -1.8691 -1.8063
  141DOPC  H18Y16757   4.606   4.679   7.191 -0.4011  0.4750  0.5245
  141DOPC  H18Z16758   4.722   4.586   7.073 -1.0043 -0.3313 -1.4042
  142DOPC     N16759   5.209   4.196   9.567 -0.0302 -0.5064  0.0486
  142DOPC   C1216760   5.185   4.072   9.483  0.0458  0.1763 -0.4004
  142DOPC  H12A16761   5.133   4.099   9.392  0.4427  1.4399 -0.2759
  142DOPC  H12B16762   5.115   4.016   9.542  1.3930  1.1442  2.2518
  142DOPC   C1316763   5.286   4.294   9.493 -0.1260 -0.2342 -0.6711
  142DOPC  H13A16764   5.375   4.262   9.441  0.7446  1.0719 -0.0245
  142DOPC  H13B16765   5.220   4.324   9.413 -1.1933 -1.3359 -0.2534
  142DOPC  H13C16766   5.296   4.388   9.546 -0.2443  2.2481 -4.6764
  142DOPC   C1416767   5.276   4.155   9.701  0.0303 -0.6692  0.6894
  142DOPC  H14A16768   5.370   4.110   9.674  0.7374  0.8548  0.5294
  142DOPC  H14B16769   5.294   4.246   9.756  1.3339 -0.4695 -0.0315
  142DOPC  H14C16770   5.222   4.078   9.754  0.0320 -0.2177  1.3533
  142DOPC   C1516771   5.070   4.251   9.600  0.4799 -0.8054  0.5300
  142DOPC  H15A16772   5.076   4.334   9.669 -0.9374 -1.0689  1.0011
  142DOPC  H15B16773   5.005   4.179   9.647 -1.8880  1.5176  1.1100
  142DOPC  H15C16774   5.035   4.295   9.508 -2.6510 -0.4528  1.7667
  142DOPC   C1116775   5.304   3.983   9.463 -0.3023  0.2163 -0.1146
  142DOPC  H11A16776   5.280   3.914   9.379 -0.2369  1.1217 -0.8920
  142DOPC  H11B16777   5.391   4.029   9.412  0.0577 -1.5863 -1.2174
  142DOPC     P16778   5.311   3.748   9.607 -0.9323 -0.2692 -0.3676
  142DOPC   O1316779   5.163   3.734   9.590  0.3632  0.4919 -0.2747
  142DOPC   O1416780   5.368   3.730   9.738  0.1335  0.1359 -0.4587
  142DOPC   O1216781   5.346   3.906   9.575 -0.2105 -0.4737 -0.2078
  142DOPC   O1116782   5.386   3.672   9.489  0.0227 -0.0223  0.3291
  142DOPC    C116783   5.520   3.707   9.458 -0.2777 -0.5113 -0.4261
  142DOPC    HA16784   5.587   3.715   9.547 -1.3940 -0.2130  0.4190
  142DOPC    HB16785   5.513   3.808   9.412  1.4268 -0.7220 -1.2339
  142DOPC    C216786   5.587   3.613   9.350 -0.0328  0.0523  0.2747
  142DOPC    HS16787   5.669   3.674   9.305 -0.2690 -0.2349 -0.5735
  142DOPC   O2116788   5.497   3.549   9.258 -0.1265 -0.3808  0.5179
  142DOPC   C2116789   5.438   3.638   9.184  0.7939 -0.3370 -0.1340
  142DOPC   O2216790   5.466   3.759   9.176  0.5875 -0.0761  0.5711
  142DOPC   C2216791   5.321   3.566   9.110  0.3019 -0.0691  0.4391
  142DOPC   H2R16792   5.230   3.602   9.161  1.4653  3.6508  0.1466
  142DOPC   H2S16793   5.325   3.455   9.116  1.5298 -0.1062 -0.5640
  142DOPC    C316794   5.660   3.504   9.419 -0.1112  0.7859 -0.1518
  142DOPC    HX16795   5.579   3.444   9.465 -1.6492  0.7987 -2.6673
  142DOPC    HY16796   5.722   3.555   9.496 -0.6205  0.2110  0.6507
  142DOPC   O3116797   5.736   3.423   9.323 -0.0850 -0.4237  0.0045
  142DOPC   C3116798   5.865   3.442   9.325 -0.0853  0.3869  0.1996
  142DOPC   O3216799   5.939   3.489   9.410  0.3339 -0.0336 -0.0781
  142DOPC   C3216800   5.919   3.388   9.193  0.3759 -0.3466 -0.8122
  142DOPC   H2X16801   6.024   3.425   9.193 -0.5149  2.4930  0.2824
  142DOPC   H2Y16802   5.922   3.277   9.196  1.7642 -0.4172 -2.8831
  142DOPC   C2316803   5.320   3.622   8.960 -0.3588  0.0277 -0.1819
  142DOPC   H3R16804   5.392   3.562   8.901 -0.7946 -0.9032  0.2151
  142DOPC   H3S16805   5.322   3.734   8.962  0.5711  0.0020  1.2030
  142DOPC   C2416806   5.184   3.582   8.897  0.0261  0.1998  0.3589
  142DOPC   H4R16807   5.103   3.644   8.942  0.5318  1.1325  0.0267
  142DOPC   H4S16808   5.156   3.478   8.921 -1.1372  0.7010  1.3129
  142DOPC   C2516809   5.188   3.590   8.747  0.1241 -0.8971  0.0976
  142DOPC   H5R16810   5.096   3.547   8.701 -1.6807  2.5145  0.2288
  142DOPC   H5S16811   5.281   3.539   8.712  0.2091 -0.9833  0.4492
  142DOPC   C2616812   5.216   3.734   8.702  0.2916 -0.4883  0.4542
  142DOPC   H6R16813   5.306   3.782   8.746  0.4710  0.5031 -0.9145
  142DOPC   H6S16814   5.128   3.796   8.730  2.0252  1.2040  2.5449
  142DOPC   C2716815   5.229   3.747   8.549  0.0776  0.0770  0.5620
  142DOPC   H7R16816   5.304   3.679   8.502 -0.5556 -2.5224  3.0966
  142DOPC   H7S16817   5.260   3.852   8.530  2.5131 -0.4747  1.1542
  142DOPC   C2816818   5.093   3.730   8.472  0.2399 -0.0981  0.0914
  142DOPC   H8R16819   5.036   3.825   8.480  0.3905 -0.0479  0.6362
  142DOPC   H8S16820   5.030   3.668   8.539  0.0730 -0.6650 -0.5728
  142DOPC   C2916821   5.091   3.663   8.342 -0.4417  0.2208 -0.4062
  142DOPC   H9R16822   5.068   3.555   8.340  0.2969 -0.0115  1.5459
  142DOPC  C21016823   5.138   3.702   8.227  0.8174 -0.3072 -0.1029
  142DOPC  H10R16824   5.151   3.640   8.137  0.7888  0.4158 -0.6219
  142DOPC  C21116825   5.194   3.839   8.199 -0.3332  0.1471 -0.3512
  142DOPC  H11R16826   5.305   3.839   8.194 -0.3332  1.3709 -0.6847
  142DOPC  H11S16827   5.168   3.911   8.279 -0.5787  0.3709 -0.6313
  142DOPC  C21216828   5.157   3.890   8.059  0.3236 -0.6844  0.2384
  142DOPC  H12R16829   5.183   3.998   8.052 -1.0736 -0.4234 -1.7966
  142DOPC  H12S16830   5.049   3.887   8.034  0.6963 -0.4332 -1.5788
  142DOPC  C21316831   5.238   3.826   7.941 -0.4255  0.4191 -0.2179
  142DOPC  H13R16832   5.187   3.729   7.927 -1.5701  1.1986 -1.8272
  142DOPC  H13S16833   5.345   3.809   7.964 -0.9049 -0.8848  1.1320
  142DOPC  C21416834   5.224   3.895   7.810  0.6168 -0.7644  0.8604
  142DOPC  H14R16835   5.291   3.983   7.805  0.5018 -0.7412 -0.7706
  142DOPC  H14S16836   5.119   3.930   7.807  1.3433  1.5580  0.9148
  142DOPC  C21516837   5.252   3.809   7.681 -0.0203 -0.0377 -0.4897
  142DOPC  H15R16838   5.169   3.735   7.683 -1.7915  1.8284 -0.8715
  142DOPC  H15S16839   5.350   3.759   7.692 -0.0407 -0.5256 -2.2132
  142DOPC  C21616840   5.244   3.895   7.554 -0.1545 -0.2912  0.0950
  142DOPC  H16R16841   5.307   3.982   7.580  2.3927 -3.0642  4.5685
  142DOPC  H16S16842   5.143   3.933   7.526  0.3005  0.2020 -0.9076
  142DOPC  C21716843   5.304   3.826   7.440  0.2982  0.0217  0.4875
  142DOPC  H17R16844   5.258   3.727   7.421  1.1784 -0.3624  0.2988
  142DOPC  H17S16845   5.408   3.809   7.477  0.3814  1.9366  1.2573
  142DOPC  C21816846   5.294   3.898   7.308 -0.6064  0.1598  0.2360
  142DOPC  H18R16847   5.307   3.827   7.224 -2.3902 -1.6296  1.3603
  142DOPC  H18S16848   5.359   3.987   7.324 -0.2004 -0.0324 -0.3366
  142DOPC  H18T16849   5.191   3.937   7.290  0.0309  2.2214  0.7696
  142DOPC   C3316850   5.853   3.451   9.070 -0.0391 -0.0002 -0.6704
  142DOPC   H3X16851   5.854   3.562   9.072 -4.7146  0.2826 -2.5349
  142DOPC   H3Y16852   5.746   3.420   9.065 -0.0824  0.3125 -1.9446
  142DOPC   C3416853   5.911   3.392   8.943  0.1934  0.0385  0.5367
  142DOPC   H4X16854   5.887   3.283   8.939 -2.4208  0.4307  2.9430
  142DOPC   H4Y16855   6.022   3.398   8.947  0.1046  2.7260  0.6074
  142DOPC   C3516856   5.880   3.468   8.811  0.4231 -0.0941 -0.1812
  142DOPC   H5X16857   5.928   3.428   8.720 -0.1510  1.6091 -1.2881
  142DOPC   H5Y16858   5.913   3.574   8.826  0.1971 -0.2273  1.4516
  142DOPC   C3616859   5.732   3.478   8.780 -0.3660 -0.1247 -0.0760
  142DOPC   H6X16860   5.698   3.373   8.792  2.1723 -0.8666  1.4020
  142DOPC   H6Y16861   5.676   3.527   8.862 -0.8077  1.3797 -1.2163
  142DOPC   C3716862   5.706   3.562   8.650  0.0206  0.1277 -0.0716
  142DOPC   H7X16863   5.753   3.658   8.680  1.0095 -0.4176  0.1619
  142DOPC   H7Y16864   5.762   3.521   8.564 -2.0094  0.7091 -1.7537
  142DOPC   C3816865   5.557   3.577   8.611  1.0736  0.1078  0.1482
  142DOPC   H8X16866   5.556   3.650   8.527 -2.0068  0.5754  0.4724
  142DOPC   H8Y16867   5.507   3.612   8.703 -0.7327 -1.3255 -0.2213
  142DOPC   C3916868   5.501   3.441   8.577 -0.1435  0.1964  0.4060
  142DOPC   H9X16869   5.485   3.378   8.666  0.2201  0.3523  0.5866
  142DOPC  C31016870   5.474   3.401   8.451  0.3257 -0.2179 -0.2500
  142DOPC  H10X16871   5.449   3.296   8.433  2.4612 -1.4617  3.1127
  142DOPC  C31116872   5.489   3.482   8.328  0.3611  0.1283 -0.2977
  142DOPC  H11X16873   5.554   3.571   8.335 -1.1088  1.1884  0.2949
  142DOPC  H11Y16874   5.387   3.525   8.316  0.0142 -0.8093 -0.8424
  142DOPC  C31216875   5.529   3.407   8.199  0.0948 -0.2349  0.4023
  142DOPC  H12X16876   5.456   3.325   8.181  0.5834 -0.4918 -0.5170
  142DOPC  H12Y16877   5.631   3.363   8.201  0.0762 -0.2318  1.9292
  142DOPC  C31316878   5.552   3.506   8.095 -0.1994 -0.1184 -0.1959
  142DOPC  H13X16879   5.461   3.570   8.097  1.1782  1.9732  2.8809
  142DOPC  H13Y16880   5.634   3.579   8.110  3.2471 -3.4158 -1.2337
  142DOPC  C31416881   5.573   3.441   7.956  0.2382 -0.4196  0.3062
  142DOPC  H14X16882   5.634   3.349   7.968  0.5376  0.1449  4.5627
  142DOPC  H14Y16883   5.475   3.406   7.919 -0.2901  2.4457 -1.3210
  142DOPC  C31516884   5.614   3.540   7.856 -0.1216 -0.2803  0.0983
  142DOPC  H15X16885   5.710   3.588   7.885 -0.7203  0.7353  0.4474
  142DOPC  H15Y16886   5.542   3.623   7.843  0.3522  0.2045  0.5361
  142DOPC  C31616887   5.636   3.469   7.721 -0.1853 -0.2653 -0.1405
  142DOPC  H16X16888   5.704   3.381   7.727  2.4472  1.6690  0.3509
  142DOPC  H16Y16889   5.541   3.441   7.670 -0.1936  0.6535 -0.6650
  142DOPC  C31716890   5.709   3.564   7.628  0.0049  0.0241  0.3705
  142DOPC  H17X16891   5.637   3.647   7.610 -1.8832 -1.8402 -1.1069
  142DOPC  H17Y16892   5.807   3.600   7.666 -0.2066 -1.0170  1.9822
  142DOPC  C31816893   5.744   3.497   7.491 -0.7478  0.5495 -0.0841
  142DOPC  H18X16894   5.820   3.417   7.504 -0.7351  0.3305 -1.4400
  142DOPC  H18Y16895   5.654   3.449   7.448 -0.6796  0.1369  0.2217
  142DOPC  H18Z16896   5.787   3.580   7.430  3.0877 -1.6124 -0.6542
  143DOPC     N16897   2.928   4.106   9.437 -0.4352  0.5133  0.4967
  143DOPC   C1216898   2.945   4.204   9.331 -0.5312  0.3435 -0.8074
  143DOPC  H12A16899   2.922   4.304   9.367  0.3600  0.6518 -1.0672
  143DOPC  H12B16900   2.862   4.191   9.264 -1.0416  0.0470 -0.1332
  143DOPC   C1316901   2.943   3.957   9.394  0.2156 -0.0618 -0.0877
  143DOPC  H13A16902   2.926   3.880   9.468 -0.5549  0.8989  0.7654
  143DOPC  H13B16903   2.884   3.931   9.307  2.2686 -2.2547 -0.9474
  143DOPC  H13C16904   3.046   3.941   9.365 -0.2821 -1.3290 -1.2243
  143DOPC   C1416905   2.787   4.112   9.487 -0.6579  0.1926  0.0466
  143DOPC  H14A16906   2.709   4.120   9.412 -2.0661  1.5703  1.5676
  143DOPC  H14B16907   2.758   4.025   9.544  0.5015 -0.6961 -0.6854
  143DOPC  H14C16908   2.774   4.207   9.537  0.5120  0.3151  0.1329
  143DOPC   C1516909   3.013   4.123   9.556 -0.2990  0.2712  0.3574
  143DOPC  H15A16910   3.118   4.136   9.535 -0.1191  1.6511  1.8974
  143DOPC  H15B16911   3.004   4.042   9.626  0.1269 -0.3253 -0.2648
  143DOPC  H15C16912   2.985   4.217   9.603 -2.8230 -0.8271  1.2395
  143DOPC   C1116913   3.072   4.215   9.256 -0.1041  0.1479  0.3958
  143DOPC  H11A16914   3.083   4.127   9.189  0.6661  2.3799 -2.5569
  143DOPC  H11B16915   3.043   4.286   9.176 -1.8586 -0.7478  0.1791
  143DOPC     P16916   3.320   4.179   9.335 -0.4864 -0.2965 -0.2432
  143DOPC   O1316917   3.290   4.037   9.355  0.2695 -0.0399  0.2555
  143DOPC   O1416918   3.408   4.251   9.431 -0.0959  0.1195 -0.0026
  143DOPC   O1216919   3.179   4.258   9.333 -0.8733  0.6809  0.3424
  143DOPC   O1116920   3.376   4.198   9.188  0.2728  0.1894 -0.1785
  143DOPC    C116921   3.377   4.335   9.140  0.0010  0.2566 -0.6893
  143DOPC    HA16922   3.483   4.359   9.114  0.7391  0.9152  2.4357
  143DOPC    HB16923   3.347   4.422   9.202 -0.3422  0.1403 -0.6937
  143DOPC    C216924   3.292   4.350   9.006  0.6531  0.6940 -0.3966
  143DOPC    HS16925   3.184   4.341   9.033  0.3308 -0.2754 -1.8467
  143DOPC   O2116926   3.339   4.260   8.908 -0.1536 -0.1982 -0.3684
  143DOPC   C2116927   3.315   4.131   8.915 -0.2982  0.8004 -0.4072
  143DOPC   O2216928   3.221   4.072   8.969 -0.2716 -0.8783  0.4010
  143DOPC   C2216929   3.418   4.057   8.822 -0.6636  0.4921  0.4416
  143DOPC   H2R16930   3.503   4.032   8.890  0.4300  1.0249 -0.7031
  143DOPC   H2S16931   3.459   4.136   8.756  1.3334  0.8237  1.9671
  143DOPC    C316932   3.314   4.495   8.945  0.9704 -0.2388 -0.0851
  143DOPC    HX16933   3.359   4.495   8.843  0.2107 -1.8486 -0.4402
  143DOPC    HY16934   3.395   4.551   8.997 -0.0784 -0.3772  1.8038
  143DOPC   O3116935   3.195   4.574   8.937  0.0434 -0.0074  0.0629
  143DOPC   C3116936   3.132   4.573   8.825 -0.9951 -0.6531 -0.2312
  143DOPC   O3216937   3.171   4.514   8.725  0.0513  0.3497 -0.1288
  143DOPC   C3216938   3.030   4.682   8.825  0.4686  0.2700 -0.0799
  143DOPC   H2X16939   2.989   4.690   8.929 -0.8742  1.1879 -0.6490
  143DOPC   H2Y16940   3.091   4.767   8.790  0.0165  0.2684 -0.8805
  143DOPC   C2316941   3.365   3.935   8.744 -0.0296  0.2833 -0.3494
  143DOPC   H3R16942   3.329   3.862   8.819  0.7538  1.6147  1.3936
  143DOPC   H3S16943   3.451   3.893   8.687 -0.6328 -2.5780  0.7164
  143DOPC   C2416944   3.252   3.968   8.652  0.4543 -0.8181  0.4666
  143DOPC   H4R16945   3.164   4.000   8.712 -0.1136 -0.0470 -0.7605
  143DOPC   H4S16946   3.217   3.874   8.603  0.1640 -1.0464  1.0978
  143DOPC   C2516947   3.279   4.078   8.539  0.1675  0.0055 -0.3655
  143DOPC   H5R16948   3.289   4.183   8.576 -4.1616  0.0375  1.2889
  143DOPC   H5S16949   3.181   4.081   8.486 -0.5733 -1.2183  0.8575
  143DOPC   C2616950   3.392   4.042   8.443  0.0509  0.1610 -0.5965
  143DOPC   H6R16951   3.493   4.036   8.490  0.0899  0.4907 -0.6308
  143DOPC   H6S16952   3.400   4.129   8.374  2.4019  0.2224 -0.3269
  143DOPC   C2716953   3.370   3.912   8.359 -0.0572  0.1795  0.1175
  143DOPC   H7R16954   3.279   3.908   8.295 -0.4146 -2.9458  0.6760
  143DOPC   H7S16955   3.351   3.828   8.429  0.4015  0.7572  0.9440
  143DOPC   C2816956   3.490   3.884   8.266  0.3006 -0.4787 -0.1018
  143DOPC   H8R16957   3.471   3.797   8.199  0.2791 -0.7937  0.3052
  143DOPC   H8S16958   3.572   3.850   8.333  1.7184  1.5636 -0.7101
  143DOPC   C2916959   3.534   4.006   8.193 -0.5688  0.4656 -0.2095
  143DOPC   H9R16960   3.607   4.068   8.248  0.5599 -0.9482 -0.0635
  143DOPC  C21016961   3.495   4.024   8.067 -0.1809  0.3297  0.4792
  143DOPC  H10R16962   3.512   4.124   8.024  2.3227  0.4548  1.6006
  143DOPC  C21116963   3.395   3.950   7.986 -0.0704 -0.2676  1.3325
  143DOPC  H11R16964   3.314   4.017   7.950  0.8735 -0.7133 -1.9205
  143DOPC  H11S16965   3.345   3.869   8.042 -0.1735 -0.4903  0.9226
  143DOPC  C21216966   3.448   3.878   7.855 -0.2305  0.4254  0.0101
  143DOPC  H12R16967   3.369   3.807   7.824  1.2608 -0.9442 -0.8103
  143DOPC  H12S16968   3.540   3.826   7.888  0.2021  1.0716 -0.1519
  143DOPC  C21316969   3.477   3.973   7.738  0.2107  0.2436 -0.2441
  143DOPC  H13R16970   3.539   3.914   7.667 -0.8727 -1.0151 -0.1724
  143DOPC  H13S16971   3.532   4.063   7.773 -2.6579  2.2860 -0.6352
  143DOPC  C21416972   3.353   4.009   7.667 -0.1399 -0.0505 -0.0467
  143DOPC  H14R16973   3.288   4.046   7.749  2.6214  1.9973  1.3667
  143DOPC  H14S16974   3.311   3.916   7.622  0.1050  0.3890 -1.2117
  143DOPC  C21516975   3.369   4.108   7.551  0.4338 -0.2349 -0.1442
  143DOPC  H15R16976   3.406   4.209   7.578 -1.6836 -0.1704  2.9773
  143DOPC  H15S16977   3.266   4.122   7.511  1.1178  0.6364 -1.6642
  143DOPC  C21616978   3.439   4.050   7.433 -0.3848 -1.1087  0.0526
  143DOPC  H16R16979   3.390   3.954   7.409  3.2884 -3.3299  0.6398
  143DOPC  H16S16980   3.547   4.035   7.458  0.8045 -0.1740 -3.8383
  143DOPC  C21716981   3.446   4.138   7.303  0.1472 -0.4385 -0.1386
  143DOPC  H17R16982   3.498   4.236   7.313  0.3966 -0.6259  0.4506
  143DOPC  H17S16983   3.344   4.167   7.270  0.8929  0.2553 -1.9833
  143DOPC  C21816984   3.514   4.051   7.192 -0.2015  0.3110 -0.1274
  143DOPC  H18R16985   3.624   4.049   7.208 -0.3715 -1.0745  0.9998
  143DOPC  H18S16986   3.500   4.094   7.091 -0.8978 -1.8816 -1.0172
  143DOPC  H18T16987   3.467   3.951   7.190 -1.0452  0.7074 -1.3925
  143DOPC   C3316988   2.916   4.670   8.723  0.1743 -0.5586 -0.3718
  143DOPC   H3X16989   2.835   4.744   8.742 -0.6658 -1.3352 -0.8667
  143DOPC   H3Y16990   2.871   4.569   8.730  0.4127 -0.6040  0.6646
  143DOPC   C3416991   2.964   4.693   8.580 -0.1097 -0.8405 -0.1996
  143DOPC   H4X16992   3.008   4.601   8.537  0.5780  0.1832 -1.8160
  143DOPC   H4Y16993   3.045   4.768   8.570 -1.0286  0.5226  1.8642
  143DOPC   C3516994   2.841   4.737   8.500 -0.0960  0.3363  0.6144
  143DOPC   H5X16995   2.811   4.837   8.539 -1.4263  0.2204 -0.0614
  143DOPC   H5Y16996   2.763   4.659   8.500  2.3886 -2.4291 -2.1977
  143DOPC   C3616997   2.894   4.750   8.345  0.5374  0.2435  0.3716
  143DOPC   H6X16998   2.978   4.821   8.333  0.9254 -0.4451 -1.1086
  143DOPC   H6Y16999   2.923   4.645   8.323 -0.5768  0.1432 -0.7474
  143DOPC   C3717000   2.782   4.783   8.243  0.0592  0.5586 -0.0594
  143DOPC   H7X17001   2.706   4.703   8.244  0.1344  0.4023 -2.1511
  143DOPC   H7Y17002   2.727   4.874   8.275  0.2613  0.5107  0.4259
  143DOPC   C3817003   2.829   4.801   8.096 -0.1181 -0.1472  0.4543
  143DOPC   H8X17004   2.874   4.706   8.058 -0.7279 -0.8040  1.3344
  143DOPC   H8Y17005   2.918   4.867   8.102 -0.8838  0.8643  0.9893
  143DOPC   C3917006   2.726   4.848   8.000  0.1630  0.3517  1.0582
  143DOPC   H9X17007   2.672   4.938   8.032  0.0475  0.5381  0.3507
  143DOPC  C31017008   2.694   4.786   7.886  0.8794 -0.1624 -0.3269
  143DOPC  H10X17009   2.618   4.841   7.829  1.1989  0.9035  0.2320
  143DOPC  C31117010   2.746   4.649   7.836  0.3074 -0.7247 -0.3929
  143DOPC  H11X17011   2.657   4.589   7.806 -0.6913  0.4303  0.1714
  143DOPC  H11Y17012   2.797   4.586   7.912 -0.2734 -0.7980 -0.0630
  143DOPC  C31217013   2.830   4.659   7.710 -0.5633 -0.3946  0.7851
  143DOPC  H12X17014   2.849   4.557   7.673 -0.9014  0.1481 -0.9723
  143DOPC  H12Y17015   2.928   4.710   7.717  0.0446 -1.5963  1.3003
  143DOPC  C31317016   2.749   4.733   7.597 -0.3013  0.2360 -1.0202
  143DOPC  H13X17017   2.646   4.692   7.594 -0.7104  0.2958  3.9194
  143DOPC  H13Y17018   2.737   4.835   7.640  2.4595 -0.1834  1.0444
  143DOPC  C31417019   2.820   4.725   7.459  0.3586  0.0166 -0.3227
  143DOPC  H14X17020   2.925   4.759   7.474  0.7851 -1.2635 -0.3342
  143DOPC  H14Y17021   2.821   4.621   7.421  0.7188  0.1350 -0.6446
  143DOPC  C31517022   2.747   4.808   7.362 -0.2664  0.4989  0.3819
  143DOPC  H15X17023   2.747   4.911   7.403  0.7396  0.7466 -0.2070
  143DOPC  H15Y17024   2.641   4.778   7.346 -0.4398  1.5744 -0.6672
  143DOPC  C31617025   2.827   4.818   7.219  0.1716 -0.4095 -0.3181
  143DOPC  H16X17026   2.799   4.913   7.168  1.3238 -0.0909 -0.3989
  143DOPC  H16Y17027   2.937   4.827   7.232  0.0837 -0.6181  0.7050
  143DOPC  C31717028   2.796   4.706   7.118  0.6428 -0.9505 -0.3130
  143DOPC  H17X17029   2.846   4.615   7.156  0.4396 -1.8364 -2.0676
  143DOPC  H17Y17030   2.686   4.695   7.101  0.5702  1.1116 -1.5647
  143DOPC  C31817031   2.850   4.733   6.974  0.0416 -0.2371 -0.5034
  143DOPC  H18X17032   2.808   4.655   6.907  1.3739 -0.7509 -0.7700
  143DOPC  H18Y17033   2.815   4.833   6.941 -0.7863 -0.4159 -0.1987
  143DOPC  H18Z17034   2.960   4.722   6.976  0.3089  1.4781 -2.3144
  144DOPC     N17035   2.655   3.441   9.790 -0.3660 -0.6080  0.1710
  144DOPC   C1217036   2.594   3.434   9.653 -0.6294  0.6924 -0.0019
  144DOPC  H12A17037   2.566   3.534   9.622  1.9286  1.7086  0.6561
  144DOPC  H12B17038   2.507   3.371   9.654  2.2520 -3.6574  0.5461
  144DOPC   C1317039   2.776   3.532   9.783 -0.8619  0.0595  0.5047
  144DOPC  H13A17040   2.817   3.552   9.881  0.7288 -3.0913  0.6065
  144DOPC  H13B17041   2.848   3.475   9.727 -0.1001  0.3482  1.1742
  144DOPC  H13C17042   2.746   3.620   9.730 -0.7646 -1.2581 -1.8566
  144DOPC   C1417043   2.703   3.310   9.845 -0.0002  0.1190 -0.0570
  144DOPC  H14A17044   2.780   3.267   9.781 -0.2020  1.5350 -1.3112
  144DOPC  H14B17045   2.745   3.320   9.944 -0.2732  0.6971  0.0065
  144DOPC  H14C17046   2.619   3.243   9.855 -1.4535  1.9300  0.2943
  144DOPC   C1517047   2.557   3.501   9.879  0.6717 -0.4828 -0.4451
  144DOPC  H15A17048   2.591   3.515   9.980 -0.5057 -0.7260  0.0124
  144DOPC  H15B17049   2.462   3.450   9.886  0.5586 -0.2442 -0.2206
  144DOPC  H15C17050   2.538   3.603   9.850  1.8606  0.8037  2.9023
  144DOPC   C1117051   2.681   3.365   9.541 -0.5227  0.0761 -0.3226
  144DOPC  H11A17052   2.700   3.268   9.592  0.9252  1.7393  2.5712
  144DOPC  H11B17053   2.620   3.344   9.450  0.4314  1.2613 -1.2607
  144DOPC     P17054   2.804   3.555   9.428 -0.4522  0.0097  0.4408
  144DOPC   O1317055   2.946   3.606   9.420  0.3782 -0.0613 -0.4718
  144DOPC   O1417056   2.708   3.654   9.469 -0.3337  0.2206  0.1981
  144DOPC   O1217057   2.805   3.432   9.521  0.2674  0.4238 -0.3735
  144DOPC   O1117058   2.765   3.496   9.289  0.0833  0.2877 -0.5304
  144DOPC    C117059   2.855   3.424   9.201 -0.4094 -0.5017  0.1324
  144DOPC    HA17060   2.793   3.348   9.149  0.0012 -0.1359 -0.9219
  144DOPC    HB17061   2.945   3.378   9.245  0.3434 -0.2194 -1.0624
  144DOPC    C217062   2.910   3.511   9.089 -0.1989 -0.0039 -0.1115
  144DOPC    HS17063   2.988   3.580   9.126 -0.5192  0.3506 -0.0918
  144DOPC   O2117064   2.803   3.591   9.033 -0.3114 -0.5658 -0.4035
  144DOPC   C2117065   2.828   3.713   8.982  0.2421 -0.2733  0.5313
  144DOPC   O2217066   2.931   3.770   8.993  0.4694 -0.8338 -0.2509
  144DOPC   C2217067   2.725   3.760   8.882 -0.4484 -0.8827 -1.0193
  144DOPC   H2R17068   2.631   3.782   8.936 -0.4963  1.8564 -2.0504
  144DOPC   H2S17069   2.689   3.684   8.808 -2.4845 -1.8713  0.8702
  144DOPC    C317070   2.959   3.424   8.969 -0.0251 -0.7487 -0.4300
  144DOPC    HX17071   2.872   3.364   8.936 -0.1870 -0.3546 -0.7261
  144DOPC    HY17072   3.021   3.339   9.004 -1.6998 -1.2489  1.4885
  144DOPC   O3117073   3.021   3.503   8.859  0.0795 -0.2457 -0.1805
  144DOPC   C3117074   3.069   3.437   8.758  0.8552 -0.1656 -0.4977
  144DOPC   O3217075   3.074   3.316   8.752 -0.3422 -0.2629 -0.1407
  144DOPC   C3217076   3.125   3.537   8.655  0.3984  0.6716  0.4032
  144DOPC   H2X17077   3.056   3.618   8.621  1.9355  1.5896 -0.6787
  144DOPC   H2Y17078   3.222   3.578   8.689  0.8175  1.4290 -1.5520
  144DOPC   C2317079   2.769   3.887   8.806  0.4613  0.0736  0.9703
  144DOPC   H3R17080   2.840   3.952   8.862 -0.7406  1.4985  0.8883
  144DOPC   H3S17081   2.681   3.947   8.775 -0.0716 -0.9514  0.4770
  144DOPC   C2417082   2.854   3.854   8.680  0.0120 -0.1340  0.3545
  144DOPC   H4R17083   2.880   3.746   8.677  0.4294 -0.0241 -1.4578
  144DOPC   H4S17084   2.952   3.904   8.699 -0.2357  0.3952  0.2419
  144DOPC   C2517085   2.806   3.906   8.543 -0.5580  0.1568 -0.3668
  144DOPC   H5R17086   2.768   4.008   8.564  0.3567  0.1933  1.2959
  144DOPC   H5S17087   2.723   3.845   8.501  0.1581 -2.5706  1.8807
  144DOPC   C2617088   2.917   3.911   8.434 -0.2693  0.5015  0.4325
  144DOPC   H6R17089   2.956   3.807   8.435 -1.3362  0.0567 -0.8134
  144DOPC   H6S17090   3.007   3.975   8.449  0.5089 -0.5620  0.4292
  144DOPC   C2717091   2.863   3.950   8.297 -0.1734 -0.2517  0.0352
  144DOPC   H7R17092   2.811   4.047   8.312  0.2616 -0.1581  0.9846
  144DOPC   H7S17093   2.788   3.873   8.269 -0.7078 -0.2511  1.3907
  144DOPC   C2817094   2.970   3.967   8.189 -0.4972  0.4541  0.1419
  144DOPC   H8R17095   3.053   4.010   8.249  0.3051 -1.1689  0.2378
  144DOPC   H8S17096   2.916   4.035   8.120  0.9807  1.3207 -0.1893
  144DOPC   C2917097   3.020   3.838   8.126 -0.0424  0.4233  0.1475
  144DOPC   H9R17098   3.065   3.766   8.196 -0.2870  1.8823  1.8602
  144DOPC  C21017099   3.034   3.810   7.992 -0.1386 -0.7666  0.4702
  144DOPC  H10R17100   3.072   3.710   7.969  0.2149 -0.4266 -0.4589
  144DOPC  C21117101   2.999   3.889   7.867 -0.1957 -0.5040  1.1164
  144DOPC  H11R17102   3.097   3.917   7.823  0.6049 -0.7771  2.6662
  144DOPC  H11S17103   2.956   3.987   7.898  0.8231  0.4304 -0.2743
  144DOPC  C21217104   2.886   3.829   7.774 -0.4443  0.4155 -0.3805
  144DOPC  H12R17105   2.788   3.841   7.824 -0.1189 -0.4084  0.4808
  144DOPC  H12S17106   2.899   3.723   7.742  1.3053 -0.4409  2.7586
  144DOPC  C21317107   2.850   3.909   7.648 -0.1410 -0.4674  0.2160
  144DOPC  H13R17108   2.841   4.019   7.667  0.9534 -0.0104 -1.6394
  144DOPC  H13S17109   2.750   3.874   7.615 -0.1081 -2.1723  1.7856
  144DOPC  C21417110   2.956   3.893   7.536  0.1945  0.0535 -0.1976
  144DOPC  H14R17111   2.989   3.787   7.536  1.0282  0.2818 -1.8799
  144DOPC  H14S17112   3.045   3.950   7.572  1.7241 -0.9519 -2.1677
  144DOPC  C21517113   2.914   3.944   7.400 -0.6555  0.0538 -0.5047
  144DOPC  H15R17114   2.844   4.030   7.398 -0.2635  0.3980  0.1392
  144DOPC  H15S17115   2.859   3.866   7.343 -0.3157  0.3987 -1.3369
  144DOPC  C21617116   3.045   3.972   7.324  0.8249  0.0708 -0.1513
  144DOPC  H16R17117   3.128   3.902   7.347 -0.6505 -0.9130  2.5084
  144DOPC  H16S17118   3.072   4.074   7.360 -2.5607 -0.0627  3.2623
  144DOPC  C21717119   3.032   3.977   7.170 -0.2193 -0.7811  0.3972
  144DOPC  H17R17120   3.125   4.012   7.120 -1.2042 -0.6068 -1.4134
  144DOPC  H17S17121   2.947   4.041   7.139  0.5474 -0.6366 -1.5512
  144DOPC  C21817122   2.995   3.837   7.109 -0.0323  0.1140  0.3025
  144DOPC  H18R17123   3.004   3.844   6.999 -3.3154  2.6729  0.0351
  144DOPC  H18S17124   2.890   3.813   7.138 -0.2197  1.0537  0.4303
  144DOPC  H18T17125   3.067   3.757   7.136  1.2048  0.5264 -1.6343
  144DOPC   C3317126   3.162   3.456   8.532 -0.1975 -0.4559  0.1515
  144DOPC   H3X17127   3.067   3.410   8.496 -0.4006  0.1421 -0.0910
  144DOPC   H3Y17128   3.242   3.382   8.554  1.9514  1.6454 -0.2638
  144DOPC   C3417129   3.228   3.541   8.426 -0.1074  0.2802  0.1724
  144DOPC   H4X17130   3.324   3.587   8.456  0.2614  1.2368 -2.2434
  144DOPC   H4Y17131   3.161   3.626   8.399  0.2316  0.3689 -0.3975
  144DOPC   C3517132   3.246   3.464   8.299 -0.0127  0.1762  0.0150
  144DOPC   H5X17133   3.163   3.391   8.288  0.6765 -0.4752 -1.0186
  144DOPC   H5Y17134   3.337   3.400   8.309 -0.8180 -0.7771  1.5651
  144DOPC   C3617135   3.252   3.541   8.161  0.1074  0.3536 -0.3068
  144DOPC   H6X17136   3.148   3.574   8.140 -0.5588  0.3139  2.5027
  144DOPC   H6Y17137   3.322   3.626   8.168  2.2884 -1.4069  0.2890
  144DOPC   C3717138   3.302   3.445   8.049  0.6292 -0.0107 -0.1956
  144DOPC   H7X17139   3.400   3.408   8.085  0.4682  0.6786  1.0266
  144DOPC   H7Y17140   3.219   3.373   8.030 -0.8072  1.5875 -0.2194
  144DOPC   C3817141   3.324   3.518   7.914 -0.1151  0.7621 -0.0653
  144DOPC   H8X17142   3.400   3.596   7.930  1.3835 -0.6588  0.0262
  144DOPC   H8Y17143   3.228   3.565   7.881  0.2446  0.9598 -0.8575
  144DOPC   C3917144   3.369   3.416   7.816  0.1723  0.6727 -0.3045
  144DOPC   H9X17145   3.451   3.353   7.852  0.3942  0.4250 -1.2068
  144DOPC  C31017146   3.326   3.409   7.688 -0.1786  0.2508 -0.5302
  144DOPC  H10X17147   3.372   3.330   7.626  1.0068 -0.2248  0.9160
  144DOPC  C31117148   3.221   3.488   7.615  0.0994  0.2151  0.2970
  144DOPC  H11X17149   3.188   3.565   7.688 -1.0040 -0.9630  1.0853
  144DOPC  H11Y17150   3.141   3.413   7.597 -1.8320  2.0945  0.6486
  144DOPC  C31217151   3.260   3.567   7.486 -0.0750  0.1664 -0.0668
  144DOPC  H12X17152   3.340   3.635   7.521 -0.2026 -0.0955  0.7552
  144DOPC  H12Y17153   3.165   3.619   7.463 -0.9566 -1.7244 -0.9391
  144DOPC  C31317154   3.318   3.480   7.372  0.4133 -0.6268 -0.3776
  144DOPC  H13X17155   3.414   3.445   7.415 -0.5517 -1.6076  1.0513
  144DOPC  H13Y17156   3.263   3.385   7.351 -0.7174 -0.3710  1.2599
  144DOPC  C31417157   3.337   3.564   7.243  0.0276  0.3621  0.0291
  144DOPC  H14X17158   3.234   3.587   7.207  0.2206 -1.4308 -1.8053
  144DOPC  H14Y17159   3.399   3.654   7.265  1.1347 -0.7905  1.8970
  144DOPC  C31517160   3.400   3.469   7.133 -0.8420 -0.6694  0.1894
  144DOPC  H15X17161   3.330   3.383   7.122  0.9914 -2.1094 -0.8879
  144DOPC  H15Y17162   3.498   3.433   7.169 -0.6293  0.4222  0.7430
  144DOPC  C31617163   3.428   3.531   6.995  0.5930  0.1577 -0.0850
  144DOPC  H16X17164   3.328   3.555   6.953  0.0112 -2.0629 -0.1063
  144DOPC  H16Y17165   3.487   3.625   7.006 -1.4542  1.4896  0.0305
  144DOPC  C31717166   3.497   3.430   6.901 -0.0828  0.5220 -0.0742
  144DOPC  H17X17167   3.603   3.423   6.933  0.8119  3.0651 -2.1174
  144DOPC  H17Y17168   3.444   3.332   6.904 -1.2399  1.0915 -1.2076
  144DOPC  C31817169   3.496   3.464   6.754 -0.0624  0.1650  1.0985
  144DOPC  H18X17170   3.392   3.488   6.722  0.3968 -0.1672 -0.7921
  144DOPC  H18Y17171   3.534   3.566   6.732 -2.3583  0.6072 -1.2733
  144DOPC  H18Z17172   3.537   3.389   6.684  0.6439 -2.0450  3.7149
  145DOPC     N17173   3.906   6.141   9.084 -0.0159  0.1477  0.0855
  145DOPC   C1217174   3.899   6.181   8.932 -0.1118 -0.3156 -0.8359
  145DOPC  H12A17175   3.993   6.177   8.880 -0.2293  1.5922 -1.2731
  145DOPC  H12B17176   3.877   6.287   8.921 -1.9468 -0.6216 -0.5015
  145DOPC   C1317177   3.957   5.997   9.109 -0.2030  0.4476  0.6449
  145DOPC  H13A17178   4.063   5.991   9.087 -0.5903 -1.9243 -1.0058
  145DOPC  H13B17179   3.932   5.975   9.211 -1.8174  1.1961  0.4460
  145DOPC  H13C17180   3.904   5.924   9.050 -0.1662  0.0007  1.1654
  145DOPC   C1417181   3.775   6.156   9.148 -0.3704 -0.3461  0.4061
  145DOPC  H14A17182   3.769   6.116   9.248 -0.2976  0.7339  0.8577
  145DOPC  H14B17183   3.730   6.254   9.147  0.4788  0.0861 -1.9080
  145DOPC  H14C17184   3.703   6.093   9.098 -0.0683  0.3302 -0.9248
  145DOPC   C1517185   3.996   6.238   9.145  0.2367 -0.4038  0.7227
  145DOPC  H15A17186   3.977   6.340   9.114 -1.5813 -1.3329 -1.5109
  145DOPC  H15B17187   4.099   6.227   9.113  0.5744  2.5896  0.4740
  145DOPC  H15C17188   3.989   6.232   9.253 -1.2352  0.0087  0.6690
  145DOPC   C1117189   3.813   6.099   8.835  0.3709  0.0227 -0.2565
  145DOPC  H11A17190   3.825   6.129   8.729  0.5635 -1.5095 -0.6994
  145DOPC  H11B17191   3.852   5.995   8.831  0.6391  0.1642 -2.1885
  145DOPC     P17192   3.585   6.217   8.827  0.0841  0.1757  0.3616
  145DOPC   O1317193   3.669   6.337   8.843  0.2891 -0.0432  0.6099
  145DOPC   O1417194   3.455   6.212   8.894 -0.0770  0.0477 -0.5060
  145DOPC   O1217195   3.673   6.094   8.867  0.2407 -0.5543 -0.2272
  145DOPC   O1117196   3.570   6.177   8.674  0.9615  0.6034 -0.3286
  145DOPC    C117197   3.524   6.049   8.626  0.4763  0.0428 -0.6212
  145DOPC    HA17198   3.422   6.047   8.583 -0.5890 -4.5321  1.5374
  145DOPC    HB17199   3.510   5.984   8.715  1.6714  0.6841  0.0637
  145DOPC    C217200   3.631   5.992   8.537 -0.3246 -0.7414  0.3212
  145DOPC    HS17201   3.727   5.987   8.593  0.5625  2.0717 -0.7955
  145DOPC   O2117202   3.630   6.072   8.415  0.5728 -0.0643  0.6348
  145DOPC   C2117203   3.745   6.090   8.364  0.4196 -0.2587 -0.1442
  145DOPC   O2217204   3.852   6.038   8.405  0.2046  0.5759  0.1179
  145DOPC   C2217205   3.726   6.164   8.235  0.2428 -0.2304  0.9519
  145DOPC   H2R17206   3.802   6.244   8.221  0.4958 -0.1763  2.4841
  145DOPC   H2S17207   3.632   6.223   8.235  0.7799  0.6555  1.9190
  145DOPC    C317208   3.590   5.852   8.490  0.1263 -0.1856  0.0629
  145DOPC    HX17209   3.482   5.861   8.466  0.2084 -1.2235 -0.7445
  145DOPC    HY17210   3.585   5.781   8.576 -2.6104  1.6440  1.5718
  145DOPC   O3117211   3.660   5.803   8.373  0.5316 -0.0664  0.2870
  145DOPC   C3117212   3.769   5.738   8.392 -0.9116 -0.2127 -0.6573
  145DOPC   O3217213   3.812   5.699   8.500 -0.3439 -0.1984  0.1205
  145DOPC   C3217214   3.851   5.715   8.257  0.3999  0.2103  0.6108
  145DOPC   H2X17215   3.923   5.800   8.258 -0.3299  0.8490  0.4499
  145DOPC   H2Y17216   3.917   5.628   8.278  1.6964  0.7044 -1.1698
  145DOPC   C2317217   3.722   6.066   8.115  0.0156  0.3742  0.3145
  145DOPC   H3R17218   3.622   6.019   8.122 -0.3369  0.6587 -2.0377
  145DOPC   H3S17219   3.796   5.984   8.128 -0.6439  0.0418  2.4428
  145DOPC   C2417220   3.735   6.138   7.978  0.1025 -0.1189  0.6723
  145DOPC   H4R17221   3.829   6.196   7.989  1.2882 -2.2055  2.3026
  145DOPC   H4S17222   3.656   6.215   7.964  2.5582  3.2579  3.4688
  145DOPC   C2517223   3.749   6.042   7.858  0.5936 -1.1584 -0.2793
  145DOPC   H5R17224   3.656   5.983   7.850  1.5610 -2.6564 -0.9233
  145DOPC   H5S17225   3.833   5.970   7.873  0.3229 -1.4041  0.0777
  145DOPC   C2617226   3.765   6.114   7.728  0.2011 -0.2260 -0.4030
  145DOPC   H6R17227   3.818   6.212   7.739  0.5434 -0.4835  0.3484
  145DOPC   H6S17228   3.669   6.153   7.689 -1.1312 -2.2392  0.6617
  145DOPC   C2717229   3.833   6.023   7.622 -0.1731 -0.8778 -0.4390
  145DOPC   H7R17230   3.806   5.919   7.651 -1.1477 -0.7139 -0.7275
  145DOPC   H7S17231   3.942   6.042   7.628 -0.6116  1.4234  2.4682
  145DOPC   C2817232   3.778   6.055   7.483 -0.3533  0.4838  0.1494
  145DOPC   H8R17233   3.808   6.160   7.466  1.1158 -0.2347 -2.1350
  145DOPC   H8S17234   3.667   6.052   7.485 -0.4604  2.0092 -1.4923
  145DOPC   C2917235   3.830   5.960   7.385 -0.6918  0.3343  0.0627
  145DOPC   H9R17236   3.872   5.863   7.415 -0.1551  1.0487  1.7204
  145DOPC  C21017237   3.812   5.964   7.252 -0.6753  0.0869  0.4679
  145DOPC  H10R17238   3.860   5.884   7.194 -5.1903 -2.0661 -0.7474
  145DOPC  C21117239   3.741   6.074   7.174 -0.0043 -0.1304 -0.0200
  145DOPC  H11R17240   3.803   6.111   7.090  1.1146 -2.0631 -0.1051
  145DOPC  H11S17241   3.726   6.161   7.242  0.4507  1.3722 -1.7768
  145DOPC  C21217242   3.609   6.037   7.105 -0.2591  0.2978  0.4896
  145DOPC  H12R17243   3.580   6.136   7.064 -1.8290  0.1605  1.1851
  145DOPC  H12S17244   3.537   5.999   7.181  3.9211 -1.6864  3.8401
  145DOPC  C21317245   3.622   5.916   6.999  0.8061 -0.7615 -0.0873
  145DOPC  H13R17246   3.561   5.829   7.031  1.4586 -1.4666 -0.7191
  145DOPC  H13S17247   3.727   5.881   7.010  1.0044  0.0254  0.6715
  145DOPC  C21417248   3.597   5.944   6.850 -0.3760 -0.0261  0.6036
  145DOPC  H14R17249   3.675   6.011   6.808 -0.9474  1.4416  1.8056
  145DOPC  H14S17250   3.505   6.006   6.840 -0.1070  0.2709 -0.0865
  145DOPC  C21517251   3.588   5.822   6.768  0.2653  0.1338 -0.1670
  145DOPC  H15R17252   3.510   5.751   6.803  0.1084 -0.2957 -1.3363
  145DOPC  H15S17253   3.679   5.761   6.752  1.0618  1.6579 -1.8181
  145DOPC  C21617254   3.555   5.851   6.619 -0.2013 -0.1885  0.2121
  145DOPC  H16R17255   3.575   5.756   6.565 -0.1986 -0.8537  1.3337
  145DOPC  H16S17256   3.619   5.931   6.577 -0.3393 -0.3731 -0.3502
  145DOPC  C21717257   3.411   5.881   6.579 -0.5946  0.4350 -0.5775
  145DOPC  H17R17258   3.375   5.964   6.644 -1.2466 -0.9756  0.9309
  145DOPC  H17S17259   3.347   5.793   6.603 -2.2869  1.6777 -0.2930
  145DOPC  C21817260   3.398   5.902   6.423 -0.2020  0.1773 -0.0301
  145DOPC  H18R17261   3.414   6.010   6.405  0.3893  0.1239  0.1628
  145DOPC  H18S17262   3.301   5.865   6.384 -0.4257 -0.3133  0.9535
  145DOPC  H18T17263   3.475   5.842   6.371  0.2322 -0.1852  1.0085
  145DOPC   C3317264   3.758   5.687   8.134  0.4668  0.4848  0.0387
  145DOPC   H3X17265   3.699   5.779   8.112 -1.0328 -0.1599  1.2237
  145DOPC   H3Y17266   3.681   5.613   8.162 -0.5106  1.9597  1.4222
  145DOPC   C3417267   3.846   5.653   8.014 -0.4771 -0.0027  0.4221
  145DOPC   H4X17268   3.905   5.561   8.034 -0.2930 -0.3940 -1.7521
  145DOPC   H4Y17269   3.921   5.735   8.005  0.5286 -0.7121  1.9095
  145DOPC   C3517270   3.755   5.641   7.888 -0.8721  0.0364 -0.8456
  145DOPC   H5X17271   3.720   5.745   7.871 -0.7962  0.2865  0.3874
  145DOPC   H5Y17272   3.670   5.571   7.903  1.1461 -2.4271  0.0624
  145DOPC   C3617273   3.841   5.587   7.773  0.1659  0.4716 -0.4512
  145DOPC   H6X17274   3.931   5.650   7.753  0.7667 -0.1745  0.1262
  145DOPC   H6Y17275   3.892   5.490   7.793  0.7531  0.4976 -1.7188
  145DOPC   C3717276   3.768   5.566   7.639 -0.9349  0.4299 -0.4257
  145DOPC   H7X17277   3.697   5.481   7.650  0.3733 -0.5170  1.3938
  145DOPC   H7Y17278   3.712   5.657   7.609  0.4997  1.5292  0.0778
  145DOPC   C3817279   3.856   5.556   7.514  0.5946  0.5969  0.7897
  145DOPC   H8X17280   3.945   5.491   7.528  0.9944 -0.1807 -3.8615
  145DOPC   H8Y17281   3.900   5.657   7.498  0.4068  0.4382 -0.9798
  145DOPC   C3917282   3.784   5.519   7.384  0.3977  0.7435 -0.7159
  145DOPC   H9X17283   3.691   5.461   7.399  0.5406  0.9596  1.2718
  145DOPC  C31017284   3.837   5.522   7.266 -0.1937  0.5846  0.2201
  145DOPC  H10X17285   3.777   5.476   7.187  2.7587 -0.9147 -1.3239
  145DOPC  C31117286   3.970   5.562   7.221  0.2613  0.3643 -0.0274
  145DOPC  H11X17287   4.029   5.602   7.307 -0.4451  0.6438  0.3389
  145DOPC  H11Y17288   3.966   5.656   7.162  2.4196  0.8942  0.5849
  145DOPC  C31217289   4.044   5.471   7.128  0.2948  0.2769 -0.4155
  145DOPC  H12X17290   4.055   5.367   7.166  2.9410  1.4274  2.3915
  145DOPC  H12Y17291   4.148   5.506   7.108  1.2316 -3.3685 -3.0696
  145DOPC  C31317292   3.991   5.457   6.982 -0.6791 -0.0260  0.2130
  145DOPC  H13X17293   3.888   5.418   6.994  0.1888 -2.8012 -0.5744
  145DOPC  H13Y17294   3.989   5.559   6.940 -0.8183 -0.5522 -1.0940
  145DOPC  C31417295   4.072   5.364   6.890 -0.3240 -0.4099 -0.8041
  145DOPC  H14X17296   4.179   5.392   6.895 -0.8093  1.4570 -0.1803
  145DOPC  H14Y17297   4.061   5.262   6.932  0.3549 -0.7660 -1.4667
  145DOPC  C31517298   4.026   5.363   6.746 -0.0865  0.2306  0.3962
  145DOPC  H15X17299   3.936   5.299   6.732  0.6519 -0.6314 -0.5036
  145DOPC  H15Y17300   4.111   5.320   6.689 -0.9103  0.8005 -1.3401
  145DOPC  C31617301   3.997   5.497   6.673 -0.0827 -0.8796 -0.0973
  145DOPC  H16X17302   3.918   5.553   6.729  0.4138 -1.5503  1.3263
  145DOPC  H16Y17303   4.096   5.547   6.672 -0.2207 -0.6216 -1.2918
  145DOPC  C31717304   3.964   5.498   6.521 -0.2445  0.0822 -0.0040
  145DOPC  H17X17305   3.967   5.604   6.487  1.4636  0.0017 -0.1609
  145DOPC  H17Y17306   4.048   5.458   6.460 -1.0221  1.2134 -1.9055
  145DOPC  C31817307   3.827   5.435   6.487  0.1657  0.5793 -0.0773
  145DOPC  H18X17308   3.828   5.330   6.524  1.1606  0.2684 -0.9633
  145DOPC  H18Y17309   3.746   5.505   6.517  0.7099  0.1471  2.7008
  145DOPC  H18Z17310   3.815   5.427   6.377  0.3780 -0.2552 -0.0417
  146DOPC     N17311   5.195   3.252   9.703  0.1586 -0.2613  0.5028
  146DOPC   C1217312   5.196   3.233   9.554  0.4900  0.1169  0.1552
  146DOPC  H12A17313   5.111   3.287   9.514 -1.5144 -3.0240 -0.2121
  146DOPC  H12B17314   5.172   3.129   9.538  0.3952  0.2489 -0.5882
  146DOPC   C1317315   5.070   3.205   9.764 -0.2436  0.5697  0.2936
  146DOPC  H13A17316   5.068   3.098   9.778 -2.6378  0.1892 -2.0417
  146DOPC  H13B17317   5.061   3.242   9.865 -0.9224 -0.6853  0.7078
  146DOPC  H13C17318   4.976   3.228   9.715 -0.6309 -1.9143 -0.2660
  146DOPC   C1417319   5.208   3.398   9.730 -0.2057 -0.0954 -0.1540
  146DOPC  H14A17320   5.203   3.394   9.838  0.4742 -0.8145 -0.1381
  146DOPC  H14B17321   5.302   3.436   9.692 -1.4041  0.9923 -2.1802
  146DOPC  H14C17322   5.123   3.448   9.686 -0.7117  2.1290  2.9951
  146DOPC   C1517323   5.307   3.181   9.768 -0.2030  0.3851 -0.0368
  146DOPC  H15A17324   5.394   3.206   9.709 -1.0147  0.6882 -1.1528
  146DOPC  H15B17325   5.291   3.074   9.762 -2.6542  0.7501 -1.5279
  146DOPC  H15C17326   5.318   3.211   9.871  0.5985 -1.9076  0.6311
  146DOPC   C1117327   5.321   3.269   9.470 -0.9999  0.1391  0.2939
  146DOPC  H11A17328   5.298   3.260   9.361  1.1300 -1.1537 -0.0998
  146DOPC  H11B17329   5.342   3.375   9.494 -1.3769  0.3392 -0.2227
  146DOPC     P17330   5.459   3.056   9.413  0.2849  0.4823  0.0271
  146DOPC   O1317331   5.347   2.964   9.440 -0.3249  0.0123 -0.5355
  146DOPC   O1417332   5.602   3.015   9.443  0.0562 -0.7958 -1.4449
  146DOPC   O1217333   5.431   3.184   9.499 -0.1458 -0.0952  0.3673
  146DOPC   O1117334   5.445   3.110   9.264 -0.2182 -0.0220  0.6919
  146DOPC    C117335   5.527   3.198   9.200 -0.8634  0.0756  0.1867
  146DOPC    HA17336   5.605   3.234   9.271  0.7043 -0.7968 -1.0196
  146DOPC    HB17337   5.476   3.293   9.173  0.4342  0.4163 -1.2144
  146DOPC    C217338   5.599   3.132   9.077 -0.0639  0.1216 -0.0821
  146DOPC    HS17339   5.652   3.211   9.019  1.3456 -0.7839 -0.0638
  146DOPC   O2117340   5.498   3.073   8.993 -0.1247  0.1286 -0.1763
  146DOPC   C2117341   5.421   3.156   8.931 -0.2049  0.5262  0.5580
  146DOPC   O2217342   5.416   3.276   8.942  0.2809  0.3872 -0.2222
  146DOPC   C2217343   5.341   3.076   8.829 -0.1813  0.5795 -0.3180
  146DOPC   H2R17344   5.311   2.984   8.884  2.8152 -0.1949  0.2334
  146DOPC   H2S17345   5.412   3.047   8.749 -1.7176  0.0937 -1.5637
  146DOPC    C317346   5.689   3.014   9.124 -0.6471  0.3945  0.5424
  146DOPC    HX17347   5.634   2.931   9.173 -1.8844  1.1028  0.4039
  146DOPC    HY17348   5.755   3.051   9.205 -2.1691  0.6009  1.7346
  146DOPC   O3117349   5.751   2.958   9.005 -0.1305 -0.3851 -0.1993
  146DOPC   C3117350   5.880   2.969   8.999 -0.5736  0.6359  0.2935
  146DOPC   O3217351   5.959   3.009   9.085  0.1036 -0.0671 -0.7198
  146DOPC   C3217352   5.926   2.931   8.857  0.1379  0.2697 -0.5588
  146DOPC   H2X17353   6.029   2.890   8.854 -1.0795 -3.0209 -2.0895
  146DOPC   H2Y17354   5.862   2.852   8.813 -0.8354  0.5428  0.3193
  146DOPC   C2317355   5.231   3.160   8.758  0.2615 -0.7309  0.7199
  146DOPC   H3R17356   5.276   3.215   8.672  1.0690 -1.4573  0.6651
  146DOPC   H3S17357   5.181   3.234   8.824 -1.2711 -1.3799  0.3163
  146DOPC   C2417358   5.106   3.081   8.731  0.1667  0.3811  0.2836
  146DOPC   H4R17359   5.072   3.036   8.827  3.0005  0.5290  1.4279
  146DOPC   H4S17360   5.112   2.994   8.662 -2.0247 -1.0923  1.7994
  146DOPC   C2517361   4.995   3.167   8.659  0.3911 -0.1861 -0.4285
  146DOPC   H5R17362   5.000   3.273   8.693 -1.1771  0.1678 -1.1851
  146DOPC   H5S17363   4.895   3.131   8.693  0.5656 -0.1251  0.1458
  146DOPC   C2617364   4.992   3.165   8.508  0.3482  0.3840  0.2174
  146DOPC   H6R17365   4.894   3.210   8.484  0.9947  1.4279 -0.5887
  146DOPC   H6S17366   4.998   3.063   8.463  0.3655  1.1223 -1.5313
  146DOPC   C2717367   5.107   3.244   8.451  0.9541  0.4836  0.5278
  146DOPC   H7R17368   5.189   3.170   8.458  0.7390  0.2772  0.9328
  146DOPC   H7S17369   5.132   3.339   8.502  0.6739  1.3785 -0.9477
  146DOPC   C2817370   5.081   3.288   8.302 -0.5637  0.1349 -0.0923
  146DOPC   H8R17371   5.178   3.328   8.264 -0.5167  0.1563  0.0475
  146DOPC   H8S17372   5.007   3.371   8.300  2.3611  2.9413 -1.2195
  146DOPC   C2917373   5.039   3.168   8.215 -0.1673 -0.6217 -0.2774
  146DOPC   H9R17374   4.952   3.117   8.259 -1.5471  1.3229 -0.5543
  146DOPC  C21017375   5.077   3.146   8.087  0.4060  0.2373 -0.1143
  146DOPC  H10R17376   5.018   3.074   8.028  0.4552  0.2469 -0.1758
  146DOPC  C21117377   5.179   3.226   8.009 -0.0218  0.4086 -0.5698
  146DOPC  H11R17378   5.238   3.155   7.946  1.7609  1.1270  0.2082
  146DOPC  H11S17379   5.248   3.270   8.084 -0.5939  0.1852  0.0883
  146DOPC  C21217380   5.136   3.333   7.919 -0.1350  0.5029 -0.0248
  146DOPC  H12R17381   5.221   3.366   7.857 -1.7810 -0.5848 -3.0631
  146DOPC  H12S17382   5.101   3.425   7.971 -0.7622  0.5901 -0.5940
  146DOPC  C21317383   5.024   3.302   7.818  0.1393  0.1688  0.1099
  146DOPC  H13R17384   4.940   3.262   7.877  0.6622 -0.1671  0.6432
  146DOPC  H13S17385   5.059   3.218   7.753 -1.4947 -0.9086  0.5821
  146DOPC  C21417386   5.009   3.425   7.725  0.6653  0.1763 -0.0616
  146DOPC  H14R17387   5.105   3.474   7.698  0.6055  1.3895  1.7305
  146DOPC  H14S17388   4.952   3.510   7.769  2.7547  0.5705  2.1148
  146DOPC  C21517389   4.953   3.373   7.588  0.2862  0.3616 -0.6796
  146DOPC  H15R17390   4.863   3.314   7.614  1.5833 -0.6520  1.8134
  146DOPC  H15S17391   5.029   3.300   7.552 -0.1587 -0.4204 -0.0621
  146DOPC  C21617392   4.916   3.483   7.495  0.1158 -0.4145 -0.0296
  146DOPC  H16R17393   5.002   3.550   7.473  0.7259 -1.6400 -1.5401
  146DOPC  H16S17394   4.850   3.556   7.548 -0.2436 -1.7072  1.3584
  146DOPC  C21717395   4.870   3.430   7.358  0.0634 -0.2379 -0.1813
  146DOPC  H17R17396   4.772   3.381   7.376  0.5724 -1.2887 -0.2176
  146DOPC  H17S17397   4.949   3.359   7.326  1.4308  1.0382  0.2288
  146DOPC  C21817398   4.857   3.547   7.264 -0.7594 -0.5513  0.3622
  146DOPC  H18R17399   4.812   3.513   7.168 -0.6181  2.0950 -0.7252
  146DOPC  H18S17400   4.952   3.599   7.243 -1.4450  0.4566 -0.3728
  146DOPC  H18T17401   4.785   3.626   7.297 -0.0037  0.6650 -0.7765
  146DOPC   C3317402   5.907   3.055   8.772 -0.3696  0.2633 -0.0840
  146DOPC   H3X17403   5.971   3.134   8.816  2.6089 -1.3603 -1.2128
  146DOPC   H3Y17404   5.804   3.096   8.777  0.4547  2.2520  2.5156
  146DOPC   C3417405   5.947   3.044   8.627 -0.5057  0.4643 -0.1170
  146DOPC   H4X17406   5.899   2.960   8.573  0.6499 -0.8891  0.9238
  146DOPC   H4Y17407   6.056   3.024   8.626 -0.3753  1.1193 -0.8574
  146DOPC   C3517408   5.921   3.162   8.532 -0.0680 -0.0105  0.5351
  146DOPC   H5X17409   5.975   3.253   8.567 -1.7247  1.1066  0.2933
  146DOPC   H5Y17410   5.816   3.196   8.539  0.4258  1.6918  0.1567
  146DOPC   C3617411   5.947   3.126   8.387 -0.5611  0.0523  0.8133
  146DOPC   H6X17412   6.052   3.089   8.378 -0.1452  1.4152 -0.3997
  146DOPC   H6Y17413   5.883   3.045   8.345 -1.4174  2.4917 -3.1697
  146DOPC   C3717414   5.940   3.245   8.285 -0.2724 -0.0035  0.3623
  146DOPC   H7X17415   5.836   3.284   8.289  0.5936  2.5637 -0.2188
  146DOPC   H7Y17416   6.001   3.332   8.317  0.0490 -0.0231 -0.1864
  146DOPC   C3817417   5.979   3.207   8.138  0.1729 -0.0071  0.3766
  146DOPC   H8X17418   5.922   3.118   8.104 -1.3146 -0.2250  3.1501
  146DOPC   H8Y17419   6.087   3.185   8.125 -0.1346 -0.4454 -1.7912
  146DOPC   C3917420   5.943   3.315   8.047  0.2145 -0.3564  1.3073
  146DOPC   H9X17421   5.878   3.394   8.087  0.3356 -0.4419  1.6724
  146DOPC  C31017422   5.954   3.316   7.911 -0.0237  0.1667  0.4211
  146DOPC  H10X17423   5.915   3.404   7.857 -1.3691  1.1044  2.7445
  146DOPC  C31117424   6.004   3.215   7.815  0.1853  0.5633  0.3644
  146DOPC  H11X17425   6.031   3.125   7.874 -2.0303 -0.0239  0.5758
  146DOPC  H11Y17426   6.099   3.254   7.772 -0.2399  0.9952 -0.2106
  146DOPC  C31217427   5.908   3.169   7.703  1.0105 -0.2510 -0.0174
  146DOPC  H12X17428   5.847   3.245   7.650  0.0318 -0.0816  1.2917
  146DOPC  H12Y17429   5.832   3.099   7.743  1.9856 -3.3594 -3.1751
  146DOPC  C31317430   5.973   3.084   7.592  0.0238 -0.5244 -0.0664
  146DOPC  H13X17431   6.025   3.155   7.524 -1.4482  1.0707  0.3974
  146DOPC  H13Y17432   6.041   3.015   7.647 -0.1530 -0.8848 -0.2957
  146DOPC  C31417433   5.865   3.018   7.497 -0.2514 -0.4164 -0.5162
  146DOPC  H14X17434   5.922   2.944   7.436  0.3589 -0.2809 -0.1185
  146DOPC  H14Y17435   5.792   2.968   7.566 -1.2998  1.4943 -0.1805
  146DOPC  C31517436   5.784   3.114   7.401  0.2228  0.4857 -0.5986
  146DOPC  H15X17437   5.737   3.193   7.463  1.8555  0.5607  0.6130
  146DOPC  H15Y17438   5.704   3.061   7.345 -0.0253 -0.0207  0.2110
  146DOPC  C31617439   5.870   3.172   7.292 -0.3452 -0.6910 -0.7431
  146DOPC  H16X17440   5.807   3.228   7.220 -1.6518 -1.3022 -0.1155
  146DOPC  H16Y17441   5.943   3.249   7.324 -0.1105 -0.4533 -1.8188
  146DOPC  C31717442   5.947   3.075   7.203 -0.2887  0.6296  0.1908
  146DOPC  H17X17443   6.033   3.025   7.254  1.0447  1.6283 -0.9943
  146DOPC  H17Y17444   5.886   2.987   7.172  2.0719 -1.5270  1.2903
  146DOPC  C31817445   6.009   3.132   7.072 -0.5991  0.7217  0.1144
  146DOPC  H18X17446   5.938   3.203   7.024  0.1720  2.2751  1.1953
  146DOPC  H18Y17447   6.099   3.191   7.102  1.6261 -2.7714  0.8671
  146DOPC  H18Z17448   6.034   3.051   7.000  1.1929  0.9339  0.4476
  147DOPC     N17449   1.885   4.038   9.487 -0.4409  0.4727  0.3566
  147DOPC   C1217450   1.931   4.029   9.345  0.2635 -0.1205 -0.0746
  147DOPC  H12A17451   1.890   3.943   9.294  0.7962  0.1793 -1.0264
  147DOPC  H12B17452   2.038   4.014   9.339  0.4064  1.1580 -1.2387
  147DOPC   C1317453   1.886   3.891   9.539  0.9364 -0.0041 -0.2459
  147DOPC  H13A17454   1.806   3.832   9.496  0.3480  0.7013 -0.1390
  147DOPC  H13B17455   1.979   3.850   9.502  0.9161  0.3356 -0.6628
  147DOPC  H13C17456   1.887   3.893   9.647  2.5153 -1.0394 -0.2070
  147DOPC   C1417457   1.754   4.102   9.500  0.2466 -0.8811 -0.1276
  147DOPC  H14A17458   1.681   4.055   9.437 -0.9200  0.1886  0.3901
  147DOPC  H14B17459   1.712   4.076   9.596 -0.2511 -2.7218 -0.8073
  147DOPC  H14C17460   1.763   4.209   9.488 -1.4434 -0.5786  1.0065
  147DOPC   C1517461   1.979   4.117   9.571 -0.6767  0.1920  0.1881
  147DOPC  H15A17462   2.081   4.093   9.545 -1.0970 -2.3831  0.6324
  147DOPC  H15B17463   1.957   4.097   9.674 -2.8819  0.2304 -0.2175
  147DOPC  H15C17464   1.975   4.223   9.551  0.6108  0.4157  1.0547
  147DOPC   C1117465   1.915   4.152   9.249  0.7068 -0.0105  0.0804
  147DOPC  H11A17466   1.905   4.114   9.145 -1.1444 -0.3404  0.3477
  147DOPC  H11B17467   1.819   4.199   9.277 -0.0304 -2.0664  1.1964
  147DOPC     P17468   2.160   4.240   9.230 -0.2734  0.0145  0.2241
  147DOPC   O1317469   2.216   4.133   9.315  0.0605  0.0856  0.0010
  147DOPC   O1417470   2.222   4.374   9.239 -0.2009 -0.0650  0.2737
  147DOPC   O1217471   2.016   4.254   9.268  0.0676 -0.0859  0.3820
  147DOPC   O1117472   2.151   4.186   9.083 -0.1328 -0.1800  0.5425
  147DOPC    C117473   2.099   4.280   8.988  0.2702 -0.3952  0.3477
  147DOPC    HA17474   2.125   4.388   8.991  1.2007 -0.6170  0.7416
  147DOPC    HB17475   1.989   4.293   8.988  0.0316 -2.0372 -0.9905
  147DOPC    C217476   2.133   4.221   8.849  0.3397  0.3656  0.2010
  147DOPC    HS17477   2.063   4.257   8.771 -1.1420 -2.4166  0.0931
  147DOPC   O2117478   2.116   4.077   8.843 -0.0614 -0.3071  0.7523
  147DOPC   C2117479   1.996   4.030   8.829  0.1294 -0.3203  0.8157
  147DOPC   O2217480   1.895   4.099   8.838  0.6913  0.9836  0.6143
  147DOPC   C2217481   1.994   3.876   8.835 -0.2893  0.4472  0.1869
  147DOPC   H2R17482   1.971   3.847   8.940 -0.6437 -2.4807 -0.5951
  147DOPC   H2S17483   2.096   3.837   8.811  0.4954  2.9810 -0.9136
  147DOPC    C317484   2.281   4.261   8.813 -0.1197  0.6870  0.8646
  147DOPC    HX17485   2.344   4.268   8.904  0.6350 -0.9511  0.4979
  147DOPC    HY17486   2.272   4.371   8.793 -0.2364  0.8253  1.6530
  147DOPC   O3117487   2.338   4.200   8.696  0.4252  0.1288 -0.1939
  147DOPC   C3117488   2.393   4.078   8.722  0.5411 -0.4653 -0.3528
  147DOPC   O3217489   2.396   4.019   8.828 -0.8295  0.2840  0.1803
  147DOPC   C3217490   2.441   4.044   8.582 -0.2934  0.6572 -0.4761
  147DOPC   H2X17491   2.502   4.127   8.540 -0.0921  0.9854  0.4493
  147DOPC   H2Y17492   2.492   3.946   8.592  0.6541  1.3326  1.8287
  147DOPC   C2317493   1.871   3.825   8.755  0.5731  0.2698  0.0124
  147DOPC   H3R17494   1.780   3.869   8.802  1.5895 -1.0242  3.4879
  147DOPC   H3S17495   1.852   3.716   8.761 -1.0294  0.4924 -0.4979
  147DOPC   C2417496   1.876   3.855   8.603  0.0218  0.0161 -0.3379
  147DOPC   H4R17497   1.909   3.960   8.588  1.6876 -0.3022  0.8184
  147DOPC   H4S17498   1.770   3.854   8.570  1.1071  2.1237 -4.7703
  147DOPC   C2517499   1.954   3.760   8.512 -0.5334 -0.4892  0.3168
  147DOPC   H5R17500   1.898   3.665   8.520 -1.5827  0.1251  0.5348
  147DOPC   H5S17501   2.056   3.743   8.552  0.9163  3.6554 -1.0366
  147DOPC   C2617502   1.978   3.805   8.365  1.2623  0.0184  0.0785
  147DOPC   H6R17503   2.078   3.853   8.360  0.7935  1.0045 -0.0580
  147DOPC   H6S17504   1.893   3.865   8.326  0.5998  0.3599  1.9440
  147DOPC   C2717505   1.994   3.672   8.285  0.0592 -0.6767  0.2521
  147DOPC   H7R17506   1.897   3.620   8.294 -0.1464 -0.2579  0.4519
  147DOPC   H7S17507   2.066   3.612   8.344  2.1291 -0.4208 -1.8440
  147DOPC   C2817508   2.033   3.690   8.143  0.0822  0.4664 -0.4289
  147DOPC   H8R17509   1.967   3.762   8.090  0.0427  1.1988  0.5711
  147DOPC   H8S17510   2.018   3.595   8.088 -1.4317  0.5984 -0.2881
  147DOPC   C2917511   2.182   3.729   8.136 -0.2135 -0.6490  0.1113
  147DOPC   H9R17512   2.231   3.693   8.228 -0.3650 -0.1052  0.4068
  147DOPC  C21017513   2.234   3.785   8.021 -0.2527 -0.6164 -0.0413
  147DOPC  H10R17514   2.336   3.826   8.024  0.1524 -1.6448  1.1753
  147DOPC  C21117515   2.165   3.809   7.887 -0.5904 -0.5837  0.4120
  147DOPC  H11R17516   2.148   3.918   7.873 -0.9001 -0.4701  1.6262
  147DOPC  H11S17517   2.062   3.767   7.884 -0.8984 -0.0180  2.2090
  147DOPC  C21217518   2.249   3.755   7.763  0.2507  0.1128  0.1689
  147DOPC  H12R17519   2.184   3.774   7.674  1.1655  1.1790 -0.3027
  147DOPC  H12S17520   2.268   3.647   7.783 -0.9250 -0.1208  0.1038
  147DOPC  C21317521   2.378   3.824   7.733  0.1565  0.2158  0.3904
  147DOPC  H13R17522   2.453   3.807   7.814 -1.0121  1.6518  1.8359
  147DOPC  H13S17523   2.362   3.933   7.748  0.5841  0.2986  0.2638
  147DOPC  C21417524   2.446   3.803   7.591  0.2596  0.5258 -0.4425
  147DOPC  H14R17525   2.498   3.705   7.593  1.4747  1.1659  1.1698
  147DOPC  H14S17526   2.520   3.885   7.590  0.7087  0.1327 -0.1804
  147DOPC  C21517527   2.358   3.818   7.464 -0.1240  0.1230 -0.6264
  147DOPC  H15R17528   2.274   3.887   7.486  0.6618  0.3997  1.8889
  147DOPC  H15S17529   2.317   3.719   7.438 -0.5421 -0.9536  3.4476
  147DOPC  C21617530   2.435   3.878   7.343 -0.3249 -0.3959 -0.3086
  147DOPC  H16R17531   2.471   3.981   7.360 -0.7504 -0.1876 -0.6458
  147DOPC  H16S17532   2.348   3.890   7.274 -0.9416 -0.6294  0.4102
  147DOPC  C21717533   2.540   3.784   7.285  0.7345  0.1031 -0.5179
  147DOPC  H17R17534   2.492   3.687   7.262 -0.6391  0.9155 -1.2182
  147DOPC  H17S17535   2.623   3.766   7.357 -0.5464 -0.4370  0.8702
  147DOPC  C21817536   2.599   3.844   7.153  0.3766  0.4336 -0.1306
  147DOPC  H18R17537   2.661   3.758   7.119 -0.7909 -1.4534  2.1998
  147DOPC  H18S17538   2.657   3.932   7.186 -1.3189  1.3927  0.4167
  147DOPC  H18T17539   2.519   3.870   7.080  0.7079 -1.4324 -1.2450
  147DOPC   C3317540   2.326   4.039   8.476  0.2657 -0.0379 -0.2288
  147DOPC   H3X17541   2.280   4.138   8.456 -0.6733 -0.6511 -1.1972
  147DOPC   H3Y17542   2.248   3.977   8.524  0.5552  1.6307  2.5939
  147DOPC   C3417543   2.372   3.984   8.339  0.0069  0.1232  0.4817
  147DOPC   H4X17544   2.276   3.968   8.286  1.7542 -1.7565 -2.3985
  147DOPC   H4Y17545   2.417   3.885   8.359  0.3932  0.4965  1.4979
  147DOPC   C3517546   2.464   4.072   8.266 -0.2781 -0.2351 -0.1238
  147DOPC   H5X17547   2.565   4.086   8.309 -1.1969  2.5255  1.3891
  147DOPC   H5Y17548   2.415   4.172   8.261 -1.5181 -0.8593 -1.1018
  147DOPC   C3617549   2.473   4.050   8.114 -0.1679  0.0470 -0.5564
  147DOPC   H6X17550   2.503   3.943   8.113 -2.0924 -0.5602  0.8172
  147DOPC   H6Y17551   2.369   4.060   8.077 -0.0272 -1.7947 -1.6035
  147DOPC   C3717552   2.569   4.136   8.030  0.1552  0.3479  0.2265
  147DOPC   H7X17553   2.562   4.241   8.066  0.9532  0.0530  1.2952
  147DOPC   H7Y17554   2.668   4.087   8.047 -0.1124 -0.3547 -0.2055
  147DOPC   C3817555   2.541   4.129   7.882 -0.0863  0.3694  0.4594
  147DOPC   H8X17556   2.442   4.168   7.852 -1.1145 -2.5177 -0.2707
  147DOPC   H8Y17557   2.550   4.027   7.838 -1.4719  0.0360  0.9030
  147DOPC   C3917558   2.660   4.209   7.829 -0.2292  0.5626 -0.6914
  147DOPC   H9X17559   2.756   4.181   7.876 -0.4630 -0.8385 -1.0095
  147DOPC  C31017560   2.651   4.314   7.741  0.6639 -0.2200  0.2451
  147DOPC  H10X17561   2.738   4.364   7.696 -0.2903  2.8010  1.5257
  147DOPC  C31117562   2.525   4.363   7.669  0.8267  0.0246  0.6133
  147DOPC  H11X17563   2.480   4.457   7.707 -1.1209 -0.7551  0.3877
  147DOPC  H11Y17564   2.440   4.297   7.698  2.5889 -2.2499  0.8354
  147DOPC  C31217565   2.546   4.392   7.525  0.2723 -0.1667  0.4714
  147DOPC  H12X17566   2.624   4.470   7.515 -1.2192  1.5355  1.5733
  147DOPC  H12Y17567   2.443   4.422   7.493  0.4542  1.3635  1.2278
  147DOPC  C31317568   2.582   4.273   7.432  0.2015  0.0546 -0.5906
  147DOPC  H13X17569   2.680   4.247   7.476 -0.5243  0.8624  1.6381
  147DOPC  H13Y17570   2.512   4.190   7.457  0.0744  1.0233  2.8289
  147DOPC  C31417571   2.589   4.317   7.286 -0.5271  0.2056  0.1615
  147DOPC  H14X17572   2.490   4.361   7.259 -0.5811  0.2217  0.3851
  147DOPC  H14Y17573   2.660   4.401   7.268  0.9082 -1.2537 -1.4649
  147DOPC  C31517574   2.617   4.203   7.184  0.6491 -0.6037  0.4934
  147DOPC  H15X17575   2.536   4.127   7.186  0.7795 -0.7505  2.4653
  147DOPC  H15Y17576   2.712   4.158   7.220 -0.3195 -0.7600  3.1236
  147DOPC  C31617577   2.622   4.258   7.036  0.1834 -0.2304 -0.1616
  147DOPC  H16X17578   2.520   4.301   7.024  0.2995 -0.4736 -2.2993
  147DOPC  H16Y17579   2.696   4.341   7.041 -1.8858  1.6578  0.7726
  147DOPC  C31717580   2.662   4.165   6.926  0.9126 -0.0049  0.0409
  147DOPC  H17X17581   2.757   4.114   6.952  0.1650 -1.0583  0.7782
  147DOPC  H17Y17582   2.576   4.095   6.925  0.8995  0.0134 -0.3825
  147DOPC  C31817583   2.673   4.245   6.798  0.6664  0.0028  0.2236
  147DOPC  H18X17584   2.756   4.318   6.799 -0.5129  1.3673  0.6101
  147DOPC  H18Y17585   2.659   4.195   6.699 -0.4487  2.7177 -1.0883
  147DOPC  H18Z17586   2.584   4.311   6.791  1.4392  1.0866  0.4475
  148DOPC     N17587   2.671   6.391   8.631  0.1207  0.8320  0.1955
  148DOPC   C1217588   2.752   6.363   8.500 -0.2263  0.3853 -0.3786
  148DOPC  H12A17589   2.770   6.463   8.465 -0.8298  0.5703 -0.1720
  148DOPC  H12B17590   2.689   6.317   8.425  0.2368  0.3070 -0.7248
  148DOPC   C1317591   2.664   6.264   8.710  0.2777 -0.4778 -0.2376
  148DOPC  H13A17592   2.763   6.234   8.741 -0.2155 -0.5672  1.3728
  148DOPC  H13B17593   2.603   6.271   8.799 -2.9661 -1.1576 -2.2571
  148DOPC  H13C17594   2.617   6.176   8.669 -0.6778 -0.7232  1.2811
  148DOPC   C1417595   2.541   6.447   8.596  0.9407 -0.3096  0.0178
  148DOPC  H14A17596   2.477   6.444   8.683  1.9077 -0.5990  0.7461
  148DOPC  H14B17597   2.556   6.549   8.565  1.4632 -0.1093  0.8769
  148DOPC  H14C17598   2.488   6.394   8.519 -1.5067  1.3736  0.4103
  148DOPC   C1517599   2.741   6.495   8.708  0.0757  1.0808 -0.0525
  148DOPC  H15A17600   2.843   6.467   8.731 -0.8409 -1.2495  1.5927
  148DOPC  H15B17601   2.684   6.516   8.798 -0.8783  0.0869 -0.4010
  148DOPC  H15C17602   2.735   6.590   8.657 -3.1160  0.7775 -0.4942
  148DOPC   C1117603   2.878   6.272   8.524 -0.2923 -0.2619 -0.0455
  148DOPC  H11A17604   2.860   6.169   8.562  3.1975 -0.7682  0.6132
  148DOPC  H11B17605   2.918   6.261   8.421 -0.8616 -0.3779 -0.2566
  148DOPC     P17606   3.120   6.319   8.621 -0.1825 -0.2413 -0.0084
  148DOPC   O1317607   3.151   6.193   8.694 -0.2284  0.0700 -0.1769
  148DOPC   O1417608   3.172   6.439   8.686 -0.0432 -0.2122  0.8592
  148DOPC   O1217609   2.971   6.340   8.598 -1.1156 -0.1701  0.2308
  148DOPC   O1117610   3.190   6.307   8.476 -0.3181 -0.0484  0.4875
  148DOPC    C117611   3.161   6.411   8.379 -0.1338 -0.5705  0.3908
  148DOPC    HA17612   3.229   6.498   8.378 -0.2772 -0.4521 -0.9271
  148DOPC    HB17613   3.059   6.454   8.392  0.1852 -0.3090  2.2646
  148DOPC    C217614   3.161   6.348   8.241  0.2110  0.0282 -0.7171
  148DOPC    HS17615   3.139   6.434   8.174 -0.6875 -0.0209 -0.5005
  148DOPC   O2117616   3.057   6.248   8.225  0.4176  0.5848  0.4206
  148DOPC   C2117617   3.000   6.235   8.104  0.2241  0.0999 -0.2403
  148DOPC   O2217618   3.039   6.302   8.008  0.3010  0.1370 -0.3625
  148DOPC   C2217619   2.895   6.123   8.114  0.6210 -0.6237  0.4824
  148DOPC   H2R17620   2.830   6.152   8.199  0.1077  0.0396 -0.1255
  148DOPC   H2S17621   2.949   6.026   8.122  0.0843 -1.0329 -0.6619
  148DOPC    C317622   3.296   6.283   8.218  0.0189  0.6639 -0.4821
  148DOPC    HX17623   3.318   6.204   8.292 -0.8386  0.3756 -0.5193
  148DOPC    HY17624   3.369   6.365   8.239 -0.6820  0.8074  1.5190
  148DOPC   O3117625   3.308   6.229   8.089  0.9877  0.1588  0.1026
  148DOPC   C3117626   3.351   6.301   7.986  0.0152 -0.2812 -0.4098
  148DOPC   O3217627   3.409   6.411   7.995  1.0427  0.3087  0.0210
  148DOPC   C3217628   3.323   6.221   7.864  0.2499 -0.4272  0.3894
  148DOPC   H2X17629   3.352   6.115   7.878 -0.1612 -0.7155 -0.8121
  148DOPC   H2Y17630   3.212   6.228   7.863  0.3455  1.8987 -0.1566
  148DOPC   C2317631   2.809   6.139   7.977 -0.2374  0.1527  0.0872
  148DOPC   H3R17632   2.794   6.246   7.950  0.1471 -0.1988 -1.6857
  148DOPC   H3S17633   2.707   6.098   7.992  0.0934 -0.5100  0.5868
  148DOPC   C2417634   2.868   6.062   7.858 -0.2236  0.1389  0.2861
  148DOPC   H4R17635   2.915   5.964   7.882  0.6597  0.2450 -0.8991
  148DOPC   H4S17636   2.952   6.129   7.828 -0.6464  0.4274 -0.2727
  148DOPC   C2517637   2.788   6.052   7.733  0.5504  0.4402  0.0129
  148DOPC   H5R17638   2.744   6.150   7.705 -2.1142  0.3349  3.1433
  148DOPC   H5S17639   2.704   5.981   7.750 -0.5026  1.5242 -0.5601
  148DOPC   C2617640   2.862   5.981   7.620  0.0946  0.1094 -0.0890
  148DOPC   H6R17641   2.889   5.876   7.643 -2.7044 -0.5433  0.6119
  148DOPC   H6S17642   2.950   6.040   7.586  0.6157  0.9606  2.5407
  148DOPC   C2717643   2.771   5.960   7.497  0.3431  0.5844  0.3416
  148DOPC   H7R17644   2.679   5.930   7.551  0.7221  1.2397  1.3932
  148DOPC   H7S17645   2.815   5.876   7.439  2.0938  0.7492  1.3452
  148DOPC   C2817646   2.735   6.076   7.410  0.0572  0.0730  0.0216
  148DOPC   H8R17647   2.827   6.130   7.377  1.6073 -0.8705  2.5396
  148DOPC   H8S17648   2.676   6.145   7.474 -2.0521 -1.1515 -0.5153
  148DOPC   C2917649   2.642   6.047   7.299  0.4840 -0.4735 -0.0441
  148DOPC   H9R17650   2.541   6.016   7.330  1.3903 -1.3437  2.3202
  148DOPC  C21017651   2.672   6.054   7.167  0.4431  0.5795 -0.0950
  148DOPC  H10R17652   2.586   6.059   7.098 -0.2270  0.4866  0.7150
  148DOPC  C21117653   2.806   6.085   7.111  0.2273  0.2156  0.4460
  148DOPC  H11R17654   2.882   6.038   7.177  0.5093  0.5493  0.3620
  148DOPC  H11S17655   2.828   6.194   7.115 -1.5937  0.5887  1.6453
  148DOPC  C21217656   2.820   6.010   6.977  0.5733 -0.3903 -0.5123
  148DOPC  H12R17657   2.811   5.900   6.990  1.6834 -0.6726 -1.8427
  148DOPC  H12S17658   2.925   6.018   6.942  1.1909  1.0701  1.5259
  148DOPC  C21317659   2.730   6.077   6.870  0.1662 -0.4574 -0.0791
  148DOPC  H13R17660   2.730   6.186   6.891  1.2230 -0.2938 -0.8320
  148DOPC  H13S17661   2.632   6.026   6.869  0.5645 -1.2596 -1.6833
  148DOPC  C21417662   2.777   6.073   6.723  0.2588 -0.8470 -0.2565
  148DOPC  H14R17663   2.794   5.968   6.694  1.5035 -1.1878  1.5457
  148DOPC  H14S17664   2.874   6.125   6.712  0.4379 -1.1504 -0.1136
  148DOPC  C21517665   2.671   6.131   6.629  0.4056  0.3936  0.3872
  148DOPC  H15R17666   2.647   6.235   6.662  3.5738  0.6301  2.3611
  148DOPC  H15S17667   2.581   6.069   6.646 -0.6738  1.8151  0.1002
  148DOPC  C21617668   2.709   6.132   6.483 -0.4988  0.2892 -0.2623
  148DOPC  H16R17669   2.731   6.030   6.446 -0.7730  0.2700 -0.3768
  148DOPC  H16S17670   2.798   6.197   6.465 -0.5253  0.9109  1.6528
  148DOPC  C21717671   2.601   6.167   6.374 -0.4841  0.4870  0.0264
  148DOPC  H17R17672   2.533   6.080   6.384 -0.6984  0.7207  0.6713
  148DOPC  H17S17673   2.645   6.167   6.272  1.0413 -0.2048  0.6638
  148DOPC  C21817674   2.538   6.303   6.394  0.7348  0.3683  0.2373
  148DOPC  H18R17675   2.622   6.375   6.399  1.0058 -0.0538  2.4580
  148DOPC  H18S17676   2.485   6.299   6.491 -0.7719 -1.4156 -0.5860
  148DOPC  H18T17677   2.467   6.321   6.310  1.1296 -0.9040 -0.3873
  148DOPC   C3317678   3.383   6.282   7.728  0.7450  0.8615 -0.0353
  148DOPC   H3X17679   3.494   6.285   7.733  0.8653  0.2398 -1.6116
  148DOPC   H3Y17680   3.343   6.385   7.711  0.0570  0.2718 -2.4671
  148DOPC   C3417681   3.345   6.205   7.590 -0.4387 -0.4095  0.0314
  148DOPC   H4X17682   3.236   6.205   7.567 -0.9855 -0.5675  2.4004
  148DOPC   H4Y17683   3.383   6.102   7.603  0.1256 -0.0211  1.6610
  148DOPC   C3517684   3.422   6.261   7.468  0.2542  0.3619  0.2124
  148DOPC   H5X17685   3.530   6.239   7.480 -0.1228 -2.1640 -0.4162
  148DOPC   H5Y17686   3.410   6.372   7.468  1.8175  0.6654  3.7654
  148DOPC   C3617687   3.369   6.201   7.346 -0.5148  0.6135  0.0271
  148DOPC   H6X17688   3.455   6.185   7.277 -1.4438 -2.5390 -0.5791
  148DOPC   H6Y17689   3.345   6.095   7.369  2.5847  0.0637  1.2670
  148DOPC   C3717690   3.256   6.282   7.282 -1.0629  0.1425 -0.4669
  148DOPC   H7X17691   3.193   6.326   7.362  1.2162 -1.0111  2.1386
  148DOPC   H7Y17692   3.309   6.358   7.221  2.6232 -0.5280  1.5953
  148DOPC   C3817693   3.164   6.190   7.203 -0.2907  0.1400  0.2623
  148DOPC   H8X17694   3.098   6.264   7.154 -1.9426  0.6145  2.9807
  148DOPC   H8Y17695   3.101   6.135   7.276 -1.9292 -0.3311 -1.4442
  148DOPC   C3917696   3.219   6.084   7.114 -0.8318  0.4966  0.3369
  148DOPC   H9X17697   3.264   6.002   7.171  0.5167  0.8270 -0.2194
  148DOPC  C31017698   3.244   6.086   6.982 -0.4703 -0.4682 -0.0865
  148DOPC  H10X17699   3.291   6.003   6.929  1.2934 -0.4924  1.4152
  148DOPC  C31117700   3.191   6.193   6.887 -0.2476 -0.0651 -0.0756
  148DOPC  H11X17701   3.117   6.264   6.930  0.3221  0.4164  0.1082
  148DOPC  H11Y17702   3.161   6.135   6.796  1.3961 -0.1079 -0.6185
  148DOPC  C31217703   3.305   6.280   6.829  0.2037 -0.3148  0.6806
  148DOPC  H12X17704   3.388   6.219   6.786 -0.1662 -0.5495  0.2855
  148DOPC  H12Y17705   3.337   6.342   6.915 -0.4376 -1.8426  2.0862
  148DOPC  C31317706   3.251   6.389   6.734 -0.4014 -0.7472  0.4407
  148DOPC  H13X17707   3.163   6.443   6.775  0.3598  1.2472 -0.3706
  148DOPC  H13Y17708   3.335   6.462   6.720  0.2739 -1.6660 -0.4361
  148DOPC  C31417709   3.202   6.345   6.589  0.7612 -0.3123  0.1410
  148DOPC  H14X17710   3.288   6.297   6.538  0.9161  1.3871 -1.2751
  148DOPC  H14Y17711   3.124   6.267   6.605  0.9071 -1.0306 -2.2708
  148DOPC  C31517712   3.145   6.461   6.507 -0.3325  0.1502 -0.2769
  148DOPC  H15X17713   3.228   6.529   6.482 -0.8832  0.7166 -0.6051
  148DOPC  H15Y17714   3.092   6.521   6.584 -0.2601 -0.2073  0.0560
  148DOPC  C31617715   3.069   6.418   6.385  0.6907  0.8522 -0.0615
  148DOPC  H16X17716   2.995   6.338   6.405  0.9255  0.3014 -1.3101
  148DOPC  H16Y17717   3.014   6.508   6.350  0.8787  0.3629 -1.7035
  148DOPC  C31717718   3.151   6.375   6.263 -0.4195 -0.6776  0.0477
  148DOPC  H17X17719   3.221   6.458   6.241  0.2063 -1.1816  0.1372
  148DOPC  H17Y17720   3.211   6.287   6.294  1.9055  0.6096 -0.5953
  148DOPC  C31817721   3.080   6.354   6.135 -0.4722  0.7915  0.2238
  148DOPC  H18X17722   2.999   6.277   6.140  1.6873 -1.7745 -1.5965
  148DOPC  H18Y17723   3.040   6.449   6.093  0.3324  1.5599  1.1637
  148DOPC  H18Z17724   3.150   6.319   6.056 -3.0620 -0.8516 -1.5314
  149DOPC     N17725   1.967   4.819   9.312 -0.1558  0.8966 -0.3375
  149DOPC   C1217726   1.981   4.689   9.231  0.5285 -0.3581 -0.4436
  149DOPC  H12A17727   2.014   4.618   9.306  0.7373 -0.5380 -0.7063
  149DOPC  H12B17728   2.058   4.698   9.157 -0.1646  2.3942 -0.9192
  149DOPC   C1317729   1.883   4.808   9.432 -0.0508  0.0382  0.7784
  149DOPC  H13A17730   1.911   4.719   9.486 -0.5821 -0.7208 -0.1689
  149DOPC  H13B17731   1.911   4.892   9.494 -2.1763 -0.7623  2.9789
  149DOPC  H13C17732   1.777   4.806   9.410  0.3127  0.0834 -1.0683
  149DOPC   C1417733   1.915   4.933   9.229  0.0507  0.1703  0.4863
  149DOPC  H14A17734   1.903   5.022   9.289  0.7906 -0.9469  2.3901
  149DOPC  H14B17735   1.983   4.950   9.147  0.6036  0.2925  0.9644
  149DOPC  H14C17736   1.816   4.903   9.196  0.7402 -0.1784 -1.3991
  149DOPC   C1517737   2.103   4.877   9.353 -0.2802  0.5093  0.0238
  149DOPC  H15A17738   2.169   4.910   9.275 -0.3340  1.8425  0.5087
  149DOPC  H15B17739   2.156   4.800   9.408 -2.3124 -0.8258  0.2463
  149DOPC  H15C17740   2.092   4.958   9.423  2.2209  0.1664  0.9274
  149DOPC   C1117741   1.847   4.644   9.159 -0.3168  0.5325  0.5432
  149DOPC  H11A17742   1.810   4.730   9.100  0.4993  0.3579 -0.2417
  149DOPC  H11B17743   1.869   4.575   9.074 -2.3635  0.5391 -0.0410
  149DOPC     P17744   1.596   4.635   9.253 -0.3276  0.0610 -0.2572
  149DOPC   O1317745   1.584   4.781   9.221 -0.1425  0.0562 -0.2629
  149DOPC   O1417746   1.541   4.588   9.385 -0.4685  0.2347 -0.2753
  149DOPC   O1217747   1.745   4.593   9.247 -0.2684 -0.2073  0.2722
  149DOPC   O1117748   1.530   4.546   9.134 -0.5044 -0.2720 -0.5667
  149DOPC    C117749   1.583   4.459   9.039 -0.2191  0.4608 -0.2659
  149DOPC    HA17750   1.508   4.379   9.019  1.4425 -1.1665 -0.2352
  149DOPC    HB17751   1.670   4.402   9.079 -0.4852 -0.9250 -1.5847
  149DOPC    C217752   1.639   4.530   8.904  0.4852  0.1184 -0.4025
  149DOPC    HS17753   1.720   4.601   8.931  0.6384 -0.3870  0.5272
  149DOPC   O2117754   1.531   4.607   8.851 -0.2871  0.5468  0.1606
  149DOPC   C2117755   1.562   4.705   8.772 -0.0766  0.1782 -0.1278
  149DOPC   O2217756   1.673   4.748   8.736  0.1961  0.0421 -0.9498
  149DOPC   C2217757   1.438   4.771   8.715  0.3830 -0.4084 -0.3653
  149DOPC   H2R17758   1.417   4.855   8.785  0.5280 -0.3864 -0.3498
  149DOPC   H2S17759   1.354   4.698   8.724  0.0080 -0.4119 -3.0176
  149DOPC    C317760   1.707   4.426   8.804 -0.2466 -0.0618  0.3540
  149DOPC    HX17761   1.637   4.340   8.801 -0.9931  0.5694 -1.6317
  149DOPC    HY17762   1.797   4.387   8.857 -0.0609 -1.6934 -1.0763
  149DOPC   O3117763   1.726   4.472   8.667 -0.3841 -0.1236 -0.3971
  149DOPC   C3117764   1.854   4.519   8.648  0.4726 -0.1087 -0.5750
  149DOPC   O3217765   1.938   4.529   8.737 -0.1107 -0.2392 -0.4068
  149DOPC   C3217766   1.867   4.569   8.511  0.4927 -0.1750  0.7273
  149DOPC   H2X17767   1.842   4.489   8.438  1.5158 -1.1962  1.4635
  149DOPC   H2Y17768   1.794   4.652   8.501  0.2890 -0.2594  1.4811
  149DOPC   C2317769   1.445   4.822   8.573 -0.0293  0.5837 -0.3861
  149DOPC   H3R17770   1.515   4.908   8.572  0.9025 -0.0648  1.8456
  149DOPC   H3S17771   1.346   4.867   8.550  0.4129  1.9255  0.2274
  149DOPC   C2417772   1.470   4.716   8.468 -0.4441  0.3992  0.2071
  149DOPC   H4R17773   1.382   4.649   8.478  0.4044 -0.5850  1.3296
  149DOPC   H4S17774   1.563   4.658   8.490 -1.3750 -0.0138  3.4982
  149DOPC   C2517775   1.476   4.782   8.327 -0.0473 -0.5689 -0.0262
  149DOPC   H5R17776   1.549   4.865   8.324 -0.8065  0.0775 -1.8155
  149DOPC   H5S17777   1.377   4.829   8.313 -0.0007 -0.5514 -0.3160
  149DOPC   C2617778   1.515   4.691   8.216 -0.4072 -0.2027  0.5845
  149DOPC   H6R17779   1.425   4.634   8.184  0.3212 -0.8600 -0.3611
  149DOPC   H6S17780   1.584   4.609   8.244  0.2683 -0.1303 -0.7621
  149DOPC   C2717781   1.555   4.757   8.079 -0.7813 -0.4312  0.0472
  149DOPC   H7R17782   1.665   4.775   8.087 -0.5391 -1.1221 -1.3797
  149DOPC   H7S17783   1.510   4.858   8.072 -1.1814 -0.5363  0.9042
  149DOPC   C2817784   1.535   4.664   7.957 -0.1459  0.0942  0.2931
  149DOPC   H8R17785   1.561   4.731   7.873 -1.7752  2.3728  1.4903
  149DOPC   H8S17786   1.429   4.655   7.925  0.7168  1.3362 -3.2897
  149DOPC   C2917787   1.595   4.529   7.954 -0.4037  0.2611 -0.1507
  149DOPC   H9R17788   1.560   4.468   8.039 -1.3285 -0.0034 -0.7086
  149DOPC  C21017789   1.702   4.485   7.884 -0.8461 -0.1663  0.8162
  149DOPC  H10R17790   1.741   4.383   7.893  2.8845  1.1943  1.7353
  149DOPC  C21117791   1.762   4.566   7.767 -0.7994  0.6201 -0.3368
  149DOPC  H11R17792   1.867   4.533   7.754 -0.4149  1.6890 -0.0678
  149DOPC  H11S17793   1.779   4.675   7.778  0.2717  0.6266 -1.7435
  149DOPC  C21217794   1.688   4.536   7.635  0.9366 -0.1037  0.4997
  149DOPC  H12R17795   1.587   4.581   7.639 -1.0553 -3.8857 -1.9010
  149DOPC  H12S17796   1.668   4.431   7.605 -1.8849  0.5173 -0.0504
  149DOPC  C21317797   1.763   4.605   7.521 -0.4748 -0.6703 -0.3567
  149DOPC  H13R17798   1.828   4.689   7.554 -0.2954 -0.6870 -0.6661
  149DOPC  H13S17799   1.674   4.646   7.467 -0.0522  0.1690 -0.4325
  149DOPC  C21417800   1.839   4.517   7.425  0.4586  0.4781 -0.3578
  149DOPC  H14R17801   1.777   4.427   7.406 -0.6780  0.5551  2.4446
  149DOPC  H14S17802   1.929   4.479   7.478 -0.3459 -0.9340  0.0304
  149DOPC  C21517803   1.877   4.581   7.294  0.0375  0.4344 -0.5999
  149DOPC  H15R17804   1.934   4.673   7.319 -1.5383  0.7717  2.1070
  149DOPC  H15S17805   1.791   4.632   7.245 -0.7674  0.9937  1.2838
  149DOPC  C21617806   1.952   4.480   7.214  0.4284 -0.2883 -0.8703
  149DOPC  H16R17807   1.894   4.385   7.215  1.3948 -0.8942 -1.0565
  149DOPC  H16S17808   2.051   4.451   7.255 -0.5378 -0.2207  1.6926
  149DOPC  C21717809   1.971   4.524   7.070  0.2887 -0.1596 -0.0084
  149DOPC  H17R17810   2.031   4.450   7.012 -0.3213  0.6247 -1.7207
  149DOPC  H17S17811   2.032   4.617   7.072 -1.2997  0.9085  0.4428
  149DOPC  C21817812   1.842   4.554   6.990 -0.4385 -0.1416 -0.3554
  149DOPC  H18R17813   1.854   4.563   6.880  0.0083 -3.2873 -0.6522
  149DOPC  H18S17814   1.794   4.648   7.026 -0.2616  1.0333 -2.9852
  149DOPC  H18T17815   1.766   4.473   6.994  0.4493 -1.0120 -0.9009
  149DOPC   C3317816   2.007   4.619   8.486  0.5389 -0.1235 -0.2513
  149DOPC   H3X17817   2.077   4.533   8.500 -0.0857 -0.8018 -1.1313
  149DOPC   H3Y17818   2.038   4.702   8.553  0.1279 -0.3369  0.2033
  149DOPC   C3417819   2.012   4.681   8.349  0.2519 -0.4866 -0.7371
  149DOPC   H4X17820   1.959   4.614   8.278 -0.4636 -1.0806  0.3413
  149DOPC   H4Y17821   2.118   4.686   8.314 -0.1214 -0.3168 -1.8992
  149DOPC   C3517822   1.953   4.823   8.339  0.9149  0.5310  0.6215
  149DOPC   H5X17823   1.997   4.886   8.419  0.4523  0.6379  0.7898
  149DOPC   H5Y17824   1.846   4.816   8.365  1.0344 -0.6762  0.8786
  149DOPC   C3617825   1.959   4.899   8.201  0.2519 -0.1548  0.1456
  149DOPC   H6X17826   2.047   4.866   8.142  1.9341 -1.2744  3.0492
  149DOPC   H6Y17827   1.860   4.872   8.160  0.8849 -1.2707 -0.7007
  149DOPC   C3717828   1.968   5.049   8.214  0.4484 -0.0412 -0.1620
  149DOPC   H7X17829   1.919   5.083   8.308  0.0775  2.2273 -1.1046
  149DOPC   H7Y17830   2.075   5.075   8.230  0.5317  0.1434 -0.9693
  149DOPC   C3817831   1.913   5.121   8.086 -0.4864 -0.1071 -0.9281
  149DOPC   H8X17832   1.893   5.227   8.112  0.8597  0.0758 -0.5472
  149DOPC   H8Y17833   1.813   5.079   8.061 -0.6872 -0.2552  0.0783
  149DOPC   C3917834   1.999   5.107   7.962  0.1009 -0.3301  0.4938
  149DOPC   H9X17835   2.095   5.056   7.974 -0.8759 -2.0523  1.3899
  149DOPC  C31017836   1.965   5.124   7.833 -0.3963  0.2027 -0.2216
  149DOPC  H10X17837   2.034   5.095   7.752 -1.5103 -1.2716 -0.6757
  149DOPC  C31117838   1.835   5.167   7.783  0.2126  0.4497  0.8154
  149DOPC  H11X17839   1.833   5.273   7.750  1.5601  0.2250 -0.0530
  149DOPC  H11Y17840   1.767   5.167   7.871  1.2513 -3.9574  1.8727
  149DOPC  C31217841   1.761   5.069   7.682  0.0467  0.6527  0.2520
  149DOPC  H12X17842   1.666   5.123   7.657 -0.9123  0.0726  2.3803
  149DOPC  H12Y17843   1.724   4.979   7.735 -0.6648  1.5599  1.3495
  149DOPC  C31317844   1.840   5.033   7.549 -0.6433  1.1557  0.9692
  149DOPC  H13X17845   1.921   4.963   7.579 -0.3395  0.4859 -1.2375
  149DOPC  H13Y17846   1.776   4.971   7.483 -1.9105  1.7294  1.6163
  149DOPC  C31417847   1.903   5.156   7.474  0.4293 -0.1449  0.0954
  149DOPC  H14X17848   1.814   5.212   7.438 -0.6509 -0.6026  1.8994
  149DOPC  H14Y17849   1.954   5.219   7.551 -0.5761 -1.0377  1.5562
  149DOPC  C31517850   1.990   5.121   7.357 -0.1829  0.0860 -0.0135
  149DOPC  H15X17851   2.076   5.054   7.379  1.7276  2.2991 -0.3473
  149DOPC  H15Y17852   2.040   5.211   7.316 -0.6989  0.4034  0.0473
  149DOPC  C31617853   1.913   5.064   7.245 -0.1171 -0.0209 -0.5204
  149DOPC  H16X17854   1.870   4.966   7.274  0.4596  0.0903  0.7896
  149DOPC  H16Y17855   1.833   5.128   7.200  1.1363  2.4444  0.5724
  149DOPC  C31717856   2.004   5.018   7.137  0.2261  0.1449  0.5263
  149DOPC  H17X17857   2.048   5.107   7.088 -0.4957  0.2530  0.0500
  149DOPC  H17Y17858   2.090   4.968   7.186 -0.9515 -0.9180  1.5957
  149DOPC  C31817859   1.951   4.927   7.030  1.0781 -0.7435  0.6213
  149DOPC  H18X17860   1.842   4.948   7.026  1.2554  0.0700 -0.1207
  149DOPC  H18Y17861   1.988   4.950   6.928 -1.0891  0.7241  0.1056
  149DOPC  H18Z17862   1.977   4.822   7.057 -0.1974 -2.0363 -2.6006
  150DOPC     N17863   4.322   5.099   9.317 -0.2904  0.0490  0.1694
  150DOPC   C1217864   4.442   5.083   9.224  0.2036 -0.2687 -0.5608
  150DOPC  H12A17865   4.466   4.979   9.210 -1.4783 -0.8914  0.8508
  150DOPC  H12B17866   4.527   5.126   9.275  0.8261 -2.8868  0.7856
  150DOPC   C1317867   4.208   5.028   9.251  0.0271  0.1147 -0.0857
  150DOPC  H13A17868   4.110   5.040   9.296 -0.1788 -0.6877 -0.3218
  150DOPC  H13B17869   4.191   5.089   9.164  2.7220  1.0483 -0.0522
  150DOPC  H13C17870   4.238   4.933   9.211  1.9646  1.2742 -1.5499
  150DOPC   C1417871   4.288   5.240   9.319 -0.0979 -0.4638 -0.7621
  150DOPC  H14A17872   4.193   5.253   9.368  0.2580  1.8380 -0.5565
  150DOPC  H14B17873   4.360   5.302   9.370  2.5740 -2.9375 -1.2475
  150DOPC  H14C17874   4.284   5.284   9.220  2.3632 -0.2493 -0.8293
  150DOPC   C1517875   4.334   5.045   9.455  0.3350  0.3951  0.0810
  150DOPC  H15A17876   4.419   5.085   9.509  0.6326 -2.1136  1.6223
  150DOPC  H15B17877   4.361   4.942   9.438  0.8962  0.5713 -0.1424
  150DOPC  H15C17878   4.244   5.059   9.512  0.6509 -1.7767  1.2172
  150DOPC   C1117879   4.435   5.137   9.078  0.3489  0.0772 -0.2992
  150DOPC  H11A17880   4.515   5.094   9.013  1.4686  0.4887  0.7801
  150DOPC  H11B17881   4.340   5.104   9.031 -0.3668  2.9133 -1.0154
  150DOPC     P17882   4.571   5.358   9.071  0.0408  0.0694  0.3890
  150DOPC   O1317883   4.668   5.290   9.156 -0.5630  0.9269 -0.3463
  150DOPC   O1417884   4.550   5.504   9.094 -0.1884  0.1587  0.4279
  150DOPC   O1217885   4.432   5.281   9.075 -0.5315  0.2792  0.4915
  150DOPC   O1117886   4.607   5.321   8.919  1.2273 -0.0062  0.7258
  150DOPC    C117887   4.736   5.361   8.877 -0.3348 -0.0457  1.3299
  150DOPC    HA17888   4.817   5.324   8.944 -0.2780  0.0080  1.2915
  150DOPC    HB17889   4.741   5.471   8.867  1.9266 -0.1004  1.2274
  150DOPC    C217890   4.767   5.294   8.736 -0.6277  0.1086  0.4074
  150DOPC    HS17891   4.861   5.337   8.695 -1.3819  1.7569  0.2961
  150DOPC   O2117892   4.655   5.318   8.651  0.0880 -0.0089  0.3535
  150DOPC   C2117893   4.656   5.424   8.575  0.7458 -0.2546  0.1366
  150DOPC   O2217894   4.740   5.508   8.576 -0.1972 -0.5905 -0.0906
  150DOPC   C2217895   4.538   5.425   8.480  0.3644  0.7974  0.7115
  150DOPC   H2R17896   4.447   5.420   8.543 -1.1770 -0.1113 -1.4553
  150DOPC   H2S17897   4.547   5.333   8.418  2.9697  1.5445 -0.1564
  150DOPC    C317898   4.800   5.142   8.736 -0.1224  0.0664  0.0503
  150DOPC    HX17899   4.709   5.109   8.790  0.0788 -0.5916 -0.0014
  150DOPC    HY17900   4.893   5.122   8.794 -0.4557  0.3183  0.6742
  150DOPC   O3117901   4.817   5.092   8.605  0.3704  0.1141  0.0170
  150DOPC   C3117902   4.722   5.022   8.546 -0.4161  0.3601  0.3378
  150DOPC   O3217903   4.609   4.994   8.588 -0.2108 -0.7532 -0.1597
  150DOPC   C3217904   4.764   4.986   8.402 -0.8197  0.5009 -0.6978
  150DOPC   H2X17905   4.863   4.937   8.401 -0.7100  0.7102 -2.1193
  150DOPC   H2Y17906   4.689   4.912   8.368 -0.6873 -0.5584  1.1610
  150DOPC   C2317907   4.540   5.553   8.402 -0.8409  0.7384  0.0295
  150DOPC   H3R17908   4.603   5.630   8.450  1.0675 -0.9928  0.4170
  150DOPC   H3S17909   4.436   5.594   8.405 -0.7691  1.0572 -1.2842
  150DOPC   C2417910   4.578   5.528   8.257 -0.6344 -0.1179 -0.0237
  150DOPC   H4R17911   4.525   5.436   8.225  1.7193 -1.8295  0.7831
  150DOPC   H4S17912   4.688   5.518   8.245 -0.7737 -0.6429 -0.9935
  150DOPC   C2517913   4.532   5.642   8.170 -0.3480 -0.3799  0.4596
  150DOPC   H5R17914   4.591   5.732   8.198 -0.3743 -0.1613 -0.1823
  150DOPC   H5S17915   4.425   5.669   8.182 -0.3146  0.6290 -1.2018
  150DOPC   C2617916   4.542   5.621   8.014 -0.5177 -0.8239  0.0738
  150DOPC   H6R17917   4.512   5.717   7.967  0.4118 -1.2800 -1.5267
  150DOPC   H6S17918   4.465   5.551   7.975 -0.4496 -0.0016 -1.6182
  150DOPC   C2717919   4.682   5.575   7.965 -0.0252 -0.6535  0.1789
  150DOPC   H7R17920   4.692   5.466   7.985  2.2371 -0.4835  0.1778
  150DOPC   H7S17921   4.758   5.626   8.027  0.3114  0.7483 -1.3099
  150DOPC   C2817922   4.725   5.612   7.824  0.2472  0.0708 -0.4275
  150DOPC   H8R17923   4.814   5.550   7.803 -0.0903 -0.3935 -0.5032
  150DOPC   H8S17924   4.741   5.722   7.813  1.5226  0.1890  1.9756
  150DOPC   C2917925   4.626   5.582   7.713  0.0573 -0.8161 -0.4337
  150DOPC   H9R17926   4.519   5.562   7.734  0.0224 -1.3586 -1.0925
  150DOPC  C21017927   4.651   5.575   7.587  0.2318 -0.1313  0.0825
  150DOPC  H10R17928   4.568   5.547   7.520  0.6659  0.4110 -0.6989
  150DOPC  C21117929   4.782   5.597   7.518 -0.2175  0.4841 -0.9738
  150DOPC  H11R17930   4.856   5.528   7.563  0.3257  1.0379 -1.0039
  150DOPC  H11S17931   4.810   5.700   7.549  0.8242  0.5031 -1.9260
  150DOPC  C21217932   4.770   5.581   7.371 -0.2382 -0.5184  0.2235
  150DOPC  H12R17933   4.686   5.640   7.329 -0.3970  0.0159  1.2534
  150DOPC  H12S17934   4.763   5.477   7.334 -0.7670 -0.1088 -0.8657
  150DOPC  C21317935   4.902   5.637   7.320  0.6932 -0.1550  0.0121
  150DOPC  H13R17936   4.991   5.608   7.381  0.8905 -1.6334 -0.9278
  150DOPC  H13S17937   4.901   5.746   7.340 -1.2298  0.0116 -0.7672
  150DOPC  C21417938   4.946   5.604   7.178 -0.3313  0.2106  0.1398
  150DOPC  H14R17939   4.959   5.494   7.163 -3.0761  0.0331 -1.8272
  150DOPC  H14S17940   5.047   5.650   7.170 -0.2459 -0.1661 -1.3082
  150DOPC  C21517941   4.863   5.672   7.075 -0.0846  0.1550  0.0826
  150DOPC  H15R17942   4.868   5.782   7.088  1.3569 -0.1122  2.1798
  150DOPC  H15S17943   4.758   5.637   7.080  0.2994 -1.4033 -1.5100
  150DOPC  C21617944   4.923   5.648   6.933 -0.0296 -0.1393 -0.0201
  150DOPC  H16R17945   5.029   5.616   6.931 -0.1938 -0.6491 -1.4183
  150DOPC  H16S17946   4.913   5.742   6.875  0.4964 -0.3598 -0.4719
  150DOPC  C21717947   4.850   5.536   6.855 -0.5277 -0.3045 -0.0443
  150DOPC  H17R17948   4.742   5.545   6.881 -0.5478  0.2900 -0.3314
  150DOPC  H17S17949   4.876   5.444   6.912  0.1316  0.5136  1.0010
  150DOPC  C21817950   4.849   5.554   6.701  0.6322 -0.5177 -0.9168
  150DOPC  H18R17951   4.807   5.655   6.683  1.0412 -0.0206  0.7197
  150DOPC  H18S17952   4.784   5.480   6.649 -1.7700  0.1312  0.9516
  150DOPC  H18T17953   4.949   5.552   6.654  1.5922 -0.5716  1.0176
  150DOPC   C3317954   4.767   5.108   8.307 -0.2176 -0.1993 -0.4478
  150DOPC   H3X17955   4.834   5.189   8.344 -0.4234 -0.6393  0.9452
  150DOPC   H3Y17956   4.662   5.144   8.293 -0.4931  0.1831  2.0740
  150DOPC   C3417957   4.821   5.061   8.177 -0.1002  0.2601 -0.3083
  150DOPC   H4X17958   4.758   4.970   8.165 -1.2118  1.0464 -0.5879
  150DOPC   H4Y17959   4.922   5.022   8.204 -0.9964 -0.6504  1.9815
  150DOPC   C3517960   4.825   5.167   8.065  0.8005  0.2269  0.3400
  150DOPC   H5X17961   4.904   5.239   8.095  1.6672 -0.3456 -0.5475
  150DOPC   H5Y17962   4.723   5.213   8.063  0.0515 -1.3394  0.7222
  150DOPC   C3617963   4.860   5.107   7.925  0.2945  0.1157 -0.7797
  150DOPC   H6X17964   4.958   5.056   7.933 -1.2862 -2.9366  0.6014
  150DOPC   H6Y17965   4.790   5.025   7.899  1.5295 -1.2967  0.1911
  150DOPC   C3717966   4.865   5.218   7.821 -0.7723 -0.6519 -0.0516
  150DOPC   H7X17967   4.776   5.284   7.827  1.2121  2.4455 -1.8743
  150DOPC   H7Y17968   4.949   5.287   7.844 -0.8853 -1.0635  1.7790
  150DOPC   C3817969   4.877   5.160   7.676 -0.1308  0.0406  0.2685
  150DOPC   H8X17970   4.854   5.242   7.605  1.5972 -0.7894 -1.3535
  150DOPC   H8Y17971   4.793   5.087   7.677 -0.2151  0.0618  3.2489
  150DOPC   C3917972   5.011   5.102   7.639 -0.2136  0.6185  0.3462
  150DOPC   H9X17973   5.044   5.020   7.704 -0.4070 -1.3209 -1.8999
  150DOPC  C31017974   5.080   5.127   7.524  0.5854 -0.0421 -0.3828
  150DOPC  H10X17975   5.175   5.074   7.505  0.5971  0.2353 -1.1293
  150DOPC  C31117976   5.037   5.225   7.421  0.4726 -0.3833  0.1436
  150DOPC  H11X17977   5.119   5.296   7.399  0.6622 -1.0156 -1.3063
  150DOPC  H11Y17978   4.941   5.280   7.435  1.3773  1.2571  0.1952
  150DOPC  C31217979   5.013   5.138   7.289 -0.0746 -0.0297 -0.8304
  150DOPC  H12X17980   5.103   5.075   7.273 -0.2127 -0.3167 -0.4884
  150DOPC  H12Y17981   5.005   5.206   7.202 -0.0884  1.0573 -0.0020
  150DOPC  C31317982   4.879   5.066   7.302  0.0005 -0.7790  0.1164
  150DOPC  H13X17983   4.888   5.001   7.391 -0.5597 -1.0408 -0.0115
  150DOPC  H13Y17984   4.803   5.140   7.335 -0.2602 -0.3611 -1.3548
  150DOPC  C31417985   4.826   4.963   7.201  0.2623 -0.5306 -0.4604
  150DOPC  H14X17986   4.901   4.882   7.213  0.9434  0.2264  0.5108
  150DOPC  H14Y17987   4.724   4.927   7.228  0.5098 -1.6389 -0.9529
  150DOPC  C31517988   4.824   5.018   7.059  0.4527 -0.5208 -0.5664
  150DOPC  H15X17989   4.930   5.040   7.037  0.1485 -0.7962 -2.5412
  150DOPC  H15Y17990   4.755   5.105   7.062 -0.1699 -0.9788  2.8840
  150DOPC  C31617991   4.775   4.928   6.951  0.6884  0.2462  0.1388
  150DOPC  H16X17992   4.686   4.877   6.995  0.3928  0.6774  0.0424
  150DOPC  H16Y17993   4.755   4.983   6.857  1.2103 -1.5767 -1.1100
  150DOPC  C31717994   4.875   4.822   6.907 -0.6954  0.1547  0.2253
  150DOPC  H17X17995   4.969   4.867   6.870 -0.9498  1.0219  0.6052
  150DOPC  H17Y17996   4.921   4.765   6.990  2.7322  1.6351 -0.5242
  150DOPC  C31817997   4.819   4.727   6.796  0.9424  0.3972  0.3889
  150DOPC  H18X17998   4.729   4.670   6.827  0.9875 -0.2600 -0.6727
  150DOPC  H18Y17999   4.786   4.784   6.707  0.4868  1.2912  1.1177
  150DOPC  H18Z18000   4.898   4.656   6.761 -1.1780 -1.5075 -0.7653
  151DOPC     N18001   2.751   5.136   9.196 -0.4117 -0.3599  0.1068
  151DOPC   C1218002   2.654   5.069   9.096  0.4265 -0.4057  0.1572
  151DOPC  H12A18003   2.656   5.112   8.997 -1.5469 -1.8402 -0.5766
  151DOPC  H12B18004   2.552   5.076   9.131  0.9093  1.2430  1.3844
  151DOPC   C1318005   2.700   5.110   9.337 -0.2064  0.2604  0.1413
  151DOPC  H13A18006   2.695   5.004   9.357  2.0901  0.3607  1.6476
  151DOPC  H13B18007   2.769   5.153   9.409  2.1922 -1.2169 -1.1502
  151DOPC  H13C18008   2.605   5.157   9.358 -0.6251  0.1510 -1.3857
  151DOPC   C1418009   2.752   5.284   9.190 -0.1401 -0.1360  0.2561
  151DOPC  H14A18010   2.791   5.326   9.098 -0.3172  0.4851  0.4598
  151DOPC  H14B18011   2.649   5.317   9.195 -0.6411 -1.2911 -1.3994
  151DOPC  H14C18012   2.808   5.327   9.272 -0.1851  1.1682 -0.3712
  151DOPC   C1518013   2.890   5.089   9.188  0.0910 -0.0893 -0.0904
  151DOPC  H15A18014   2.909   4.983   9.199 -0.6140 -0.4923 -2.2959
  151DOPC  H15B18015   2.957   5.154   9.243  0.0009  0.7923 -1.0026
  151DOPC  H15C18016   2.927   5.114   9.090  0.3190  2.3901  0.5452
  151DOPC   C1118017   2.667   4.912   9.072  0.5665 -0.3233 -0.1816
  151DOPC  H11A18018   2.602   4.879   8.989 -0.6959  1.4227  0.0496
  151DOPC  H11B18019   2.773   4.889   9.046  0.3617  0.5051 -1.8450
  151DOPC     P18020   2.507   4.805   9.243 -0.3147 -0.5077  0.0023
  151DOPC   O1318021   2.414   4.919   9.217  0.0571  0.3565 -0.8248
  151DOPC   O1418022   2.509   4.757   9.381  0.1172  0.0182 -0.0230
  151DOPC   O1218023   2.647   4.843   9.193  0.1724 -0.1307 -0.5056
  151DOPC   O1118024   2.467   4.682   9.155  0.3576  0.2798 -0.7578
  151DOPC    C118025   2.527   4.554   9.153  0.3752 -0.6009 -0.1680
  151DOPC    HA18026   2.456   4.478   9.115 -0.4522  0.2584 -0.3796
  151DOPC    HB18027   2.549   4.520   9.257 -0.5884  1.3949  0.7382
  151DOPC    C218028   2.652   4.549   9.055  0.8804  0.3507 -0.2748
  151DOPC    HS18029   2.724   4.619   9.103  1.1263  1.5828 -2.2875
  151DOPC   O2118030   2.630   4.602   8.927 -0.2251 -0.1393 -0.4302
  151DOPC   C2118031   2.561   4.534   8.841  0.5510  0.3258 -0.0822
  151DOPC   O2218032   2.508   4.421   8.859  0.0628 -0.1871  0.4272
  151DOPC   C2218033   2.527   4.620   8.721 -0.6187 -0.1520 -0.2784
  151DOPC   H2R18034   2.616   4.666   8.672 -0.5620 -0.9910 -0.9830
  151DOPC   H2S18035   2.458   4.701   8.753  1.5207  1.9806 -0.6853
  151DOPC    C318036   2.731   4.409   9.055 -0.1765 -0.3425 -0.3943
  151DOPC    HX18037   2.653   4.333   9.035 -1.0942  0.7066 -0.8756
  151DOPC    HY18038   2.791   4.398   9.148 -0.7368  0.6566  0.1022
  151DOPC   O3118039   2.823   4.396   8.946 -0.4532 -0.4645  0.3035
  151DOPC   C3118040   2.864   4.265   8.923  0.1422 -0.5515 -0.5821
  151DOPC   O3218041   2.833   4.166   8.989  0.2266 -0.9953  0.3210
  151DOPC   C3218042   2.931   4.249   8.782 -0.6044 -0.1417 -0.4918
  151DOPC   H2X18043   3.024   4.310   8.782  0.8811 -2.2913 -0.8818
  151DOPC   H2Y18044   2.972   4.146   8.783  0.3254  0.1322  2.8913
  151DOPC   C2318045   2.463   4.536   8.610  0.0681  0.3721 -0.5300
  151DOPC   H3R18046   2.368   4.491   8.648  1.3510 -1.7318  0.3686
  151DOPC   H3S18047   2.521   4.442   8.599 -1.0686 -0.7218  1.9675
  151DOPC   C2418048   2.441   4.625   8.488 -0.1451 -0.6076  0.5482
  151DOPC   H4R18049   2.497   4.720   8.500  0.6687 -0.8938 -0.7942
  151DOPC   H4S18050   2.331   4.644   8.490  0.2057  1.5846  0.7279
  151DOPC   C2518051   2.471   4.545   8.358 -0.0819 -0.3298  0.4591
  151DOPC   H5R18052   2.405   4.456   8.367  1.4193 -1.5229  0.0683
  151DOPC   H5S18053   2.577   4.514   8.340 -0.6711 -1.6857 -0.9899
  151DOPC   C2618054   2.434   4.623   8.233  0.3260 -0.4812  0.0880
  151DOPC   H6R18055   2.497   4.713   8.222  0.0952 -0.2343  0.7162
  151DOPC   H6S18056   2.339   4.681   8.241 -0.3746 -1.6277  0.3787
  151DOPC   C2718057   2.423   4.546   8.101 -0.2772 -0.7575  0.1421
  151DOPC   H7R18058   2.349   4.464   8.106 -1.0701 -0.0916 -0.4009
  151DOPC   H7S18059   2.522   4.504   8.075  0.2525  0.1409  0.6369
  151DOPC   C2818060   2.381   4.649   7.989 -0.6942 -0.3366 -0.0723
  151DOPC   H8R18061   2.429   4.623   7.893  1.4612 -1.0938  1.1351
  151DOPC   H8S18062   2.440   4.740   8.014 -1.4427  0.2242 -0.3145
  151DOPC   C2918063   2.232   4.677   7.997 -0.4307 -0.4554 -1.2007
  151DOPC   H9R18064   2.179   4.631   8.082 -3.4928 -0.6558 -3.0484
  151DOPC  C21018065   2.153   4.742   7.913  0.2103  0.9579 -0.3436
  151DOPC  H10R18066   2.048   4.771   7.933  0.4384  1.4053  0.2471
  151DOPC  C21118067   2.212   4.819   7.798 -0.3311  0.3064  0.2338
  151DOPC  H11R18068   2.309   4.859   7.833  0.6965 -1.4803 -0.4149
  151DOPC  H11S18069   2.144   4.901   7.765  0.0208  1.0183  1.2176
  151DOPC  C21218070   2.234   4.722   7.680  0.4724  0.7174 -0.2145
  151DOPC  H12R18071   2.143   4.663   7.655  2.1299 -1.6615 -0.9727
  151DOPC  H12S18072   2.301   4.637   7.706 -1.0514 -0.2676  0.6319
  151DOPC  C21318073   2.292   4.806   7.563  0.3402 -0.8437 -0.1033
  151DOPC  H13R18074   2.383   4.855   7.602 -0.6576 -0.9477  2.4925
  151DOPC  H13S18075   2.222   4.886   7.532  0.8887 -0.1772  0.3586
  151DOPC  C21418076   2.299   4.726   7.434  0.2434  0.2016  0.2485
  151DOPC  H14R18077   2.202   4.674   7.426  0.3456  0.0227  0.1721
  151DOPC  H14S18078   2.377   4.648   7.451 -1.0530 -1.7505 -2.1547
  151DOPC  C21518079   2.327   4.811   7.310 -0.3688  0.5606  0.2756
  151DOPC  H15R18080   2.425   4.862   7.303 -0.8601  1.5036  0.0211
  151DOPC  H15S18081   2.250   4.891   7.319 -0.4054  0.8470 -2.0184
  151DOPC  C21618082   2.302   4.734   7.176  0.0101 -0.4889 -0.4811
  151DOPC  H16R18083   2.318   4.806   7.094  1.3675  0.4479  0.5651
  151DOPC  H16S18084   2.195   4.709   7.161  0.3295 -1.7229 -0.8241
  151DOPC  C21718085   2.380   4.601   7.161  0.4277 -0.4167  0.3944
  151DOPC  H17R18086   2.343   4.522   7.229  0.8925 -0.1838  0.9233
  151DOPC  H17S18087   2.484   4.622   7.194 -1.1627  3.7889  3.5857
  151DOPC  C21818088   2.370   4.552   7.016 -0.2502 -0.9312 -0.0150
  151DOPC  H18R18089   2.410   4.632   6.950 -1.0525 -0.8136 -0.3611
  151DOPC  H18S18090   2.265   4.536   6.986 -0.1218 -1.4684 -0.1767
  151DOPC  H18T18091   2.439   4.468   6.993 -0.3614 -0.8761 -0.5385
  151DOPC   C3318092   2.838   4.279   8.666 -0.0097 -1.2962  0.1433
  151DOPC   H3X18093   2.786   4.376   8.672 -1.4558 -1.8563 -2.0672
  151DOPC   H3Y18094   2.752   4.209   8.669 -1.6069  0.6214  2.8081
  151DOPC   C3418095   2.915   4.283   8.531  0.1373 -0.3090 -0.3426
  151DOPC   H4X18096   2.948   4.182   8.499 -1.3207 -0.9795  0.1524
  151DOPC   H4Y18097   3.003   4.350   8.540 -1.5971  1.9420  1.4329
  151DOPC   C3518098   2.829   4.325   8.414  0.4644  0.7967  0.4822
  151DOPC   H5X18099   2.790   4.423   8.450  0.3383  0.9746 -0.1205
  151DOPC   H5Y18100   2.739   4.261   8.401  0.8183  0.3921  0.0009
  151DOPC   C3618101   2.918   4.342   8.292  0.7595 -0.1245 -0.7799
  151DOPC   H6X18102   2.997   4.417   8.313  1.2184 -0.8832  0.2705
  151DOPC   H6Y18103   2.972   4.248   8.265  0.3798 -1.0564  1.4774
  151DOPC   C3718104   2.843   4.394   8.170  0.0986 -0.5592  0.0245
  151DOPC   H7X18105   2.746   4.340   8.159 -0.1889 -0.1817  0.6893
  151DOPC   H7Y18106   2.812   4.500   8.181  1.1685 -0.3816  1.6611
  151DOPC   C3818107   2.921   4.369   8.041  0.5105  0.2763 -1.0342
  151DOPC   H8X18108   2.858   4.375   7.949 -0.0475 -2.7302 -0.9513
  151DOPC   H8Y18109   2.952   4.262   8.046  2.1324  0.7108 -1.2075
  151DOPC   C3918110   3.043   4.456   8.028 -0.1918 -0.5134 -0.2186
  151DOPC   H9X18111   3.044   4.556   8.076  1.3813 -0.8449  0.5202
  151DOPC  C31018112   3.152   4.423   7.957  0.0106  0.0275 -0.7862
  151DOPC  H10X18113   3.231   4.498   7.943  0.7433 -0.4984  0.4121
  151DOPC  C31118114   3.177   4.300   7.870 -1.2881  0.3721 -0.5786
  151DOPC  H11X18115   3.162   4.200   7.916  0.0060 -0.4998 -1.9589
  151DOPC  H11Y18116   3.285   4.296   7.846 -1.1417 -0.4444  0.1719
  151DOPC  C31218117   3.094   4.291   7.748  0.0078  0.4029 -0.1416
  151DOPC  H12X18118   2.984   4.296   7.765  0.1560 -0.0719  1.0737
  151DOPC  H12Y18119   3.115   4.193   7.700  0.1763  0.7123 -0.7047
  151DOPC  C31318120   3.127   4.396   7.637  0.2138 -0.4640 -0.4409
  151DOPC  H13X18121   3.108   4.500   7.669  0.8724 -0.8479  1.2710
  151DOPC  H13Y18122   3.234   4.400   7.609 -0.2736  0.3373 -2.3938
  151DOPC  C31418123   3.041   4.367   7.511  0.4070  0.7235  0.4282
  151DOPC  H14X18124   2.999   4.265   7.520 -0.2116  0.9502  0.1281
  151DOPC  H14Y18125   2.951   4.431   7.513 -1.0315 -1.1674 -0.9769
  151DOPC  C31518126   3.127   4.383   7.383 -0.1381 -0.3612  0.0310
  151DOPC  H15X18127   3.210   4.309   7.380 -0.5086 -0.7643 -2.7317
  151DOPC  H15Y18128   3.176   4.482   7.378  1.8865 -1.2757  0.8165
  151DOPC  C31618129   3.042   4.372   7.260 -0.2843  0.1088  0.7388
  151DOPC  H16X18130   3.006   4.267   7.254 -0.3241  0.1907 -1.7926
  151DOPC  H16Y18131   2.960   4.445   7.276 -0.1297 -0.1196  2.8701
  151DOPC  C31718132   3.123   4.406   7.138 -0.1256 -0.7058 -0.2865
  151DOPC  H17X18133   3.164   4.509   7.148 -0.9573 -0.0477 -3.0176
  151DOPC  H17Y18134   3.215   4.343   7.128 -0.9933 -1.9758 -0.5375
  151DOPC  C31818135   3.041   4.396   7.016  0.9987 -0.9071  0.2378
  151DOPC  H18X18136   2.949   4.457   7.035 -0.0559 -2.1739 -0.6742
  151DOPC  H18Y18137   3.080   4.456   6.931 -1.2645  0.2132 -0.0949
  151DOPC  H18Z18138   3.006   4.293   6.993  0.1547 -0.5086 -0.3291
  152DOPC     N18139   3.330   2.857   9.765 -0.6121  0.6873  0.0750
  152DOPC   C1218140   3.377   2.960   9.661 -0.3717 -0.1941  0.1637
  152DOPC  H12A18141   3.433   3.031   9.720  3.1783 -1.6468 -1.1506
  152DOPC  H12B18142   3.304   3.022   9.612  1.0387  1.9272  0.6067
  152DOPC   C1318143   3.232   2.772   9.691 -0.0318  0.4522  0.0792
  152DOPC  H13A18144   3.163   2.839   9.642 -0.9274  0.6222  1.5048
  152DOPC  H13B18145   3.286   2.718   9.615  0.3586  0.2753  0.4797
  152DOPC  H13C18146   3.185   2.695   9.751  0.2445 -0.5611 -0.9645
  152DOPC   C1418147   3.256   2.931   9.877  0.0725  0.6022 -0.0936
  152DOPC  H14A18148   3.171   2.984   9.837  1.3177  1.5548 -1.6162
  152DOPC  H14B18149   3.221   2.857   9.947  1.9550 -1.8031 -1.4988
  152DOPC  H14C18150   3.324   2.993   9.933 -0.8087 -0.7359  2.6692
  152DOPC   C1518151   3.446   2.779   9.818  0.2477  0.0106 -0.1949
  152DOPC  H15A18152   3.415   2.709   9.894  1.4228 -0.0307  0.2647
  152DOPC  H15B18153   3.515   2.847   9.866 -0.9022  0.0248  1.5258
  152DOPC  H15C18154   3.497   2.714   9.748  0.3407 -0.8512  0.6488
  152DOPC   C1118155   3.466   2.903   9.543  0.4570  0.6727  0.2970
  152DOPC  H11A18156   3.511   2.987   9.486 -0.1121  0.0709 -1.0737
  152DOPC  H11B18157   3.552   2.851   9.591  0.5111  1.9089  1.6372
  152DOPC     P18158   3.299   2.856   9.348  0.1682 -0.1793 -0.0043
  152DOPC   O1318159   3.203   2.955   9.409  0.2729 -0.3250 -0.2458
  152DOPC   O1418160   3.239   2.738   9.289 -0.4873  0.5836  0.4549
  152DOPC   O1218161   3.400   2.806   9.459 -0.2401 -0.2587  0.6185
  152DOPC   O1118162   3.389   2.938   9.239  0.4084  0.2220 -0.7805
  152DOPC    C118163   3.461   2.869   9.135  0.1565 -0.5554  0.3318
  152DOPC    HA18164   3.385   2.807   9.082 -1.3272 -0.9553  2.7909
  152DOPC    HB18165   3.530   2.794   9.180  0.5773 -0.7741 -0.6514
  152DOPC    C218166   3.531   2.960   9.036  0.2373 -1.2210  0.2565
  152DOPC    HS18167   3.602   3.027   9.090 -0.5838  0.9330 -1.1835
  152DOPC   O2118168   3.441   3.037   8.960 -0.2020  0.2162  0.5074
  152DOPC   C2118169   3.478   3.143   8.900 -0.8634 -0.5619  0.2042
  152DOPC   O2218170   3.565   3.224   8.943  0.2721  0.1331  0.0591
  152DOPC   C2218171   3.405   3.150   8.765 -0.2118  0.3712  0.2705
  152DOPC   H2R18172   3.302   3.189   8.780 -1.4069 -2.4689  0.1891
  152DOPC   H2S18173   3.399   3.041   8.741 -2.6193  0.3209  0.8262
  152DOPC    C318174   3.604   2.866   8.938 -0.1065 -0.3701  0.2012
  152DOPC    HX18175   3.670   2.790   8.984  2.3882  1.3902 -0.3084
  152DOPC    HY18176   3.676   2.933   8.888  3.0915 -0.6198  3.9858
  152DOPC   O3118177   3.511   2.796   8.849 -0.4446 -0.3446 -0.7197
  152DOPC   C3118178   3.563   2.778   8.728  0.3739  0.3846 -0.0237
  152DOPC   O3218179   3.676   2.815   8.692 -0.0615 -0.4131 -0.0164
  152DOPC   C3218180   3.452   2.718   8.639  0.4789 -0.3135  0.2076
  152DOPC   H2X18181   3.488   2.628   8.585 -0.1842 -1.0997  1.0451
  152DOPC   H2Y18182   3.364   2.693   8.702  1.6005  0.9727  2.3674
  152DOPC   C2318183   3.490   3.216   8.660 -0.1845 -0.7683  0.4454
  152DOPC   H3R18184   3.449   3.199   8.559 -1.1031  1.6188  0.3583
  152DOPC   H3S18185   3.589   3.165   8.661 -0.0673 -0.5444  0.4901
  152DOPC   C2418186   3.508   3.371   8.682 -0.0171 -0.1317 -0.1917
  152DOPC   H4R18187   3.521   3.381   8.792 -0.1046  1.0184 -0.2701
  152DOPC   H4S18188   3.412   3.426   8.670 -2.1127 -2.7640  2.7487
  152DOPC   C2518189   3.632   3.436   8.622 -0.2818  0.6865 -0.3723
  152DOPC   H5R18190   3.716   3.367   8.643 -0.9890 -0.5922 -1.5970
  152DOPC   H5S18191   3.657   3.535   8.667  0.4017 -0.0293  0.8703
  152DOPC   C2618192   3.610   3.434   8.471  0.2897  0.3698 -0.6313
  152DOPC   H6R18193   3.507   3.470   8.448  0.0278  0.3881  0.5315
  152DOPC   H6S18194   3.634   3.330   8.441 -1.8133 -0.9305  1.8611
  152DOPC   C2718195   3.711   3.521   8.403  0.0273 -0.8263  0.1786
  152DOPC   H7R18196   3.811   3.475   8.411  0.0197 -1.1556 -1.3406
  152DOPC   H7S18197   3.722   3.622   8.448  3.6752 -1.4135  0.9349
  152DOPC   C2818198   3.684   3.555   8.256 -0.3602  0.0987  0.1973
  152DOPC   H8R18199   3.763   3.631   8.240  1.0551 -0.8297  2.2848
  152DOPC   H8S18200   3.583   3.601   8.245  0.0167  1.3346  1.4563
  152DOPC   C2918201   3.696   3.437   8.162 -0.1363  0.6143 -0.7216
  152DOPC   H9R18202   3.670   3.341   8.208 -0.0476  0.6377 -0.6198
  152DOPC  C21018203   3.714   3.444   8.028  0.1206 -0.2287 -0.1709
  152DOPC  H10R18204   3.722   3.348   7.974  1.3814 -1.3905  1.9600
  152DOPC  C21118205   3.732   3.564   7.947  0.0852 -0.4615 -0.2676
  152DOPC  H11R18206   3.788   3.642   8.002 -1.5881  1.5135 -1.2262
  152DOPC  H11S18207   3.629   3.603   7.938 -0.0687 -1.0680 -1.3411
  152DOPC  C21218208   3.793   3.522   7.808  0.2552  0.0421 -0.2351
  152DOPC  H12R18209   3.748   3.424   7.781  0.6466 -0.0566 -0.5310
  152DOPC  H12S18210   3.903   3.511   7.810  0.5645  2.4968 -0.9012
  152DOPC  C21318211   3.760   3.618   7.701  0.4983 -0.0178  0.6330
  152DOPC  H13R18212   3.831   3.703   7.694 -1.8047  1.9323 -0.8943
  152DOPC  H13S18213   3.661   3.667   7.714  0.0125 -0.8861  0.2659
  152DOPC  C21418214   3.774   3.568   7.551 -0.4460 -1.0072  0.2322
  152DOPC  H14R18215   3.690   3.499   7.530 -2.1775  1.4145 -1.3533
  152DOPC  H14S18216   3.874   3.519   7.546  0.6873  1.2779 -1.4774
  152DOPC  C21518217   3.770   3.680   7.439  0.4403 -0.0250  0.1722
  152DOPC  H15R18218   3.836   3.765   7.464 -0.2385  0.9909 -1.3283
  152DOPC  H15S18219   3.665   3.719   7.436  0.1573 -0.6349  1.4564
  152DOPC  C21618220   3.817   3.620   7.308  1.1966  0.3548 -0.0369
  152DOPC  H16R18221   3.771   3.519   7.315 -2.2267  1.6520 -1.2626
  152DOPC  H16S18222   3.926   3.599   7.313  0.6449 -2.6927  1.3383
  152DOPC  C21718223   3.765   3.689   7.180 -0.0105  0.0186 -0.2645
  152DOPC  H17R18224   3.802   3.791   7.207 -4.6582  2.1097 -0.8821
  152DOPC  H17S18225   3.655   3.698   7.167  0.3660  1.6071 -3.2647
  152DOPC  C21818226   3.817   3.631   7.046  0.2685 -0.8563  0.1610
  152DOPC  H18R18227   3.762   3.537   7.028 -0.3126 -0.6043  0.6028
  152DOPC  H18S18228   3.927   3.615   7.056  0.4047  0.6110  1.5217
  152DOPC  H18T18229   3.792   3.694   6.958 -0.5604 -0.9030  0.3547
  152DOPC   C3318230   3.410   2.816   8.521 -0.0741  0.0527 -0.2429
  152DOPC   H3X18231   3.357   2.908   8.554 -4.4696 -1.0990 -3.1676
  152DOPC   H3Y18232   3.331   2.763   8.464 -0.7039  0.2903  0.3938
  152DOPC   C3418233   3.519   2.843   8.410  0.3579 -0.5847  0.1212
  152DOPC   H4X18234   3.552   2.740   8.385  0.6412 -0.1045 -1.6731
  152DOPC   H4Y18235   3.605   2.896   8.456 -1.8604  3.5181 -0.0399
  152DOPC   C3518236   3.465   2.933   8.299  0.5573  0.4334 -0.2938
  152DOPC   H5X18237   3.413   3.024   8.335  0.6690  0.4777 -0.2422
  152DOPC   H5Y18238   3.395   2.862   8.250  0.2847  0.6246 -0.1813
  152DOPC   C3618239   3.562   2.976   8.187  0.2606  0.4756  0.4153
  152DOPC   H6X18240   3.654   3.014   8.238  1.2477 -0.9944 -0.1959
  152DOPC   H6Y18241   3.585   2.880   8.136 -0.4262  0.1493  0.7011
  152DOPC   C3718242   3.525   3.087   8.088  0.3068  0.0155 -0.4082
  152DOPC   H7X18243   3.482   3.175   8.140 -0.8943  0.8364 -2.6756
  152DOPC   H7Y18244   3.614   3.125   8.033  0.2746  0.7184  0.0088
  152DOPC   C3818245   3.422   3.042   7.978  0.0400 -0.0370 -0.1647
  152DOPC   H8X18246   3.388   3.133   7.925  0.8621 -0.2480 -1.0549
  152DOPC   H8Y18247   3.335   2.991   8.027  0.1680 -1.7404 -1.6294
  152DOPC   C3918248   3.477   2.938   7.885 -0.4697  0.1156  0.4093
  152DOPC   H9X18249   3.520   2.847   7.929  1.8638  0.8978 -0.0778
  152DOPC  C31018250   3.477   2.944   7.750 -0.2418  0.5199 -0.1143
  152DOPC  H10X18251   3.516   2.859   7.693  1.7615  1.0780  0.3233
  152DOPC  C31118252   3.422   3.044   7.654 -0.0678 -0.6623  0.0404
  152DOPC  H11X18253   3.399   3.136   7.711  2.8209 -1.1238  2.1856
  152DOPC  H11Y18254   3.328   2.991   7.627 -1.0658 -0.0650  2.1391
  152DOPC  C31218255   3.505   3.084   7.529  0.2049 -0.2149  0.0450
  152DOPC  H12X18256   3.562   2.996   7.491 -0.2093 -0.0543 -0.9777
  152DOPC  H12Y18257   3.578   3.167   7.543  0.4680 -0.2986 -0.7988
  152DOPC  C31318258   3.414   3.117   7.411  0.2115  0.4033 -0.1833
  152DOPC  H13X18259   3.376   3.024   7.364  0.0731  0.9512 -1.1904
  152DOPC  H13Y18260   3.323   3.174   7.441  0.0408 -1.0637  2.3252
  152DOPC  C31418261   3.489   3.182   7.293 -0.4086  0.3169 -0.4247
  152DOPC  H14X18262   3.425   3.224   7.213  0.9609  1.8736 -0.7773
  152DOPC  H14Y18263   3.541   3.272   7.334 -0.4507 -0.1910  0.7975
  152DOPC  C31518264   3.600   3.097   7.230 -0.3376 -0.8460 -0.6787
  152DOPC  H15X18265   3.642   3.022   7.300 -3.3658 -0.3956  1.8468
  152DOPC  H15Y18266   3.675   3.176   7.208 -1.8145  0.4959 -1.0862
  152DOPC  C31618267   3.562   3.021   7.104 -0.8985  0.4543  0.3323
  152DOPC  H16X18268   3.495   3.076   7.035 -3.3765 -1.5548  0.9691
  152DOPC  H16Y18269   3.658   2.997   7.053 -0.5900  0.4915  0.8811
  152DOPC  C31718270   3.493   2.891   7.129  0.5565  0.3187 -0.0238
  152DOPC  H17X18271   3.556   2.842   7.206  0.1755 -2.1219 -1.1719
  152DOPC  H17Y18272   3.392   2.917   7.168 -1.3297 -2.8043 -2.2957
  152DOPC  C31818273   3.486   2.790   7.015  0.0363 -0.1254 -0.0548
  152DOPC  H18X18274   3.419   2.830   6.936  0.9606  1.3461 -0.1230
  152DOPC  H18Y18275   3.586   2.772   6.969 -0.8622 -2.3764 -1.3422
  152DOPC  H18Z18276   3.431   2.698   7.045 -0.5754  0.7110  1.5171
  153DOPC     N18277   3.544   0.640   8.572  0.3711 -1.0219 -0.3345
  153DOPC   C1218278   3.609   0.704   8.454  0.1366 -0.4006 -0.2134
  153DOPC  H12A18279   3.556   0.791   8.419  0.4388 -0.4687 -0.8644
  153DOPC  H12B18280   3.601   0.641   8.366 -1.0791 -0.2211 -0.2446
  153DOPC   C1318281   3.397   0.630   8.539 -0.1289  0.4394 -0.1570
  153DOPC  H13A18282   3.346   0.717   8.502 -0.4791  1.2235  2.0282
  153DOPC  H13B18283   3.378   0.551   8.467 -0.9541 -1.5750  2.1253
  153DOPC  H13C18284   3.348   0.598   8.630 -0.3120  1.4799  0.1223
  153DOPC   C1418285   3.574   0.723   8.695 -0.0347 -0.7550 -0.1790
  153DOPC  H14A18286   3.672   0.765   8.683 -0.9463  1.2853 -1.0754
  153DOPC  H14B18287   3.509   0.809   8.704  1.7773  0.6056  0.4459
  153DOPC  H14C18288   3.567   0.667   8.787  1.1461 -0.3854  0.1504
  153DOPC   C1518289   3.592   0.502   8.597 -0.0359  1.5867 -0.3905
  153DOPC  H15A18290   3.574   0.439   8.512  0.5512  0.0236  0.5899
  153DOPC  H15B18291   3.552   0.454   8.685  1.9289  0.0485 -0.2948
  153DOPC  H15C18292   3.698   0.506   8.615 -0.3085 -0.2031  2.1628
  153DOPC   C1118293   3.758   0.738   8.468 -0.7994  0.4230 -0.4487
  153DOPC  H11A18294   3.809   0.657   8.524  0.1292  0.3832 -1.3141
  153DOPC  H11B18295   3.792   0.730   8.362 -0.8301 -3.7974 -0.2982
  153DOPC     P18296   3.789   0.995   8.446  0.0041 -0.1583 -0.0656
  153DOPC   O1318297   3.903   1.079   8.494  0.5940 -0.4419 -1.3394
  153DOPC   O1418298   3.653   1.056   8.452 -0.2419  0.0314 -0.2148
  153DOPC   O1218299   3.794   0.867   8.528 -0.2215  0.5144 -1.0765
  153DOPC   O1118300   3.812   0.953   8.302 -0.8157 -0.0606 -0.1751
  153DOPC    C118301   3.938   1.001   8.246 -0.2628 -0.0310  0.1191
  153DOPC    HA18302   4.025   0.970   8.307 -0.0909 -2.5299 -1.2556
  153DOPC    HB18303   3.939   1.112   8.235 -0.1196 -0.1597 -1.3487
  153DOPC    C218304   3.960   0.937   8.101  0.2937  0.7290 -0.0285
  153DOPC    HS18305   4.021   0.844   8.108 -0.1438  0.4532  0.1689
  153DOPC   O2118306   4.027   1.030   8.022 -0.1025 -0.0090  0.1049
  153DOPC   C2118307   4.156   1.041   8.061  0.5557 -0.0989  0.1980
  153DOPC   O2218308   4.207   0.981   8.153 -0.7426 -0.0592  0.6188
  153DOPC   C2218309   4.216   1.154   7.980  0.1119  0.2613  0.0393
  153DOPC   H2R18310   4.259   1.232   8.047  3.4149 -0.7975 -0.6716
  153DOPC   H2S18311   4.144   1.201   7.909 -0.7848 -1.2232 -0.0910
  153DOPC    C318312   3.821   0.912   8.035  0.3928 -0.8764  0.0632
  153DOPC    HX18313   3.760   1.003   8.050  1.2158 -0.4979  1.2671
  153DOPC    HY18314   3.762   0.839   8.095 -1.6203  0.4471 -0.2081
  153DOPC   O3118315   3.838   0.877   7.895 -0.0171  0.2074 -0.0969
  153DOPC   C3118316   3.735   0.889   7.817 -0.1965  0.0447 -0.3153
  153DOPC   O3218317   3.621   0.919   7.856 -0.3566 -0.2354  0.2630
  153DOPC   C3218318   3.783   0.844   7.677 -0.3858  0.6920 -0.5206
  153DOPC   H2X18319   3.880   0.896   7.663 -0.1950  0.3341 -0.5450
  153DOPC   H2Y18320   3.802   0.735   7.679 -2.9439  0.1754  1.6956
  153DOPC   C2318321   4.346   1.105   7.902 -0.0540  0.4114  0.0352
  153DOPC   H3R18322   4.423   1.066   7.971  0.4919  3.3183  1.1829
  153DOPC   H3S18323   4.378   1.195   7.844 -1.1683  1.3702  0.8614
  153DOPC   C2418324   4.310   0.995   7.800  0.2857 -0.1205  0.2190
  153DOPC   H4R18325   4.254   0.910   7.845  0.7418  0.5768  2.1924
  153DOPC   H4S18326   4.407   0.957   7.762  0.1245 -1.7442  1.3194
  153DOPC   C2518327   4.240   1.052   7.682  0.2354 -0.4915  0.2099
  153DOPC   H5R18328   4.279   1.147   7.641 -0.1734  0.1671  1.3154
  153DOPC   H5S18329   4.136   1.071   7.715  0.0295 -0.2597 -0.5458
  153DOPC   C2618330   4.257   0.958   7.557 -0.1790  0.3776 -0.1426
  153DOPC   H6R18331   4.211   0.860   7.582 -1.3698  0.6183 -1.3027
  153DOPC   H6S18332   4.362   0.937   7.528 -0.7799  1.2890 -3.3701
  153DOPC   C2718333   4.189   1.010   7.433  0.4626 -0.7136 -0.2741
  153DOPC   H7R18334   4.216   1.118   7.422  0.2480 -0.5933  0.3490
  153DOPC   H7S18335   4.078   1.014   7.444  0.3507  2.8099 -1.2156
  153DOPC   C2818336   4.213   0.927   7.305 -0.2572  0.6355 -0.4483
  153DOPC   H8R18337   4.138   0.846   7.315  0.7954 -0.4580 -1.0681
  153DOPC   H8S18338   4.316   0.887   7.316 -0.4237  0.2495 -0.2927
  153DOPC   C2918339   4.202   0.995   7.173 -0.1344 -0.1993  0.5191
  153DOPC   H9R18340   4.302   1.022   7.136  0.6219 -0.3516  2.3490
  153DOPC  C21018341   4.092   1.006   7.088 -1.3722  0.1960 -1.1912
  153DOPC  H10R18342   4.108   1.061   6.994 -1.1986  1.5802 -0.3857
  153DOPC  C21118343   3.965   0.933   7.117  0.7597  0.5109  0.3053
  153DOPC  H11R18344   3.879   1.003   7.122  0.0368 -0.3395  0.1654
  153DOPC  H11S18345   3.967   0.884   7.217  5.0926 -2.3253 -0.8860
  153DOPC  C21218346   3.943   0.815   7.018  0.3023 -0.1242  0.0413
  153DOPC  H12R18347   3.868   0.744   7.060 -0.1658 -0.0832 -0.6972
  153DOPC  H12S18348   4.035   0.753   7.027 -0.2969 -0.9288  0.7973
  153DOPC  C21318349   3.916   0.852   6.867  0.0834 -0.0660 -0.5754
  153DOPC  H13R18350   4.011   0.899   6.834  0.4527  0.1511  0.7320
  153DOPC  H13S18351   3.838   0.932   6.873  0.6057  0.3772  0.7949
  153DOPC  C21418352   3.879   0.739   6.774 -0.9994 -0.2541 -0.4436
  153DOPC  H14R18353   3.773   0.708   6.786 -1.1156 -0.3272 -1.5344
  153DOPC  H14S18354   3.943   0.651   6.800 -1.0176  0.0396  0.6145
  153DOPC  C21518355   3.907   0.776   6.632 -0.3017  0.2806  0.3350
  153DOPC  H15R18356   4.015   0.797   6.619 -0.1871 -0.7401 -0.5403
  153DOPC  H15S18357   3.855   0.872   6.614  0.2012  0.4112 -0.4656
  153DOPC  C21618358   3.857   0.676   6.523  0.5105 -0.1313 -0.5574
  153DOPC  H16R18359   3.747   0.686   6.530  0.6533  0.1654  2.7891
  153DOPC  H16S18360   3.887   0.573   6.551  2.1008  0.3356 -0.4257
  153DOPC  C21718361   3.911   0.701   6.374 -0.1796  0.2977 -0.7199
  153DOPC  H17R18362   3.862   0.628   6.306 -0.4261 -0.0801 -0.1395
  153DOPC  H17S18363   4.021   0.688   6.366 -0.3411 -1.9515  0.2041
  153DOPC  C21818364   3.866   0.834   6.309  0.5840  0.0782  0.0117
  153DOPC  H18R18365   3.925   0.910   6.364  2.2001 -1.9207  1.2207
  153DOPC  H18S18366   3.759   0.859   6.324 -0.1311 -1.1434 -2.4912
  153DOPC  H18T18367   3.884   0.847   6.200 -1.7970 -5.6800 -1.4753
  153DOPC   C3318368   3.678   0.879   7.571  0.4382 -0.2507  0.0064
  153DOPC   H3X18369   3.658   0.988   7.578 -0.0286 -0.4048  1.2769
  153DOPC   H3Y18370   3.583   0.829   7.599 -0.2546 -0.3617 -2.2736
  153DOPC   C3418371   3.714   0.836   7.426  0.2848  0.6088 -1.0361
  153DOPC   H4X18372   3.739   0.728   7.428  0.7300  0.6958  1.6457
  153DOPC   H4Y18373   3.796   0.901   7.386  0.8878 -0.6592 -1.9135
  153DOPC   C3518374   3.587   0.860   7.345  0.7326  1.4175  0.3841
  153DOPC   H5X18375   3.573   0.970   7.338 -2.3481  1.0687 -0.6845
  153DOPC   H5Y18376   3.500   0.824   7.403  0.2841  0.5156 -0.7998
  153DOPC   C3618377   3.597   0.814   7.202  0.0756  0.1219  0.0374
  153DOPC   H6X18378   3.700   0.847   7.173 -0.0909  0.2708 -0.3897
  153DOPC   H6Y18379   3.594   0.705   7.180  0.6572  0.1928 -0.4259
  153DOPC   C3718380   3.500   0.889   7.107  0.1969 -0.4644 -0.1257
  153DOPC   H7X18381   3.397   0.884   7.148 -0.1932  1.4137 -0.7860
  153DOPC   H7Y18382   3.518   0.998   7.113 -0.2133 -0.4700  2.1450
  153DOPC   C3818383   3.503   0.840   6.964 -0.2342 -0.0267  0.2278
  153DOPC   H8X18384   3.486   0.731   6.964 -0.3121 -0.0149  0.1029
  153DOPC   H8Y18385   3.599   0.865   6.915 -0.9846  1.3444 -0.6131
  153DOPC   C3918386   3.390   0.902   6.885 -0.0420  0.2884 -0.0504
  153DOPC   H9X18387   3.286   0.884   6.915  0.5772  0.5374  2.4770
  153DOPC  C31018388   3.415   0.953   6.762 -0.1608  0.5217  0.2753
  153DOPC  H10X18389   3.331   0.998   6.706  0.9068  2.0737 -0.1703
  153DOPC  C31118390   3.552   0.948   6.698 -0.0495 -0.0317 -0.2747
  153DOPC  H11X18391   3.599   0.848   6.708 -1.8329 -1.0310 -1.4339
  153DOPC  H11Y18392   3.620   1.019   6.751  1.8535 -2.0115  0.0710
  153DOPC  C31218393   3.551   0.992   6.554 -0.8420  0.1705  0.6398
  153DOPC  H12X18394   3.479   0.932   6.494  0.4261 -0.8861  0.1092
  153DOPC  H12Y18395   3.646   0.950   6.513 -0.1237  1.3352  1.0833
  153DOPC  C31318396   3.524   1.146   6.529 -0.1202  0.6210  0.0418
  153DOPC  H13X18397   3.416   1.171   6.535 -0.8508 -2.4925  3.3294
  153DOPC  H13Y18398   3.582   1.189   6.613  1.0974  0.1218 -0.5152
  153DOPC  C31418399   3.576   1.191   6.390 -0.2428 -0.0709 -0.3229
  153DOPC  H14X18400   3.558   1.301   6.388 -1.4943 -0.2714 -0.9880
  153DOPC  H14Y18401   3.684   1.171   6.374 -0.5570 -3.4563  1.0604
  153DOPC  C31518402   3.482   1.139   6.287 -0.7371 -0.3858  0.1247
  153DOPC  H15X18403   3.376   1.134   6.322 -0.1190  0.3354  2.3077
  153DOPC  H15Y18404   3.519   1.035   6.279  1.0813  0.2715 -0.3323
  153DOPC  C31618405   3.486   1.232   6.166  0.0470  0.4062  0.1258
  153DOPC  H16X18406   3.420   1.316   6.197 -0.6254  0.1182 -0.5043
  153DOPC  H16Y18407   3.589   1.261   6.135 -0.4481  1.8932 -0.1889
  153DOPC  C31718408   3.416   1.173   6.040  0.3304 -0.8754  0.0121
  153DOPC  H17X18409   3.332   1.107   6.074 -1.1099  0.1637 -1.3682
  153DOPC  H17Y18410   3.361   1.243   5.974 -0.4536 -1.6154 -0.1439
  153DOPC  C31818411   3.509   1.086   5.959  0.6322  0.3009 -0.1779
  153DOPC  H18X18412   3.581   1.036   6.028  0.2695 -0.8156 -0.5747
  153DOPC  H18Y18413   3.461   1.006   5.898  0.4865  0.8764 -0.8160
  153DOPC  H18Z18414   3.572   1.158   5.904 -1.2314  1.5013 -0.8456
  154DOPC     N18415   5.810   5.439   9.257 -0.4896  0.1048 -0.2698
  154DOPC   C1218416   5.859   5.344   9.152 -0.5858  0.4954  0.1503
  154DOPC  H12A18417   5.780   5.274   9.129  0.5715 -0.7303 -0.1937
  154DOPC  H12B18418   5.948   5.294   9.186  0.9472  2.4191 -0.8141
  154DOPC   C1318419   5.712   5.537   9.202  0.1102  0.4404 -0.4665
  154DOPC  H13A18420   5.714   5.616   9.276  0.1247  0.4951 -0.5254
  154DOPC  H13B18421   5.752   5.585   9.114 -0.5444  0.1910 -0.9109
  154DOPC  H13C18422   5.613   5.495   9.187 -0.0438  0.6684 -0.1047
  154DOPC   C1418423   5.924   5.514   9.317 -0.0514  0.4766  0.2117
  154DOPC  H14A18424   5.897   5.587   9.392 -2.7996 -0.2242 -0.0136
  154DOPC  H14B18425   5.981   5.442   9.375 -0.2625  0.9364  1.0131
  154DOPC  H14C18426   5.993   5.548   9.242  0.2906 -1.6267 -0.4858
  154DOPC   C1518427   5.746   5.367   9.374  0.5945  0.1441 -0.2174
  154DOPC  H15A18428   5.687   5.439   9.427 -0.0711 -0.2763 -0.3819
  154DOPC  H15B18429   5.814   5.309   9.436  0.3047  1.0958  1.0361
  154DOPC  H15C18430   5.673   5.295   9.339 -0.4239  1.2493 -0.4194
  154DOPC   C1118431   5.902   5.406   9.018  0.4380  0.4126 -0.0614
  154DOPC  H11A18432   5.935   5.317   8.961 -0.3023  0.6623 -0.9165
  154DOPC  H11B18433   5.811   5.443   8.966  0.6221 -0.3207 -0.9151
  154DOPC     P18434   6.004   5.630   8.937  0.1958 -0.0129 -0.1472
  154DOPC   O1318435   6.133   5.696   8.929 -0.1139 -0.4195 -0.4663
  154DOPC   O1418436   5.887   5.717   8.976 -0.2934 -0.0043  0.2946
  154DOPC   O1218437   6.012   5.506   9.028  0.0910 -0.1325 -0.3584
  154DOPC   O1118438   5.975   5.576   8.789  0.5315 -0.1445 -0.1300
  154DOPC    C118439   6.038   5.460   8.741  0.1139  0.1666 -0.2023
  154DOPC    HA18440   5.967   5.375   8.734 -0.5189  0.6496  0.1914
  154DOPC    HB18441   6.122   5.424   8.804 -0.2291  2.0670  1.4376
  154DOPC    C218442   6.080   5.474   8.587  0.0366 -0.4088  0.2876
  154DOPC    HS18443   6.157   5.554   8.584  0.5306 -0.8637  0.4994
  154DOPC   O2118444   5.963   5.507   8.505 -0.7222 -0.0789 -0.0710
  154DOPC   C2118445   5.977   5.613   8.425  0.0718 -0.6934 -0.0456
  154DOPC   O2218446   6.079   5.684   8.419 -0.2630  0.6778  0.5318
  154DOPC   C2218447   5.840   5.645   8.371  0.0485 -0.2520  0.2299
  154DOPC   H2R18448   5.832   5.749   8.333 -1.2834 -0.3511  0.1871
  154DOPC   H2S18449   5.766   5.633   8.453 -1.9382 -3.1872 -1.8178
  154DOPC    C318450   6.149   5.344   8.540 -0.1083 -0.3116 -0.3005
  154DOPC    HX18451   6.099   5.252   8.576 -1.3628 -0.6008 -2.5976
  154DOPC    HY18452   6.244   5.331   8.596 -0.1099 -1.6727 -0.5828
  154DOPC   O3118453   6.152   5.326   8.397  0.2382  0.1587 -0.0813
  154DOPC   C3118454   6.242   5.387   8.328 -0.0232 -0.9189 -0.4421
  154DOPC   O3218455   6.326   5.467   8.373 -0.0468  0.2522 -0.2614
  154DOPC   C3218456   6.233   5.331   8.190  0.2536  0.0847  0.3802
  154DOPC   H2X18457   6.270   5.227   8.191 -0.0959 -0.0592 -0.5914
  154DOPC   H2Y18458   6.126   5.332   8.160 -0.5440 -0.6809  2.9432
  154DOPC   C2318459   5.787   5.546   8.269 -0.9642 -0.0819 -0.3887
  154DOPC   H3R18460   5.685   5.589   8.256 -0.6185  0.6890 -0.5682
  154DOPC   H3S18461   5.780   5.441   8.306 -2.3577 -0.3073 -1.2105
  154DOPC   C2418462   5.870   5.553   8.141  0.3563 -0.0927  0.0006
  154DOPC   H4R18463   5.968   5.503   8.156 -0.4428 -1.2043  2.0368
  154DOPC   H4S18464   5.889   5.658   8.109 -2.1884  0.5157  0.2634
  154DOPC   C2518465   5.795   5.488   8.020 -0.1580 -0.7300 -0.1961
  154DOPC   H5R18466   5.685   5.502   8.032 -0.0142 -0.2235  0.5872
  154DOPC   H5S18467   5.826   5.381   8.018  0.0833 -0.6711  0.3298
  154DOPC   C2618468   5.831   5.551   7.883  0.5406  0.2606  0.1973
  154DOPC   H6R18469   5.938   5.544   7.855  0.6751  2.0789  0.1110
  154DOPC   H6S18470   5.819   5.661   7.894  0.4491  0.5734 -2.3666
  154DOPC   C2718471   5.753   5.507   7.754 -0.0318 -0.1099 -0.1676
  154DOPC   H7R18472   5.647   5.507   7.787  0.3142 -0.7043  0.9794
  154DOPC   H7S18473   5.778   5.400   7.738 -1.5067 -0.5639  0.3554
  154DOPC   C2818474   5.779   5.608   7.640 -0.1357 -0.1492 -0.5261
  154DOPC   H8R18475   5.887   5.629   7.627  0.4703 -1.3463  1.9847
  154DOPC   H8S18476   5.724   5.703   7.658  0.8780  0.0000  2.1644
  154DOPC   C2918477   5.700   5.559   7.517  0.6851  0.8728  0.2323
  154DOPC   H9R18478   5.591   5.555   7.531  0.2653 -0.5856 -2.6391
  154DOPC  C21018479   5.747   5.524   7.392  0.1842 -0.1957  0.1460
  154DOPC  H10R18480   5.676   5.469   7.328 -1.6853 -1.4206  3.0584
  154DOPC  C21118481   5.887   5.540   7.348 -0.3082 -0.5182  0.8281
  154DOPC  H11R18482   5.925   5.448   7.300 -0.2415 -1.3288  2.3868
  154DOPC  H11S18483   5.953   5.565   7.434  0.6343  1.1582 -0.3078
  154DOPC  C21218484   5.905   5.658   7.247 -0.4828  0.3392  0.1685
  154DOPC  H12R18485   6.014   5.674   7.235 -0.2720 -1.9254 -1.5006
  154DOPC  H12S18486   5.865   5.754   7.287 -1.7964  0.1653 -0.6709
  154DOPC  C21318487   5.860   5.635   7.100  0.6323  0.1957  0.2954
  154DOPC  H13R18488   5.771   5.569   7.102  2.7301 -2.8299  2.0026
  154DOPC  H13S18489   5.942   5.580   7.048  0.7111  0.4349  0.1661
  154DOPC  C21418490   5.824   5.769   7.027  0.8255  0.5904 -0.1175
  154DOPC  H14R18491   5.746   5.817   7.089  1.8613  1.3437  0.6233
  154DOPC  H14S18492   5.778   5.759   6.926  0.3893  3.1646 -0.2345
  154DOPC  C21518493   5.946   5.861   7.019 -0.1186  0.0757 -0.0410
  154DOPC  H15R18494   5.984   5.890   7.119 -0.2921 -2.4202  0.8215
  154DOPC  H15S18495   5.925   5.950   6.956 -1.9174  0.3793  0.9284
  154DOPC  C21618496   6.071   5.797   6.948  0.5641  0.3149 -0.3890
  154DOPC  H16R18497   6.026   5.751   6.857  0.1239  0.0653 -0.0481
  154DOPC  H16S18498   6.126   5.723   7.010 -0.9217  0.4783  1.1978
  154DOPC  C21718499   6.174   5.896   6.900  0.3046 -0.4762 -0.4235
  154DOPC  H17R18500   6.201   5.968   6.980  1.8876 -0.9234 -0.5268
  154DOPC  H17S18501   6.119   5.955   6.824 -0.5866 -0.0198  0.5465
  154DOPC  C21818502   6.291   5.827   6.840  1.3216  0.0611 -0.3510
  154DOPC  H18R18503   6.373   5.902   6.834 -1.6890  3.5707 -1.0920
  154DOPC  H18S18504   6.266   5.784   6.741 -0.8776 -1.6090  0.8532
  154DOPC  H18T18505   6.330   5.739   6.895  1.1167 -0.7139 -1.4078
  154DOPC   C3318506   6.301   5.420   8.081 -0.0450  0.2362 -0.2002
  154DOPC   H3X18507   6.412   5.419   8.093 -0.1693  2.5712  1.8573
  154DOPC   H3Y18508   6.272   5.526   8.096 -1.3139  0.0926 -1.4123
  154DOPC   C3418509   6.259   5.390   7.939  0.3734  0.3744  0.4567
  154DOPC   H4X18510   6.150   5.408   7.950  0.2980 -0.6234  1.6002
  154DOPC   H4Y18511   6.284   5.286   7.908 -1.3393  0.6328 -2.0851
  154DOPC   C3518512   6.328   5.487   7.839 -0.3376 -0.4921  0.0114
  154DOPC   H5X18513   6.438   5.500   7.851 -0.0468 -0.6149 -2.1765
  154DOPC   H5Y18514   6.270   5.580   7.853  0.6548  0.1991 -0.3447
  154DOPC   C3618515   6.309   5.440   7.690 -0.2887  0.1657  0.0437
  154DOPC   H6X18516   6.372   5.350   7.682  1.2248  1.1016  0.8600
  154DOPC   H6Y18517   6.200   5.422   7.677 -0.0799  0.1827 -1.9011
  154DOPC   C3718518   6.359   5.547   7.590 -0.1410  0.9546 -0.2012
  154DOPC   H7X18519   6.350   5.646   7.639 -1.3663  0.5675  0.3901
  154DOPC   H7Y18520   6.467   5.531   7.570 -0.8116 -3.0577 -1.4728
  154DOPC   C3818521   6.289   5.551   7.453  0.2301 -0.5493 -0.7315
  154DOPC   H8X18522   6.185   5.587   7.469  0.9185  1.4687 -0.5347
  154DOPC   H8Y18523   6.275   5.448   7.414  0.5205 -0.1529 -1.9351
  154DOPC   C3918524   6.351   5.641   7.347  0.1931 -0.5439  0.1564
  154DOPC   H9X18525   6.413   5.724   7.384  1.6000 -0.9829 -1.0624
  154DOPC  C31018526   6.351   5.603   7.217  0.1457  0.4386 -0.1622
  154DOPC  H10X18527   6.404   5.656   7.136  0.3672 -2.3247 -1.9578
  154DOPC  C31118528   6.287   5.473   7.158  1.1022  0.0361 -0.8673
  154DOPC  H11X18529   6.187   5.496   7.115  0.5801  1.4070  0.9528
  154DOPC  H11Y18530   6.257   5.398   7.234 -0.3025  1.5857  0.1949
  154DOPC  C31218531   6.369   5.398   7.053 -0.3033 -0.0858  0.1475
  154DOPC  H12X18532   6.334   5.294   7.039 -1.3334 -0.0959  2.2574
  154DOPC  H12Y18533   6.474   5.385   7.085  0.4161  2.9074 -0.6472
  154DOPC  C31318534   6.363   5.470   6.920  0.5738 -0.4134  0.5898
  154DOPC  H13X18535   6.263   5.517   6.912 -0.2959 -2.5091 -2.9974
  154DOPC  H13Y18536   6.436   5.553   6.928  1.3069 -0.8376 -1.3226
  154DOPC  C31418537   6.390   5.384   6.798 -0.0084 -0.1244  0.4733
  154DOPC  H14X18538   6.488   5.336   6.816  0.4033  0.3789 -0.3665
  154DOPC  H14Y18539   6.328   5.293   6.783 -0.9876  0.5487  0.2975
  154DOPC  C31518540   6.395   5.467   6.672 -0.3532  0.2814 -0.4553
  154DOPC  H15X18541   6.477   5.540   6.687  0.4028 -0.7624  0.6412
  154DOPC  H15Y18542   6.294   5.511   6.654 -0.9849 -1.1427 -0.5606
  154DOPC  C31618543   6.436   5.388   6.545  0.0283 -0.1392 -0.6166
  154DOPC  H16X18544   6.356   5.316   6.517 -0.9872  0.8292 -0.2633
  154DOPC  H16Y18545   6.439   5.447   6.451 -2.2371 -0.4714 -0.9684
  154DOPC  C31718546   6.564   5.317   6.548  0.3689 -0.0318  0.3112
  154DOPC  H17X18547   6.641   5.397   6.548 -0.3169  0.6722 -1.6641
  154DOPC  H17Y18548   6.578   5.260   6.643  0.9119  1.8414  1.4211
  154DOPC  C31818549   6.582   5.222   6.427 -0.4368 -0.1858  0.1344
  154DOPC  H18X18550   6.689   5.191   6.418  0.1796  2.1314 -1.6209
  154DOPC  H18Y18551   6.509   5.140   6.439 -0.7291  0.1839  1.0027
  154DOPC  H18Z18552   6.549   5.272   6.334 -3.6374 -3.3655 -0.6462
  155DOPC     N18553   1.529   3.456   9.539  0.0403 -0.0757  0.1184
  155DOPC   C1218554   1.538   3.467   9.387 -0.0607  0.2664 -0.1672
  155DOPC  H12A18555   1.535   3.366   9.349 -2.5087 -0.3740  1.5387
  155DOPC  H12B18556   1.633   3.516   9.368 -0.4191  0.4558 -1.5453
  155DOPC   C1318557   1.555   3.581   9.610  0.0114 -0.4153 -0.8764
  155DOPC  H13A18558   1.492   3.665   9.585 -0.9259 -0.5829  0.7850
  155DOPC  H13B18559   1.548   3.580   9.718  1.5920  0.1886 -0.7399
  155DOPC  H13C18560   1.651   3.622   9.584  0.9854 -1.8771  0.2860
  155DOPC   C1418561   1.628   3.347   9.573 -0.3124 -0.3868  0.3305
  155DOPC  H14A18562   1.722   3.358   9.522 -1.5394  1.1244 -1.8064
  155DOPC  H14B18563   1.649   3.339   9.679  3.2112  1.1313 -0.1424
  155DOPC  H14C18564   1.593   3.246   9.557  0.3644 -0.9597  2.1952
  155DOPC   C1518565   1.399   3.413   9.594  0.5776  0.4259  0.1662
  155DOPC  H15A18566   1.400   3.419   9.702  0.4211 -0.2988  0.2162
  155DOPC  H15B18567   1.364   3.312   9.578  2.4907 -0.6431  2.0892
  155DOPC  H15C18568   1.321   3.471   9.549 -0.6682 -1.1631  0.1896
  155DOPC   C1118569   1.431   3.552   9.313  0.8949  0.1670  0.1709
  155DOPC  H11A18570   1.448   3.557   9.203  4.0197 -3.8121  0.2564
  155DOPC  H11B18571   1.338   3.490   9.313  0.8525  0.2165 -0.4293
  155DOPC     P18572   1.512   3.793   9.345 -0.0828 -0.1977  0.0448
  155DOPC   O1318573   1.639   3.740   9.296 -0.5285  0.0329 -0.1781
  155DOPC   O1418574   1.509   3.880   9.461 -0.5462  0.0231 -0.0695
  155DOPC   O1218575   1.409   3.675   9.382 -0.3793  0.0150 -0.7082
  155DOPC   O1118576   1.447   3.876   9.233 -0.1963  0.6363  0.2376
  155DOPC    C118577   1.310   3.870   9.199  0.2830 -0.0344 -0.0072
  155DOPC    HA18578   1.272   3.968   9.236  1.2103  0.0961  0.6508
  155DOPC    HB18579   1.259   3.801   9.270  2.3706 -0.6496  0.9927
  155DOPC    C218580   1.276   3.841   9.055  0.8027  0.2661 -0.2525
  155DOPC    HS18581   1.171   3.865   9.029  0.4016  0.1343  1.1872
  155DOPC   O2118582   1.301   3.703   9.022 -0.0468  0.1148 -0.3371
  155DOPC   C2118583   1.198   3.623   9.044 -0.0272  0.2269 -0.1675
  155DOPC   O2218584   1.097   3.657   9.102 -0.0510 -0.1465 -0.4190
  155DOPC   C2218585   1.237   3.495   8.977 -0.0863  1.1595  0.3518
  155DOPC   H2R18586   1.190   3.414   9.037 -0.9735  1.1176 -0.3824
  155DOPC   H2S18587   1.346   3.476   8.981 -0.3844 -0.5820  1.1080
  155DOPC    C318588   1.360   3.932   8.964 -0.6506  0.2203 -0.0531
  155DOPC    HX18589   1.463   3.899   8.991  0.1793  1.2312 -1.8052
  155DOPC    HY18590   1.347   4.036   9.000  0.2144  0.1079  0.6392
  155DOPC   O3118591   1.321   3.912   8.820  0.2566 -0.3196  0.0521
  155DOPC   C3118592   1.407   3.845   8.745  0.6412 -0.1778 -0.2407
  155DOPC   O3218593   1.501   3.777   8.784 -0.0078 -0.0103  0.5635
  155DOPC   C3218594   1.368   3.857   8.596  0.3280 -0.0401 -0.4671
  155DOPC   H2X18595   1.260   3.831   8.587  0.4676 -1.3663  1.1119
  155DOPC   H2Y18596   1.390   3.962   8.565 -2.1199  1.2585  1.7069
  155DOPC   C2318597   1.184   3.503   8.834 -0.3802  0.5620  0.2178
  155DOPC   H3R18598   1.204   3.600   8.785  2.2089 -0.4049 -0.7889
  155DOPC   H3S18599   1.077   3.473   8.827  0.1855 -1.4185 -0.4908
  155DOPC   C2418600   1.267   3.403   8.750 -0.7663 -0.2923  0.0136
  155DOPC   H4R18601   1.246   3.300   8.788 -2.7132 -0.2909 -0.9429
  155DOPC   H4S18602   1.373   3.432   8.763 -0.7243 -0.0668 -0.7512
  155DOPC   C2518603   1.237   3.406   8.602  0.7104 -0.0767  0.1672
  155DOPC   H5R18604   1.252   3.511   8.571  1.1626 -0.0475  0.4765
  155DOPC   H5S18605   1.133   3.374   8.579 -0.1144  2.1678  0.5843
  155DOPC   C2618606   1.327   3.313   8.525  0.8531  0.7759 -0.0865
  155DOPC   H6R18607   1.426   3.302   8.573  0.4272 -3.4556  0.1720
  155DOPC   H6S18608   1.341   3.347   8.420 -0.8427  1.0351 -0.2581
  155DOPC   C2718609   1.288   3.164   8.516  0.2678  0.3629  0.2815
  155DOPC   H7R18610   1.186   3.158   8.474  0.9748  0.7619 -1.5947
  155DOPC   H7S18611   1.286   3.120   8.618 -3.4156  0.0235  0.1756
  155DOPC   C2818612   1.387   3.084   8.442 -0.5562 -0.1060 -0.1033
  155DOPC   H8R18613   1.482   3.075   8.497 -0.2604  0.3433 -0.5240
  155DOPC   H8S18614   1.417   3.129   8.345 -1.4794  0.0993 -0.3076
  155DOPC   C2918615   1.319   2.949   8.425  0.3979 -0.3703  0.0222
  155DOPC   H9R18616   1.351   2.872   8.497 -0.9623  0.1477  1.2283
  155DOPC  C21018617   1.221   2.916   8.334  0.0368  0.9608 -0.1356
  155DOPC  H10R18618   1.177   2.816   8.331  1.9724  0.0497 -3.6208
  155DOPC  C21118619   1.155   3.015   8.241 -0.3753  0.2684 -0.1429
  155DOPC  H11R18620   1.202   3.115   8.253  4.4084 -1.8583  1.1482
  155DOPC  H11S18621   1.049   3.017   8.273 -0.3823  0.3562 -0.1733
  155DOPC  C21218622   1.169   2.977   8.092  0.1560  0.4867  0.6199
  155DOPC  H12R18623   1.139   2.870   8.087  1.8269 -0.1175  2.3645
  155DOPC  H12S18624   1.277   2.979   8.064  0.2271  1.3885  0.9278
  155DOPC  C21318625   1.105   3.068   7.989 -0.2423 -0.1437 -0.2359
  155DOPC  H13R18626   1.147   3.167   8.016 -1.0785 -0.1907  1.3335
  155DOPC  H13S18627   0.996   3.075   8.004 -0.8424 -0.3910 -3.5891
  155DOPC  C21418628   1.134   3.020   7.846 -0.1332  0.3913 -0.2411
  155DOPC  H14R18629   1.072   2.932   7.818 -0.6680  0.6235  0.2012
  155DOPC  H14S18630   1.236   2.977   7.843 -0.1784  0.2986 -0.4859
  155DOPC  C21518631   1.100   3.119   7.737 -0.5679  0.9005 -0.2476
  155DOPC  H15R18632   1.156   3.214   7.749  2.9107 -0.8244 -1.4107
  155DOPC  H15S18633   0.992   3.143   7.752 -1.1007 -1.6158  0.5995
  155DOPC  C21618634   1.128   3.055   7.605 -0.3914  0.1847 -0.3882
  155DOPC  H16R18635   1.097   2.949   7.615  1.3718 -0.2887  0.5925
  155DOPC  H16S18636   1.238   3.064   7.591  0.3710 -0.2618  3.8512
  155DOPC  C21718637   1.057   3.122   7.490 -0.0689  0.1492  0.3590
  155DOPC  H17R18638   0.948   3.133   7.512 -0.6993 -2.0976 -1.2963
  155DOPC  H17S18639   1.071   3.056   7.402  1.2937  0.2243  0.5069
  155DOPC  C21818640   1.121   3.256   7.433  0.6179 -0.0760 -0.4788
  155DOPC  H18R18641   1.119   3.333   7.512  0.4935 -0.4123 -0.1494
  155DOPC  H18S18642   1.063   3.302   7.351  0.2001 -1.2088 -0.8402
  155DOPC  H18T18643   1.222   3.234   7.392  0.1820 -1.5332 -0.8268
  155DOPC   C3318644   1.454   3.765   8.501 -0.4182 -0.2245  0.2580
  155DOPC   H3X18645   1.438   3.659   8.532  0.4562 -0.0787  1.2633
  155DOPC   H3Y18646   1.559   3.786   8.531 -0.0155 -1.7034 -0.0046
  155DOPC   C3418647   1.432   3.790   8.348  0.6100 -0.0884 -0.0782
  155DOPC   H4X18648   1.334   3.742   8.328 -0.4776  1.2760  1.7054
  155DOPC   H4Y18649   1.512   3.743   8.287  0.3094 -0.8232  0.0834
  155DOPC   C3518650   1.426   3.936   8.307 -0.6410  0.0517 -0.1036
  155DOPC   H5X18651   1.333   3.985   8.344  0.2471  3.9203 -2.4231
  155DOPC   H5Y18652   1.411   3.939   8.197  0.4706  1.0079 -0.2448
  155DOPC   C3618653   1.551   4.007   8.341 -0.0286  0.4094  0.1776
  155DOPC   H6X18654   1.557   4.039   8.447 -0.7283 -1.5517  0.8562
  155DOPC   H6Y18655   1.630   3.929   8.344 -3.6002 -3.5598  0.7499
  155DOPC   C3718656   1.596   4.122   8.258  0.0652  0.9247  0.4430
  155DOPC   H7X18657   1.620   4.092   8.154 -1.4465  1.4162 -0.0711
  155DOPC   H7Y18658   1.505   4.183   8.238 -1.3755 -1.6848 -1.7440
  155DOPC   C3818659   1.711   4.206   8.311  0.0547 -0.0009  0.2873
  155DOPC   H8X18660   1.797   4.140   8.336  1.8830  2.9645  2.5554
  155DOPC   H8Y18661   1.685   4.244   8.412  0.0837 -1.8199  1.0182
  155DOPC   C3918662   1.759   4.322   8.222 -0.4671  0.9714 -1.0737
  155DOPC   H9X18663   1.684   4.401   8.210 -2.1772 -0.2113  1.0708
  155DOPC  C31018664   1.881   4.334   8.162 -0.1102  1.1069  0.2167
  155DOPC  H10X18665   1.903   4.422   8.099  0.2077  0.9443  0.0969
  155DOPC  C31118666   1.986   4.225   8.155  0.2180 -0.5040 -0.8035
  155DOPC  H11X18667   1.940   4.135   8.108  2.2895 -1.5247 -0.9742
  155DOPC  H11Y18668   2.033   4.192   8.250  3.2482  0.1873 -1.9284
  155DOPC  C31218669   2.096   4.282   8.062  0.4734  0.0777  0.0987
  155DOPC  H12X18670   2.182   4.212   8.065  1.7690  1.2749 -3.5398
  155DOPC  H12Y18671   2.144   4.374   8.102  0.8875 -1.0025  2.2343
  155DOPC  C31318672   2.049   4.289   7.916  1.1307  0.0648 -1.2342
  155DOPC  H13X18673   1.998   4.192   7.898 -0.9775  0.6691  0.8836
  155DOPC  H13Y18674   1.958   4.349   7.895 -0.3599 -1.3695  0.7621
  155DOPC  C31418675   2.167   4.321   7.826  0.5617  0.1011  0.8289
  155DOPC  H14X18676   2.221   4.415   7.851  1.8915 -0.4526  0.1892
  155DOPC  H14Y18677   2.242   4.240   7.838  2.1484  1.3321 -0.2983
  155DOPC  C31518678   2.131   4.322   7.680  0.2007  0.0797 -0.1280
  155DOPC  H15X18679   2.215   4.349   7.613 -1.5027  0.8378 -2.0680
  155DOPC  H15Y18680   2.052   4.396   7.658  0.9836  0.4543 -1.7829
  155DOPC  C31618681   2.094   4.185   7.627  0.0152  0.1296  0.0383
  155DOPC  H16X18682   2.171   4.105   7.634 -1.0107 -0.8292  0.5664
  155DOPC  H16Y18683   2.015   4.134   7.685  0.3348 -0.7223 -0.2555
  155DOPC  C31718684   2.037   4.192   7.483  0.1533  0.0477 -0.1927
  155DOPC  H17X18685   1.946   4.256   7.483  0.8037  1.0118 -1.5912
  155DOPC  H17Y18686   2.105   4.231   7.405  0.8628 -1.3130 -0.2899
  155DOPC  C31818687   1.976   4.057   7.435  0.0427  0.3180  0.3808
  155DOPC  H18X18688   2.053   3.978   7.423 -1.8282 -1.7891  1.5890
  155DOPC  H18Y18689   1.901   4.031   7.512  0.9645  2.4918  2.1287
  155DOPC  H18Z18690   1.922   4.062   7.337 -0.8634 -3.0383  0.5878
  156DOPC     N18691   5.391   0.008   9.022 -0.1958  0.1547 -0.4515
  156DOPC   C1218692   5.304  -0.059   8.913  0.3195 -0.1327 -0.4243
  156DOPC  H12A18693   5.329  -0.011   8.820  1.7278  0.7137  0.3601
  156DOPC  H12B18694   5.200  -0.041   8.938  0.4659  0.4218 -0.2210
  156DOPC   C1318695   5.538   0.016   8.974 -0.0947  0.3075  0.3569
  156DOPC  H13A18696   5.602   0.069   9.043 -1.0178  0.7076  0.9145
  156DOPC  H13B18697   5.572  -0.087   8.968  1.2799  0.7399  0.3395
  156DOPC  H13C18698   5.546   0.050   8.872  1.3067 -0.2135  0.2691
  156DOPC   C1418699   5.395  -0.062   9.155  0.0460  0.1322 -0.0126
  156DOPC  H14A18700   5.477  -0.025   9.214  1.9089 -3.6196  0.0598
  156DOPC  H14B18701   5.299  -0.044   9.203 -0.2056  1.9973 -1.1332
  156DOPC  H14C18702   5.419  -0.167   9.148 -0.0532  0.1211 -0.1942
  156DOPC   C1518703   5.328   0.141   9.050 -0.3210 -0.2116  0.3262
  156DOPC  H15A18704   5.322   0.207   8.964 -2.3366  2.2282  2.1912
  156DOPC  H15B18705   5.388   0.180   9.131 -0.1052  0.2709 -0.0568
  156DOPC  H15C18706   5.229   0.133   9.091 -0.7915 -0.4805 -0.8268
  156DOPC   C1118707   5.313  -0.212   8.886 -0.3959 -0.0154  0.3452
  156DOPC  H11A18708   5.308  -0.277   8.976  1.2086  0.1285  0.5813
  156DOPC  H11B18709   5.226  -0.242   8.824  0.0867 -0.8549  0.0579
  156DOPC     P18710   5.450  -0.211   8.655  0.3030  0.0677 -0.2101
  156DOPC   O1318711   5.593  -0.217   8.621 -0.0441  0.2900 -0.8152
  156DOPC   O1418712   5.374  -0.097   8.606 -0.1126 -0.2852 -0.0547
  156DOPC   O1218713   5.436  -0.228   8.810  0.4479 -0.6090 -0.1692
  156DOPC   O1118714   5.379  -0.347   8.605  0.3973 -0.3610 -0.6322
  156DOPC    C118715   5.238  -0.349   8.575 -0.1555  0.1556  0.4359
  156DOPC    HA18716   5.174  -0.261   8.597 -0.8571 -0.0167 -0.7852
  156DOPC    HB18717   5.192  -0.424   8.643 -1.0164 -0.0529 -0.3470
  156DOPC    C218718   5.204  -0.378   8.425 -0.7295  0.5569 -0.5751
  156DOPC    HS18719   5.094  -0.362   8.412 -0.8104  0.4543 -0.0479
  156DOPC   O2118720   5.240  -0.508   8.380  0.2410  0.1448 -0.0748
  156DOPC   C2118721   5.147  -0.576   8.316  0.6053 -0.2513  0.9945
  156DOPC   O2218722   5.026  -0.552   8.315 -0.5732  0.2431  0.1134
  156DOPC   C2218723   5.219  -0.663   8.204 -0.2853 -0.5413 -0.4655
  156DOPC   H2R18724   5.296  -0.720   8.260  1.0965  1.2685 -0.4422
  156DOPC   H2S18725   5.281  -0.596   8.141  1.9156 -1.7451  0.3284
  156DOPC    C318726   5.261  -0.271   8.326 -0.1655  0.5396 -0.3890
  156DOPC    HX18727   5.364  -0.248   8.358  0.2951  0.0041 -1.4368
  156DOPC    HY18728   5.201  -0.179   8.342 -0.1350  0.6991 -1.1481
  156DOPC   O3118729   5.264  -0.302   8.186  1.0190  0.1385  0.1109
  156DOPC   C3118730   5.148  -0.277   8.128  0.5307  0.0518 -0.4896
  156DOPC   O3218731   5.038  -0.242   8.176 -0.0658  0.2512 -0.4506
  156DOPC   C3218732   5.173  -0.288   7.974  0.2890  0.3679 -0.1594
  156DOPC   H2X18733   5.217  -0.190   7.946  0.8539  0.7818  1.9958
  156DOPC   H2Y18734   5.245  -0.368   7.947  0.2666  0.3084 -0.0430
  156DOPC   C2318735   5.132  -0.757   8.122  0.2408 -0.0436 -0.2093
  156DOPC   H3R18736   5.064  -0.817   8.186  0.8530 -1.0309 -0.4562
  156DOPC   H3S18737   5.200  -0.827   8.068  1.3627  1.3465 -0.6821
  156DOPC   C2418738   5.058  -0.688   8.010  0.2947 -0.3088  0.0402
  156DOPC   H4R18739   5.119  -0.627   7.941 -0.1941 -0.2146 -0.3140
  156DOPC   H4S18740   4.979  -0.625   8.057  0.9772  2.5663 -2.4056
  156DOPC   C2518741   4.984  -0.791   7.924 -0.4198 -0.5190  0.5361
  156DOPC   H5R18742   4.917  -0.855   7.985 -1.6004  0.2140  0.0457
  156DOPC   H5S18743   5.066  -0.853   7.881 -1.2631 -1.6727  0.5467
  156DOPC   C2618744   4.908  -0.730   7.804  0.5066  0.2889  0.4967
  156DOPC   H6R18745   4.901  -0.814   7.732  2.3406  1.0280 -0.6110
  156DOPC   H6S18746   4.969  -0.653   7.753  0.6188  0.6702  1.1841
  156DOPC   C2718747   4.772  -0.684   7.849 -0.4132  0.1819  0.8464
  156DOPC   H7R18748   4.790  -0.603   7.923  2.5390 -0.0243  0.4668
  156DOPC   H7S18749   4.718  -0.762   7.906  1.1380 -1.4263  0.2059
  156DOPC   C2818750   4.673  -0.631   7.744 -0.4863  0.4362 -0.4981
  156DOPC   H8R18751   4.713  -0.531   7.716 -0.1146  0.5996  0.5491
  156DOPC   H8S18752   4.576  -0.613   7.796  0.2550  1.2140  0.6793
  156DOPC   C2918753   4.651  -0.725   7.631 -0.4678  0.0863 -0.2129
  156DOPC   H9R18754   4.647  -0.832   7.656 -0.3924 -0.1347 -1.1091
  156DOPC  C21018755   4.675  -0.701   7.504 -0.2886  0.5937  0.2972
  156DOPC  H10R18756   4.657  -0.782   7.432 -0.3580 -2.8576  3.8389
  156DOPC  C21118757   4.706  -0.566   7.446  0.2582  0.0106 -0.4735
  156DOPC  H11R18758   4.815  -0.549   7.435  0.3480  0.8922  1.3150
  156DOPC  H11S18759   4.677  -0.483   7.515 -0.9481  0.0874 -1.0373
  156DOPC  C21218760   4.621  -0.530   7.318 -0.0263 -0.6922 -0.4274
  156DOPC  H12R18761   4.646  -0.423   7.301  0.9856 -1.0615 -1.3826
  156DOPC  H12S18762   4.511  -0.547   7.317 -0.3190  1.0379 -1.1952
  156DOPC  C21318763   4.676  -0.613   7.202 -0.0788 -0.4272 -0.1278
  156DOPC  H13R18764   4.644  -0.719   7.207 -0.5780 -0.2692  0.0480
  156DOPC  H13S18765   4.786  -0.625   7.215 -0.0577 -0.1169 -0.0202
  156DOPC  C21418766   4.659  -0.544   7.068 -0.1183  0.1982 -0.6218
  156DOPC  H14R18767   4.698  -0.440   7.071  0.7312 -0.1357  1.1324
  156DOPC  H14S18768   4.551  -0.529   7.046 -0.2666 -3.1834 -2.8416
  156DOPC  C21518769   4.719  -0.628   6.957  0.2723 -0.2614 -0.4194
  156DOPC  H15R18770   4.666  -0.725   6.964  0.7738 -0.6548 -1.8027
  156DOPC  H15S18771   4.822  -0.656   6.990  2.0838  0.1279 -5.0196
  156DOPC  C21618772   4.713  -0.563   6.818 -0.1002  0.0724 -0.3823
  156DOPC  H16R18773   4.785  -0.616   6.752  0.2603  0.2708 -0.1495
  156DOPC  H16S18774   4.751  -0.459   6.821 -0.2267  0.1027  0.3922
  156DOPC  C21718775   4.572  -0.562   6.754 -0.1732  0.3376  0.3507
  156DOPC  H17R18776   4.505  -0.506   6.822 -0.8039  0.0785 -0.0581
  156DOPC  H17S18777   4.535  -0.666   6.738  2.9258 -0.8958  0.3215
  156DOPC  C21818778   4.570  -0.500   6.613 -0.1418 -0.2944 -0.5167
  156DOPC  H18R18779   4.635  -0.556   6.542  0.7399  0.8105 -0.6076
  156DOPC  H18S18780   4.606  -0.395   6.623 -4.5046  1.2443  1.5644
  156DOPC  H18T18781   4.464  -0.486   6.584 -0.5935  1.0789  1.5813
  156DOPC   C3318782   5.039  -0.317   7.894 -0.0454  0.3523 -0.0265
  156DOPC   H3X18783   4.969  -0.232   7.908 -1.4711 -0.4632 -1.7342
  156DOPC   H3Y18784   5.011  -0.420   7.923 -0.6737  0.3556 -0.5964
  156DOPC   C3418785   5.064  -0.320   7.745 -0.4531  0.2097  0.1877
  156DOPC   H4X18786   4.968  -0.356   7.704 -0.9586 -2.2262  3.1075
  156DOPC   H4Y18787   5.134  -0.402   7.718 -0.4730  1.0656 -2.7964
  156DOPC   C3518788   5.095  -0.188   7.677  0.1830  0.1924 -0.1728
  156DOPC   H5X18789   5.192  -0.149   7.715 -0.6200  0.8396  1.2644
  156DOPC   H5Y18790   5.016  -0.114   7.703 -1.3482 -0.3084 -3.0129
  156DOPC   C3618791   5.099  -0.197   7.525  0.4688 -0.4734 -0.0492
  156DOPC   H6X18792   5.150  -0.105   7.490  1.4515 -1.7163 -2.0292
  156DOPC   H6Y18793   5.158  -0.285   7.492 -0.6821 -1.9854  1.6988
  156DOPC   C3718794   4.956  -0.198   7.456 -0.9163  0.2579 -0.8274
  156DOPC   H7X18795   4.909  -0.297   7.475  1.1601 -0.4289  1.0420
  156DOPC   H7Y18796   4.888  -0.116   7.490 -2.4296 -0.0437 -2.9262
  156DOPC   C3818797   4.971  -0.180   7.309  0.1915 -0.0689 -0.0826
  156DOPC   H8X18798   5.011  -0.078   7.293  1.1091 -0.3786  0.1824
  156DOPC   H8Y18799   4.870  -0.177   7.261 -0.4596 -0.5936  1.2013
  156DOPC   C3918800   5.048  -0.282   7.233 -0.2858  0.6274  0.5327
  156DOPC   H9X18801   5.061  -0.381   7.280 -1.3088 -0.5634 -1.5505
  156DOPC  C31018802   5.101  -0.272   7.112 -0.0575 -0.1051  0.6581
  156DOPC  H10X18803   5.137  -0.360   7.058  4.6105  0.5936  2.2043
  156DOPC  C31118804   5.065  -0.145   7.030 -0.8771  0.1343  0.3186
  156DOPC  H11X18805   5.155  -0.083   7.012 -0.7968 -0.1099 -0.1487
  156DOPC  H11Y18806   5.002  -0.067   7.077 -0.5145 -0.6231  2.1453
  156DOPC  C31218807   5.009  -0.173   6.891 -0.0409 -0.2991  0.5309
  156DOPC  H12X18808   4.983  -0.072   6.853 -2.6042 -0.2121  2.2843
  156DOPC  H12Y18809   4.916  -0.234   6.883 -0.4628  0.4788 -0.9430
  156DOPC  C31318810   5.105  -0.250   6.795  0.5487  0.2549 -0.1526
  156DOPC  H13X18811   5.197  -0.191   6.774  1.8799 -1.5680  0.3042
  156DOPC  H13Y18812   5.144  -0.347   6.834 -2.6900 -1.6565 -1.2311
  156DOPC  C31418813   5.033  -0.278   6.662 -0.6429 -0.2207 -0.1613
  156DOPC  H14X18814   4.964  -0.365   6.669  0.6487 -1.3944 -1.3763
  156DOPC  H14Y18815   4.975  -0.188   6.631  0.7147  0.5646 -0.5037
  156DOPC  C31518816   5.122  -0.313   6.543  0.3045  0.1273  0.3607
  156DOPC  H15X18817   5.193  -0.390   6.581 -0.1413  0.1986  1.3511
  156DOPC  H15Y18818   5.170  -0.224   6.498 -1.8995 -0.3722 -3.4362
  156DOPC  C31618819   5.048  -0.374   6.418 -0.1221  0.1027  0.1257
  156DOPC  H16X18820   5.123  -0.418   6.349 -2.3204 -1.6317 -1.2833
  156DOPC  H16Y18821   4.973  -0.450   6.449  1.9297 -1.3998  1.6796
  156DOPC  C31718822   4.979  -0.275   6.320 -0.3147  0.2344  0.7296
  156DOPC  H17X18823   4.939  -0.338   6.238  2.0078  0.7899 -0.9401
  156DOPC  H17Y18824   4.892  -0.224   6.365 -0.8631 -0.0587  0.0065
  156DOPC  C31818825   5.070  -0.166   6.259  0.2713  0.2382 -0.0637
  156DOPC  H18X18826   5.022  -0.126   6.167 -1.2160 -4.1027 -1.4165
  156DOPC  H18Y18827   5.086  -0.088   6.337 -4.0094  0.7195  0.5756
  156DOPC  H18Z18828   5.171  -0.209   6.242  0.3260  0.0106  0.7580
  157DOPC     N18829   5.327   2.237   8.995 -0.6268 -0.2952  0.1056
  157DOPC   C1218830   5.281   2.099   9.015  0.8770 -0.3552 -0.7119
  157DOPC  H12A18831   5.344   2.037   8.952 -0.2338 -3.1164  0.7149
  157DOPC  H12B18832   5.180   2.087   8.978  1.4555 -0.5972 -2.3293
  157DOPC   C1318833   5.480   2.248   9.013  0.3109 -0.2253 -0.4784
  157DOPC  H13A18834   5.539   2.202   8.935  0.4323 -2.9621  1.1030
  157DOPC  H13B18835   5.514   2.350   9.025 -3.1206  0.8782  1.2369
  157DOPC  H13C18836   5.508   2.205   9.108  1.9780  1.3558 -0.1948
  157DOPC   C1418837   5.266   2.328   9.098  0.1339 -0.5412  0.1340
  157DOPC  H14A18838   5.287   2.299   9.200  0.7452  0.1363  0.2046
  157DOPC  H14B18839   5.281   2.434   9.084 -0.2892 -0.6476 -1.3078
  157DOPC  H14C18840   5.159   2.312   9.087 -0.1309  0.3047  1.3400
  157DOPC   C1518841   5.296   2.273   8.849  0.8510  1.0810 -0.2481
  157DOPC  H15A18842   5.190   2.290   8.831  0.2235 -0.9473  1.1407
  157DOPC  H15B18843   5.329   2.190   8.788  0.7838  0.3832  0.6398
  157DOPC  H15C18844   5.337   2.370   8.828 -0.5360  2.6347  3.2812
  157DOPC   C1118845   5.298   2.034   9.161  0.3597  0.7629  0.5573
  157DOPC  H11A18846   5.239   2.105   9.224 -0.2077  2.0069 -1.2918
  157DOPC  H11B18847   5.245   1.937   9.163  0.2761  0.8159  1.0509
  157DOPC     P18848   5.542   1.937   9.120 -0.0832 -0.7047 -0.0402
  157DOPC   O1318849   5.531   1.800   9.174 -0.7862 -0.8878 -0.9237
  157DOPC   O1418850   5.670   2.010   9.136 -0.1263  0.5106  0.3479
  157DOPC   O1218851   5.433   2.020   9.199 -0.0500 -0.5591  0.1143
  157DOPC   O1118852   5.495   1.943   8.965 -0.4544 -0.7302 -0.7039
  157DOPC    C118853   5.568   1.858   8.874  0.3201 -0.1042 -0.2889
  157DOPC    HA18854   5.533   1.753   8.876  2.3695 -0.8301  1.8782
  157DOPC    HB18855   5.675   1.849   8.901 -0.1407 -0.3852  1.6207
  157DOPC    C218856   5.552   1.911   8.723 -0.0047 -0.3909  0.5516
  157DOPC    HS18857   5.621   1.850   8.660  1.5274  1.0143  0.8061
  157DOPC   O2118858   5.585   2.050   8.723 -0.1687  0.5166  0.1372
  157DOPC   C2118859   5.711   2.081   8.729  0.0842 -0.5696  0.4841
  157DOPC   O2218860   5.807   2.005   8.734  0.4194  0.4160 -0.1677
  157DOPC   C2218861   5.724   2.241   8.741 -1.2048 -0.3157 -0.5656
  157DOPC   H2R18862   5.822   2.258   8.791 -1.4637  0.6702 -0.3843
  157DOPC   H2S18863   5.657   2.276   8.823  0.6171  0.9484  0.4702
  157DOPC    C318864   5.409   1.893   8.676 -0.8895  0.3388  0.4549
  157DOPC    HX18865   5.336   1.951   8.737 -0.4615  4.2688 -2.3628
  157DOPC    HY18866   5.382   1.787   8.694 -0.4841  0.6912  3.7883
  157DOPC   O3118867   5.403   1.933   8.540  0.7072 -0.6165  0.3648
  157DOPC   C3118868   5.386   2.067   8.514 -0.0758  0.0196 -0.3109
  157DOPC   O3218869   5.346   2.146   8.597  0.0257  0.3085 -0.2311
  157DOPC   C3218870   5.431   2.099   8.373  0.2157  0.1492 -0.4105
  157DOPC   H2X18871   5.403   2.204   8.349 -2.1973 -0.0928  1.0772
  157DOPC   H2Y18872   5.541   2.087   8.372 -0.0574 -3.1496 -0.7178
  157DOPC   C2318873   5.692   2.300   8.609  0.1826  0.2611 -0.2199
  157DOPC   H3R18874   5.589   2.275   8.578  0.4708 -2.0901  0.4998
  157DOPC   H3S18875   5.764   2.257   8.535 -0.5513  0.3197 -0.9815
  157DOPC   C2418876   5.715   2.450   8.608  0.2634  0.2736 -0.4619
  157DOPC   H4R18877   5.823   2.470   8.627 -0.0463  0.8727  0.8627
  157DOPC   H4S18878   5.670   2.488   8.703 -0.0555 -0.7357 -0.1957
  157DOPC   C2518879   5.672   2.515   8.471 -0.3482 -0.8752  0.3417
  157DOPC   H5R18880   5.677   2.625   8.484 -2.0166 -0.7079 -0.2552
  157DOPC   H5S18881   5.566   2.487   8.455  0.1989 -1.4290 -3.1752
  157DOPC   C2618882   5.757   2.472   8.355  1.2132 -0.5427 -0.6527
  157DOPC   H6R18883   5.738   2.363   8.339  1.8416 -0.7349 -0.1089
  157DOPC   H6S18884   5.866   2.481   8.375  1.1554 -2.7912  1.0572
  157DOPC   C2718885   5.729   2.558   8.230  0.9730  0.6097 -0.2620
  157DOPC   H7R18886   5.808   2.535   8.156  1.7023  0.2415  0.6002
  157DOPC   H7S18887   5.737   2.661   8.269  1.1654  0.0757  1.1871
  157DOPC   C2818888   5.588   2.537   8.163  0.0508 -1.1062  0.0846
  157DOPC   H8R18889   5.564   2.628   8.105 -0.9724 -0.5247  1.3705
  157DOPC   H8S18890   5.516   2.534   8.248 -0.7274 -0.2586 -0.5288
  157DOPC   C2918891   5.583   2.411   8.088 -0.0609  0.1203  0.4751
  157DOPC   H9R18892   5.577   2.314   8.140  0.1072  1.4897  3.2572
  157DOPC  C21018893   5.595   2.408   7.958  0.4917  0.9156  0.6180
  157DOPC  H10R18894   5.581   2.311   7.908 -0.4262  0.4727  1.6980
  157DOPC  C21118895   5.599   2.531   7.873 -0.3971 -1.0075 -1.4914
  157DOPC  H11R18896   5.701   2.573   7.889 -0.8262 -0.5266  0.1145
  157DOPC  H11S18897   5.535   2.617   7.899  2.0015  0.3447  0.4314
  157DOPC  C21218898   5.596   2.506   7.726  0.5216  0.2531  0.1066
  157DOPC  H12R18899   5.493   2.466   7.713  0.4647 -0.0266  1.3406
  157DOPC  H12S18900   5.663   2.426   7.686 -0.6054 -1.2356  1.0837
  157DOPC  C21318901   5.603   2.633   7.643 -0.0726 -0.1336 -0.7661
  157DOPC  H13R18902   5.706   2.673   7.656 -0.7109  2.6290 -3.1047
  157DOPC  H13S18903   5.530   2.711   7.671  0.0423  0.8959 -3.0943
  157DOPC  C21418904   5.589   2.622   7.490 -0.0090  0.0557 -0.4349
  157DOPC  H14R18905   5.496   2.566   7.469  0.6423 -1.5023  0.6283
  157DOPC  H14S18906   5.675   2.559   7.459  2.2683  1.9606  1.5765
  157DOPC  C21518907   5.592   2.754   7.420  0.2267 -0.6204 -0.3484
  157DOPC  H15R18908   5.660   2.819   7.480 -1.6228 -0.1553  1.3594
  157DOPC  H15S18909   5.495   2.808   7.428  0.4760  0.0771 -1.7553
  157DOPC  C21618910   5.642   2.755   7.274  0.0320  0.4249  0.3203
  157DOPC  H16R18911   5.747   2.719   7.281  1.0176  2.7319 -1.2341
  157DOPC  H16S18912   5.642   2.861   7.239  1.4232 -0.1025 -1.4747
  157DOPC  C21718913   5.563   2.659   7.188  0.3638 -0.0698  1.3574
  157DOPC  H17R18914   5.459   2.697   7.175  0.2616 -0.7060  0.0683
  157DOPC  H17S18915   5.558   2.561   7.241 -1.3437  0.3417  2.0387
  157DOPC  C21818916   5.620   2.636   7.048  0.1441  0.0578 -0.0959
  157DOPC  H18R18917   5.620   2.723   6.979  1.3699  0.2130  0.0649
  157DOPC  H18S18918   5.585   2.551   6.986  0.1959  0.1350 -0.2310
  157DOPC  H18T18919   5.723   2.597   7.065 -0.0290 -0.1051  0.6541
  157DOPC   C3318920   5.376   2.001   8.267  0.0288 -0.2934 -0.2942
  157DOPC   H3X18921   5.270   1.977   8.289  0.2247 -2.9330 -1.8848
  157DOPC   H3Y18922   5.427   1.903   8.266  0.1338 -0.3493  2.4732
  157DOPC   C3418923   5.384   2.069   8.131 -0.1474  0.5628 -0.0423
  157DOPC   H4X18924   5.491   2.090   8.108  0.3847 -1.7693  0.1232
  157DOPC   H4Y18925   5.334   2.169   8.132  0.9432  1.1358  1.5798
  157DOPC   C3518926   5.327   1.972   8.026  0.5385  0.7129  0.1781
  157DOPC   H5X18927   5.221   1.958   8.056  0.8105 -0.6405  0.5581
  157DOPC   H5Y18928   5.362   1.867   8.035 -1.2210  0.1249  0.4852
  157DOPC   C3618929   5.313   2.025   7.885  0.9090  0.7289 -0.1357
  157DOPC   H6X18930   5.209   2.066   7.889 -0.4263 -2.3544 -0.4754
  157DOPC   H6Y18931   5.378   2.111   7.860  0.5780  0.8383 -0.6180
  157DOPC   C3718932   5.320   1.913   7.784 -0.6741 -0.1049 -0.4896
  157DOPC   H7X18933   5.425   1.878   7.772 -0.8759 -0.6754 -0.6058
  157DOPC   H7Y18934   5.264   1.820   7.805  0.7225 -0.8826 -0.0813
  157DOPC   C3818935   5.294   1.968   7.644  0.3272 -0.0360  0.1078
  157DOPC   H8X18936   5.209   2.041   7.648 -0.3454 -0.8324  0.7402
  157DOPC   H8Y18937   5.264   1.881   7.582  1.1499  0.3172 -0.7995
  157DOPC   C3918938   5.411   2.044   7.585 -0.6490  0.4301  0.8588
  157DOPC   H9X18939   5.465   2.117   7.648 -1.7958  2.2756 -0.1902
  157DOPC  C31018940   5.465   2.031   7.463 -0.4570  0.1350  0.1690
  157DOPC  H10X18941   5.540   2.107   7.438 -0.1537 -0.0204  0.5938
  157DOPC  C31118942   5.432   1.955   7.336 -0.1667 -0.4537 -0.6020
  157DOPC  H11X18943   5.332   1.912   7.359 -0.1595  0.2778  0.8818
  157DOPC  H11Y18944   5.501   1.872   7.309  1.6096  0.1546  1.7805
  157DOPC  C31218945   5.408   2.049   7.218 -0.2128 -0.3144  0.2376
  157DOPC  H12X18946   5.506   2.088   7.183  0.3189 -1.8821 -0.1153
  157DOPC  H12Y18947   5.351   2.140   7.247 -0.9256 -0.8508  0.5529
  157DOPC  C31318948   5.327   1.972   7.109 -0.2967 -0.6430  0.3213
  157DOPC  H13X18949   5.251   1.911   7.163 -0.1343 -0.6805  0.5081
  157DOPC  H13Y18950   5.277   2.045   7.042 -0.0261 -0.8303 -0.0853
  157DOPC  C31418951   5.413   1.881   7.016 -0.3608  0.1205 -0.1102
  157DOPC  H14X18952   5.467   1.805   7.076  2.9110  0.4646 -2.3108
  157DOPC  H14Y18953   5.338   1.823   6.958  1.4588 -0.9687 -1.5002
  157DOPC  C31518954   5.499   1.961   6.910  0.3309  0.1816 -0.6616
  157DOPC  H15X18955   5.589   1.991   6.967  1.3499 -1.7215 -1.2093
  157DOPC  H15Y18956   5.452   2.057   6.877 -0.9125  1.1130  3.1988
  157DOPC  C31618957   5.543   1.871   6.800  0.3334  1.0548 -0.0839
  157DOPC  H16X18958   5.586   1.782   6.851 -0.8712 -0.1216 -1.0619
  157DOPC  H16Y18959   5.454   1.848   6.738 -0.8457  1.4496  1.4065
  157DOPC  C31718960   5.663   1.944   6.729  1.0967 -0.4010  0.2017
  157DOPC  H17X18961   5.645   2.052   6.710 -2.1439 -1.2009 -2.2923
  157DOPC  H17Y18962   5.752   1.928   6.794  1.2984  0.0026  0.0262
  157DOPC  C31818963   5.693   1.899   6.588  0.3787  0.1044 -0.3323
  157DOPC  H18X18964   5.747   1.802   6.586 -0.0271 -0.1254 -0.2220
  157DOPC  H18Y18965   5.595   1.884   6.538  1.2736 -1.9867 -1.5847
  157DOPC  H18Z18966   5.740   1.985   6.536  0.7157  1.1241  1.5831
  158DOPC     N18967   2.907   1.621   8.717  0.0671  0.2003 -0.1972
  158DOPC   C1218968   3.014   1.636   8.606 -0.5607 -0.1994 -0.2306
  158DOPC  H12A18969   3.094   1.693   8.651 -1.7800 -0.9940  3.2497
  158DOPC  H12B18970   2.966   1.702   8.535 -2.2312 -0.1329  0.8852
  158DOPC   C1318971   2.779   1.565   8.653  0.4144 -0.3370 -0.4934
  158DOPC  H13A18972   2.706   1.558   8.733  0.7505  3.1501  0.2692
  158DOPC  H13B18973   2.739   1.639   8.585  1.2151 -0.5585 -1.2153
  158DOPC  H13C18974   2.791   1.469   8.605  0.0408 -0.4995 -0.2716
  158DOPC   C1418975   2.886   1.752   8.785  0.1214  0.1277 -0.2111
  158DOPC  H14A18976   2.804   1.804   8.739  0.8846  1.7307  0.1593
  158DOPC  H14B18977   2.864   1.728   8.889 -0.4808 -2.0803 -0.7970
  158DOPC  H14C18978   2.972   1.816   8.790  0.5854 -0.3818 -1.4694
  158DOPC   C1518979   2.952   1.522   8.822  0.4504  0.4088 -0.0100
  158DOPC  H15A18980   2.987   1.438   8.764  2.2336  0.4787  0.9104
  158DOPC  H15B18981   2.870   1.484   8.881 -0.1193 -0.1915 -1.1534
  158DOPC  H15C18982   3.036   1.558   8.879  1.5460 -0.9169 -0.7276
  158DOPC   C1118983   3.065   1.505   8.541  0.3070 -0.0296  0.3312
  158DOPC  H11A18984   2.985   1.431   8.520 -2.1158  2.8503 -1.3469
  158DOPC  H11B18985   3.102   1.531   8.440  0.0830 -0.4004  0.1519
  158DOPC     P18986   3.310   1.466   8.644  0.2827  0.2816  0.0551
  158DOPC   O1318987   3.375   1.334   8.670  0.4810 -0.1887 -0.2861
  158DOPC   O1418988   3.323   1.564   8.759  0.2173  0.5392  0.2308
  158DOPC   O1218989   3.161   1.439   8.622  0.0870 -0.0878  0.1233
  158DOPC   O1118990   3.347   1.527   8.504 -0.0261 -0.1912 -0.3187
  158DOPC    C118991   3.433   1.645   8.508  0.4392 -0.4987 -0.2306
  158DOPC    HA18992   3.538   1.616   8.490  0.4569  0.8520 -2.8583
  158DOPC    HB18993   3.419   1.700   8.603  0.8762 -0.2409 -0.3169
  158DOPC    C218994   3.379   1.734   8.394  0.1021  0.2650  0.2050
  158DOPC    HS18995   3.269   1.742   8.402  0.0682 -1.1723  1.7890
  158DOPC   O2118996   3.426   1.675   8.269 -0.6379 -0.0479  0.3311
  158DOPC   C2118997   3.347   1.696   8.164 -0.1642  0.2849 -0.6433
  158DOPC   O2218998   3.235   1.744   8.165  0.1003  0.2768  0.0444
  158DOPC   C2218999   3.408   1.654   8.034 -0.1515  0.0467  0.0332
  158DOPC   H2R19000   3.330   1.645   7.955  2.0400  0.9441 -2.3850
  158DOPC   H2S19001   3.446   1.551   8.053  2.4837 -0.1267 -4.7600
  158DOPC    C319002   3.440   1.875   8.407 -0.0783  0.4016 -0.3176
  158DOPC    HX19003   3.548   1.849   8.412 -0.0739  0.6546  1.2316
  158DOPC    HY19004   3.414   1.928   8.501  0.1498 -1.2777  0.7378
  158DOPC   O3119005   3.415   1.955   8.293 -0.2326  0.5000  0.1767
  158DOPC   C3119006   3.300   2.017   8.292  0.3744  0.1372  0.2168
  158DOPC   O3219007   3.222   2.022   8.387 -0.0830 -0.2136 -0.5146
  158DOPC   C3219008   3.279   2.075   8.149  0.3449 -0.0985 -0.9007
  158DOPC   H2X19009   3.347   2.163   8.150 -1.0452  0.9978 -1.2596
  158DOPC   H2Y19010   3.312   1.998   8.075 -1.3435 -1.5413 -0.2211
  158DOPC   C2319011   3.529   1.747   7.990 -0.2119 -0.5649  0.1740
  158DOPC   H3R19012   3.605   1.739   8.071  3.1193 -0.9868 -2.7651
  158DOPC   H3S19013   3.493   1.851   7.974  0.3743 -0.5650 -1.2298
  158DOPC   C2419014   3.603   1.707   7.867 -0.2073  0.0782 -0.0150
  158DOPC   H4R19015   3.642   1.606   7.890  0.6603  0.7289  1.4833
  158DOPC   H4S19016   3.688   1.778   7.867 -0.7747  0.9102  3.2641
  158DOPC   C2519017   3.515   1.708   7.741 -0.8587 -0.6086 -0.6727
  158DOPC   H5R19018   3.466   1.807   7.733 -1.6870 -1.0295 -0.9814
  158DOPC   H5S19019   3.429   1.637   7.744 -1.2178 -0.1574  0.1175
  158DOPC   C2619020   3.596   1.670   7.615  0.1461 -0.1235  0.5006
  158DOPC   H6R19021   3.642   1.573   7.645  1.0370  0.1937  0.1571
  158DOPC   H6S19022   3.678   1.744   7.608  0.7273 -0.5103  2.6201
  158DOPC   C2719023   3.511   1.669   7.491 -0.5593  0.1558  0.2192
  158DOPC   H7R19024   3.416   1.619   7.523 -0.8201 -0.1395 -0.9825
  158DOPC   H7S19025   3.567   1.617   7.411 -0.3692  0.8018 -0.0689
  158DOPC   C2819026   3.479   1.807   7.431  0.0583 -1.0830  0.2257
  158DOPC   H8R19027   3.578   1.853   7.414 -0.3308 -0.9821 -2.0228
  158DOPC   H8S19028   3.434   1.872   7.509  0.5134 -0.0690 -0.3459
  158DOPC   C2919029   3.391   1.807   7.315  0.3926  0.3084 -0.7006
  158DOPC   H9R19030   3.292   1.853   7.328  1.0592  1.6973 -0.3234
  158DOPC  C21019031   3.445   1.795   7.190  0.5387 -0.6063 -0.1511
  158DOPC  H10R19032   3.383   1.803   7.099  1.9946 -0.0543 -1.1421
  158DOPC  C21119033   3.589   1.768   7.146  0.1270  1.3003 -0.2262
  158DOPC  H11R19034   3.664   1.772   7.227  0.4678 -0.6720 -0.4094
  158DOPC  H11S19035   3.614   1.844   7.069 -0.1741  2.4168  0.7406
  158DOPC  C21219036   3.593   1.624   7.082  0.1243  0.2751  0.5200
  158DOPC  H12R19037   3.521   1.558   7.133 -1.9371  3.0205  1.4288
  158DOPC  H12S19038   3.688   1.574   7.109  1.3267  2.4218  0.5375
  158DOPC  C21319039   3.571   1.617   6.926  0.2452  0.2784 -0.1497
  158DOPC  H13R19040   3.482   1.679   6.902 -1.1771 -1.9218 -0.9604
  158DOPC  H13S19041   3.544   1.514   6.893  0.7217  0.6951 -1.9830
  158DOPC  C21419042   3.694   1.640   6.835 -0.5086  0.6092  0.0394
  158DOPC  H14R19043   3.777   1.583   6.883  1.6599  3.3285 -0.2716
  158DOPC  H14S19044   3.721   1.747   6.844  1.1689  0.0969  1.6060
  158DOPC  C21519045   3.654   1.588   6.695 -0.0247 -0.2118  0.5154
  158DOPC  H15R19046   3.547   1.608   6.672  0.2746 -0.4090 -1.1706
  158DOPC  H15S19047   3.655   1.477   6.694  2.5041 -0.2371 -0.2491
  158DOPC  C21619048   3.745   1.622   6.577  0.5351 -0.7088 -0.4341
  158DOPC  H16R19049   3.842   1.569   6.593 -1.0405 -3.3785  1.0205
  158DOPC  H16S19050   3.771   1.730   6.584 -2.0335 -0.0459 -0.4682
  158DOPC  C21719051   3.683   1.584   6.439 -0.4252  0.7586 -0.0595
  158DOPC  H17R19052   3.581   1.622   6.423 -0.4901  0.7727  0.3731
  158DOPC  H17S19053   3.671   1.474   6.455 -0.4997  0.7042 -0.4738
  158DOPC  C21819054   3.777   1.612   6.317  0.6205 -0.9112 -0.5053
  158DOPC  H18R19055   3.876   1.563   6.322  0.7619 -0.5817 -0.0017
  158DOPC  H18S19056   3.794   1.722   6.307 -0.7915 -0.4938  1.1875
  158DOPC  H18T19057   3.734   1.566   6.225 -1.9540 -1.0492  0.6922
  158DOPC   C3319058   3.136   2.113   8.113 -0.2410  0.3674 -0.1045
  158DOPC   H3X19059   3.103   2.181   8.195 -0.6689  1.3233 -1.0447
  158DOPC   H3Y19060   3.069   2.024   8.113 -0.1016  0.2627  0.4684
  158DOPC   C3419061   3.124   2.182   7.980 -1.0571  0.5992 -0.1827
  158DOPC   H4X19062   3.208   2.253   7.967 -1.1845  0.5785 -1.1775
  158DOPC   H4Y19063   3.030   2.240   7.983  0.1037  2.5836 -0.1046
  158DOPC   C3519064   3.134   2.081   7.858 -1.0860 -0.5481  0.5027
  158DOPC   H5X19065   3.047   2.012   7.849 -2.5947  1.5562 -2.2640
  158DOPC   H5Y19066   3.226   2.025   7.888 -1.8254 -0.0647  4.1938
  158DOPC   C3619067   3.145   2.153   7.723  0.4301 -0.1830 -0.0607
  158DOPC   H6X19068   3.051   2.211   7.712 -0.5773 -2.0587 -2.1186
  158DOPC   H6Y19069   3.236   2.216   7.726  1.7700 -2.0598  0.8136
  158DOPC   C3719070   3.174   2.061   7.606  0.6787 -0.0354  0.0658
  158DOPC   H7X19071   3.282   2.037   7.603  0.7725  0.2243  1.0293
  158DOPC   H7Y19072   3.121   1.964   7.612 -0.7540  0.6404 -0.9883
  158DOPC   C3819073   3.154   2.134   7.475 -0.2943  0.4485 -0.4175
  158DOPC   H8X19074   3.175   2.056   7.398  0.3048  0.9035 -0.7272
  158DOPC   H8Y19075   3.232   2.210   7.453 -2.2231  3.0599  1.2096
  158DOPC   C3919076   3.017   2.201   7.453 -0.4248  0.4406  0.0553
  158DOPC   H9X19077   2.977   2.258   7.538 -1.8521  1.6260 -1.3586
  158DOPC  C31019078   2.935   2.184   7.346 -0.1350  0.1049  0.4210
  158DOPC  H10X19079   2.838   2.235   7.346 -0.6191 -0.5116 -3.6807
  158DOPC  C31119080   2.965   2.104   7.217  0.1513  0.4738 -0.5337
  158DOPC  H11X19081   2.868   2.070   7.176 -3.0408  1.6828  4.9171
  158DOPC  H11Y19082   3.026   2.012   7.230 -0.0134  0.4230 -0.0727
  158DOPC  C31219083   3.019   2.196   7.107 -0.5893 -0.0721 -0.0853
  158DOPC  H12X19084   3.098   2.263   7.147  0.3261 -2.4697  2.4453
  158DOPC  H12Y19085   2.946   2.263   7.058 -0.3745  0.3422  0.1632
  158DOPC  C31319086   3.082   2.099   7.004  0.0859  0.3799  0.4588
  158DOPC  H13X19087   3.169   2.039   7.037  0.3228 -0.1651 -1.0782
  158DOPC  H13Y19088   3.002   2.023   6.988  1.0992 -0.6207  0.0592
  158DOPC  C31419089   3.123   2.166   6.875  0.0106  0.1090  0.0678
  158DOPC  H14X19090   3.146   2.097   6.792  0.4887  1.2006 -0.7314
  158DOPC  H14Y19091   3.043   2.232   6.835 -0.7943 -0.9403 -0.0928
  158DOPC  C31519092   3.241   2.262   6.896  1.0483  0.6182  0.6993
  158DOPC  H15X19093   3.339   2.211   6.901  1.1055 -0.5019 -5.2288
  158DOPC  H15Y19094   3.219   2.330   6.982 -1.1786  0.1500  0.5711
  158DOPC  C31619095   3.268   2.343   6.770 -0.8026 -0.4391 -0.1694
  158DOPC  H16X19096   3.356   2.410   6.782 -1.3259  0.0941  0.9091
  158DOPC  H16Y19097   3.286   2.277   6.683 -2.2395 -0.3329 -0.5743
  158DOPC  C31719098   3.160   2.450   6.738 -0.0215  0.1339  0.2475
  158DOPC  H17X19099   3.181   2.493   6.637  1.3278 -1.2996 -0.1272
  158DOPC  H17Y19100   3.058   2.408   6.726 -0.5348  0.8967  1.7419
  158DOPC  C31819101   3.153   2.558   6.845 -0.2132  0.4461  0.1399
  158DOPC  H18X19102   3.078   2.639   6.828  1.0191  2.5750  3.6975
  158DOPC  H18Y19103   3.128   2.506   6.940  1.8431 -0.7229  0.0936
  158DOPC  H18Z19104   3.251   2.607   6.860 -0.2120  0.5994 -0.3464
  159DOPC     N19105   6.513   2.821   9.208  0.3418  0.1089  0.3886
  159DOPC   C1219106   6.613   2.809   9.095 -0.3615  0.0058  0.6121
  159DOPC  H12A19107   6.639   2.704   9.088 -3.4769 -0.9357  1.2044
  159DOPC  H12B19108   6.699   2.871   9.114 -1.5055  2.3012 -1.2358
  159DOPC   C1319109   6.578   2.813   9.341  0.2806 -0.5916 -0.2819
  159DOPC  H13A19110   6.647   2.730   9.334 -0.0483 -0.8089 -1.1088
  159DOPC  H13B19111   6.639   2.900   9.365 -0.3026  0.0621 -1.1136
  159DOPC  H13C19112   6.514   2.795   9.426  2.3574 -2.8027  0.9429
  159DOPC   C1419113   6.417   2.704   9.193 -0.3449  0.0723  0.7056
  159DOPC  H14A19114   6.383   2.685   9.092  2.9545  0.1244 -0.5507
  159DOPC  H14B19115   6.476   2.619   9.223 -2.4564 -1.3614  0.9900
  159DOPC  H14C19116   6.332   2.711   9.259  0.1508  1.7806  1.2112
  159DOPC   C1519117   6.440   2.946   9.191  0.7793  0.6010  0.2480
  159DOPC  H15A19118   6.507   3.031   9.194 -0.9225  2.0079 -0.0946
  159DOPC  H15B19119   6.359   2.969   9.259  0.0639  0.4435 -0.5394
  159DOPC  H15C19120   6.400   2.957   9.091  0.8595  3.5812  0.4446
  159DOPC   C1119121   6.574   2.848   8.954  0.5725  0.3487 -0.2336
  159DOPC  H11A19122   6.539   2.953   8.951  2.0400  0.9202  1.3881
  159DOPC  H11B19123   6.662   2.848   8.885 -0.8830 -0.0072 -2.1960
  159DOPC     P19124   6.479   2.636   8.823 -0.6250 -0.6463  0.1871
  159DOPC   O1319125   6.347   2.576   8.794 -0.0703 -0.1983 -0.4977
  159DOPC   O1419126   6.581   2.550   8.887 -0.5915 -0.9330  0.2977
  159DOPC   O1219127   6.462   2.774   8.910  0.1865  0.1741 -0.0754
  159DOPC   O1119128   6.538   2.698   8.688  0.3048  0.1614  0.2568
  159DOPC    C119129   6.521   2.828   8.639 -0.4836  0.0876 -0.4977
  159DOPC    HA19130   6.621   2.875   8.648 -0.3364 -0.2439 -0.3712
  159DOPC    HB19131   6.452   2.894   8.697  0.4125  0.8317 -0.2640
  159DOPC    C219132   6.473   2.834   8.493  0.4854 -0.5300  0.1958
  159DOPC    HS19133   6.440   2.936   8.466  1.1361 -0.6251 -1.0154
  159DOPC   O2119134   6.370   2.739   8.462  1.0282  0.6287 -0.1906
  159DOPC   C2119135   6.252   2.775   8.518 -0.4907  0.1494  0.1640
  159DOPC   O2219136   6.231   2.872   8.586 -0.1162  0.2610  0.0979
  159DOPC   C2219137   6.150   2.671   8.476 -0.8831 -0.0798  0.3457
  159DOPC   H2R19138   6.054   2.687   8.530 -0.1491 -1.3532  2.1226
  159DOPC   H2S19139   6.179   2.569   8.510 -0.8574 -0.6014 -1.1756
  159DOPC    C319140   6.593   2.795   8.408  0.5060 -0.0997 -0.0704
  159DOPC    HX19141   6.634   2.698   8.443 -1.9933 -0.7783  1.2102
  159DOPC    HY19142   6.676   2.867   8.422  1.4346 -1.2275  0.3951
  159DOPC   O3119143   6.548   2.799   8.272 -0.0276 -0.0269 -0.0879
  159DOPC   C3119144   6.553   2.690   8.206  0.6798  0.2451  0.8455
  159DOPC   O3219145   6.596   2.581   8.245  0.5390 -0.4111  0.7611
  159DOPC   C3219146   6.489   2.726   8.067  0.1762 -0.5050 -0.2403
  159DOPC   H2X19147   6.378   2.728   8.063  0.1608 -0.9900 -0.1346
  159DOPC   H2Y19148   6.514   2.834   8.060 -1.1866 -0.1685 -0.1643
  159DOPC   C2319149   6.124   2.678   8.321 -0.1512 -0.1925  0.3634
  159DOPC   H3R19150   6.065   2.586   8.305  0.3935 -0.5668  0.4705
  159DOPC   H3S19151   6.220   2.664   8.268 -0.8124  0.8767 -1.1931
  159DOPC   C2419152   6.039   2.799   8.270 -0.3276  0.2157 -0.2965
  159DOPC   H4R19153   6.056   2.883   8.341 -3.2030  0.8962 -0.2983
  159DOPC   H4S19154   5.933   2.767   8.282  0.4072 -2.2273  0.3398
  159DOPC   C2519155   6.082   2.841   8.132 -0.0590 -0.1744  0.0020
  159DOPC   H5R19156   6.193   2.833   8.127  0.0337  0.9532  0.0199
  159DOPC   H5S19157   6.065   2.949   8.114 -0.5499  0.1205  1.9491
  159DOPC   C2619158   6.022   2.744   8.029  0.0927  0.5215 -0.2675
  159DOPC   H6R19159   5.915   2.728   8.052  0.6171 -0.0784  2.1206
  159DOPC   H6S19160   6.069   2.645   8.047  2.4617  1.8242  1.2796
  159DOPC   C2719161   6.050   2.809   7.897  0.6664  0.1037  0.5514
  159DOPC   H7R19162   6.160   2.797   7.886  0.7894 -1.3716  2.6348
  159DOPC   H7S19163   6.039   2.919   7.905 -1.7769  0.1432 -1.9442
  159DOPC   C2819164   5.978   2.739   7.780 -0.4742 -0.7931  0.3634
  159DOPC   H8R19165   5.982   2.820   7.703 -1.4398  0.7667  1.8972
  159DOPC   H8S19166   5.869   2.732   7.799 -0.9947 -0.4858 -2.0864
  159DOPC   C2919167   6.027   2.605   7.737 -0.7719  1.0160 -0.0441
  159DOPC   H9R19168   6.085   2.547   7.809 -0.4632 -1.5081 -2.1867
  159DOPC  C21019169   6.042   2.560   7.611  0.1154  0.9018 -0.0648
  159DOPC  H10R19170   6.105   2.473   7.589 -0.3973  0.5243 -0.0748
  159DOPC  C21119171   6.009   2.646   7.496 -0.0055 -0.2448  0.0052
  159DOPC  H11R19172   6.044   2.750   7.511  0.5928 -0.6866  1.9547
  159DOPC  H11S19173   5.900   2.662   7.500  0.0711  0.0954  0.8704
  159DOPC  C21219174   6.043   2.590   7.354 -0.0177 -0.6037  0.1639
  159DOPC  H12R19175   5.984   2.500   7.325 -2.0846  0.1267  1.7838
  159DOPC  H12S19176   6.149   2.558   7.355  0.3351  0.5382  1.2084
  159DOPC  C21319177   6.039   2.692   7.244  0.1480 -0.3392 -0.9673
  159DOPC  H13R19178   6.089   2.783   7.285  0.0361 -1.3287  1.5753
  159DOPC  H13S19179   5.931   2.710   7.230 -0.3402 -2.2288  0.0665
  159DOPC  C21419180   6.104   2.652   7.114 -0.5166 -1.0719  0.5833
  159DOPC  H14R19181   6.062   2.560   7.068 -3.2372 -0.2841  1.3706
  159DOPC  H14S19182   6.215   2.640   7.118 -0.4408 -1.2309 -1.2013
  159DOPC  C21519183   6.093   2.758   7.005  0.0067 -0.4162 -0.2592
  159DOPC  H15R19184   6.170   2.729   6.930  2.5004  0.8640  1.6933
  159DOPC  H15S19185   6.121   2.855   7.050  1.4183 -0.8323 -0.1853
  159DOPC  C21619186   5.956   2.772   6.940 -0.2379 -0.4291  0.4174
  159DOPC  H16R19187   5.969   2.862   6.875  2.5829 -0.6833  0.5379
  159DOPC  H16S19188   5.880   2.798   7.017 -0.7686 -1.8447  0.3981
  159DOPC  C21719189   5.906   2.668   6.844 -0.0938  0.2770 -0.4552
  159DOPC  H17R19190   5.803   2.700   6.818  0.5884  1.2866 -2.1127
  159DOPC  H17S19191   5.899   2.575   6.904 -1.1985  0.7804  0.2235
  159DOPC  C21819192   5.996   2.651   6.718 -0.0726 -0.6272  0.5557
  159DOPC  H18R19193   6.106   2.657   6.735  0.2484 -1.0427 -1.1837
  159DOPC  H18S19194   5.972   2.730   6.644  0.7023 -0.6242  0.2987
  159DOPC  H18T19195   5.963   2.557   6.668 -0.0471 -0.2267 -0.2278
  159DOPC   C3319196   6.551   2.647   7.950 -0.2478 -0.2530  0.6585
  159DOPC   H3X19197   6.520   2.540   7.960 -0.9315 -0.1900 -0.5043
  159DOPC   H3Y19198   6.660   2.656   7.932 -0.7184  2.2802 -1.5322
  159DOPC   C3419199   6.473   2.704   7.826 -0.1965 -0.1883 -0.3244
  159DOPC   H4X19200   6.486   2.814   7.837  1.8088 -0.5453  1.7128
  159DOPC   H4Y19201   6.363   2.688   7.827 -0.8627  3.4847 -0.1528
  159DOPC   C3519202   6.517   2.650   7.689 -0.0122 -0.3635 -0.0260
  159DOPC   H5X19203   6.508   2.541   7.674 -0.8950 -0.2947 -0.0345
  159DOPC   H5Y19204   6.622   2.685   7.676 -0.6307  1.3002 -0.7772
  159DOPC   C3619205   6.433   2.729   7.582  0.5991 -0.0916  0.8413
  159DOPC   H6X19206   6.324   2.707   7.581  1.0807 -2.8867  0.8293
  159DOPC   H6Y19207   6.456   2.837   7.587 -0.4331  0.2658 -1.1927
  159DOPC   C3719208   6.478   2.670   7.451  0.2643 -0.3719  0.3192
  159DOPC   H7X19209   6.587   2.650   7.454 -0.1494 -2.9113  1.7079
  159DOPC   H7Y19210   6.430   2.571   7.433  0.1366 -0.5908  1.7594
  159DOPC   C3819211   6.435   2.749   7.326  0.0379 -0.3842  0.4169
  159DOPC   H8X19212   6.451   2.858   7.326 -2.5771  0.0736  0.7980
  159DOPC   H8Y19213   6.325   2.734   7.319  0.3934 -3.1682 -0.8430
  159DOPC   C3919214   6.497   2.680   7.197  0.1224 -0.2187 -0.1935
  159DOPC   H9X19215   6.469   2.575   7.184  0.4286 -0.4526  0.9427
  159DOPC  C31019216   6.564   2.753   7.104  0.8274 -0.3072 -0.4643
  159DOPC  H10X19217   6.592   2.691   7.017  1.0344 -0.7430 -0.0949
  159DOPC  C31119218   6.620   2.894   7.096 -0.5536  0.1333 -0.0395
  159DOPC  H11X19219   6.714   2.895   7.036 -1.1640  0.4870 -1.0097
  159DOPC  H11Y19220   6.646   2.927   7.199  0.2249 -1.0950  0.1811
  159DOPC  C31219221   6.528   2.992   7.013  0.5554  0.2496 -0.2479
  159DOPC  H12X19222   6.433   3.017   7.066  0.4160 -1.2976  0.3029
  159DOPC  H12Y19223   6.504   2.933   6.922 -1.0415 -0.0145  0.3021
  159DOPC  C31319224   6.613   3.121   6.981 -0.3885  0.3902  0.0365
  159DOPC  H13X19225   6.657   3.167   7.072  1.1873  2.8715 -1.8701
  159DOPC  H13Y19226   6.698   3.101   6.912  0.0587 -1.3308  1.0252
  159DOPC  C31419227   6.525   3.223   6.912  0.8544  0.6101  0.3359
  159DOPC  H14X19228   6.469   3.167   6.834 -1.0688 -0.2634  2.2304
  159DOPC  H14Y19229   6.454   3.260   6.990  1.5034  3.2199 -0.1977
  159DOPC  C31519230   6.613   3.333   6.848 -0.0753  0.3519 -0.1674
  159DOPC  H15X19231   6.721   3.325   6.873 -0.3671 -1.6239  0.6464
  159DOPC  H15Y19232   6.584   3.431   6.893  1.5782  1.9141 -2.2851
  159DOPC  C31619233   6.602   3.337   6.697 -0.2645 -0.3301 -0.5074
  159DOPC  H16X19234   6.704   3.355   6.657  0.1517  0.6892  0.9259
  159DOPC  H16Y19235   6.569   3.235   6.668 -3.2246 -0.1655  1.8338
  159DOPC  C31719236   6.494   3.431   6.642 -0.9746 -0.1731  0.2108
  159DOPC  H17X19237   6.394   3.406   6.683 -1.0333  2.2910  1.7394
  159DOPC  H17Y19238   6.510   3.535   6.677  0.7187 -0.1319 -0.5818
  159DOPC  C31819239   6.494   3.420   6.490  0.1726  0.3640  0.5193
  159DOPC  H18X19240   6.600   3.418   6.457 -0.2976  1.9897 -1.3010
  159DOPC  H18Y19241   6.437   3.333   6.452 -0.9592  1.8703 -1.4296
  159DOPC  H18Z19242   6.449   3.517   6.459  1.3057  0.9450  0.6098
  160DOPC     N19243   1.709   0.942   8.554 -0.1981  0.0485 -0.3645
  160DOPC   C1219244   1.752   0.825   8.468 -0.3265  0.3413  0.0471
  160DOPC  H12A19245   1.844   0.791   8.512 -0.3151 -0.9711 -0.9314
  160DOPC  H12B19246   1.777   0.878   8.377  0.4261 -1.1457 -0.6422
  160DOPC   C1319247   1.577   1.001   8.509  0.0396 -0.4940  0.3276
  160DOPC  H13A19248   1.575   1.026   8.404 -0.0985 -0.7291  0.2714
  160DOPC  H13B19249   1.501   0.928   8.532  0.6479 -1.0208  0.6974
  160DOPC  H13C19250   1.547   1.083   8.571 -1.1734 -2.2827  2.2519
  160DOPC   C1419251   1.814   1.049   8.559 -0.0903 -0.8021  0.2176
  160DOPC  H14A19252   1.788   1.114   8.641  0.8603  0.9835 -0.8365
  160DOPC  H14B19253   1.914   1.018   8.585 -0.0103 -1.4410 -0.7782
  160DOPC  H14C19254   1.812   1.100   8.464  1.3418 -0.4466  0.3637
  160DOPC   C1519255   1.695   0.897   8.694 -0.0064 -0.2496 -0.5594
  160DOPC  H15A19256   1.788   0.860   8.734 -0.3560 -1.1618 -0.5775
  160DOPC  H15B19257   1.627   0.813   8.693 -2.6844  1.7219  0.9193
  160DOPC  H15C19258   1.643   0.963   8.763  1.6486 -1.3955  1.9242
  160DOPC   C1119259   1.639   0.716   8.440  0.0583  0.1763  0.0984
  160DOPC  H11A19260   1.555   0.765   8.389 -2.8043 -3.5544  0.7806
  160DOPC  H11B19261   1.685   0.635   8.380  0.5357 -0.0573  0.7551
  160DOPC     P19262   1.446   0.628   8.597 -0.2124  0.3647 -0.2735
  160DOPC   O1319263   1.383   0.758   8.622 -0.2594  0.1194 -0.0495
  160DOPC   O1419264   1.435   0.528   8.710  0.3151  0.0702 -0.0064
  160DOPC   O1219265   1.593   0.648   8.563 -0.7068  0.8630 -0.1848
  160DOPC   O1119266   1.388   0.551   8.473 -0.2711 -0.6307  0.2443
  160DOPC    C119267   1.277   0.605   8.394  0.6432 -0.3216 -0.0426
  160DOPC    HA19268   1.278   0.714   8.375 -0.5378 -0.1479  0.8217
  160DOPC    HB19269   1.181   0.587   8.446  0.4909  1.5934  0.3837
  160DOPC    C219270   1.257   0.535   8.250  0.5791  0.2112 -0.1683
  160DOPC    HS19271   1.249   0.428   8.279  1.1466  0.5543  1.3527
  160DOPC   O2119272   1.362   0.550   8.157 -0.5267  0.2041 -0.2748
  160DOPC   C2119273   1.450   0.447   8.162  0.2525  0.1300 -0.3391
  160DOPC   O2219274   1.445   0.342   8.224 -0.5845  0.3594 -0.0958
  160DOPC   C2219275   1.560   0.482   8.068  0.1651 -0.3181 -0.0447
  160DOPC   H2R19276   1.607   0.384   8.045  1.0372  0.2380 -0.6926
  160DOPC   H2S19277   1.633   0.547   8.122 -0.0584 -0.1992  0.1206
  160DOPC    C319278   1.122   0.564   8.179  0.0431  0.1862 -0.1286
  160DOPC    HX19279   1.085   0.668   8.193 -0.5598  0.1852 -1.5508
  160DOPC    HY19280   1.049   0.515   8.248 -0.5653  1.7773  0.4071
  160DOPC   O3119281   1.121   0.514   8.037  0.1334 -0.9355 -0.2919
  160DOPC   C3119282   1.131   0.612   7.948  0.4201 -0.3679  0.3119
  160DOPC   O3219283   1.122   0.728   7.968  0.0792 -0.1477 -0.3284
  160DOPC   C3219284   1.140   0.547   7.813 -1.2085  0.5832  0.5838
  160DOPC   H2X19285   1.228   0.480   7.828 -0.8867  0.9580  0.3921
  160DOPC   H2Y19286   1.050   0.487   7.787 -0.2175 -0.6548 -0.1296
  160DOPC   C2319287   1.522   0.542   7.929 -0.4679 -0.6240 -0.1138
  160DOPC   H3R19288   1.491   0.648   7.947 -0.6293 -0.9463  1.7520
  160DOPC   H3S19289   1.441   0.492   7.871  0.3355  0.0100 -1.8504
  160DOPC   C2419290   1.640   0.540   7.828 -0.5145 -0.1272  0.2262
  160DOPC   H4R19291   1.664   0.438   7.790  0.9012 -0.7899  2.6747
  160DOPC   H4S19292   1.731   0.591   7.864 -0.6007 -0.6909  1.2712
  160DOPC   C2519293   1.594   0.607   7.697  0.0569  0.4276  0.1909
  160DOPC   H5R19294   1.566   0.710   7.728 -2.0903 -1.0078  3.6858
  160DOPC   H5S19295   1.494   0.564   7.673 -0.4660  1.3881  0.5943
  160DOPC   C2619296   1.679   0.598   7.560  0.4096 -0.9491 -0.1142
  160DOPC   H6R19297   1.711   0.494   7.536  2.6547 -0.3152 -0.1505
  160DOPC   H6S19298   1.775   0.651   7.579 -0.5987  0.6376  0.8888
  160DOPC   C2719299   1.601   0.667   7.449 -0.4718  0.2151  0.2834
  160DOPC   H7R19300   1.560   0.754   7.505  3.0523  0.9232  2.0185
  160DOPC   H7S19301   1.511   0.611   7.416 -0.3914  0.3077 -0.1014
  160DOPC   C2819302   1.682   0.712   7.327  0.1996 -0.4361  0.2165
  160DOPC   H8R19303   1.731   0.807   7.359 -0.7317  0.2036 -0.2035
  160DOPC   H8S19304   1.611   0.745   7.248 -1.0914 -1.5133  0.8789
  160DOPC   C2919305   1.769   0.610   7.262  0.1581 -0.8120  0.9433
  160DOPC   H9R19306   1.875   0.605   7.289  0.3333  1.5729  0.9472
  160DOPC  C21019307   1.733   0.528   7.161  0.2553  0.1359 -0.3148
  160DOPC  H10R19308   1.818   0.490   7.102 -0.0022 -0.1242 -0.5249
  160DOPC  C21119309   1.600   0.517   7.096 -0.7343 -0.2496 -0.1376
  160DOPC  H11R19310   1.519   0.522   7.171 -0.6110 -0.7949  0.0362
  160DOPC  H11S19311   1.588   0.424   7.037 -1.3282 -0.0393 -0.3516
  160DOPC  C21219312   1.588   0.629   6.987 -0.3511  0.2565 -0.1794
  160DOPC  H12R19313   1.675   0.697   6.983 -0.1750  0.0340 -0.1479
  160DOPC  H12S19314   1.505   0.702   7.004 -1.0372 -0.3696 -0.8088
  160DOPC  C21319315   1.573   0.572   6.845 -0.4908  0.6591  0.1550
  160DOPC  H13R19316   1.478   0.517   6.826 -1.2554  1.2670  2.0175
  160DOPC  H13S19317   1.664   0.510   6.828 -0.0941  1.2791 -0.0337
  160DOPC  C21419318   1.579   0.680   6.740  0.2409 -0.0770 -0.2910
  160DOPC  H14R19319   1.645   0.763   6.772 -0.7072  1.1374 -1.4205
  160DOPC  H14S19320   1.482   0.730   6.723  0.6991  1.1189  0.4874
  160DOPC  C21519321   1.615   0.614   6.607  0.3995 -0.3180  0.3585
  160DOPC  H15R19322   1.548   0.528   6.586  0.7795 -0.9303  1.6114
  160DOPC  H15S19323   1.716   0.570   6.616 -0.4741 -2.1606  1.7338
  160DOPC  C21619324   1.593   0.727   6.493  0.1795 -0.2168  0.6528
  160DOPC  H16R19325   1.684   0.790   6.508  3.0396 -4.1017  1.0119
  160DOPC  H16S19326   1.500   0.784   6.516 -0.8020 -1.0563 -1.0706
  160DOPC  C21719327   1.581   0.676   6.345 -0.1132  0.0631  0.1234
  160DOPC  H17R19328   1.507   0.596   6.328  1.3427 -1.6746  1.5490
  160DOPC  H17S19329   1.680   0.627   6.334 -0.7669 -1.4997  0.9585
  160DOPC  C21819330   1.567   0.791   6.240 -0.3817  0.5659  0.1178
  160DOPC  H18R19331   1.645   0.868   6.256 -2.0389  2.7601 -1.5213
  160DOPC  H18S19332   1.476   0.855   6.251  0.2729  1.8760 -1.6200
  160DOPC  H18T19333   1.567   0.755   6.135  1.5752  1.3757 -0.1983
  160DOPC   C3319334   1.170   0.650   7.705 -0.0000 -0.3293  0.1163
  160DOPC   H3X19335   1.258   0.712   7.732 -0.1039 -1.1912  2.6890
  160DOPC   H3Y19336   1.084   0.720   7.698  1.0802  1.0114 -0.3129
  160DOPC   C3419337   1.179   0.584   7.567 -0.5831 -0.0898 -0.5356
  160DOPC   H4X19338   1.091   0.516   7.565  1.2187 -2.5240 -0.4469
  160DOPC   H4Y19339   1.269   0.522   7.584 -1.9232 -1.4261  2.2810
  160DOPC   C3519340   1.194   0.673   7.443 -0.1085  0.5193  0.0185
  160DOPC   H5X19341   1.282   0.740   7.451  0.9695 -0.8225 -0.2712
  160DOPC   H5Y19342   1.101   0.734   7.442  0.0628  0.7756 -0.7974
  160DOPC   C3619343   1.200   0.596   7.311  0.5318 -0.8201  1.1121
  160DOPC   H6X19344   1.300   0.556   7.287 -0.2068 -0.7840 -2.7141
  160DOPC   H6Y19345   1.134   0.507   7.311 -1.3987  0.5009 -0.5781
  160DOPC   C3719346   1.164   0.691   7.186  0.6086 -0.4320 -0.1000
  160DOPC   H7X19347   1.060   0.728   7.195 -0.5612 -3.0615 -1.6983
  160DOPC   H7Y19348   1.226   0.782   7.197 -0.3383  0.0697  1.3267
  160DOPC   C3819349   1.177   0.615   7.046  0.1509 -0.0251 -0.8413
  160DOPC   H8X19350   1.084   0.555   7.043  0.7060 -1.3411  2.6912
  160DOPC   H8Y19351   1.253   0.535   7.055 -0.0490 -0.2974 -1.5403
  160DOPC   C3919352   1.203   0.712   6.934  0.1600 -0.2071 -0.1752
  160DOPC   H9X19353   1.223   0.815   6.965 -1.3315  0.7266 -2.0675
  160DOPC  C31019354   1.190   0.691   6.803  0.1050 -0.0433 -0.3567
  160DOPC  H10X19355   1.215   0.775   6.737 -1.4003  0.9731  0.3055
  160DOPC  C31119356   1.158   0.565   6.723 -0.2584 -0.2163 -0.2015
  160DOPC  H11X19357   1.048   0.572   6.703 -0.8306 -1.3168  2.1929
  160DOPC  H11Y19358   1.175   0.484   6.796 -3.1445  0.0967  0.9594
  160DOPC  C31219359   1.242   0.538   6.596 -0.8083  0.2788  0.0175
  160DOPC  H12X19360   1.197   0.448   6.550 -0.2073 -0.8435  1.5404
  160DOPC  H12Y19361   1.347   0.514   6.623 -0.7918  0.3721  0.0369
  160DOPC  C31319362   1.238   0.659   6.494 -0.1219  0.3345  0.2297
  160DOPC  H13X19363   1.282   0.747   6.546 -1.2450  1.2025 -0.2395
  160DOPC  H13Y19364   1.311   0.633   6.416  0.0544 -0.2435  0.5830
  160DOPC  C31419365   1.095   0.683   6.437  0.5430  0.1185 -0.0133
  160DOPC  H14X19366   1.057   0.586   6.397 -2.3031  1.9903 -2.3378
  160DOPC  H14Y19367   1.036   0.702   6.529 -1.2525  0.6285 -1.1958
  160DOPC  C31519368   1.086   0.811   6.350 -0.2081  0.2265 -0.2103
  160DOPC  H15X19369   1.105   0.904   6.408 -0.3461 -0.7283  1.4201
  160DOPC  H15Y19370   0.975   0.813   6.339 -0.0962  1.3234 -1.3320
  160DOPC  C31619371   1.170   0.799   6.223 -0.1148 -0.2674  0.3233
  160DOPC  H16X19372   1.265   0.854   6.238 -0.9347  1.9876 -2.0321
  160DOPC  H16Y19373   1.199   0.692   6.220  0.4548 -0.0935 -1.6883
  160DOPC  C31719374   1.114   0.849   6.088  0.2476  0.4553 -0.5344
  160DOPC  H17X19375   1.193   0.830   6.011 -1.5718 -0.7747 -2.2015
  160DOPC  H17Y19376   1.031   0.778   6.071  0.2187 -0.2646  2.2845
  160DOPC  C31819377   1.074   0.995   6.086 -0.0801  0.0316 -0.2466
  160DOPC  H18X19378   1.156   1.064   6.114 -1.5944  1.2651  1.4473
  160DOPC  H18Y19379   1.042   1.031   5.986  1.6795  1.0488 -0.4743
  160DOPC  H18Z19380   0.985   1.011   6.151 -1.8700 -4.0048 -1.3935
  161DOPC     N19381   2.521   2.486   9.440 -0.0991 -0.1920 -0.2404
  161DOPC   C1219382   2.406   2.485   9.343  0.3624  0.2123  0.0844
  161DOPC  H12A19383   2.449   2.475   9.244 -1.6623  2.1883 -1.1116
  161DOPC  H12B19384   2.361   2.583   9.340  1.1731  0.6098 -2.8077
  161DOPC   C1319385   2.591   2.359   9.458 -0.1602  0.3203 -0.3885
  161DOPC  H13A19386   2.665   2.356   9.536  0.4390  1.3453 -0.8979
  161DOPC  H13B19387   2.522   2.276   9.463  0.3818 -0.1885 -1.0979
  161DOPC  H13C19388   2.650   2.331   9.372  0.0303  1.1825 -0.5498
  161DOPC   C1419389   2.482   2.535   9.581  0.0995 -0.3082 -0.0591
  161DOPC  H14A19390   2.564   2.521   9.650  0.3078 -4.1561 -0.8899
  161DOPC  H14B19391   2.444   2.636   9.581  0.3426 -0.1949  1.2707
  161DOPC  H14C19392   2.412   2.462   9.619  0.2794  0.4908  1.9768
  161DOPC   C1519393   2.619   2.591   9.399 -0.2426 -0.8140 -0.0458
  161DOPC  H15A19394   2.650   2.641   9.489 -1.5719 -1.1014  0.6079
  161DOPC  H15B19395   2.575   2.668   9.337 -0.9685  1.9669  3.6041
  161DOPC  H15C19396   2.714   2.551   9.367  0.3086  0.4238  0.0038
  161DOPC   C1119397   2.296   2.373   9.363  0.0715 -0.3397  0.6341
  161DOPC  H11A19398   2.260   2.389   9.466 -0.3423  2.0748  0.1757
  161DOPC  H11B19399   2.203   2.396   9.307  0.2545  1.4038  0.9946
  161DOPC     P19400   2.344   2.190   9.184 -0.3428 -0.0047 -0.0295
  161DOPC   O1319401   2.211   2.133   9.141  0.0515 -0.1057  0.0133
  161DOPC   O1419402   2.462   2.101   9.168 -0.0963  0.5492  0.2206
  161DOPC   O1219403   2.335   2.241   9.339 -0.2335  0.4205 -0.2320
  161DOPC   O1119404   2.373   2.330   9.105 -0.3280 -0.2205  0.4661
  161DOPC    C119405   2.281   2.383   9.007  0.3545 -0.2656 -0.2770
  161DOPC    HA19406   2.285   2.494   9.009 -2.9513 -0.0367  0.7545
  161DOPC    HB19407   2.177   2.354   9.032  0.7083 -0.4839  1.0062
  161DOPC    C219408   2.307   2.331   8.864 -0.7583  0.1933 -0.3624
  161DOPC    HS19409   2.337   2.224   8.867  0.1314  0.2795 -2.9519
  161DOPC   O2119410   2.393   2.423   8.797  0.4974  0.0879 -0.0001
  161DOPC   C2119411   2.521   2.421   8.834  0.1826 -0.2420  0.4295
  161DOPC   O2219412   2.569   2.355   8.924 -0.5846  0.0573 -0.1526
  161DOPC   C2219413   2.585   2.542   8.775 -0.1304 -0.0430 -0.0743
  161DOPC   H2R19414   2.556   2.633   8.832  2.3575  1.0151 -0.3994
  161DOPC   H2S19415   2.561   2.555   8.667  0.0517  0.5021 -0.0518
  161DOPC    C319416   2.169   2.321   8.791 -0.0173 -0.3322  0.0990
  161DOPC    HX19417   2.122   2.419   8.812  0.5958  0.2755 -1.2901
  161DOPC    HY19418   2.107   2.244   8.842 -0.8737  1.3932  1.7933
  161DOPC   O3119419   2.193   2.307   8.648 -0.1442 -0.7314 -0.1223
  161DOPC   C3119420   2.184   2.186   8.603 -0.7664 -0.0910  0.1860
  161DOPC   O3219421   2.181   2.085   8.677 -0.2669  0.4730  0.1257
  161DOPC   C3219422   2.184   2.197   8.448  0.4884 -0.0358 -0.0245
  161DOPC   H2X19423   2.082   2.230   8.417 -0.2945  0.3293  2.6822
  161DOPC   H2Y19424   2.248   2.281   8.415 -2.6200  2.0548 -1.2036
  161DOPC   C2319425   2.745   2.527   8.784  0.6778 -0.0286 -0.7575
  161DOPC   H3R19426   2.769   2.425   8.747  1.8487 -0.8984  2.0985
  161DOPC   H3S19427   2.784   2.535   8.888  0.5088  1.4363 -0.7961
  161DOPC   C2419428   2.819   2.627   8.698  0.3134  0.3806  0.4362
  161DOPC   H4R19429   2.788   2.721   8.749 -0.0165 -0.8275  2.6142
  161DOPC   H4S19430   2.787   2.636   8.592  0.4473  0.5622  0.4112
  161DOPC   C2519431   2.969   2.630   8.718  0.0873  0.0159  0.3314
  161DOPC   H5R19432   2.998   2.608   8.823  0.3935 -1.1620  0.0216
  161DOPC   H5S19433   2.998   2.734   8.692 -0.8214  0.2849  0.3701
  161DOPC   C2619434   3.039   2.532   8.630  0.5696 -0.3721 -0.3342
  161DOPC   H6R19435   2.996   2.431   8.647 -0.6151  0.1486 -0.1450
  161DOPC   H6S19436   3.144   2.518   8.661  0.4587 -0.6176 -0.0595
  161DOPC   C2719437   3.035   2.558   8.476  0.4787 -0.2607 -0.4479
  161DOPC   H7R19438   3.084   2.657   8.464 -2.2145  1.2304  0.0697
  161DOPC   H7S19439   2.930   2.568   8.441  0.3236  3.4879  0.5974
  161DOPC   C2819440   3.100   2.443   8.398  0.2555 -0.1166 -0.3439
  161DOPC   H8R19441   3.056   2.448   8.296 -0.0150  1.2702 -0.1805
  161DOPC   H8S19442   3.064   2.345   8.437  0.9288 -0.7093 -1.1927
  161DOPC   C2919443   3.250   2.453   8.400  1.4804  0.8871 -0.0666
  161DOPC   H9R19444   3.307   2.413   8.485 -1.9614 -1.6796  1.2724
  161DOPC  C21019445   3.322   2.520   8.313  0.3041 -0.4019  0.6108
  161DOPC  H10R19446   3.432   2.522   8.315  0.3560  0.0493 -1.2163
  161DOPC  C21119447   3.272   2.586   8.191 -0.0606 -0.2898  0.0710
  161DOPC  H11R19448   3.259   2.695   8.207 -1.9760 -0.3295 -0.9620
  161DOPC  H11S19449   3.172   2.554   8.156 -0.4244  2.4644 -1.7463
  161DOPC  C21219450   3.363   2.568   8.069  0.3867 -0.4340  0.5475
  161DOPC  H12R19451   3.388   2.461   8.055  0.7537 -0.3729  0.7159
  161DOPC  H12S19452   3.462   2.613   8.091  0.8224 -0.5153 -1.1269
  161DOPC  C21319453   3.282   2.622   7.946 -0.3240  0.2155 -0.6412
  161DOPC  H13R19454   3.282   2.732   7.958  0.4243  0.2353 -0.7688
  161DOPC  H13S19455   3.175   2.592   7.946 -0.5864  0.9571  1.9390
  161DOPC  C21419456   3.334   2.582   7.809  0.6005  0.7392 -0.1541
  161DOPC  H14R19457   3.322   2.472   7.815 -2.4865  1.0261  0.8223
  161DOPC  H14S19458   3.440   2.609   7.792  1.4224 -1.3859  1.1153
  161DOPC  C21519459   3.240   2.634   7.703  0.5145  0.3808  0.4467
  161DOPC  H15R19460   3.219   2.742   7.717 -2.1915 -0.2849  2.3501
  161DOPC  H15S19461   3.149   2.570   7.708  0.7825  0.0400  0.9590
  161DOPC  C21619462   3.294   2.626   7.550 -0.2214  0.4436 -0.3331
  161DOPC  H16R19463   3.340   2.527   7.530 -1.0615 -0.2709  1.1001
  161DOPC  H16S19464   3.379   2.697   7.539  0.5624 -0.6226 -1.5580
  161DOPC  C21719465   3.177   2.648   7.459 -0.3684  0.0553  0.4867
  161DOPC  H17R19466   3.153   2.756   7.451  2.1238  0.6977  0.6350
  161DOPC  H17S19467   3.087   2.598   7.500 -0.5398  0.3784  0.5124
  161DOPC  C21819468   3.189   2.603   7.315  0.5280  0.8304 -0.3594
  161DOPC  H18R19469   3.085   2.584   7.281  1.4574 -0.0410 -3.0384
  161DOPC  H18S19470   3.236   2.504   7.298 -0.0582 -0.0975  2.9090
  161DOPC  H18T19471   3.230   2.680   7.246  4.6416 -0.9726 -0.2402
  161DOPC   C3319472   2.212   2.064   8.367 -0.1800  0.5751 -0.5621
  161DOPC   H3X19473   2.133   1.990   8.393  1.1234 -0.3035  1.0646
  161DOPC   H3Y19474   2.310   2.025   8.402 -0.5578  1.8735  2.2379
  161DOPC   C3419475   2.222   2.085   8.218  0.8971  0.6135  0.5784
  161DOPC   H4X19476   2.126   2.128   8.180  0.4186 -0.3705  0.6398
  161DOPC   H4Y19477   2.238   1.981   8.181  1.6743  0.4823  1.2773
  161DOPC   C3519478   2.342   2.174   8.172  0.8740 -0.0617  0.1058
  161DOPC   H5X19479   2.438   2.123   8.194 -0.3628 -1.9696  1.4176
  161DOPC   H5Y19480   2.344   2.272   8.224  1.1577  0.3794 -0.7261
  161DOPC   C3619481   2.335   2.199   8.017 -0.6744  0.4322  0.1061
  161DOPC   H6X19482   2.404   2.123   7.973 -3.4957 -2.0937 -0.2758
  161DOPC   H6Y19483   2.234   2.165   7.987  0.2195 -0.8520 -1.6795
  161DOPC   C3719484   2.367   2.340   7.974 -0.2029 -0.9940 -0.4836
  161DOPC   H7X19485   2.465   2.366   8.018 -0.3860 -0.5318 -0.3364
  161DOPC   H7Y19486   2.354   2.344   7.864 -1.9281 -0.8237 -0.3024
  161DOPC   C3819487   2.271   2.440   8.032  0.2232 -0.3499  0.8548
  161DOPC   H8X19488   2.270   2.435   8.143  2.2558 -1.7753  0.8501
  161DOPC   H8Y19489   2.170   2.416   7.991  0.7031 -1.3728  0.2578
  161DOPC   C3919490   2.314   2.578   7.996  0.7756  0.4781  0.4415
  161DOPC   H9X19491   2.353   2.638   8.080 -0.2345  0.3102  1.0489
  161DOPC  C31019492   2.316   2.633   7.870 -0.0005 -0.2413 -0.2165
  161DOPC  H10X19493   2.372   2.725   7.850  1.5952 -0.9791  0.6574
  161DOPC  C31119494   2.267   2.581   7.743 -0.2461  1.1154 -0.3653
  161DOPC  H11X19495   2.167   2.537   7.761  0.0621  1.7424  3.6455
  161DOPC  H11Y19496   2.331   2.502   7.697 -0.9826  0.3661 -0.1182
  161DOPC  C31219497   2.256   2.689   7.631  0.1189 -0.3428 -0.1632
  161DOPC  H12X19498   2.231   2.632   7.539  2.1661  1.0082 -1.6294
  161DOPC  H12Y19499   2.354   2.738   7.614  0.0097 -0.0002  0.1737
  161DOPC  C31319500   2.142   2.785   7.649 -0.5568  0.5361  0.2424
  161DOPC  H13X19501   2.044   2.733   7.645  1.1828 -3.0276 -0.2546
  161DOPC  H13Y19502   2.153   2.829   7.750  0.6058 -1.4143  1.0188
  161DOPC  C31419503   2.129   2.901   7.556  0.1206 -0.1437  0.0641
  161DOPC  H14X19504   2.038   2.963   7.570  1.0990  1.8030 -1.6218
  161DOPC  H14Y19505   2.219   2.964   7.569 -0.0195  0.2600 -0.8118
  161DOPC  C31519506   2.136   2.869   7.404  0.8567 -0.4483  0.0471
  161DOPC  H15X19507   2.058   2.793   7.385  1.1564 -0.7373 -0.0269
  161DOPC  H15Y19508   2.238   2.837   7.376  1.5935  2.2883 -0.7436
  161DOPC  C31619509   2.080   2.993   7.327  0.6490 -0.2477  0.3186
  161DOPC  H16X19510   1.995   3.032   7.388  0.0819 -1.2030  0.1474
  161DOPC  H16Y19511   2.162   3.068   7.336  0.8397 -0.4038 -0.0905
  161DOPC  C31719512   2.049   2.972   7.185  0.0705  0.1604  0.7433
  161DOPC  H17X19513   2.140   2.959   7.123 -1.1192  1.8054 -1.5005
  161DOPC  H17Y19514   1.989   2.880   7.167  1.0966 -0.5420  0.8026
  161DOPC  C31819515   1.986   3.089   7.112  0.7411  0.1371  0.4034
  161DOPC  H18X19516   1.885   3.122   7.147  1.1384 -0.0917  1.8340
  161DOPC  H18Y19517   2.053   3.177   7.110  3.5178 -1.8204  1.7681
  161DOPC  H18Z19518   1.973   3.048   7.010  1.0015  0.4079  0.2630
  162DOPC     N19519   1.528   0.183   8.520  0.5629 -0.6971  0.5539
  162DOPC   C1219520   1.405   0.271   8.523  0.4382  0.3612 -0.6319
  162DOPC  H12A19521   1.408   0.317   8.426  0.9310  1.7429  0.0067
  162DOPC  H12B19522   1.406   0.349   8.598 -0.9555 -0.3410  0.1608
  162DOPC   C1319523   1.629   0.273   8.477 -0.0341  0.1968  0.4174
  162DOPC  H13A19524   1.593   0.311   8.382 -2.6051 -0.0897  1.2007
  162DOPC  H13B19525   1.638   0.357   8.544 -1.5485  0.4730  0.3009
  162DOPC  H13C19526   1.729   0.237   8.457  0.1805  1.5080 -1.0807
  162DOPC   C1419527   1.519   0.076   8.422  0.1688 -0.1902  0.4702
  162DOPC  H14A19528   1.435   0.016   8.456  1.4999 -1.9687  0.7911
  162DOPC  H14B19529   1.499   0.108   8.320 -1.3168 -1.0223  0.4688
  162DOPC  H14C19530   1.614   0.026   8.416  1.5155  2.3373 -1.2091
  162DOPC   C1519531   1.552   0.127   8.651  0.3917  0.0346 -0.4087
  162DOPC  H15A19532   1.527   0.195   8.732  1.7703  1.3575 -1.0466
  162DOPC  H15B19533   1.657   0.103   8.656 -0.1034 -2.1145  1.9153
  162DOPC  H15C19534   1.487   0.042   8.664 -2.0063  1.4368 -2.4327
  162DOPC   C1119535   1.269   0.211   8.541 -0.3455  0.8276  0.0275
  162DOPC  H11A19536   1.187   0.286   8.531 -1.4615 -0.1042  1.6577
  162DOPC  H11B19537   1.243   0.141   8.460 -2.5797 -0.1280  1.4731
  162DOPC     P19538   1.217  -0.001   8.688 -0.1520  0.5083  0.6417
  162DOPC   O1319539   1.157  -0.027   8.817  0.0079  0.2971  0.0109
  162DOPC   O1419540   1.330  -0.088   8.655  0.3201  0.6969 -0.4136
  162DOPC   O1219541   1.248   0.152   8.669 -0.0531 -0.4979  0.0879
  162DOPC   O1119542   1.110  -0.026   8.578  0.3017 -0.5532 -0.0719
  162DOPC    C119543   0.990   0.054   8.581  0.5309 -0.6680 -0.0763
  162DOPC    HA19544   1.025   0.159   8.570  0.8879 -0.9018 -1.3633
  162DOPC    HB19545   0.929   0.045   8.673  2.0067  0.2538  1.0396
  162DOPC    C219546   0.905   0.015   8.460 -0.4269  0.0573  0.2731
  162DOPC    HS19547   0.875  -0.090   8.481  1.4762 -0.2155  1.9764
  162DOPC   O2119548   0.980   0.012   8.335 -0.0677 -0.1827 -0.1500
  162DOPC   C2119549   1.015   0.121   8.277 -0.3698  0.7334 -0.5456
  162DOPC   O2219550   1.005   0.236   8.318  0.2270 -0.1224 -0.5026
  162DOPC   C2219551   1.061   0.085   8.133  1.0847  0.1669 -0.0647
  162DOPC   H2R19552   1.098  -0.019   8.126  1.0656 -0.0760  2.4424
  162DOPC   H2S19553   1.153   0.141   8.108  0.2191  1.9858  0.5642
  162DOPC    C319554   0.781   0.108   8.452 -0.2607  0.2782  0.2083
  162DOPC    HX19555   0.820   0.212   8.456  1.4409 -0.2680 -0.8944
  162DOPC    HY19556   0.716   0.101   8.541 -1.8596 -3.5579 -1.0556
  162DOPC   O3119557   0.701   0.088   8.328  0.5371 -0.1458  0.4950
  162DOPC   C3119558   0.611  -0.007   8.350 -0.0753  0.1941  0.7068
  162DOPC   O3219559   0.617  -0.094   8.440  0.3336 -0.4238 -0.0675
  162DOPC   C3219560   0.497   0.005   8.243  0.1051 -0.0347 -0.3134
  162DOPC   H2X19561   0.428  -0.082   8.239 -0.0944  0.0617  0.6541
  162DOPC   H2Y19562   0.440   0.100   8.252  1.0244  0.7407 -2.1432
  162DOPC   C2319563   0.957   0.099   8.022 -0.1963  0.1202  0.3056
  162DOPC   H3R19564   0.892   0.188   8.039  0.1228  0.1915  1.2319
  162DOPC   H3S19565   0.890   0.010   8.028  0.8001 -0.8073 -1.5286
  162DOPC   C2419566   1.026   0.126   7.888 -0.0554 -0.1630 -0.6711
  162DOPC   H4R19567   1.080   0.031   7.868 -0.9850 -0.2609 -3.0314
  162DOPC   H4S19568   1.106   0.203   7.894  2.8542 -2.9817 -0.5994
  162DOPC   C2519569   0.931   0.161   7.777  0.0157 -0.2055 -0.9577
  162DOPC   H5R19570   0.894   0.265   7.793 -0.5265 -0.2513 -1.8702
  162DOPC   H5S19571   0.839   0.100   7.787  0.3333 -0.4015  1.5310
  162DOPC   C2619572   0.999   0.150   7.640 -0.0260 -0.6377  0.0751
  162DOPC   H6R19573   1.068   0.063   7.640  0.4515 -0.2997 -1.6451
  162DOPC   H6S19574   1.056   0.243   7.619 -0.4290  0.1792  2.3535
  162DOPC   C2719575   0.905   0.108   7.529  0.1891  0.3930 -0.0799
  162DOPC   H7R19576   0.859   0.017   7.574 -0.1538  1.0182  0.8578
  162DOPC   H7S19577   0.974   0.081   7.446 -0.5974  0.8997 -0.9163
  162DOPC   C2819578   0.801   0.217   7.499  0.2557 -0.5935 -0.3404
  162DOPC   H8R19579   0.851   0.316   7.494 -0.0052 -0.3715  1.0123
  162DOPC   H8S19580   0.720   0.216   7.575 -0.3094 -4.2281 -0.8002
  162DOPC   C2919581   0.720   0.178   7.376  0.9203  0.5911  0.5266
  162DOPC   H9R19582   0.624   0.130   7.398  1.0876  0.4774  1.0224
  162DOPC  C21019583   0.741   0.232   7.257 -0.3419 -0.5033 -0.3158
  162DOPC  H10R19584   0.666   0.207   7.181 -0.6692  1.3052 -0.6312
  162DOPC  C21119585   0.870   0.299   7.213  0.1053  0.4185 -0.6474
  162DOPC  H11R19586   0.942   0.315   7.296 -0.6869  0.6074  0.0101
  162DOPC  H11S19587   0.852   0.405   7.186  1.9247  1.2437  1.1479
  162DOPC  C21219588   0.924   0.234   7.090 -0.6824 -0.3127 -0.1440
  162DOPC  H12R19589   0.943   0.125   7.092  3.1841  0.2359  0.8983
  162DOPC  H12S19590   1.030   0.266   7.080 -0.4636 -0.0490  2.2931
  162DOPC  C21319591   0.843   0.273   6.960  0.5221  0.6414  0.2929
  162DOPC  H13R19592   0.794   0.372   6.973  0.3896  0.5470  0.5106
  162DOPC  H13S19593   0.753   0.209   6.956  0.3680  0.9035 -0.5911
  162DOPC  C21419594   0.931   0.260   6.831  0.3456  0.2587  0.0474
  162DOPC  H14R19595   0.969   0.156   6.826 -1.2688 -0.3268 -0.8028
  162DOPC  H14S19596   1.017   0.330   6.838  0.8109 -0.3548  0.5856
  162DOPC  C21519597   0.850   0.281   6.705  0.1508  0.6343 -0.1902
  162DOPC  H15R19598   0.810   0.384   6.715  0.4902  0.7004  0.5688
  162DOPC  H15S19599   0.765   0.209   6.698  0.8117  0.0092 -2.9685
  162DOPC  C21619600   0.939   0.263   6.585  0.7757 -0.3164  0.1265
  162DOPC  H16R19601   0.949   0.153   6.568 -1.2355 -0.2714 -1.6661
  162DOPC  H16S19602   1.038   0.311   6.599 -0.5255  2.1599  1.3708
  162DOPC  C21719603   0.888   0.326   6.455  0.8798  0.2065 -0.1597
  162DOPC  H17R19604   0.862   0.434   6.458 -0.9142 -0.1964  0.0311
  162DOPC  H17S19605   0.800   0.262   6.431  0.4127  0.2858  1.2367
  162DOPC  C21819606   0.987   0.321   6.340  0.4148  0.6365  0.0766
  162DOPC  H18R19607   0.960   0.391   6.258  1.8429 -0.3318 -1.2590
  162DOPC  H18S19608   1.000   0.217   6.303  1.1864  0.3820  1.0178
  162DOPC  H18T19609   1.082   0.352   6.388 -0.6611  0.6773  2.2831
  162DOPC   C3319610   0.550   0.018   8.098 -0.6296  0.1870  0.4817
  162DOPC   H3X19611   0.637  -0.049   8.080 -1.0882 -1.1120  2.6964
  162DOPC   H3Y19612   0.571   0.127   8.106 -0.3437  0.0992  0.9957
  162DOPC   C3419613   0.448  -0.016   7.984 -0.4326 -0.6952  0.1184
  162DOPC   H4X19614   0.356   0.046   7.996 -0.2251 -0.5383  0.9386
  162DOPC   H4Y19615   0.404  -0.117   8.002 -2.7314  0.0584 -0.8867
  162DOPC   C3519616   0.510   0.006   7.843  0.6538 -0.3230  0.1072
  162DOPC   H5X19617   0.613  -0.034   7.852  0.9323 -0.3192 -2.3733
  162DOPC   H5Y19618   0.524   0.115   7.822  2.0865 -0.6656 -0.8970
  162DOPC   C3619619   0.428  -0.048   7.729 -0.8536 -0.3248  0.3262
  162DOPC   H6X19620   0.374  -0.138   7.765 -1.5795 -1.1697 -2.6157
  162DOPC   H6Y19621   0.351   0.027   7.702 -1.1766 -1.1408 -1.1493
  162DOPC   C3719622   0.513  -0.088   7.609 -0.4454  0.0945  0.1714
  162DOPC   H7X19623   0.550   0.004   7.557 -2.4117  1.0508  0.3587
  162DOPC   H7Y19624   0.596  -0.158   7.634 -1.2638 -0.0298  2.7458
  162DOPC   C3819625   0.429  -0.162   7.500 -0.2936 -0.3280  0.9560
  162DOPC   H8X19626   0.337  -0.104   7.476 -1.0942 -2.0558 -0.3892
  162DOPC   H8Y19627   0.393  -0.254   7.551 -0.4722 -0.3045  0.8744
  162DOPC   C3919628   0.502  -0.217   7.380 -0.1280  0.2918 -0.0738
  162DOPC   H9X19629   0.591  -0.275   7.407 -0.7479  0.0231  1.4653
  162DOPC  C31019630   0.485  -0.184   7.250  1.1652  0.4319  0.7668
  162DOPC  H10X19631   0.550  -0.225   7.172 -0.0772  0.3629 -0.2609
  162DOPC  C31119632   0.390  -0.077   7.197 -0.0738  0.7375  0.6184
  162DOPC  H11X19633   0.439   0.022   7.188  1.6836 -0.1179  0.3324
  162DOPC  H11Y19634   0.296  -0.070   7.256 -0.8860 -0.4666 -0.4508
  162DOPC  C31219635   0.355  -0.105   7.048  0.2466  1.3523 -0.1770
  162DOPC  H12X19636   0.262  -0.049   7.025 -0.5162  0.1768 -0.0849
  162DOPC  H12Y19637   0.324  -0.211   7.029  1.7478  1.0783 -1.3101
  162DOPC  C31319638   0.464  -0.062   6.953  0.2905  0.5228 -0.0944
  162DOPC  H13X19639   0.511   0.030   6.993  1.8637 -1.0462  1.8767
  162DOPC  H13Y19640   0.549  -0.131   6.973 -0.8999 -0.6714  1.0259
  162DOPC  C31419641   0.422  -0.055   6.809 -0.5504  0.6218  0.0170
  162DOPC  H14X19642   0.428  -0.157   6.766  0.4304  0.1342  1.2415
  162DOPC  H14Y19643   0.315  -0.025   6.805 -1.4977 -2.5553 -1.3544
  162DOPC  C31519644   0.512   0.048   6.738  0.1893  0.4608 -0.6431
  162DOPC  H15X19645   0.620   0.023   6.743  0.7085  2.6676  0.7556
  162DOPC  H15Y19646   0.493   0.153   6.770 -1.4417  0.7967 -2.5252
  162DOPC  C31619647   0.478   0.035   6.594 -0.3867  0.5791  0.4310
  162DOPC  H16X19648   0.526  -0.064   6.581  0.9398  1.3323 -0.6421
  162DOPC  H16Y19649   0.379   0.005   6.553  0.4856 -2.3243  0.2766
  162DOPC  C31719650   0.534   0.154   6.506  0.9330  0.0415  0.3567
  162DOPC  H17X19651   0.492   0.256   6.517  2.5735  0.8562 -0.6067
  162DOPC  H17Y19652   0.644   0.157   6.521  1.0386 -0.1993 -0.3473
  162DOPC  C31819653   0.517   0.127   6.357  0.3311  0.0864 -0.5013
  162DOPC  H18X19654   0.549   0.205   6.285  0.7668 -0.4456 -0.8870
  162DOPC  H18Y19655   0.579   0.039   6.331  1.5717  1.1807 -1.3282
  162DOPC  H18Z19656   0.409   0.115   6.331  0.4174  0.3577 -0.9869
  163DOPC     N19657   0.314   4.622   9.441 -0.4710  0.3031  0.0764
  163DOPC   C1219658   0.328   4.579   9.296  0.2149 -0.2600  0.8936
  163DOPC  H12A19659   0.236   4.606   9.245  0.0306 -2.1332  0.1721
  163DOPC  H12B19660   0.331   4.472   9.290 -1.3687 -0.2613 -0.9733
  163DOPC   C1319661   0.451   4.591   9.510  0.8561 -0.4516 -0.2297
  163DOPC  H13A19662   0.448   4.618   9.614  2.5560 -0.3013 -0.1873
  163DOPC  H13B19663   0.482   4.490   9.487  1.2985 -0.3125 -0.2570
  163DOPC  H13C19664   0.520   4.665   9.473 -1.7565  2.8509  0.9819
  163DOPC   C1419665   0.197   4.546   9.505 -0.1389 -0.6536 -0.3832
  163DOPC  H14A19666   0.211   4.440   9.495  0.4999 -0.6192  0.0504
  163DOPC  H14B19667   0.196   4.569   9.610 -1.0164  0.5366 -0.6273
  163DOPC  H14C19668   0.104   4.583   9.466  0.1794  0.7104  0.0785
  163DOPC   C1519669   0.290   4.770   9.456  0.0452  0.0519 -0.0161
  163DOPC  H15A19670   0.204   4.808   9.403  0.9066 -0.8926 -2.2041
  163DOPC  H15B19671   0.368   4.838   9.424 -2.1285  1.6903 -2.1843
  163DOPC  H15C19672   0.284   4.790   9.562  0.4936 -1.1314  0.2563
  163DOPC   C1119673   0.436   4.639   9.204 -0.1094 -0.0805 -0.6805
  163DOPC  H11A19674   0.533   4.628   9.257 -1.2836 -0.3014  1.5326
  163DOPC  H11B19675   0.455   4.580   9.112 -2.7464 -1.3267 -0.4993
  163DOPC     P19676   0.291   4.810   9.073 -0.1065 -0.1414 -0.3415
  163DOPC   O1319677   0.258   4.953   9.064 -0.2009  0.4460 -0.0890
  163DOPC   O1419678   0.180   4.712   9.100  0.3746 -0.1936  0.5657
  163DOPC   O1219679   0.402   4.776   9.181 -0.5706  0.2142  0.4633
  163DOPC   O1119680   0.375   4.774   8.940  0.0709 -0.1637  0.4332
  163DOPC    C119681   0.503   4.839   8.920 -0.5376  0.3939 -0.0460
  163DOPC    HA19682   0.583   4.782   8.972  0.6420  0.2733 -1.9193
  163DOPC    HB19683   0.507   4.946   8.952 -2.2353  0.7962 -1.0184
  163DOPC    C219684   0.529   4.845   8.772 -0.0324  0.2471  0.0730
  163DOPC    HS19685   0.633   4.882   8.758 -0.4146  0.8596 -1.3959
  163DOPC   O2119686   0.436   4.931   8.715  0.3898 -0.1979  0.1577
  163DOPC   C2119687   0.467   5.010   8.612 -0.8391  0.7255 -0.1120
  163DOPC   O2219688   0.582   5.037   8.574 -0.4658  0.2061 -0.3578
  163DOPC   C2219689   0.340   5.062   8.548 -0.1782  0.0966  0.0529
  163DOPC   H2R19690   0.301   5.142   8.615 -1.9019 -0.9254  0.3417
  163DOPC   H2S19691   0.268   4.977   8.546  0.4815 -0.4825  0.4877
  163DOPC    C319692   0.528   4.712   8.694  0.4426  0.0553  0.1176
  163DOPC    HX19693   0.432   4.664   8.723  0.7242  0.4226  1.7504
  163DOPC    HY19694   0.619   4.658   8.732 -0.0389 -0.5707  0.4089
  163DOPC   O3119695   0.544   4.733   8.550  0.3622 -0.5482  0.4834
  163DOPC   C3119696   0.571   4.617   8.487 -0.5278  0.7816  0.2337
  163DOPC   O3219697   0.549   4.504   8.528  0.5469 -0.3572  0.4608
  163DOPC   C3219698   0.636   4.651   8.354  0.2457  0.2586  0.4401
  163DOPC   H2X19699   0.622   4.759   8.334  0.2167  0.2648  0.4972
  163DOPC   H2Y19700   0.745   4.634   8.365  0.4760 -1.1408 -2.8029
  163DOPC   C2319701   0.351   5.121   8.403 -0.0361 -0.8028 -0.2472
  163DOPC   H3R19702   0.444   5.180   8.388  0.3817 -1.4518 -0.2568
  163DOPC   H3S19703   0.281   5.206   8.388  0.3171 -0.4947 -0.1830
  163DOPC   C2419704   0.329   5.021   8.289 -0.1833  0.7645  0.2426
  163DOPC   H4R19705   0.239   4.957   8.301  0.4485 -0.0156  0.9748
  163DOPC   H4S19706   0.419   4.956   8.282  0.4323  1.7421 -1.3171
  163DOPC   C2519707   0.311   5.087   8.157 -0.3523  0.3806  0.2688
  163DOPC   H5R19708   0.398   5.154   8.143  0.2653 -0.5965 -0.8210
  163DOPC   H5S19709   0.223   5.155   8.162 -1.7775 -1.4013  0.6897
  163DOPC   C2619710   0.303   4.987   8.042  0.0638  0.5810 -0.6137
  163DOPC   H6R19711   0.232   4.904   8.064  0.9795 -0.6882 -2.2325
  163DOPC   H6S19712   0.397   4.931   8.026  0.6247  1.1432  0.6404
  163DOPC   C2719713   0.292   5.039   7.899  0.5278 -0.1420 -0.0416
  163DOPC   H7R19714   0.360   5.127   7.897  0.6632 -0.1425  2.2089
  163DOPC   H7S19715   0.188   5.077   7.892  0.3859 -0.6221 -0.6478
  163DOPC   C2819716   0.320   4.935   7.791  0.4857 -0.0604 -0.5400
  163DOPC   H8R19717   0.278   4.843   7.837  1.7192  0.1851  1.1654
  163DOPC   H8S19718   0.427   4.919   7.763  0.3995  1.5116 -1.9147
  163DOPC   C2919719   0.258   4.967   7.654 -0.3602  0.7090 -0.0086
  163DOPC   H9R19720   0.153   4.936   7.647 -0.2998  0.6746 -1.0352
  163DOPC  C21019721   0.315   5.046   7.561  0.2548 -0.4107  0.1698
  163DOPC  H10R19722   0.262   5.057   7.466  1.3917 -0.7841 -0.5188
  163DOPC  C21119723   0.441   5.125   7.568 -0.1878  0.4160  0.7813
  163DOPC  H11R19724   0.492   5.112   7.667 -3.4835 -2.5917  2.3091
  163DOPC  H11S19725   0.433   5.236   7.559  0.7714  0.3651 -1.0695
  163DOPC  C21219726   0.530   5.086   7.452  0.4489 -0.9573  0.6042
  163DOPC  H12R19727   0.542   4.976   7.439  0.9022 -0.6359 -2.1625
  163DOPC  H12S19728   0.627   5.134   7.478 -0.4266  1.9294 -1.0749
  163DOPC  C21319729   0.478   5.147   7.317 -0.4306 -0.4557 -0.6564
  163DOPC  H13R19730   0.474   5.258   7.320 -1.9942 -0.5087 -0.2523
  163DOPC  H13S19731   0.378   5.106   7.295 -0.6714  0.0456 -0.5033
  163DOPC  C21419732   0.566   5.097   7.204  0.2132 -0.2211  0.2256
  163DOPC  H14R19733   0.584   4.987   7.201 -2.2109 -0.6782  0.0188
  163DOPC  H14S19734   0.665   5.147   7.207  0.3251 -0.4275  0.0646
  163DOPC  C21519735   0.498   5.117   7.062 -0.2772  0.5572 -0.0590
  163DOPC  H15R19736   0.445   5.215   7.060  1.8728  1.8001  0.3734
  163DOPC  H15S19737   0.432   5.031   7.038 -0.1468  0.6462 -0.7431
  163DOPC  C21619738   0.609   5.102   6.950  0.4132  0.2232  0.2266
  163DOPC  H16R19739   0.644   4.997   6.964 -1.1883 -0.5203 -1.0062
  163DOPC  H16S19740   0.690   5.174   6.973 -0.2276  0.3216  2.3599
  163DOPC  C21719741   0.559   5.104   6.800 -0.0157  0.1511 -0.1939
  163DOPC  H17R19742   0.498   5.196   6.792 -0.7581 -0.4071 -1.0505
  163DOPC  H17S19743   0.485   5.021   6.798  0.9430 -0.7399  0.2869
  163DOPC  C21819744   0.672   5.091   6.696  0.1555  0.0566  0.5971
  163DOPC  H18R19745   0.738   5.006   6.723 -1.6661 -1.8729 -0.6772
  163DOPC  H18S19746   0.727   5.187   6.687  1.3587 -0.3997  2.5412
  163DOPC  H18T19747   0.624   5.056   6.602  0.0492 -1.6797  1.2523
  163DOPC   C3319748   0.567   4.576   8.233  0.3120  0.2706 -0.3113
  163DOPC   H3X19749   0.459   4.598   8.248  0.2473 -0.0015 -0.3643
  163DOPC   H3Y19750   0.570   4.465   8.244 -3.3137 -0.1305 -1.9421
  163DOPC   C3419751   0.619   4.621   8.097 -0.1171  0.0880  0.1570
  163DOPC   H4X19752   0.728   4.641   8.094  0.0435 -0.1085  2.5479
  163DOPC   H4Y19753   0.583   4.724   8.076  1.5269  0.6143 -0.2360
  163DOPC   C3519754   0.582   4.525   7.987  0.3727  0.1658  0.1543
  163DOPC   H5X19755   0.471   4.519   7.993  0.5066 -1.0007  2.3714
  163DOPC   H5Y19756   0.627   4.428   8.016 -1.3851 -0.0201  2.5136
  163DOPC   C3619757   0.629   4.566   7.839 -0.2663  0.7566  0.2636
  163DOPC   H6X19758   0.730   4.611   7.842 -0.6144  1.6246 -0.6372
  163DOPC   H6Y19759   0.630   4.474   7.778 -0.0053  1.0296 -0.1445
  163DOPC   C3719760   0.550   4.673   7.777  0.6814 -0.0190  0.0444
  163DOPC   H7X19761   0.447   4.672   7.820  1.5344  2.7102  2.4510
  163DOPC   H7Y19762   0.591   4.770   7.813 -0.8114  0.5106  0.3862
  163DOPC   C3819763   0.542   4.666   7.620  0.6665 -0.6983 -0.2358
  163DOPC   H8X19764   0.525   4.764   7.571  0.4372 -1.6638 -2.2022
  163DOPC   H8Y19765   0.456   4.603   7.585  1.5931 -1.5846 -0.9964
  163DOPC   C3919766   0.660   4.605   7.552 -0.7113 -0.4146 -0.4686
  163DOPC   H9X19767   0.754   4.636   7.601 -1.8189  0.0454  1.4854
  163DOPC  C31019768   0.666   4.529   7.443  0.4441 -0.0722  0.1126
  163DOPC  H10X19769   0.760   4.479   7.416 -0.3839 -1.3116 -0.5080
  163DOPC  C31119770   0.552   4.479   7.365  0.4331  0.1820  0.3572
  163DOPC  H11X19771   0.451   4.512   7.398  0.6879  0.1895  1.1432
  163DOPC  H11Y19772   0.553   4.369   7.377  0.6737  0.1918  0.4309
  163DOPC  C31219773   0.566   4.517   7.215 -0.1998  0.1021 -0.1178
  163DOPC  H12X19774   0.495   4.447   7.165 -2.1647  2.4006 -0.7110
  163DOPC  H12Y19775   0.660   4.486   7.166 -0.4575  0.5442 -0.9155
  163DOPC  C31319776   0.528   4.661   7.177 -0.0634  0.4535 -0.1078
  163DOPC  H13X19777   0.429   4.697   7.212 -0.9762 -1.5149 -0.5461
  163DOPC  H13Y19778   0.593   4.732   7.233 -2.0785  0.4805  2.3835
  163DOPC  C31419779   0.564   4.678   7.031 -0.3897 -0.4950  0.6617
  163DOPC  H14X19780   0.572   4.787   7.012 -2.7954 -0.7202 -2.3210
  163DOPC  H14Y19781   0.664   4.632   7.013 -1.0626 -1.9676  0.5365
  163DOPC  C31519782   0.472   4.622   6.925 -0.3767  0.4406 -0.4259
  163DOPC  H15X19783   0.369   4.657   6.947  0.2329  2.9338 -1.1487
  163DOPC  H15Y19784   0.465   4.512   6.934 -0.5714  0.5422  0.8102
  163DOPC  C31619785   0.511   4.657   6.781 -1.0050  0.5185 -0.0002
  163DOPC  H16X19786   0.508   4.768   6.784 -0.6646  0.5279  0.0624
  163DOPC  H16Y19787   0.618   4.634   6.760 -1.3079 -0.8313 -0.1233
  163DOPC  C31719788   0.415   4.603   6.677  0.0196 -0.5000  0.8154
  163DOPC  H17X19789   0.404   4.493   6.690 -1.8217 -0.5431 -0.6207
  163DOPC  H17Y19790   0.317   4.653   6.690 -0.0179  0.0117 -1.0283
  163DOPC  C31819791   0.459   4.619   6.531 -0.2029  0.3904  0.1429
  163DOPC  H18X19792   0.507   4.719   6.524  0.1119  0.1823 -0.7795
  163DOPC  H18Y19793   0.529   4.534   6.520  0.5524  0.6531  2.4369
  163DOPC  H18Z19794   0.381   4.605   6.453  0.8989 -2.7661 -0.5595
  164DOPC     N19795   1.092   2.614   8.821 -0.3973 -0.5363 -0.2061
  164DOPC   C1219796   1.192   2.646   8.935  0.0967  0.2547  0.3004
  164DOPC  H12A19797   1.261   2.566   8.959  2.3854  2.1247  0.3699
  164DOPC  H12B19798   1.142   2.663   9.029 -0.4379 -0.8215  0.2245
  164DOPC   C1319799   1.013   2.498   8.865  0.7039 -0.2959 -0.9044
  164DOPC  H13A19800   0.948   2.461   8.786 -0.1067 -0.2678 -0.2615
  164DOPC  H13B19801   1.083   2.424   8.902 -0.3990 -0.5559  0.7463
  164DOPC  H13C19802   0.948   2.526   8.946  1.1846  2.6358 -1.4136
  164DOPC   C1419803   1.164   2.578   8.701 -0.5446  0.1809 -0.4711
  164DOPC  H14A19804   1.209   2.481   8.714  0.2530  0.6773  0.7039
  164DOPC  H14B19805   1.108   2.586   8.609  0.7718  1.5385 -1.1958
  164DOPC  H14C19806   1.243   2.651   8.691 -2.0813  1.9429 -0.2393
  164DOPC   C1519807   1.012   2.742   8.802  0.4852 -0.3930 -0.5739
  164DOPC  H15A19808   0.948   2.715   8.719 -0.2764  1.0447 -0.4880
  164DOPC  H15B19809   1.062   2.830   8.765 -0.4140  1.0163  1.3970
  164DOPC  H15C19810   0.949   2.767   8.887 -0.3014  0.1250 -1.2867
  164DOPC   C1119811   1.285   2.774   8.918 -0.5611  0.4434  0.2141
  164DOPC  H11A19812   1.223   2.866   8.911  0.1561  0.8034 -3.1415
  164DOPC  H11B19813   1.349   2.782   9.009  1.3078 -1.8460 -0.7891
  164DOPC     P19814   1.507   2.771   8.802  0.4192  0.1716 -0.0152
  164DOPC   O1319815   1.538   2.644   8.868  0.4587  0.3455 -0.0473
  164DOPC   O1419816   1.569   2.888   8.864  0.6414 -0.0675 -0.0135
  164DOPC   O1219817   1.352   2.776   8.796 -0.5453  0.0961  0.3496
  164DOPC   O1119818   1.544   2.754   8.654  0.3692 -0.0714 -0.8263
  164DOPC    C119819   1.511   2.630   8.587  0.8272  0.2054  0.7136
  164DOPC    HA19820   1.408   2.636   8.547  1.3063  1.2173 -0.4364
  164DOPC    HB19821   1.535   2.542   8.651  1.1252 -0.2803 -0.0448
  164DOPC    C219822   1.608   2.611   8.473  0.6467  0.1465 -0.1413
  164DOPC    HS19823   1.711   2.600   8.513 -0.3600 -0.6990  2.4333
  164DOPC   O2119824   1.579   2.722   8.379 -0.8121  0.4890 -0.2551
  164DOPC   C2119825   1.677   2.794   8.336 -0.5110 -0.3050 -0.1801
  164DOPC   O2219826   1.798   2.782   8.368  0.3123 -0.3370 -0.1783
  164DOPC   C2219827   1.625   2.899   8.239  0.0844 -0.1574 -0.3673
  164DOPC   H2R19828   1.660   2.998   8.273  0.5325 -0.4661  0.0875
  164DOPC   H2S19829   1.514   2.896   8.244  0.1447 -0.2338  2.0225
  164DOPC    C319830   1.582   2.469   8.398  0.1601 -0.4032 -0.6966
  164DOPC    HX19831   1.473   2.450   8.405  0.4481 -1.5152  2.0923
  164DOPC    HY19832   1.618   2.383   8.459 -0.7862 -1.3028 -1.3587
  164DOPC   O3119833   1.640   2.455   8.266  0.4217 -0.0625 -0.5139
  164DOPC   C3119834   1.773   2.429   8.267  0.9427 -0.2729 -0.1948
  164DOPC   O3219835   1.846   2.427   8.364  0.2159  0.7230  0.1926
  164DOPC   C3219836   1.818   2.407   8.125 -0.0546  0.0039 -0.6391
  164DOPC   H2X19837   1.892   2.324   8.126  0.9699  0.8748  1.7636
  164DOPC   H2Y19838   1.741   2.364   8.057 -2.6197 -0.2574  2.2127
  164DOPC   C2319839   1.695   2.869   8.103  0.3319  0.4117 -0.2315
  164DOPC   H3R19840   1.644   2.772   8.083  1.5238 -0.2838  0.0348
  164DOPC   H3S19841   1.803   2.851   8.118 -0.0393  0.2425  2.9750
  164DOPC   C2419842   1.645   2.971   7.989  0.4094  0.3975  0.4794
  164DOPC   H4R19843   1.680   3.076   8.000 -4.0099  2.0471  0.6528
  164DOPC   H4S19844   1.535   2.978   8.001  0.5077  1.8281  0.7341
  164DOPC   C2519845   1.691   2.935   7.844  0.1915  0.2514 -0.0545
  164DOPC   H5R19846   1.646   2.837   7.817  0.2135  0.1768  0.1781
  164DOPC   H5S19847   1.799   2.913   7.853 -0.1992 -2.3842 -1.1206
  164DOPC   C2619848   1.637   3.027   7.735 -0.7671  0.0339 -0.0812
  164DOPC   H6R19849   1.659   3.133   7.762  1.5551 -0.5308  0.4549
  164DOPC   H6S19850   1.527   3.014   7.727 -0.4849 -1.7840 -1.6726
  164DOPC   C2719851   1.692   3.003   7.597 -0.8873  0.0418 -0.0940
  164DOPC   H7R19852   1.649   2.911   7.552 -1.5544 -0.0960  0.8127
  164DOPC   H7S19853   1.803   2.993   7.606 -1.0190 -0.8393  0.7348
  164DOPC   C2819854   1.670   3.115   7.492  0.6019  0.4327 -0.6093
  164DOPC   H8R19855   1.732   3.100   7.401 -0.2902 -0.6739 -1.0469
  164DOPC   H8S19856   1.699   3.213   7.537  1.4174  1.2325 -2.7514
  164DOPC   C2919857   1.529   3.128   7.439  0.7533  0.0532  0.7420
  164DOPC   H9R19858   1.459   3.185   7.501  0.3625  2.6951 -1.8914
  164DOPC  C21019859   1.484   3.097   7.320  0.1371  0.1191  0.5197
  164DOPC  H10R19860   1.381   3.126   7.292 -0.3888 -0.1189  2.0999
  164DOPC  C21119861   1.549   3.018   7.208  0.0754 -0.0797 -0.3149
  164DOPC  H11R19862   1.474   2.942   7.177  1.3025 -1.6674  0.4922
  164DOPC  H11S19863   1.634   2.965   7.255 -0.1107  1.0373  1.3473
  164DOPC  C21219864   1.601   3.111   7.085 -0.4996  0.5218 -0.4760
  164DOPC  H12R19865   1.685   3.167   7.131 -0.8046 -0.2883  1.1334
  164DOPC  H12S19866   1.520   3.182   7.059 -0.5527  1.0494  1.0498
  164DOPC  C21319867   1.632   3.020   6.970 -0.2017 -0.2364  0.4564
  164DOPC  H13R19868   1.536   2.974   6.938 -1.1150  1.5234  0.5130
  164DOPC  H13S19869   1.708   2.942   6.992 -0.3160 -0.1362  1.2260
  164DOPC  C21419870   1.689   3.103   6.856 -0.4046 -0.5246 -0.3611
  164DOPC  H14R19871   1.755   3.178   6.903 -4.8231  3.7956 -0.1805
  164DOPC  H14S19872   1.615   3.166   6.801 -1.4293 -1.2485  0.1485
  164DOPC  C21519873   1.779   3.031   6.761 -0.5897 -0.1007  0.3002
  164DOPC  H15R19874   1.857   2.967   6.808  0.3215 -0.7544 -1.9838
  164DOPC  H15S19875   1.835   3.112   6.710 -0.6063 -1.1910 -1.5520
  164DOPC  C21619876   1.714   2.967   6.643 -0.2367  0.0089  0.0052
  164DOPC  H16R19877   1.644   3.043   6.601  0.3238  1.1893  1.1390
  164DOPC  H16S19878   1.654   2.880   6.675  0.1618 -0.9610 -1.7637
  164DOPC  C21719879   1.800   2.926   6.529  0.2879  0.4903 -0.0132
  164DOPC  H17R19880   1.762   2.838   6.474 -1.0120  1.8863 -1.4565
  164DOPC  H17S19881   1.897   2.898   6.575 -0.6241 -0.0102  1.6881
  164DOPC  C21819882   1.816   3.023   6.418 -0.5027  0.4348  0.0055
  164DOPC  H18R19883   1.734   3.026   6.343 -0.1503 -1.3103 -0.4842
  164DOPC  H18S19884   1.914   3.008   6.368 -0.1952  0.2040  0.6604
  164DOPC  H18T19885   1.821   3.126   6.459  2.7284  0.5518 -0.3862
  164DOPC   C3319886   1.880   2.538   8.073 -0.4879 -0.0238  0.3312
  164DOPC   H3X19887   1.978   2.555   8.123  0.4423 -2.6710 -0.4152
  164DOPC   H3Y19888   1.810   2.623   8.085 -0.9288 -0.3453  0.0519
  164DOPC   C3419889   1.894   2.527   7.922 -0.3214 -0.2033  0.3949
  164DOPC   H4X19890   1.969   2.448   7.900 -0.0879 -1.0055  3.5868
  164DOPC   H4Y19891   1.954   2.615   7.893 -0.4631 -0.5153 -0.8853
  164DOPC   C3519892   1.772   2.529   7.830 -0.2478 -0.5532 -0.3631
  164DOPC   H5X19893   1.709   2.617   7.857  0.6068  0.7173 -2.2604
  164DOPC   H5Y19894   1.709   2.439   7.848  0.6783 -0.5997  3.5178
  164DOPC   C3619895   1.812   2.536   7.678 -0.6873  0.1223 -0.0160
  164DOPC   H6X19896   1.896   2.608   7.672  0.7332 -1.4707 -0.1935
  164DOPC   H6Y19897   1.865   2.441   7.655  1.2162  0.9265  0.7915
  164DOPC   C3719898   1.705   2.580   7.581  0.3719  0.4300 -0.0437
  164DOPC   H7X19899   1.625   2.504   7.564 -1.1892  2.4092 -2.5279
  164DOPC   H7Y19900   1.650   2.673   7.609  2.4443  1.3422  1.1580
  164DOPC   C3819901   1.770   2.604   7.446 -0.5445  0.2502  0.0819
  164DOPC   H8X19902   1.856   2.673   7.458 -0.0374 -0.1448 -1.1314
  164DOPC   H8Y19903   1.696   2.656   7.382 -2.1309 -1.7424  0.2117
  164DOPC   C3919904   1.819   2.485   7.375  0.1122 -0.0539  0.4563
  164DOPC   H9X19905   1.854   2.405   7.441  0.2340  0.8390  1.5011
  164DOPC  C31019906   1.828   2.476   7.240 -0.2249 -0.6343 -0.0579
  164DOPC  H10X19907   1.881   2.388   7.201  1.3376  0.1359  0.2496
  164DOPC  C31119908   1.796   2.574   7.137 -0.0055 -0.7769 -0.2047
  164DOPC  H11X19909   1.877   2.649   7.128 -0.3943 -0.5033 -1.7525
  164DOPC  H11Y19910   1.711   2.635   7.175 -0.2401 -1.6729  0.7933
  164DOPC  C31219911   1.746   2.524   7.000 -0.4449  0.2906  0.0134
  164DOPC  H12X19912   1.685   2.431   7.007  0.4790 -0.3981 -0.8358
  164DOPC  H12Y19913   1.827   2.491   6.932 -1.4121 -1.3051 -0.4200
  164DOPC  C31319914   1.659   2.624   6.935  0.1160  0.0582  0.1776
  164DOPC  H13X19915   1.598   2.677   7.011 -0.8213  2.6204 -2.1671
  164DOPC  H13Y19916   1.716   2.709   6.892  0.8271 -0.0643  0.8631
  164DOPC  C31419917   1.558   2.559   6.833 -0.1393  0.7261 -0.0179
  164DOPC  H14X19918   1.487   2.635   6.797 -1.7781 -0.1541  1.2146
  164DOPC  H14Y19919   1.494   2.488   6.889  1.8555 -1.2149 -0.0316
  164DOPC  C31519920   1.620   2.486   6.717 -0.0099  0.5591  0.8853
  164DOPC  H15X19921   1.535   2.459   6.651  0.3750  2.5370 -0.5205
  164DOPC  H15Y19922   1.673   2.393   6.747 -1.3071 -0.8898 -1.1066
  164DOPC  C31619923   1.721   2.564   6.627  0.5916 -0.5241 -0.1075
  164DOPC  H16X19924   1.683   2.665   6.600  2.6792  0.4769  0.4899
  164DOPC  H16Y19925   1.812   2.583   6.688  0.3596  0.8815 -0.1592
  164DOPC  C31719926   1.769   2.488   6.503  0.4572 -0.0105  0.7155
  164DOPC  H17X19927   1.834   2.407   6.542 -0.4818 -0.4023  1.5082
  164DOPC  H17Y19928   1.688   2.436   6.449  0.6228  0.0941  0.3669
  164DOPC  C31819929   1.864   2.573   6.419  0.0772 -0.2004 -0.0309
  164DOPC  H18X19930   1.930   2.518   6.348 -1.6846  0.8295 -2.6201
  164DOPC  H18Y19931   1.807   2.651   6.365  0.2510  0.4073  0.6505
  164DOPC  H18Z19932   1.939   2.620   6.486 -1.4360 -0.8838  2.2764
  165DOPC     N19933   5.071   1.618   8.341  0.3708 -0.4509 -0.2050
  165DOPC   C1219934   5.108   1.477   8.329  0.0032  0.6363  0.1877
  165DOPC  H12A19935   5.128   1.443   8.429  1.5335  0.8519 -0.0261
  165DOPC  H12B19936   5.200   1.475   8.272 -0.5591 -0.0667 -0.7252
  165DOPC   C1319937   5.170   1.693   8.420  0.1940  0.1655 -0.3682
  165DOPC  H13A19938   5.256   1.730   8.365  1.0540 -0.9664  0.1661
  165DOPC  H13B19939   5.133   1.788   8.455  1.4912 -0.2748  2.5292
  165DOPC  H13C19940   5.209   1.638   8.505  1.6579 -2.0862 -2.3249
  165DOPC   C1419941   4.943   1.635   8.420 -0.7947 -0.1277  0.6027
  165DOPC  H14A19942   4.970   1.607   8.521  3.4693  2.9486  0.5972
  165DOPC  H14B19943   4.895   1.731   8.428 -1.0707 -0.2537  0.4820
  165DOPC  H14C19944   4.874   1.569   8.369 -0.4753 -0.1067  0.1323
  165DOPC   C1519945   5.058   1.690   8.218  0.2169  0.5720  1.0457
  165DOPC  H15A19946   5.151   1.686   8.164  0.2307 -1.6667  1.1066
  165DOPC  H15B19947   5.013   1.787   8.226 -1.6251 -0.0453 -0.9141
  165DOPC  H15C19948   4.985   1.634   8.161  1.1494 -2.0907  2.2736
  165DOPC   C1119949   5.010   1.390   8.239 -0.3961  0.4903 -0.7058
  165DOPC  H11A19950   4.998   1.443   8.142  0.7885  1.1025 -0.5269
  165DOPC  H11B19951   5.054   1.292   8.212 -0.0443  0.3577  0.2879
  165DOPC     P19952   4.837   1.276   8.403 -0.0903  0.0590 -0.2990
  165DOPC   O1319953   4.694   1.294   8.431 -0.1900  0.9580  0.1070
  165DOPC   O1419954   4.940   1.279   8.511 -0.1104  0.1988  0.1696
  165DOPC   O1219955   4.874   1.384   8.291 -0.5237 -0.0763 -0.1760
  165DOPC   O1119956   4.863   1.140   8.322  0.7941  1.0001  0.3605
  165DOPC    C119957   4.784   1.101   8.204  0.5597 -0.4751 -0.2323
  165DOPC    HA19958   4.706   1.177   8.185  1.9722  1.0807 -0.0775
  165DOPC    HB19959   4.738   1.001   8.213 -0.8037  0.1014 -0.5595
  165DOPC    C219960   4.871   1.108   8.076 -0.2723 -0.6489  0.2814
  165DOPC    HS19961   4.924   1.205   8.072  0.6392 -1.1350  0.4406
  165DOPC   O2119962   4.773   1.099   7.968 -0.2023  0.6703  0.7064
  165DOPC   C2119963   4.809   1.141   7.841  0.0278  0.0188 -0.4969
  165DOPC   O2219964   4.903   1.212   7.809  0.2607 -0.0015  0.0011
  165DOPC   C2219965   4.701   1.087   7.745  0.3870  0.0512 -0.1635
  165DOPC   H2R19966   4.601   1.131   7.765 -0.0035  0.2698 -2.2915
  165DOPC   H2S19967   4.704   0.976   7.745 -0.5700 -0.1282 -4.0505
  165DOPC    C319968   4.984   0.995   8.069  0.8609  0.0946 -0.9113
  165DOPC    HX19969   4.920   0.904   8.070  0.6679  0.2301  0.0115
  165DOPC    HY19970   5.037   0.995   8.166 -1.4104 -0.6486  0.4113
  165DOPC   O3119971   5.070   1.001   7.959 -0.1574 -0.2093  0.7166
  165DOPC   C3119972   5.173   1.084   7.966 -0.5647 -0.2648 -0.1970
  165DOPC   O3219973   5.198   1.164   8.053 -0.3055  0.3515  0.4557
  165DOPC   C3219974   5.263   1.068   7.837  0.3440  0.7045 -0.1941
  165DOPC   H2X19975   5.322   1.162   7.844  1.0259  0.3291 -0.7170
  165DOPC   H2Y19976   5.319   0.973   7.850 -1.7510 -0.5041  0.5144
  165DOPC   C2319977   4.727   1.122   7.601 -0.3017 -0.8179 -0.2465
  165DOPC   H3R19978   4.835   1.135   7.582  0.2496  0.4191  3.1137
  165DOPC   H3S19979   4.672   1.211   7.563  0.4807 -0.7682 -1.3040
  165DOPC   C2419980   4.681   1.004   7.508  0.7262 -0.0232  0.0348
  165DOPC   H4R19981   4.577   0.981   7.541  1.3470 -1.9001  0.8038
  165DOPC   H4S19982   4.750   0.922   7.535  0.3860 -0.4204 -0.2901
  165DOPC   C2519983   4.697   1.050   7.356  0.0973 -1.0843  0.3874
  165DOPC   H5R19984   4.780   0.988   7.316 -0.9207 -1.8794 -0.5664
  165DOPC   H5S19985   4.714   1.159   7.345 -2.6118 -0.7669 -1.8287
  165DOPC   C2619986   4.574   1.010   7.269  0.1704 -0.2852 -0.0789
  165DOPC   H6R19987   4.494   1.063   7.326  0.5202 -0.3718  0.5082
  165DOPC   H6S19988   4.543   0.904   7.278 -1.8506  0.2297 -0.4489
  165DOPC   C2719989   4.595   1.054   7.126  0.4248 -0.2735  0.3215
  165DOPC   H7R19990   4.637   1.157   7.121 -1.1806  0.3953  0.1836
  165DOPC   H7S19991   4.491   1.063   7.090  0.8264  0.7579 -0.6329
  165DOPC   C2819992   4.676   0.951   7.043  0.5572  0.0206  0.4711
  165DOPC   H8R19993   4.619   0.860   7.070 -1.9449  1.3671  0.0266
  165DOPC   H8S19994   4.775   0.947   7.093  0.4714 -1.2735  0.5625
  165DOPC   C2919995   4.683   0.975   6.896 -0.1585 -0.4768 -0.6790
  165DOPC   H9R19996   4.766   1.035   6.857 -1.5499  1.6866 -0.4791
  165DOPC  C21019997   4.596   0.936   6.804  0.4386  0.4900  0.6199
  165DOPC  H10R19998   4.625   0.958   6.700 -2.2895  0.6862 -0.1600
  165DOPC  C21119999   4.465   0.859   6.831 -0.4218  0.9413  0.4719
  165DOPC  H11R20000   4.429   0.886   6.933  0.5578 -0.7864  1.3230
  165DOPC  H11S20001   4.503   0.755   6.834  0.0188  1.0869 -0.0820
  165DOPC  C21220002   4.345   0.861   6.728  0.1621  0.1501 -0.0908
  165DOPC  H12R20003   4.307   0.963   6.708  0.8216  0.1837 -1.3016
  165DOPC  H12S20004   4.267   0.792   6.765  0.3134 -1.0620 -1.8778
  165DOPC  C21320005   4.394   0.803   6.593 -0.1798 -0.1201 -0.0636
  165DOPC  H13R20006   4.432   0.700   6.609 -0.6002 -0.2565  0.0828
  165DOPC  H13S20007   4.467   0.874   6.550  0.1452 -0.6121 -0.3424
  165DOPC  C21420008   4.284   0.780   6.495  0.5662  0.6469 -0.0883
  165DOPC  H14R20009   4.234   0.879   6.486 -0.4427  0.1216 -0.3605
  165DOPC  H14S20010   4.209   0.713   6.540  0.5056  0.5764 -0.2907
  165DOPC  C21520011   4.338   0.725   6.372 -0.4431 -0.2529  0.4899
  165DOPC  H15R20012   4.246   0.694   6.317 -1.0322  0.0532  1.2829
  165DOPC  H15S20013   4.399   0.633   6.385 -2.0522 -1.3284  0.7152
  165DOPC  C21620014   4.402   0.843   6.300 -0.0164  0.9262 -0.6575
  165DOPC  H16R20015   4.503   0.854   6.346 -0.5589  1.9747  0.3402
  165DOPC  H16S20016   4.363   0.945   6.318  1.8772  1.3159  1.8750
  165DOPC  C21720017   4.413   0.823   6.142 -0.3361  0.1324 -0.5951
  165DOPC  H17R20018   4.474   0.734   6.116  1.1343  1.5186 -2.1404
  165DOPC  H17S20019   4.478   0.907   6.109 -1.2665  0.4336 -1.7131
  165DOPC  C21820020   4.282   0.822   6.059 -0.5735 -0.2148  0.6387
  165DOPC  H18R20021   4.213   0.905   6.086 -1.6365 -1.2527  1.1665
  165DOPC  H18S20022   4.234   0.724   6.075  1.7370 -1.1808  2.1614
  165DOPC  H18T20023   4.305   0.830   5.950 -0.7953 -1.0819  0.5256
  165DOPC   C3320024   5.175   1.063   7.710 -0.2486 -0.1354  0.3433
  165DOPC   H3X20025   5.097   1.142   7.720 -0.9978 -0.8364  0.1669
  165DOPC   H3Y20026   5.122   0.966   7.699  0.7778 -0.5271 -1.3895
  165DOPC   C3420027   5.260   1.099   7.592  0.4949 -0.3887  0.3049
  165DOPC   H4X20028   5.297   1.202   7.609 -0.6495 -0.1416  1.4986
  165DOPC   H4Y20029   5.200   1.114   7.500  2.9805  1.7116 -1.1120
  165DOPC   C3520030   5.370   1.004   7.561 -0.1794 -0.2322 -0.0135
  165DOPC   H5X20031   5.314   0.910   7.547  0.7931 -0.6868 -0.9705
  165DOPC   H5Y20032   5.445   0.993   7.643 -0.5527  2.0239  0.7021
  165DOPC   C3620033   5.441   1.041   7.429  0.1174 -0.1907 -1.1650
  165DOPC   H6X20034   5.480   1.145   7.427 -1.1594  0.2878 -2.1885
  165DOPC   H6Y20035   5.523   0.965   7.428 -1.7025 -2.3520  1.0009
  165DOPC   C3720036   5.357   1.006   7.308  0.2897  0.0301  0.5718
  165DOPC   H7X20037   5.284   1.089   7.301 -1.2112 -1.1701  1.3777
  165DOPC   H7Y20038   5.304   0.911   7.330 -1.4541  0.3787 -1.7071
  165DOPC   C3820039   5.440   0.984   7.179 -0.1909  0.2345 -0.3473
  165DOPC   H8X20040   5.476   0.880   7.165 -0.1167  0.1050  0.7035
  165DOPC   H8Y20041   5.525   1.054   7.195 -1.5147  1.8866 -0.1939
  165DOPC   C3920042   5.366   1.035   7.057  0.6685 -0.6140 -0.9342
  165DOPC   H9X20043   5.257   1.042   7.075  1.0480 -1.5332  2.3430
  165DOPC  C31020044   5.410   1.073   6.942  0.0810  0.9000  0.7379
  165DOPC  H10X20045   5.341   1.113   6.867 -0.1772  2.1007  1.5944
  165DOPC  C31120046   5.553   1.071   6.903  0.1421  0.0556 -0.4528
  165DOPC  H11X20047   5.618   1.034   6.986 -0.5701  0.7269  0.4212
  165DOPC  H11Y20048   5.579   1.178   6.891 -0.2766  0.2959  0.6932
  165DOPC  C31220049   5.570   0.987   6.772  0.2302  0.4796  0.0220
  165DOPC  H12X20050   5.542   0.884   6.804  3.3999 -0.1259  1.2931
  165DOPC  H12Y20051   5.675   0.980   6.735  0.4370  2.9288  0.0026
  165DOPC  C31320052   5.490   1.038   6.649  0.0323  0.2582  0.8648
  165DOPC  H13X20053   5.382   1.036   6.673  0.2699  0.8169  2.0400
  165DOPC  H13Y20054   5.520   1.143   6.626  0.0256  0.0982  0.0994
  165DOPC  C31420055   5.523   0.965   6.514 -0.0104 -0.4658  0.1253
  165DOPC  H14X20056   5.621   1.005   6.481 -0.7938  0.8892 -0.6630
  165DOPC  H14Y20057   5.526   0.855   6.531  1.9511 -0.4341  0.2362
  165DOPC  C31520058   5.417   1.000   6.407  0.6591  0.0160  0.0770
  165DOPC  H15X20059   5.416   1.111   6.400 -0.5901  0.0856  0.9357
  165DOPC  H15Y20060   5.326   0.957   6.455  0.4255 -0.9029 -1.1417
  165DOPC  C31620061   5.436   0.943   6.268  0.3335 -0.3587 -0.2076
  165DOPC  H16X20062   5.400   1.009   6.186 -2.5851 -1.2599  0.2345
  165DOPC  H16Y20063   5.545   0.928   6.249  0.7781 -0.1270  1.9261
  165DOPC  C31720064   5.366   0.810   6.251 -0.1495  0.5926 -1.3447
  165DOPC  H17X20065   5.418   0.739   6.318 -1.1652  1.2933  0.2672
  165DOPC  H17Y20066   5.261   0.812   6.287 -0.6580  0.6838 -2.7599
  165DOPC  C31820067   5.376   0.751   6.113  0.3079 -0.0996  0.1428
  165DOPC  H18X20068   5.309   0.804   6.042  1.4150 -1.7090 -2.2277
  165DOPC  H18Y20069   5.472   0.755   6.058 -0.9422  1.7115 -2.0344
  165DOPC  H18Z20070   5.342   0.645   6.116  0.2955 -0.0761  1.8310
  166DOPC     N20071   0.248   4.113   9.725  0.7462  0.4391  0.2556
  166DOPC   C1220072   0.144   4.077   9.620 -0.4040  0.2216  0.0639
  166DOPC  H12A20073   0.073   4.006   9.659  2.4451 -2.2302  1.1693
  166DOPC  H12B20074   0.186   4.036   9.530  0.3181  2.7824 -0.8764
  166DOPC   C1320075   0.328   4.227   9.680  0.2639  0.3830 -0.3185
  166DOPC  H13A20076   0.270   4.317   9.667  0.5937  0.4935 -1.0407
  166DOPC  H13B20077   0.398   4.249   9.759 -1.5401  0.1360  1.4377
  166DOPC  H13C20078   0.381   4.201   9.590 -0.5350 -1.8593 -0.1949
  166DOPC   C1420079   0.336   4.001   9.762 -0.5298  0.0641 -0.7891
  166DOPC  H14A20080   0.397   4.026   9.848  0.5523 -0.8395 -1.2679
  166DOPC  H14B20081   0.276   3.915   9.787 -0.7501  0.0204 -1.4597
  166DOPC  H14C20082   0.408   3.969   9.689 -0.8153 -0.6401 -0.7654
  166DOPC   C1520083   0.182   4.146   9.852  0.6061 -0.2365  0.0620
  166DOPC  H15A20084   0.114   4.065   9.874 -1.1603  0.6029 -1.9600
  166DOPC  H15B20085   0.115   4.230   9.838  1.7490  1.2832  2.8446
  166DOPC  H15C20086   0.248   4.169   9.934 -1.1007 -1.0653  1.7508
  166DOPC   C1120087   0.064   4.198   9.558  0.1965 -0.3802  0.2158
  166DOPC  H11A20088  -0.035   4.160   9.526  0.3971 -2.3728  1.7616
  166DOPC  H11B20089   0.043   4.264   9.645 -2.2068 -1.5923  0.6574
  166DOPC     P20090   0.183   4.200   9.312  0.1299  0.3323 -0.2485
  166DOPC   O1320091   0.211   4.051   9.334  0.7639 -0.4973  0.3942
  166DOPC   O1420092   0.299   4.279   9.264 -0.3935  0.1149  0.0820
  166DOPC   O1220093   0.139   4.258   9.455 -0.2128  0.1459  0.3392
  166DOPC   O1120094   0.051   4.219   9.227 -0.0829 -0.0180  0.0497
  166DOPC    C120095   0.042   4.342   9.159  0.0731 -0.0732  0.0758
  166DOPC    HA20096   0.120   4.414   9.191  1.2050 -1.8481  1.4834
  166DOPC    HB20097  -0.059   4.384   9.175 -0.7457 -2.2779  1.0805
  166DOPC    C220098   0.075   4.333   9.004 -0.1104 -0.1618  0.1367
  166DOPC    HS20099  -0.002   4.392   8.950 -1.7224 -0.4405  1.9912
  166DOPC   O2120100   0.060   4.192   8.964 -0.4654  0.9102  0.1242
  166DOPC   C2120101  -0.060   4.145   8.975  0.3785  1.0970  0.4558
  166DOPC   O2220102  -0.161   4.204   9.004  1.2779 -0.5253  0.0708
  166DOPC   C2220103  -0.056   3.997   8.951  0.1464  0.3758  0.4103
  166DOPC   H2R20104  -0.084   3.948   9.046  0.4223 -1.0294 -0.2096
  166DOPC   H2S20105   0.048   3.962   8.935  0.1962  0.0318  1.4467
  166DOPC    C320106   0.226   4.386   8.967  0.0215  0.3040  0.3356
  166DOPC    HX20107   0.293   4.372   9.055 -0.3575 -0.4294  0.5121
  166DOPC    HY20108   0.237   4.497   8.961  0.0590  0.4969  2.7436
  166DOPC   O3120109   0.284   4.324   8.857 -0.6272 -0.0298  0.1933
  166DOPC   C3120110   0.223   4.324   8.741  0.0735  0.5257  0.4071
  166DOPC   O3220111   0.112   4.369   8.719 -0.4319 -0.2670  0.6596
  166DOPC   C3220112   0.304   4.246   8.642  0.0309  0.4681  0.6852
  166DOPC   H2X20113   0.399   4.296   8.617  1.4972 -2.5913 -0.4382
  166DOPC   H2Y20114   0.326   4.147   8.688  2.3794 -0.0599 -1.3429
  166DOPC   C2320115  -0.133   3.947   8.828  0.3384  0.2418 -0.3537
  166DOPC   H3R20116  -0.224   4.010   8.814  1.4868  2.3569  1.2237
  166DOPC   H3S20117  -0.173   3.845   8.849 -2.1800  1.3220  0.5266
  166DOPC   C2420118  -0.050   3.957   8.701 -0.3198  0.1455 -0.0843
  166DOPC   H4R20119   0.042   3.895   8.704 -0.3907  0.0285 -0.2814
  166DOPC   H4S20120  -0.029   4.062   8.672  0.1465  0.8774  2.6244
  166DOPC   C2520121  -0.129   3.898   8.588  0.0495  0.2616  0.6304
  166DOPC   H5R20122  -0.225   3.955   8.592 -0.5152 -0.5554 -0.6089
  166DOPC   H5S20123  -0.149   3.789   8.596 -1.1184  0.2341 -1.6507
  166DOPC   C2620124  -0.060   3.919   8.452  0.0312  0.3031 -0.4539
  166DOPC   H6R20125   0.035   3.861   8.445  0.8584  1.1679  2.3755
  166DOPC   H6S20126  -0.025   4.025   8.451 -0.2423  0.4499  1.7570
  166DOPC   C2720127  -0.150   3.884   8.334 -0.3382  0.2579  0.1496
  166DOPC   H7R20128  -0.228   3.962   8.333 -0.8044 -0.2013 -1.1587
  166DOPC   H7S20129  -0.195   3.784   8.349  0.8974 -0.5500 -1.2048
  166DOPC   C2820130  -0.083   3.893   8.199 -0.0165  0.1524 -0.0779
  166DOPC   H8R20131  -0.036   3.992   8.180 -2.4613  1.5398  0.6612
  166DOPC   H8S20132  -0.162   3.878   8.123  1.1070 -0.2664 -1.2040
  166DOPC   C2920133   0.024   3.787   8.169  0.5172  0.0304  1.0716
  166DOPC   H9R20134   0.101   3.773   8.246 -0.2848  1.8802  2.3029
  166DOPC  C21020135   0.030   3.732   8.049  0.6843 -0.3244  0.2850
  166DOPC  H10R20136   0.099   3.648   8.031 -0.9953 -2.3219  2.5618
  166DOPC  C21120137  -0.047   3.766   7.925  0.5396 -0.4456 -0.2892
  166DOPC  H11R20138  -0.110   3.857   7.936 -1.2150 -1.8523  2.1378
  166DOPC  H11S20139  -0.137   3.701   7.918 -0.4185  0.9942 -2.8111
  166DOPC  C21220140   0.050   3.749   7.802 -0.4983  0.1179 -0.2277
  166DOPC  H12R20141   0.081   3.645   7.781  0.9753  0.4914 -0.0379
  166DOPC  H12S20142   0.145   3.806   7.813 -1.4118  1.9960 -1.4288
  166DOPC  C21320143  -0.026   3.791   7.674  0.0301 -0.5109 -0.2595
  166DOPC  H13R20144  -0.069   3.893   7.663 -1.0608 -0.9497 -0.2033
  166DOPC  H13S20145  -0.103   3.711   7.669  0.6871 -1.2132  0.3931
  166DOPC  C21420146   0.052   3.762   7.548 -0.3717  0.0491 -0.6444
  166DOPC  H14R20147   0.160   3.739   7.563 -0.5415 -1.4990 -1.5938
  166DOPC  H14S20148   0.031   3.845   7.478 -3.0854 -0.4603 -0.5602
  166DOPC  C21520149  -0.010   3.647   7.468  0.1034 -0.0623 -0.4375
  166DOPC  H15R20150  -0.114   3.658   7.431 -0.1486 -2.4366 -0.5737
  166DOPC  H15S20151  -0.009   3.551   7.524 -2.6489  0.5098  0.7710
  166DOPC  C21620152   0.072   3.630   7.340  0.3550  0.5620  0.7610
  166DOPC  H16R20153   0.179   3.616   7.364  0.1184 -0.6133  1.1826
  166DOPC  H16S20154   0.070   3.717   7.271  0.5123  1.3257  1.7121
  166DOPC  C21720155   0.035   3.502   7.262  0.1354  0.6330 -0.2866
  166DOPC  H17R20156   0.060   3.420   7.332  0.6776 -0.2089 -1.4288
  166DOPC  H17S20157   0.105   3.494   7.176  0.2863 -0.5983 -0.0642
  166DOPC  C21820158  -0.115   3.494   7.224 -0.5026 -0.4568  0.2169
  166DOPC  H18R20159  -0.127   3.415   7.148 -3.2844 -1.2255  1.3465
  166DOPC  H18S20160  -0.152   3.586   7.173  0.7939  0.2829  0.5372
  166DOPC  H18T20161  -0.170   3.459   7.314  1.3740 -1.7969  0.9148
  166DOPC   C3320162   0.210   4.217   8.513  0.2766 -0.1059 -0.0464
  166DOPC   H3X20163   0.160   4.307   8.471  1.1813  0.9234  1.0244
  166DOPC   H3Y20164   0.134   4.141   8.541 -0.4168 -0.0768 -1.7504
  166DOPC   C3420165   0.286   4.144   8.401  0.8698 -0.4180  0.4782
  166DOPC   H4X20166   0.316   4.040   8.426  0.8385 -0.4614  0.3377
  166DOPC   H4Y20167   0.375   4.204   8.374 -1.6522  2.2760 -2.6403
  166DOPC   C3520168   0.206   4.133   8.270 -0.4605 -0.0031 -0.7888
  166DOPC   H5X20169   0.153   4.227   8.247 -0.8615 -0.2304 -0.8098
  166DOPC   H5Y20170   0.130   4.052   8.279 -0.5564  0.0509 -1.1242
  166DOPC   C3620171   0.304   4.107   8.150  0.0099 -0.0025 -0.3475
  166DOPC   H6X20172   0.388   4.180   8.152  0.2358 -0.0794 -2.9007
  166DOPC   H6Y20173   0.351   4.010   8.176  1.4895  0.7355 -0.0996
  166DOPC   C3720174   0.235   4.116   8.015 -0.5856 -0.2994 -0.3504
  166DOPC   H7X20175   0.150   4.044   8.006 -1.0904 -0.0800  2.0024
  166DOPC   H7Y20176   0.194   4.218   7.999 -0.4806 -0.3171 -0.7455
  166DOPC   C3820177   0.341   4.088   7.902 -0.0834  0.0016  0.0350
  166DOPC   H8X20178   0.302   4.005   7.840 -1.2267  1.1813 -0.8817
  166DOPC   H8Y20179   0.427   4.046   7.958 -0.5938  0.9754  1.5930
  166DOPC   C3920180   0.377   4.210   7.812  0.1341 -0.7958  0.3515
  166DOPC   H9X20181   0.449   4.284   7.852  0.4518 -0.6268 -0.5111
  166DOPC  C31020182   0.335   4.227   7.686  0.6923 -0.4160 -0.0144
  166DOPC  H10X20183   0.370   4.315   7.631 -1.2667  0.7313  0.4951
  166DOPC  C31120184   0.237   4.140   7.611  0.6524  0.2691  0.3097
  166DOPC  H11X20185   0.152   4.205   7.580 -1.9680 -1.2781  3.6292
  166DOPC  H11Y20186   0.192   4.060   7.673  2.3098 -1.3263 -0.4508
  166DOPC  C31220187   0.298   4.050   7.499  0.3617  0.0827  0.1530
  166DOPC  H12X20188   0.214   3.989   7.461  1.2289 -2.0147  1.4361
  166DOPC  H12Y20189   0.380   3.987   7.538  0.7482  0.1275 -0.5603
  166DOPC  C31320190   0.345   4.143   7.391  0.2236  0.5204 -0.3153
  166DOPC  H13X20191   0.350   4.247   7.430  0.5461  0.9374 -1.4158
  166DOPC  H13Y20192   0.453   4.128   7.368  0.4282  0.4342  0.6531
  166DOPC  C31420193   0.253   4.159   7.266 -0.1080 -0.1979 -0.1178
  166DOPC  H14X20194   0.246   4.057   7.223  1.3205  0.7687 -2.8868
  166DOPC  H14Y20195   0.151   4.195   7.293 -0.4347 -0.2862 -1.2108
  166DOPC  C31520196   0.302   4.250   7.155  0.1068 -0.3993 -0.3118
  166DOPC  H15X20197   0.413   4.241   7.153  0.8267  4.9942 -0.5490
  166DOPC  H15Y20198   0.268   4.352   7.182 -0.1504 -0.8322  1.0610
  166DOPC  C31620199   0.242   4.241   7.013 -0.3120  0.0288  0.8401
  166DOPC  H16X20200   0.132   4.249   7.018 -0.4909 -2.3320  2.2007
  166DOPC  H16Y20201   0.292   4.315   6.947 -0.0524 -0.5935  0.3286
  166DOPC  C31720202   0.245   4.102   6.948 -0.0193  0.5217  0.4869
  166DOPC  H17X20203   0.352   4.072   6.947 -0.5376 -1.4582 -0.2095
  166DOPC  H17Y20204   0.197   4.021   7.007  1.4941 -1.9673 -1.4795
  166DOPC  C31820205   0.197   4.105   6.804 -0.0712  0.4202  0.1576
  166DOPC  H18X20206   0.087   4.095   6.791  0.1234 -2.1075 -0.0888
  166DOPC  H18Y20207   0.246   4.187   6.746  1.7475 -0.7963 -0.1416
  166DOPC  H18Z20208   0.234   4.008   6.765 -1.5449 -0.0776 -0.0624
  167DOPC     N20209   0.494   2.848   9.296 -0.1275 -0.4825 -0.4849
  167DOPC   C1220210   0.434   2.758   9.199 -0.3900 -0.6420  0.1810
  167DOPC  H12A20211   0.327   2.766   9.210 -0.2877  2.0311 -0.0363
  167DOPC  H12B20212   0.463   2.655   9.210 -1.4546 -1.3701 -2.8263
  167DOPC   C1320213   0.457   2.806   9.435 -0.2452 -0.0960  0.9044
  167DOPC  H13A20214   0.354   2.830   9.458 -0.8874 -1.9410  0.2089
  167DOPC  H13B20215   0.453   2.699   9.450 -0.6986 -0.2430 -0.1687
  167DOPC  H13C20216   0.516   2.860   9.507 -1.6205  1.5785  0.8266
  167DOPC   C1420217   0.455   2.991   9.266  0.0967  0.1776  0.4263
  167DOPC  H14A20218   0.360   3.013   9.314 -0.8794 -0.5309 -1.0743
  167DOPC  H14B20219   0.530   3.062   9.296  0.6708 -0.4904  0.5995
  167DOPC  H14C20220   0.431   2.998   9.160  0.1858  2.1205  0.4974
  167DOPC   C1520221   0.644   2.846   9.285  0.1641 -0.6782  1.0450
  167DOPC  H15A20222   0.675   2.742   9.294  1.2317 -0.5850 -0.9459
  167DOPC  H15B20223   0.696   2.901   9.362  0.1834  0.4653  0.2440
  167DOPC  H15C20224   0.677   2.882   9.188 -2.4185 -0.2614  0.2441
  167DOPC   C1120225   0.464   2.798   9.051 -0.6310  1.0132 -0.0113
  167DOPC  H11A20226   0.574   2.807   9.037 -0.5902  0.3738 -0.1260
  167DOPC  H11B20227   0.438   2.712   8.986 -1.8969  1.5576 -0.2541
  167DOPC     P20228   0.261   2.922   8.928  0.2277  0.0764 -0.3334
  167DOPC   O1320229   0.188   3.027   9.001 -0.8983  0.3303 -0.1249
  167DOPC   O1420230   0.206   2.786   8.930  0.2771 -0.0391 -0.0642
  167DOPC   O1220231   0.407   2.913   8.995  0.0114  0.1137  0.2259
  167DOPC   O1120232   0.298   2.975   8.781  0.0151 -0.1224 -0.2586
  167DOPC    C120233   0.421   2.944   8.715  0.3466  0.1828 -0.4930
  167DOPC    HA20234   0.478   2.858   8.755 -0.9823  0.3572  1.9970
  167DOPC    HB20235   0.482   3.035   8.731  1.3095 -0.3168 -1.2343
  167DOPC    C220236   0.390   2.928   8.565  0.4018  0.5417  0.1291
  167DOPC    HS20237   0.471   2.878   8.508 -0.7826 -0.2096 -0.9263
  167DOPC   O2120238   0.359   3.053   8.501 -0.2981  0.6334 -0.6568
  167DOPC   C2120239   0.464   3.124   8.474 -0.3314 -0.1693  0.3359
  167DOPC   O2220240   0.579   3.087   8.483 -0.3241  0.0794 -0.3585
  167DOPC   C2220241   0.429   3.261   8.424 -0.2930 -0.6820 -0.4407
  167DOPC   H2R20242   0.524   3.314   8.398 -0.8351 -0.1357 -1.3359
  167DOPC   H2S20243   0.385   3.320   8.508 -0.7799 -0.7349 -0.6573
  167DOPC    C320244   0.259   2.846   8.545 -0.1034 -0.8432  0.3298
  167DOPC    HX20245   0.178   2.912   8.583  1.0054  0.4659  0.4871
  167DOPC    HY20246   0.272   2.753   8.605 -1.1981  0.1968  2.2870
  167DOPC   O3120247   0.233   2.822   8.405 -0.0660  0.5604  0.4250
  167DOPC   C3120248   0.308   2.727   8.352 -0.9120 -0.0749  0.5510
  167DOPC   O3220249   0.377   2.641   8.412  0.5619 -0.3609 -0.0357
  167DOPC   C3220250   0.288   2.727   8.202  0.0272 -0.3245  0.3732
  167DOPC   H2X20251   0.350   2.645   8.158 -2.6187 -2.9117  1.1153
  167DOPC   H2Y20252   0.183   2.693   8.189 -0.3102  0.4790  0.9567
  167DOPC   C2320253   0.336   3.271   8.300  0.0927  0.2143 -0.9094
  167DOPC   H3R20254   0.301   3.376   8.308  0.7727  0.4632 -1.0965
  167DOPC   H3S20255   0.253   3.198   8.309  1.0782 -0.6899  1.9349
  167DOPC   C2420256   0.420   3.264   8.168 -0.3770 -0.5873 -0.0433
  167DOPC   H4R20257   0.462   3.162   8.162 -0.2544 -0.5857  0.6423
  167DOPC   H4S20258   0.509   3.330   8.176 -0.1421 -0.7870 -0.9421
  167DOPC   C2520259   0.331   3.291   8.045 -0.1855 -0.2484 -0.3251
  167DOPC   H5R20260   0.258   3.369   8.074  0.2552 -0.8517  2.8746
  167DOPC   H5S20261   0.275   3.195   8.035 -0.6047 -0.1539  0.8469
  167DOPC   C2620262   0.403   3.324   7.909  0.3813  0.3836 -0.1527
  167DOPC   H6R20263   0.498   3.267   7.893 -0.3944 -0.6739 -1.1983
  167DOPC   H6S20264   0.414   3.432   7.887 -2.0702  0.6754 -0.2618
  167DOPC   C2720265   0.319   3.265   7.790 -0.2687  1.0350  0.1777
  167DOPC   H7R20266   0.241   3.205   7.840  0.0605  1.8998  1.7934
  167DOPC   H7S20267   0.388   3.202   7.729 -1.2679  2.0803 -2.1852
  167DOPC   C2820268   0.266   3.368   7.695 -0.8032  0.0608 -0.7142
  167DOPC   H8R20269   0.354   3.422   7.652  0.4326 -1.4610 -0.2067
  167DOPC   H8S20270   0.202   3.435   7.756  0.6814  0.3740  0.5514
  167DOPC   C2920271   0.181   3.296   7.598  0.2801  0.2380 -0.1555
  167DOPC   H9R20272   0.075   3.278   7.624 -0.4093  0.9618 -2.2490
  167DOPC  C21020273   0.223   3.239   7.480 -0.2710 -0.2526 -0.9468
  167DOPC  H10R20274   0.147   3.216   7.404 -0.3658  2.0761 -1.6073
  167DOPC  C21120275   0.363   3.227   7.419  0.6209 -0.8803  0.1084
  167DOPC  H11R20276   0.397   3.121   7.413 -0.2750 -1.1444 -0.5638
  167DOPC  H11S20277   0.443   3.275   7.478  0.1714 -0.7556  0.6160
  167DOPC  C21220278   0.381   3.288   7.280  0.3490 -0.2200 -0.0474
  167DOPC  H12R20279   0.355   3.396   7.273 -2.0604 -0.7535 -0.2217
  167DOPC  H12S20280   0.489   3.280   7.253  0.1145 -1.8771 -0.5942
  167DOPC  C21320281   0.314   3.212   7.165  0.4029  0.0068 -0.5088
  167DOPC  H13R20282   0.205   3.190   7.171  0.1972  0.4689 -2.0212
  167DOPC  H13S20283   0.370   3.116   7.173  1.2696  0.5431 -0.0242
  167DOPC  C21420284   0.335   3.263   7.029 -0.5096 -0.2714  0.4262
  167DOPC  H14R20285   0.437   3.308   7.017  0.0540 -1.7132 -0.4351
  167DOPC  H14S20286   0.261   3.344   7.013  1.5813  1.7272  0.3351
  167DOPC  C21520287   0.313   3.165   6.912  0.4818  0.1149  0.4709
  167DOPC  H15R20288   0.210   3.130   6.930  0.1259 -0.9789 -2.9988
  167DOPC  H15S20289   0.386   3.082   6.924  1.9483  0.6746 -3.0954
  167DOPC  C21620290   0.317   3.236   6.777  0.1305 -0.0347 -0.0742
  167DOPC  H16R20291   0.276   3.339   6.780 -1.1877 -0.5234 -0.7433
  167DOPC  H16S20292   0.255   3.172   6.711 -0.8167 -1.5601  2.1628
  167DOPC  C21720293   0.456   3.260   6.707 -0.7064 -0.7061 -0.7160
  167DOPC  H17R20294   0.520   3.170   6.713  2.2018  1.1840 -1.4038
  167DOPC  H17S20295   0.517   3.340   6.756  0.0884 -1.1386 -0.9965
  167DOPC  C21820296   0.435   3.295   6.559 -0.0359  0.0652  0.0143
  167DOPC  H18R20297   0.376   3.388   6.547  0.7403  0.2917 -2.7294
  167DOPC  H18S20298   0.388   3.206   6.512 -0.9668  0.4010  0.3032
  167DOPC  H18T20299   0.537   3.314   6.518 -0.1619 -0.8114 -0.7551
  167DOPC   C3320300   0.322   2.864   8.142 -0.3620  0.7108 -0.1014
  167DOPC   H3X20301   0.428   2.881   8.169 -0.2006 -1.5975  0.9403
  167DOPC   H3Y20302   0.257   2.940   8.190  1.7049  0.8246  2.7924
  167DOPC   C3420303   0.303   2.869   7.990  0.3151  0.5464  0.4568
  167DOPC   H4X20304   0.354   2.786   7.937 -1.0348  1.7237 -2.9516
  167DOPC   H4Y20305   0.343   2.968   7.960  0.7717 -0.2599 -1.8410
  167DOPC   C3520306   0.155   2.875   7.952  0.2153 -0.2722  0.1615
  167DOPC   H5X20307   0.122   2.981   7.963 -0.0137 -0.1800 -1.2844
  167DOPC   H5Y20308   0.086   2.813   8.014 -1.4252 -0.3414 -1.6301
  167DOPC   C3620309   0.145   2.826   7.811 -0.1313  0.0112 -0.4382
  167DOPC   H6X20310   0.186   2.723   7.814  0.7293 -0.0716 -5.5873
  167DOPC   H6Y20311   0.035   2.831   7.793 -0.1815  1.7485  0.1272
  167DOPC   C3720312   0.207   2.918   7.706  0.6166  0.1145  0.3555
  167DOPC   H7X20313   0.180   3.022   7.733 -1.5455 -0.0420 -0.9685
  167DOPC   H7Y20314   0.318   2.908   7.705  0.5121 -1.2755 -0.0748
  167DOPC   C3820315   0.153   2.894   7.563  0.8249 -0.2462 -0.1620
  167DOPC   H8X20316   0.200   2.965   7.492  0.7987 -0.4552 -0.3918
  167DOPC   H8Y20317   0.043   2.911   7.568  0.8723 -0.1309  0.5064
  167DOPC   C3920318   0.172   2.751   7.506 -0.5848 -0.4949 -0.6976
  167DOPC   H9X20319   0.124   2.673   7.567 -0.4376 -0.6957 -0.8389
  167DOPC  C31020320   0.266   2.718   7.413 -0.4391  0.2887 -0.7064
  167DOPC  H10X20321   0.258   2.614   7.379  0.7042 -0.0357 -0.0314
  167DOPC  C31120322   0.352   2.797   7.319 -0.2158  0.6884 -0.1426
  167DOPC  H11X20323   0.456   2.798   7.360  0.2549  1.3188 -1.3241
  167DOPC  H11Y20324   0.317   2.902   7.311  0.3814  0.8576 -0.6117
  167DOPC  C31220325   0.366   2.737   7.182  0.7515  0.1338  0.1043
  167DOPC  H12X20326   0.385   2.629   7.197  3.2505  0.5734  0.6138
  167DOPC  H12Y20327   0.460   2.773   7.136  1.6984 -1.7845  0.4587
  167DOPC  C31320328   0.244   2.772   7.083  0.3387  0.1665 -0.7228
  167DOPC  H13X20329   0.152   2.742   7.136  0.1224  1.4929 -0.3215
  167DOPC  H13Y20330   0.256   2.882   7.072  2.0602  0.3550  2.0427
  167DOPC  C31420331   0.237   2.685   6.953  0.4379  0.5098 -0.1057
  167DOPC  H14X20332   0.270   2.582   6.980  1.8969  0.9965  0.0731
  167DOPC  H14Y20333   0.134   2.696   6.913  1.0550 -0.3843 -2.0413
  167DOPC  C31520334   0.338   2.730   6.855 -0.0830 -0.8999 -0.1213
  167DOPC  H15X20335   0.440   2.716   6.898 -0.8162  0.8904  2.4446
  167DOPC  H15Y20336   0.323   2.840   6.843 -0.9753 -1.0557 -0.4803
  167DOPC  C31620337   0.320   2.644   6.730  0.0535  0.3363 -0.1812
  167DOPC  H16X20338   0.327   2.540   6.769  2.7839  1.2413  2.1002
  167DOPC  H16Y20339   0.215   2.652   6.695  0.1839 -2.6856 -1.6244
  167DOPC  C31720340   0.417   2.678   6.620 -0.3477 -0.3769  0.1813
  167DOPC  H17X20341   0.436   2.787   6.607  1.3522 -0.8993 -2.4356
  167DOPC  H17Y20342   0.520   2.647   6.647  0.1688 -1.1223 -2.3605
  167DOPC  C31820343   0.387   2.619   6.479  0.2410 -0.7104  0.4961
  167DOPC  H18X20344   0.385   2.509   6.490 -0.3713 -0.7525  0.0071
  167DOPC  H18Y20345   0.291   2.650   6.433  1.0963 -1.3622 -1.8816
  167DOPC  H18Z20346   0.464   2.637   6.401  1.0011  0.5622  1.4921
  168DOPC     N20347   1.974   1.628   8.807  0.3432 -0.1427 -0.0731
  168DOPC   C1220348   2.037   1.489   8.775  0.0833 -0.0239  0.1287
  168DOPC  H12A20349   2.064   1.448   8.871  0.0258  0.8225  0.5103
  168DOPC  H12B20350   2.132   1.499   8.724 -0.9214 -1.3006 -2.1622
  168DOPC   C1320351   1.838   1.617   8.874 -0.5190 -0.3011  0.4063
  168DOPC  H13A20352   1.799   1.708   8.917 -0.4965 -0.1543  0.1205
  168DOPC  H13B20353   1.757   1.601   8.805 -0.8447 -2.0740  1.1413
  168DOPC  H13C20354   1.843   1.549   8.958 -1.1730 -1.2187 -0.2853
  168DOPC   C1420355   1.961   1.704   8.677 -0.1721 -0.5802 -0.3025
  168DOPC  H14A20356   1.935   1.808   8.689 -1.5248 -0.6497 -2.2614
  168DOPC  H14B20357   2.065   1.706   8.646  0.1364 -1.6689  0.6066
  168DOPC  H14C20358   1.903   1.644   8.609  0.9372 -2.6018  0.4360
  168DOPC   C1520359   2.068   1.698   8.894 -0.4930 -0.1295  0.3920
  168DOPC  H15A20360   2.051   1.805   8.894  2.3617  0.4095  0.4630
  168DOPC  H15B20361   2.168   1.693   8.855 -0.6083 -1.1902  0.2114
  168DOPC  H15C20362   2.076   1.664   8.996  1.0473  1.4398  0.8470
  168DOPC   C1120363   1.950   1.374   8.714  0.0255 -0.1309  0.0732
  168DOPC  H11A20364   2.014   1.283   8.708 -1.5174 -1.4924  2.5079
  168DOPC  H11B20365   1.869   1.356   8.788  0.1719 -3.7854 -0.4490
  168DOPC     P20366   1.967   1.378   8.451  0.1335 -0.3721 -0.0284
  168DOPC   O1320367   1.880   1.303   8.354 -0.1452 -0.5364 -0.2272
  168DOPC   O1420368   2.096   1.319   8.487 -0.4508  0.1300 -0.3487
  168DOPC   O1220369   1.889   1.416   8.587  0.0700 -0.3440  0.1091
  168DOPC   O1120370   2.007   1.520   8.390  0.2138 -0.0928 -0.1431
  168DOPC    C120371   1.904   1.608   8.339 -0.1735  0.1935 -0.2399
  168DOPC    HA20372   1.892   1.692   8.411 -0.4736  0.3719 -0.4956
  168DOPC    HB20373   1.806   1.556   8.334  0.6270 -1.3565 -0.2872
  168DOPC    C220374   1.934   1.662   8.195  0.1952  0.2978 -0.3780
  168DOPC    HS20375   1.836   1.699   8.159 -0.0594 -0.5831 -0.6238
  168DOPC   O2120376   1.983   1.560   8.110 -0.0330  0.4054  0.1416
  168DOPC   C2120377   1.898   1.463   8.065  0.7941  0.2501 -0.5143
  168DOPC   O2220378   1.776   1.464   8.085  0.4056  0.1317  0.4359
  168DOPC   C2220379   1.968   1.370   7.966  0.0376  0.7916  0.6960
  168DOPC   H2R20380   2.015   1.284   8.018  0.2142 -0.3704 -1.2795
  168DOPC   H2S20381   2.058   1.424   7.931  0.3971  0.4487  1.0779
  168DOPC    C320382   2.039   1.777   8.195 -1.0931 -0.4550  0.0102
  168DOPC    HX20383   2.131   1.722   8.224 -0.6566  0.6916  0.8412
  168DOPC    HY20384   2.007   1.844   8.278 -1.0959 -2.5559  1.7961
  168DOPC   O3120385   2.067   1.833   8.065  0.4215 -0.2046  0.7192
  168DOPC   C3120386   1.985   1.930   8.039  0.1281 -0.5988 -0.0446
  168DOPC   O3220387   1.904   1.980   8.113 -0.2019 -0.5067  0.1148
  168DOPC   C3220388   2.015   1.980   7.897 -0.2875 -0.2713 -0.1134
  168DOPC   H2X20389   2.124   1.999   7.883 -0.0155  0.8762  2.7895
  168DOPC   H2Y20390   1.963   1.906   7.833  0.2072 -1.4721  0.8301
  168DOPC   C2320391   1.872   1.312   7.862 -0.2846 -0.3826  0.0852
  168DOPC   H3R20392   1.813   1.399   7.825 -1.2709 -0.6782  0.8958
  168DOPC   H3S20393   1.805   1.237   7.911 -1.1039 -1.1436 -2.0647
  168DOPC   C2420394   1.942   1.265   7.734 -0.3513  0.5510  0.2225
  168DOPC   H4R20395   2.020   1.188   7.753  1.8223  2.3457 -0.9999
  168DOPC   H4S20396   1.987   1.349   7.677 -0.4558  0.3951 -0.0917
  168DOPC   C2520397   1.847   1.193   7.630 -0.6049  0.1036 -0.5556
  168DOPC   H5R20398   1.759   1.261   7.627 -0.8531 -0.2543 -1.5734
  168DOPC   H5S20399   1.800   1.101   7.671 -0.1494 -0.0221 -0.3003
  168DOPC   C2620400   1.905   1.172   7.493  0.1660 -0.1424  0.0051
  168DOPC   H6R20401   1.925   1.270   7.445 -1.5862  0.0965 -0.2765
  168DOPC   H6S20402   1.825   1.137   7.425  0.9804 -1.1421 -0.4844
  168DOPC   C2720403   2.015   1.064   7.486 -0.6687 -0.0794 -0.1594
  168DOPC   H7R20404   1.988   0.973   7.544  0.0494  0.2337  0.6770
  168DOPC   H7S20405   2.101   1.099   7.547  0.5483  0.6777 -2.2202
  168DOPC   C2820406   2.063   1.018   7.347  0.5061 -0.5411 -0.3002
  168DOPC   H8R20407   2.144   0.943   7.360  0.2319 -0.7439  0.2650
  168DOPC   H8S20408   2.109   1.104   7.294 -2.9571  1.3745 -0.4798
  168DOPC   C2920409   1.961   0.950   7.256  0.3509  0.8159  0.4522
  168DOPC   H9R20410   1.938   0.847   7.286  0.8566  0.1536 -1.2954
  168DOPC  C21020411   1.900   0.998   7.144 -0.4075  0.7234  0.3571
  168DOPC  H10R20412   1.849   0.922   7.082  0.2792 -0.2911  0.9944
  168DOPC  C21120413   1.919   1.138   7.090 -0.4072 -0.5429  0.5536
  168DOPC  H11R20414   2.013   1.190   7.121 -2.0618  2.8307  0.3034
  168DOPC  H11S20415   1.831   1.197   7.121 -0.5673 -0.6324  0.2695
  168DOPC  C21220416   1.928   1.134   6.937 -0.2762 -0.2636 -0.2296
  168DOPC  H12R20417   1.831   1.101   6.897  0.9811 -0.2834 -3.5626
  168DOPC  H12S20418   2.008   1.068   6.896 -1.3210 -0.7873 -1.4715
  168DOPC  C21320419   1.949   1.264   6.860  0.3667 -0.3871 -0.5250
  168DOPC  H13R20420   2.040   1.317   6.895 -0.9310  0.3050  2.0447
  168DOPC  H13S20421   1.871   1.332   6.902 -1.1638 -1.9628 -0.7029
  168DOPC  C21420422   1.950   1.244   6.716  0.6754 -0.3036  0.2717
  168DOPC  H14R20423   1.843   1.222   6.693  0.4672  0.4181  0.5161
  168DOPC  H14S20424   2.008   1.156   6.684 -0.2796 -0.9814  0.3689
  168DOPC  C21520425   1.993   1.371   6.632  0.4983 -0.1017 -0.0572
  168DOPC  H15R20426   2.102   1.388   6.647  0.7859 -1.5119 -0.3602
  168DOPC  H15S20427   1.928   1.453   6.668  1.8496  0.5924  0.8994
  168DOPC  C21620428   1.973   1.346   6.485 -0.0417  0.0785  0.4085
  168DOPC  H16R20429   1.864   1.340   6.465 -0.1140  0.4643  0.6829
  168DOPC  H16S20430   2.017   1.246   6.462  1.1818  0.7853 -0.4229
  168DOPC  C21720431   2.032   1.443   6.380  0.0572 -0.0128 -0.1108
  168DOPC  H17R20432   2.139   1.463   6.404  0.0673  2.2952 -1.7885
  168DOPC  H17S20433   1.992   1.547   6.384  3.6640  1.5142  0.2689
  168DOPC  C21820434   2.022   1.392   6.233 -0.2094 -0.0133  0.5198
  168DOPC  H18R20435   2.053   1.473   6.163  2.4699  0.5276  2.1931
  168DOPC  H18S20436   1.920   1.354   6.210  0.1631 -0.6902 -0.0376
  168DOPC  H18T20437   2.090   1.305   6.236 -1.2311 -0.8485  0.1434
  168DOPC   C3320438   1.956   2.119   7.879  0.4633 -0.0892  0.2723
  168DOPC   H3X20439   1.985   2.204   7.945 -1.9633  0.0447  1.2764
  168DOPC   H3Y20440   1.846   2.117   7.893 -0.1194  1.1470 -3.2830
  168DOPC   C3420441   1.969   2.167   7.732 -0.7531 -0.2697 -0.7059
  168DOPC   H4X20442   1.894   2.248   7.725 -0.1253  0.7387  2.3969
  168DOPC   H4Y20443   1.936   2.084   7.666  0.0164 -0.9977 -0.1985
  168DOPC   C3520444   2.100   2.218   7.678  0.0782 -0.4539  0.2415
  168DOPC   H5X20445   2.184   2.148   7.703 -1.7703 -2.7350  0.4044
  168DOPC   H5Y20446   2.124   2.316   7.724 -2.7164  0.8477 -0.9176
  168DOPC   C3620447   2.096   2.234   7.529 -0.1112 -0.0232  0.2052
  168DOPC   H6X20448   2.116   2.138   7.476  1.1126  0.0179  0.5680
  168DOPC   H6Y20449   2.001   2.285   7.505  1.3232  2.8477  0.1971
  168DOPC   C3720450   2.209   2.330   7.488  0.1457  0.3002 -0.0578
  168DOPC   H7X20451   2.191   2.427   7.539 -0.1846  0.6907 -0.8946
  168DOPC   H7Y20452   2.308   2.290   7.518  0.8617  1.5303 -0.6552
  168DOPC   C3820453   2.213   2.355   7.333 -0.2280 -0.2912 -0.3580
  168DOPC   H8X20454   2.108   2.381   7.308 -1.1041 -0.1446  2.9567
  168DOPC   H8Y20455   2.242   2.255   7.294  1.8173  0.4214 -0.8024
  168DOPC   C3920456   2.320   2.453   7.285 -0.0083  0.3091 -0.7680
  168DOPC   H9X20457   2.406   2.455   7.353 -1.9181  1.4333  1.7713
  168DOPC  C31020458   2.319   2.544   7.181  0.3938  0.5880 -0.2682
  168DOPC  H10X20459   2.406   2.607   7.156 -0.2916  1.8614  0.4719
  168DOPC  C31120460   2.208   2.562   7.086  0.2683 -0.0274 -0.0509
  168DOPC  H11X20461   2.106   2.555   7.131 -0.1958  0.7024 -0.9455
  168DOPC  H11Y20462   2.197   2.474   7.019 -4.0108  0.1368  0.1006
  168DOPC  C31220463   2.216   2.690   7.009 -0.0842  0.5842  0.6691
  168DOPC  H12X20464   2.309   2.690   6.948  0.1819 -1.4863  1.0088
  168DOPC  H12Y20465   2.239   2.772   7.080  0.4439  0.3171  0.8142
  168DOPC  C31320466   2.100   2.734   6.919  0.1858 -0.3432  0.1349
  168DOPC  H13X20467   2.051   2.654   6.859 -1.2059 -1.6349  2.8141
  168DOPC  H13Y20468   2.018   2.762   6.988  0.7780  1.6085  0.1039
  168DOPC  C31420469   2.135   2.851   6.827  0.0419  0.0311 -0.0698
  168DOPC  H14X20470   2.042   2.884   6.777  0.2792  0.1918 -0.4011
  168DOPC  H14Y20471   2.172   2.931   6.894 -0.2076  0.8236 -0.8656
  168DOPC  C31520472   2.246   2.841   6.722 -0.7480  0.6712 -0.0305
  168DOPC  H15X20473   2.334   2.798   6.774  0.4020  1.6334 -1.1327
  168DOPC  H15Y20474   2.280   2.941   6.687  0.3497  1.0387  1.9565
  168DOPC  C31620475   2.207   2.750   6.601 -0.2921  0.4338 -0.6029
  168DOPC  H16X20476   2.164   2.659   6.648  0.9263 -0.1872 -0.6237
  168DOPC  H16Y20477   2.134   2.812   6.545 -1.9919 -1.1077 -0.1803
  168DOPC  C31720478   2.332   2.717   6.513 -0.0077  0.1905  0.4485
  168DOPC  H17X20479   2.359   2.818   6.474  0.6177 -0.0527  0.2496
  168DOPC  H17Y20480   2.423   2.673   6.558  1.4823  2.1763 -0.4546
  168DOPC  C31820481   2.297   2.631   6.393 -0.0268  0.5167  0.3683
  168DOPC  H18X20482   2.255   2.535   6.428  1.2293  0.2061  1.0912
  168DOPC  H18Y20483   2.216   2.678   6.333  0.2401 -0.0817 -0.4831
  168DOPC  H18Z20484   2.387   2.631   6.327 -0.9436  0.5237 -0.9188
  169DOPC     N20485   1.280   1.975   8.915 -0.1418  0.2775  0.6015
  169DOPC   C1220486   1.248   2.120   8.886  0.0963 -1.3909  0.6067
  169DOPC  H12A20487   1.345   2.167   8.888  0.4691 -2.0141 -1.2536
  169DOPC  H12B20488   1.192   2.173   8.963 -0.5670  2.9963 -2.4886
  169DOPC   C1320489   1.165   1.887   8.894  0.3313  0.2794  0.2952
  169DOPC  H13A20490   1.121   1.906   8.797 -0.8065 -1.6779  0.3800
  169DOPC  H13B20491   1.213   1.790   8.896  0.0709 -0.0287 -2.6805
  169DOPC  H13C20492   1.082   1.903   8.960 -0.1355  0.6675 -0.3755
  169DOPC   C1420493   1.329   1.954   9.064  0.3642  0.6066  0.6577
  169DOPC  H14A20494   1.334   1.851   9.095 -0.1864 -0.0215 -1.2116
  169DOPC  H14B20495   1.423   2.002   9.087  0.8393  0.0608 -0.1032
  169DOPC  H14C20496   1.261   2.009   9.128  0.3725  1.7122 -0.2324
  169DOPC   C1520497   1.393   1.924   8.831  0.7993 -0.2412 -0.1335
  169DOPC  H15A20498   1.407   1.819   8.847  2.9855  0.0013 -0.1632
  169DOPC  H15B20499   1.487   1.967   8.863  1.0739 -1.1206  0.2676
  169DOPC  H15C20500   1.379   1.935   8.724  1.7097  2.1917 -0.0799
  169DOPC   C1120501   1.172   2.158   8.752 -0.1149  0.5415 -0.3933
  169DOPC  H11A20502   1.078   2.099   8.748 -0.3893  1.0491 -2.8466
  169DOPC  H11B20503   1.135   2.262   8.761  0.7249  0.7241  1.4873
  169DOPC     P20504   1.333   2.244   8.567  0.1930  0.1222 -0.1039
  169DOPC   O1320505   1.401   2.189   8.452 -0.5676  0.0786 -0.0989
  169DOPC   O1420506   1.419   2.306   8.667 -0.2472  0.1951  0.5545
  169DOPC   O1220507   1.243   2.133   8.634 -0.0747 -0.1490 -0.4588
  169DOPC   O1120508   1.232   2.353   8.515  0.0409 -1.0861  0.1274
  169DOPC    C120509   1.111   2.311   8.440 -0.1232 -0.0368 -0.3005
  169DOPC    HA20510   1.039   2.395   8.448  1.3171  1.0453  2.9935
  169DOPC    HB20511   1.065   2.221   8.487  0.3881 -0.8032 -1.2169
  169DOPC    C220512   1.144   2.292   8.290  0.3861  0.3330 -0.2717
  169DOPC    HS20513   1.218   2.209   8.283  1.5939  1.4548 -1.2039
  169DOPC   O2120514   1.190   2.419   8.243  0.4547  0.2547  0.2607
  169DOPC   C2120515   1.281   2.421   8.154 -0.1104  0.1764 -0.1823
  169DOPC   O2220516   1.346   2.332   8.110 -0.7481  0.1103  0.0391
  169DOPC   C2220517   1.298   2.556   8.098  0.1108  0.3551 -0.4822
  169DOPC   H2R20518   1.400   2.590   8.127 -0.1797 -0.6111  1.8322
  169DOPC   H2S20519   1.217   2.628   8.121 -0.7820 -0.0225 -2.2288
  169DOPC    C320520   1.011   2.261   8.212  0.3000  0.2314 -0.2785
  169DOPC    HX20521   0.933   2.328   8.254  0.7086 -0.1646  1.1612
  169DOPC    HY20522   0.984   2.154   8.220  0.3508  0.1778 -0.7849
  169DOPC   O3120523   1.018   2.287   8.074  0.8242 -0.1814  0.7364
  169DOPC   C3120524   1.059   2.193   7.989 -0.0835  0.2099  0.6873
  169DOPC   O3220525   1.117   2.096   8.024  0.0273 -0.6636 -0.8844
  169DOPC   C3220526   1.053   2.252   7.847  0.2502  0.2162 -0.4865
  169DOPC   H2X20527   0.960   2.312   7.836 -0.3208 -0.4789  0.3841
  169DOPC   H2Y20528   1.130   2.332   7.838  0.3240  0.1927 -0.0655
  169DOPC   C2320529   1.315   2.549   7.939 -0.4435  0.6031 -0.7069
  169DOPC   H3R20530   1.217   2.504   7.912 -2.3896  2.4040  2.6770
  169DOPC   H3S20531   1.393   2.481   7.899 -0.0373 -0.5631  1.8967
  169DOPC   C2420532   1.335   2.687   7.880  0.4030 -0.2688 -0.0325
  169DOPC   H4R20533   1.418   2.736   7.936  1.0859 -1.0612 -0.3376
  169DOPC   H4S20534   1.244   2.748   7.900  0.3448 -0.7363  1.2502
  169DOPC   C2520535   1.366   2.693   7.731 -0.1455 -0.5086 -0.3332
  169DOPC   H5R20536   1.457   2.632   7.710  0.1615  0.1118 -0.8582
  169DOPC   H5S20537   1.394   2.798   7.707 -0.1927 -0.1774  0.9923
  169DOPC   C2620538   1.246   2.640   7.646  0.1888  0.0148  0.1642
  169DOPC   H6R20539   1.166   2.718   7.643  2.0965  2.0845  0.4989
  169DOPC   H6S20540   1.193   2.561   7.704  0.6006  0.0344  0.5680
  169DOPC   C2720541   1.305   2.580   7.511  0.3637 -0.0161 -0.3974
  169DOPC   H7R20542   1.228   2.522   7.456  0.9144 -1.8306  0.6354
  169DOPC   H7S20543   1.386   2.511   7.543  0.2510  0.3736  0.7931
  169DOPC   C2820544   1.375   2.685   7.416  0.5359 -0.5625 -0.3141
  169DOPC   H8R20545   1.425   2.624   7.337  2.2226 -0.6048  0.7401
  169DOPC   H8S20546   1.457   2.740   7.467  0.1051 -0.3621  0.1643
  169DOPC   C2920547   1.280   2.799   7.373  0.4348  0.1360 -0.1802
  169DOPC   H9R20548   1.235   2.864   7.449  0.5482  1.0378 -0.8707
  169DOPC  C21020549   1.229   2.815   7.247  0.2933 -1.0745 -0.0927
  169DOPC  H10R20550   1.158   2.897   7.228  0.3939 -0.6983  1.1117
  169DOPC  C21120551   1.276   2.745   7.123  0.1672  0.0590 -0.0525
  169DOPC  H11R20552   1.347   2.663   7.149  1.5267  0.6394 -1.7336
  169DOPC  H11S20553   1.333   2.804   7.048  0.5090 -1.9111 -1.4506
  169DOPC  C21220554   1.156   2.677   7.049 -0.4003  0.5118 -0.7335
  169DOPC  H12R20555   1.089   2.748   6.995  1.0949  1.0809 -1.9150
  169DOPC  H12S20556   1.093   2.631   7.128 -1.4631  1.0966 -1.2124
  169DOPC  C21320557   1.212   2.576   6.953  0.5418  0.3024 -0.4188
  169DOPC  H13R20558   1.295   2.516   6.998  0.7741  0.1477 -1.0487
  169DOPC  H13S20559   1.260   2.637   6.874 -0.6519  0.6071 -0.9266
  169DOPC  C21420560   1.105   2.487   6.884 -0.2849  0.4822 -0.6189
  169DOPC  H14R20561   1.059   2.548   6.804  0.7163  0.1446 -1.4701
  169DOPC  H14S20562   1.037   2.469   6.970 -1.3588  1.5436 -1.2205
  169DOPC  C21520563   1.170   2.368   6.815  0.3208 -0.1960 -0.1598
  169DOPC  H15R20564   1.091   2.294   6.787 -1.2655  2.1945 -2.4512
  169DOPC  H15S20565   1.243   2.307   6.872  2.0853 -0.4870 -2.6089
  169DOPC  C21620566   1.239   2.413   6.678 -0.1383 -0.3983 -0.4336
  169DOPC  H16R20567   1.317   2.489   6.697 -0.1697 -0.0040 -1.7997
  169DOPC  H16S20568   1.162   2.474   6.627 -1.6538 -0.6223  1.4596
  169DOPC  C21720569   1.307   2.301   6.597  0.3062 -0.4969 -0.8580
  169DOPC  H17R20570   1.231   2.220   6.592 -0.2455 -0.3342  2.6491
  169DOPC  H17S20571   1.389   2.254   6.655 -1.2074 -1.3973  0.6386
  169DOPC  C21820572   1.346   2.331   6.449  0.1361 -0.1166  0.4713
  169DOPC  H18R20573   1.392   2.432   6.448  0.7027 -0.3450  1.4959
  169DOPC  H18S20574   1.258   2.329   6.382  0.2126 -2.4425  0.3355
  169DOPC  H18T20575   1.421   2.258   6.410  0.0508  0.6181 -1.1313
  169DOPC   C3320576   1.045   2.149   7.732  0.0463 -0.1578 -0.0458
  169DOPC   H3X20577   0.941   2.111   7.743 -0.3513  0.8765 -0.0989
  169DOPC   H3Y20578   1.110   2.061   7.754 -0.5197 -0.0036  2.5684
  169DOPC   C3420579   1.069   2.206   7.593 -0.3776  0.1498  0.4368
  169DOPC   H4X20580   1.172   2.242   7.572  0.2245 -2.3293 -1.3560
  169DOPC   H4Y20581   0.994   2.284   7.566  0.3991  0.6946 -0.1776
  169DOPC   C3520582   1.044   2.101   7.484  0.0918 -0.0130  0.5062
  169DOPC   H5X20583   0.947   2.047   7.495  1.9145 -3.8647 -0.4514
  169DOPC   H5Y20584   1.119   2.019   7.485 -0.1789 -0.2896 -0.7327
  169DOPC   C3620585   1.049   2.157   7.337  0.3460  0.2837 -0.0264
  169DOPC   H6X20586   0.964   2.228   7.347 -1.0970 -1.2880 -0.5436
  169DOPC   H6Y20587   1.155   2.186   7.324  0.5776 -0.6387 -0.2449
  169DOPC   C3720588   1.000   2.051   7.234  0.4447  0.0666 -0.1056
  169DOPC   H7X20589   1.054   1.955   7.250 -1.2788 -0.5235  3.1301
  169DOPC   H7Y20590   0.897   2.032   7.273  1.2488 -2.0792  1.1814
  169DOPC   C3820591   0.984   2.118   7.095  0.4226 -0.7839 -0.7147
  169DOPC   H8X20592   1.086   2.132   7.053  0.4666  3.3510  0.4122
  169DOPC   H8Y20593   0.949   2.222   7.106  0.1024 -0.9683  0.0821
  169DOPC   C3920594   0.905   2.036   7.001  0.1937  0.0576 -0.3307
  169DOPC   H9X20595   0.796   2.050   7.015  0.3745 -1.1643  3.3012
  169DOPC  C31020596   0.956   1.947   6.912 -0.5903 -0.6956 -0.7174
  169DOPC  H10X20597   0.888   1.880   6.856 -1.0352 -0.2560 -0.7103
  169DOPC  C31120598   1.102   1.916   6.891  0.4544 -0.3930  0.1512
  169DOPC  H11X20599   1.158   1.905   6.986 -0.1585 -0.3026  0.5274
  169DOPC  H11Y20600   1.153   1.996   6.833 -0.8459 -0.6768 -1.4652
  169DOPC  C31220601   1.130   1.794   6.798 -0.6207 -0.9467 -0.4251
  169DOPC  H12X20602   1.125   1.700   6.857  2.7228 -0.4765  0.8229
  169DOPC  H12Y20603   1.239   1.812   6.794 -0.5145  1.0713  4.5845
  169DOPC  C31320604   1.063   1.783   6.667  0.2257  0.1036 -0.3787
  169DOPC  H13X20605   1.105   1.692   6.619 -0.3485 -0.0834 -0.5293
  169DOPC  H13Y20606   0.953   1.767   6.675  0.3578 -0.4961  0.3975
  169DOPC  C31420607   1.072   1.910   6.581 -0.6193  0.2086  0.2719
  169DOPC  H14X20608   1.044   2.003   6.634  0.7470  1.3259 -0.8899
  169DOPC  H14Y20609   1.180   1.932   6.569 -0.2396 -2.0385 -1.0218
  169DOPC  C31520610   1.012   1.901   6.444  0.3445  0.3580  1.0236
  169DOPC  H15X20611   0.989   2.003   6.407 -1.1103 -0.1582  0.4034
  169DOPC  H15Y20612   0.916   1.846   6.453  1.2948 -1.6931 -0.4888
  169DOPC  C31620613   1.119   1.833   6.351 -0.1500  0.0560  0.0668
  169DOPC  H16X20614   1.218   1.875   6.378  0.2822 -1.3305  0.7217
  169DOPC  H16Y20615   1.118   1.728   6.388 -3.1170  0.4137  1.3238
  169DOPC  C31720616   1.086   1.849   6.201  0.3869  0.4973 -1.1258
  169DOPC  H17X20617   1.049   1.949   6.170 -0.1179 -0.0330 -2.2964
  169DOPC  H17Y20618   1.180   1.830   6.145  1.9920  2.4505  0.7232
  169DOPC  C31820619   0.975   1.742   6.164 -0.0344 -0.5328  0.2826
  169DOPC  H18X20620   0.896   1.740   6.242  0.0235  0.3773  0.3756
  169DOPC  H18Y20621   0.944   1.760   6.059  0.9607  1.7071  0.3208
  169DOPC  H18Z20622   1.018   1.640   6.162 -0.3574 -0.6586 -1.0571
  170DOPC     N20623   6.464   1.562   8.164 -0.1485  0.0713  0.5479
  170DOPC   C1220624   6.592   1.605   8.226 -0.1407 -0.0980  0.2042
  170DOPC  H12A20625   6.615   1.705   8.192 -0.6242 -0.5374 -1.5678
  170DOPC  H12B20626   6.675   1.546   8.189 -1.2300 -0.8815 -1.0955
  170DOPC   C1320627   6.341   1.601   8.241  0.2063 -0.5120 -0.5880
  170DOPC  H13A20628   6.248   1.583   8.190 -0.1421  0.4752 -0.3353
  170DOPC  H13B20629   6.336   1.545   8.334 -1.1843  0.1287 -0.2528
  170DOPC  H13C20630   6.339   1.705   8.271  0.5306 -0.9650  1.1442
  170DOPC   C1420631   6.466   1.413   8.157 -1.0278  0.1788 -0.1299
  170DOPC  H14A20632   6.551   1.388   8.095 -1.0111  1.2383 -0.5495
  170DOPC  H14B20633   6.485   1.382   8.259 -0.8106  1.0179  0.0978
  170DOPC  H14C20634   6.384   1.362   8.109  0.0766 -1.6912 -0.1203
  170DOPC   C1520635   6.458   1.620   8.023  0.0437  0.4517  0.2220
  170DOPC  H15A20636   6.357   1.612   7.986 -0.3686  1.0034  1.1901
  170DOPC  H15B20637   6.520   1.559   7.959 -0.0270  0.5724  0.0393
  170DOPC  H15C20638   6.488   1.723   8.014 -0.7995  0.5869 -1.6020
  170DOPC   C1120639   6.604   1.588   8.380  0.0568  0.1741  0.4597
  170DOPC  H11A20640   6.695   1.647   8.408  0.1882  0.2639 -0.1577
  170DOPC  H11B20641   6.511   1.639   8.413 -0.7769  0.4981 -2.1985
  170DOPC     P20642   6.734   1.365   8.413 -0.3032 -0.0621  0.1082
  170DOPC   O1320643   6.703   1.220   8.442  0.3136 -0.4608  0.0941
  170DOPC   O1420644   6.837   1.418   8.502 -0.6696 -0.2344 -0.7486
  170DOPC   O1220645   6.599   1.451   8.421 -0.2441  0.1401 -0.2631
  170DOPC   O1120646   6.791   1.379   8.269  0.3213 -0.1064  0.6069
  170DOPC    C120647   6.923   1.342   8.237  0.0835  0.1014 -0.1688
  170DOPC    HA20648   6.924   1.231   8.242  0.6784  0.1177  0.1328
  170DOPC    HB20649   6.990   1.397   8.307  1.7405 -0.6708 -1.0963
  170DOPC    C220650   6.951   1.375   8.089  0.2448 -0.6329  0.5286
  170DOPC    HS20651   6.919   1.480   8.072  0.5312 -0.5062  0.7666
  170DOPC   O2120652   6.897   1.279   8.000 -0.5835 -0.4089  0.4002
  170DOPC   C2120653   6.772   1.299   7.960 -0.6137 -0.3326 -0.1929
  170DOPC   O2220654   6.703   1.392   7.984 -0.3558  0.1265  0.4263
  170DOPC   C2220655   6.728   1.189   7.874  0.4095 -0.9384  0.4848
  170DOPC   H2R20656   6.630   1.151   7.910 -0.4674 -1.4684 -2.2629
  170DOPC   H2S20657   6.805   1.108   7.875 -1.1819 -2.5249  2.0311
  170DOPC    C320658   7.102   1.375   8.066 -1.1459  0.7297 -0.5838
  170DOPC    HX20659   7.144   1.273   8.085 -1.3356  0.5668 -1.0131
  170DOPC    HY20660   7.164   1.435   8.135 -2.9734  0.0796  1.7343
  170DOPC   O3120661   7.127   1.419   7.930 -0.3677 -0.2793  0.0451
  170DOPC   C3120662   7.252   1.432   7.890 -0.5745 -0.3734  0.3447
  170DOPC   O3220663   7.352   1.417   7.960  0.5944 -0.7190  0.2322
  170DOPC   C3220664   7.257   1.467   7.741 -0.0967 -0.3073  0.0102
  170DOPC   H2X20665   7.196   1.558   7.724 -1.1339 -1.1049 -0.6376
  170DOPC   H2Y20666   7.361   1.501   7.719 -0.7660  1.1179 -1.1799
  170DOPC   C2320667   6.694   1.244   7.738 -0.7704 -0.7896  0.8234
  170DOPC   H3R20668   6.660   1.349   7.741  0.5077 -0.3063 -0.1852
  170DOPC   H3S20669   6.624   1.183   7.677 -0.7016  1.0169 -1.2120
  170DOPC   C2420670   6.833   1.267   7.657  0.3434  0.5495  0.0241
  170DOPC   H4R20671   6.864   1.160   7.655 -0.3402  0.2697  1.8780
  170DOPC   H4S20672   6.918   1.325   7.698  1.4094  0.0618 -1.4248
  170DOPC   C2520673   6.817   1.322   7.515  0.0554 -0.0286 -0.1605
  170DOPC   H5R20674   6.731   1.268   7.471  0.0494 -1.7538  1.8204
  170DOPC   H5S20675   6.912   1.297   7.464  0.0954 -0.6497  0.2155
  170DOPC   C2620676   6.776   1.471   7.525  0.3018  0.2353  0.7771
  170DOPC   H6R20677   6.852   1.520   7.589  0.3457  1.2358 -0.0187
  170DOPC   H6S20678   6.673   1.477   7.565 -1.0820 -5.7177 -0.8443
  170DOPC   C2720679   6.790   1.542   7.390  0.3231  0.2362  0.5599
  170DOPC   H7R20680   6.728   1.492   7.313 -0.8520 -0.2630  1.7901
  170DOPC   H7S20681   6.894   1.525   7.355  0.8271 -0.9026  2.4286
  170DOPC   C2820682   6.764   1.697   7.403  0.4302  0.0860  0.3019
  170DOPC   H8R20683   6.811   1.721   7.500  1.9618 -0.4963 -0.2646
  170DOPC   H8S20684   6.653   1.697   7.411  0.4110  3.1870  1.2306
  170DOPC   C2920685   6.827   1.763   7.281 -0.5251 -0.6308  0.3890
  170DOPC   H9R20686   6.937   1.769   7.276 -0.5085 -1.5893 -0.7391
  170DOPC  C21020687   6.773   1.826   7.175 -0.1133  0.0360 -0.8016
  170DOPC  H10R20688   6.833   1.869   7.093  0.8843  2.0082  0.8730
  170DOPC  C21120689   6.623   1.853   7.156 -1.0727 -0.5287  0.1407
  170DOPC  H11R20690   6.609   1.961   7.176  1.5442 -0.2506  0.7570
  170DOPC  H11S20691   6.560   1.800   7.230 -0.5471  2.2116  2.7568
  170DOPC  C21220692   6.574   1.807   7.020 -1.0742 -0.2129  0.1846
  170DOPC  H12R20693   6.464   1.820   7.011 -1.1321 -0.7445  0.0880
  170DOPC  H12S20694   6.605   1.701   7.015 -2.4655 -0.5796 -1.0829
  170DOPC  C21320695   6.650   1.867   6.904 -0.6965  0.4939  0.0509
  170DOPC  H13R20696   6.747   1.813   6.907 -2.0463 -2.0764  0.2510
  170DOPC  H13S20697   6.679   1.974   6.911  0.6504  0.1002  0.8572
  170DOPC  C21420698   6.573   1.850   6.773  0.3119  0.4699 -0.4740
  170DOPC  H14R20699   6.495   1.929   6.764  0.8721  0.9910 -0.8207
  170DOPC  H14S20700   6.520   1.752   6.779 -0.6918  1.0000 -0.4982
  170DOPC  C21520701   6.671   1.844   6.658  0.0512 -0.1689  0.3515
  170DOPC  H15R20702   6.746   1.763   6.671  0.5081  0.3299  0.8836
  170DOPC  H15S20703   6.718   1.944   6.652 -0.2001 -0.0108  0.9197
  170DOPC  C21620704   6.604   1.803   6.527 -0.7932  0.6445  0.6305
  170DOPC  H16R20705   6.550   1.708   6.549 -1.3397  0.8812  0.3338
  170DOPC  H16S20706   6.681   1.777   6.451 -0.5582  0.9039  0.7757
  170DOPC  C21720707   6.503   1.910   6.467 -0.2867  0.6842  0.4409
  170DOPC  H17R20708   6.421   1.929   6.539 -0.3473  1.6169  0.1538
  170DOPC  H17S20709   6.457   1.865   6.376 -0.0472  1.4212 -0.0646
  170DOPC  C21820710   6.571   2.042   6.425  0.4846  0.3739 -0.4751
  170DOPC  H18R20711   6.510   2.118   6.371 -1.0897  0.5479  1.4239
  170DOPC  H18S20712   6.666   2.013   6.376 -0.8962 -1.6096 -2.1287
  170DOPC  H18T20713   6.606   2.087   6.521  2.0961  3.6366 -2.4078
  170DOPC   C3320714   7.223   1.347   7.646 -0.6585  0.6999 -0.1128
  170DOPC   H3X20715   7.199   1.394   7.548  1.2813  0.1810 -0.8743
  170DOPC   H3Y20716   7.134   1.299   7.692  1.5639 -1.4797  2.2267
  170DOPC   C3420717   7.336   1.240   7.635  0.0318  0.3014 -0.2193
  170DOPC   H4X20718   7.401   1.228   7.724 -0.2811 -0.4535 -0.0881
  170DOPC   H4Y20719   7.408   1.287   7.564  0.5445  1.6707  1.1639
  170DOPC   C3520720   7.295   1.103   7.573 -0.3934 -0.0485  0.1905
  170DOPC   H5X20721   7.265   1.043   7.662  0.9570 -0.6767  0.2420
  170DOPC   H5Y20722   7.387   1.055   7.533  0.3411  0.0514  1.6760
  170DOPC   C3620723   7.193   1.094   7.456  0.2055 -0.2388 -0.3172
  170DOPC   H6X20724   7.164   0.987   7.458  4.0232 -1.4440 -0.9501
  170DOPC   H6Y20725   7.102   1.152   7.482 -1.1542 -2.1348 -0.6236
  170DOPC   C3720726   7.256   1.125   7.321  0.5657 -0.2227  0.7386
  170DOPC   H7X20727   7.302   1.226   7.309  0.9838 -0.5227 -0.2787
  170DOPC   H7Y20728   7.337   1.053   7.301  0.9537  0.3853  0.0638
  170DOPC   C3820729   7.154   1.118   7.204 -0.0721 -0.2869  0.3971
  170DOPC   H8X20730   7.071   1.186   7.232  0.9579  1.8081 -1.2802
  170DOPC   H8Y20731   7.113   1.015   7.197  2.2380 -1.6653  4.0661
  170DOPC   C3920732   7.213   1.175   7.076 -0.1455 -0.7075  0.9068
  170DOPC   H9X20733   7.240   1.104   6.996  1.3534 -0.4399  1.1597
  170DOPC  C31020734   7.213   1.301   7.033  0.0749  0.3562  0.0612
  170DOPC  H10X20735   7.252   1.321   6.932  1.8735 -1.0619  0.4358
  170DOPC  C31120736   7.170   1.421   7.107 -0.9139 -0.0523 -0.1196
  170DOPC  H11X20737   7.248   1.497   7.128  1.5966 -2.9341  1.7629
  170DOPC  H11Y20738   7.124   1.409   7.207 -1.5369  0.1162 -0.3813
  170DOPC  C31220739   7.051   1.486   7.026 -0.4616 -0.3103 -0.3180
  170DOPC  H12X20740   7.080   1.499   6.920  1.5081  0.6023  0.2805
  170DOPC  H12Y20741   7.035   1.590   7.061  0.3388 -0.4542  0.5369
  170DOPC  C31320742   6.927   1.401   7.055 -0.4513 -0.4371 -0.3495
  170DOPC  H13X20743   6.949   1.292   7.051  1.4606 -0.1155  0.4363
  170DOPC  H13Y20744   6.889   1.413   7.159  1.9147 -0.5333  0.5890
  170DOPC  C31420745   6.810   1.424   6.956 -0.2909  0.2493 -0.0779
  170DOPC  H14X20746   6.731   1.349   6.978 -1.0745  0.8124 -0.9230
  170DOPC  H14Y20747   6.754   1.516   6.984  0.4211  0.1968  1.6786
  170DOPC  C31520748   6.862   1.408   6.812  0.3879  0.3931  0.1216
  170DOPC  H15X20749   6.908   1.308   6.796 -0.3130  0.3160 -1.6099
  170DOPC  H15Y20750   6.938   1.486   6.789 -1.7399  2.5665  0.1053
  170DOPC  C31620751   6.751   1.429   6.709 -0.2240  0.6275  0.5423
  170DOPC  H16X20752   6.652   1.395   6.747  1.1776 -3.2727  1.1664
  170DOPC  H16Y20753   6.741   1.539   6.693 -1.9767  0.3662 -0.4101
  170DOPC  C31720754   6.767   1.360   6.578  0.1477 -0.0400 -0.0318
  170DOPC  H17X20755   6.774   1.250   6.590  2.3754  0.0873  0.2817
  170DOPC  H17Y20756   6.683   1.384   6.510 -0.6522 -0.1248  0.9132
  170DOPC  C31820757   6.898   1.412   6.512  0.0829  0.0448 -0.5335
  170DOPC  H18X20758   6.994   1.394   6.566 -1.0870 -0.3102  1.5456
  170DOPC  H18Y20759   6.903   1.388   6.404 -2.1307 -0.5927 -0.5344
  170DOPC  H18Z20760   6.891   1.523   6.523  0.3001 -0.1182  1.6620
  171DOPC     N20761   3.749   5.470   3.757 -0.0661  0.1435 -0.2590
  171DOPC   C1220762   3.865   5.394   3.816 -0.0516 -0.2473  1.2864
  171DOPC  H12A20763   3.906   5.471   3.880 -1.0863  1.0646  0.4203
  171DOPC  H12B20764   3.928   5.378   3.730 -0.6849  1.8284  0.3743
  171DOPC   C1320765   3.645   5.381   3.700 -0.2557  0.3981 -0.2299
  171DOPC  H13A20766   3.551   5.429   3.679 -2.6238 -2.4156  2.8273
  171DOPC  H13B20767   3.682   5.322   3.618 -1.6980 -0.9839  0.0680
  171DOPC  H13C20768   3.620   5.303   3.771  1.2657 -0.4325 -0.5576
  171DOPC   C1420769   3.798   5.570   3.652  0.0557 -0.2123  0.2722
  171DOPC  H14A20770   3.717   5.624   3.604  0.6341  1.6237  1.2504
  171DOPC  H14B20771   3.861   5.647   3.694 -0.7618  0.5300  0.1901
  171DOPC  H14C20772   3.852   5.514   3.578 -0.8173 -0.4995 -0.1693
  171DOPC   C1520773   3.695   5.550   3.871  0.2390  0.5457  0.4455
  171DOPC  H15A20774   3.595   5.582   3.847  1.0265  2.4587 -0.4896
  171DOPC  H15B20775   3.757   5.637   3.885  1.1447 -0.0188  0.0613
  171DOPC  H15C20776   3.704   5.493   3.962  1.4627  1.4140  0.8938
  171DOPC   C1120777   3.829   5.270   3.907  0.0272 -0.1235  0.1370
  171DOPC  H11A20778   3.916   5.245   3.971  0.4014  2.9734  1.0009
  171DOPC  H11B20779   3.752   5.313   3.974 -1.1992  0.5277 -1.6014
  171DOPC     P20780   3.708   5.037   3.884  0.2488 -0.3785 -0.2234
  171DOPC   O1320781   3.732   4.926   3.783 -0.2620  0.2632 -0.2817
  171DOPC   O1420782   3.566   5.070   3.893 -0.3077 -0.4887  0.1554
  171DOPC   O1220783   3.779   5.162   3.824  0.4816 -0.3592  0.0507
  171DOPC   O1120784   3.779   5.004   4.020 -0.4372  0.1086 -0.2452
  171DOPC    C120785   3.709   4.949   4.134 -0.2227 -0.2286 -0.3804
  171DOPC    HA20786   3.678   4.844   4.118 -3.1841  0.6790 -1.2774
  171DOPC    HB20787   3.618   5.010   4.153  0.1454  0.2224 -0.0425
  171DOPC    C220788   3.805   4.958   4.258  0.0880 -0.0436  0.6240
  171DOPC    HS20789   3.895   4.899   4.231 -0.5151 -0.6144 -0.1812
  171DOPC   O2120790   3.738   4.913   4.377  0.4437  0.1891 -0.4608
  171DOPC   C2120791   3.763   4.782   4.403  0.2824  0.4267 -0.3012
  171DOPC   O2220792   3.834   4.708   4.343 -0.4816 -0.2469 -0.0430
  171DOPC   C2220793   3.689   4.741   4.533  0.2724 -0.0558 -0.4100
  171DOPC   H2R20794   3.706   4.633   4.551  0.8247  0.0358 -0.3630
  171DOPC   H2S20795   3.580   4.755   4.512  0.2809 -0.1096 -0.4944
  171DOPC    C320796   3.838   5.113   4.288 -0.1649 -0.4388 -0.0939
  171DOPC    HX20797   3.750   5.180   4.295 -0.4921 -0.5285 -2.4348
  171DOPC    HY20798   3.897   5.141   4.198  0.6091 -0.6109  0.3456
  171DOPC   O3120799   3.934   5.123   4.398 -0.1304  0.4978 -0.1864
  171DOPC   C3120800   3.995   5.241   4.408  0.7428  0.2423  0.1202
  171DOPC   O3220801   3.966   5.344   4.350 -0.2772  0.1081  0.2582
  171DOPC   C3220802   4.099   5.221   4.512 -0.0784 -0.4117  0.2983
  171DOPC   H2X20803   4.110   5.115   4.542 -1.3543 -0.7897 -0.4966
  171DOPC   H2Y20804   4.191   5.261   4.464 -1.3457  3.0732  0.5009
  171DOPC   C2320805   3.730   4.840   4.648  0.1826 -0.1417 -0.1058
  171DOPC   H3R20806   3.677   4.937   4.642  1.5880  0.7006  0.6757
  171DOPC   H3S20807   3.838   4.860   4.660 -0.0578  1.1381  0.0953
  171DOPC   C2420808   3.686   4.786   4.781  0.1337 -0.1997 -0.2050
  171DOPC   H4R20809   3.746   4.696   4.806 -0.7013 -0.6972  0.0112
  171DOPC   H4S20810   3.580   4.754   4.774 -0.0349  0.5327 -1.1996
  171DOPC   C2520811   3.688   4.888   4.897  0.0130  0.4835  0.2664
  171DOPC   H5R20812   3.599   4.953   4.908  0.2642  0.8339  0.2636
  171DOPC   H5S20813   3.783   4.946   4.892  0.0336  0.6325  1.8830
  171DOPC   C2620814   3.687   4.808   5.031 -0.7180 -0.1847  0.5441
  171DOPC   H6R20815   3.754   4.720   5.039  0.0972  0.3569 -0.2045
  171DOPC   H6S20816   3.579   4.782   5.028 -0.8503 -0.0971  2.7827
  171DOPC   C2720817   3.709   4.898   5.155 -0.0696 -0.6603  0.0317
  171DOPC   H7R20818   3.647   4.986   5.130 -3.9879 -3.1424  0.1237
  171DOPC   H7S20819   3.816   4.924   5.171 -0.2040 -1.0655  1.8220
  171DOPC   C2820820   3.668   4.850   5.300  0.2916 -0.8385  0.1504
  171DOPC   H8R20821   3.712   4.933   5.359  0.3793 -0.5334 -0.3419
  171DOPC   H8S20822   3.719   4.759   5.338  1.8741 -0.2894 -0.5568
  171DOPC   C2920823   3.523   4.849   5.325  0.5716  0.7569 -0.5171
  171DOPC   H9R20824   3.454   4.875   5.243 -1.6152  2.1589  1.6293
  171DOPC  C21020825   3.467   4.860   5.446 -0.5691  0.2052 -0.4417
  171DOPC  H10R20826   3.358   4.874   5.454 -0.3819  0.8266  1.3038
  171DOPC  C21120827   3.544   4.822   5.577  0.1883  0.4270  0.1717
  171DOPC  H11R20828   3.649   4.859   5.573  0.3524  0.2030  1.8167
  171DOPC  H11S20829   3.532   4.715   5.602 -1.7765  0.8011  1.0502
  171DOPC  C21220830   3.488   4.898   5.702 -0.3642  0.2850 -0.1851
  171DOPC  H12R20831   3.377   4.912   5.703 -0.2245  1.4555  0.0907
  171DOPC  H12S20832   3.528   5.002   5.700 -1.3256  0.6737 -0.0587
  171DOPC  C21320833   3.524   4.829   5.838 -0.5520  0.1741  0.0941
  171DOPC  H13R20834   3.633   4.817   5.824 -0.6308  1.1140 -1.7187
  171DOPC  H13S20835   3.475   4.730   5.850  0.5264 -0.2259  1.3282
  171DOPC  C21420836   3.480   4.926   5.944  0.3911  0.2697 -1.0664
  171DOPC  H14R20837   3.370   4.941   5.936  0.2569 -1.4401 -3.5145
  171DOPC  H14S20838   3.531   5.023   5.929 -1.9006  1.5134 -1.3341
  171DOPC  C21520839   3.513   4.871   6.085 -0.6101 -0.4606  0.2986
  171DOPC  H15R20840   3.623   4.861   6.096 -0.5297 -2.0857 -1.4666
  171DOPC  H15S20841   3.465   4.771   6.097  0.2728 -1.2951 -2.3801
  171DOPC  C21620842   3.458   4.962   6.193 -0.0179  0.5481  0.4900
  171DOPC  H16R20843   3.348   4.970   6.210 -0.0914  0.4830  0.0424
  171DOPC  H16S20844   3.495   5.063   6.167 -3.0856  1.2840 -1.5398
  171DOPC  C21720845   3.511   4.915   6.331  0.3081  0.0003 -0.2365
  171DOPC  H17R20846   3.464   4.988   6.400  0.3065  2.5030 -2.7044
  171DOPC  H17S20847   3.619   4.940   6.329  0.1923  1.1002  2.7897
  171DOPC  C21820848   3.491   4.772   6.377 -1.0111  0.1365 -0.2497
  171DOPC  H18R20849   3.531   4.714   6.291 -0.5763  0.6743 -0.4183
  171DOPC  H18S20850   3.384   4.743   6.389 -0.7827  0.2666  2.6470
  171DOPC  H18T20851   3.541   4.736   6.469 -1.6766  0.7505  0.3596
  171DOPC   C3320852   4.079   5.299   4.649 -0.5181 -0.3101 -0.2980
  171DOPC   H3X20853   4.007   5.382   4.629  1.7374  2.0364  0.8582
  171DOPC   H3Y20854   4.175   5.353   4.662  0.1873 -1.6057  0.0387
  171DOPC   C3420855   4.034   5.214   4.766  0.1907  0.6460 -0.5722
  171DOPC   H4X20856   4.119   5.152   4.802 -0.8385 -0.2498  0.3724
  171DOPC   H4Y20857   3.953   5.141   4.742 -0.1436  0.7862  0.1060
  171DOPC   C3520858   3.994   5.306   4.882  0.7749 -0.2580  0.3149
  171DOPC   H5X20859   3.901   5.352   4.842  0.7367 -2.2241 -2.0459
  171DOPC   H5Y20860   4.071   5.382   4.908  0.5448 -0.0859  0.5006
  171DOPC   C3620861   3.959   5.226   5.020  0.0573 -0.0653 -0.1564
  171DOPC   H6X20862   3.868   5.167   4.997  0.0519  0.5654 -1.9414
  171DOPC   H6Y20863   4.046   5.159   5.038 -0.5251 -0.6584  0.5063
  171DOPC   C3720864   3.932   5.307   5.144  0.8775 -0.0375 -0.4888
  171DOPC   H7X20865   4.013   5.382   5.153 -0.0148  0.9264 -0.2977
  171DOPC   H7Y20866   3.837   5.361   5.124  1.3034  0.4341 -1.2902
  171DOPC   C3820867   3.927   5.231   5.282 -0.5755  0.0694  0.0878
  171DOPC   H8X20868   3.845   5.157   5.282 -1.1011  0.4344  3.8105
  171DOPC   H8Y20869   3.906   5.307   5.361  2.3927  1.5670 -0.4263
  171DOPC   C3920870   4.068   5.173   5.316 -0.1201 -0.8081  0.8943
  171DOPC   H9X20871   4.148   5.222   5.259 -1.8731  2.8916  1.3233
  171DOPC  C31020872   4.107   5.097   5.416  0.1466  0.1160 -0.0610
  171DOPC  H10X20873   4.213   5.069   5.418 -0.2994 -1.7191 -0.3141
  171DOPC  C31120874   4.002   5.038   5.509 -0.3800 -0.2654  0.1487
  171DOPC  H11X20875   4.018   4.929   5.523 -2.2446 -0.7713 -1.1389
  171DOPC  H11Y20876   3.896   5.043   5.476 -0.5677 -0.5224  0.7002
  171DOPC  C31220877   4.004   5.110   5.649 -0.3662 -0.1906 -0.3160
  171DOPC  H12X20878   3.979   5.218   5.640  0.8867  0.0404 -1.4062
  171DOPC  H12Y20879   4.107   5.088   5.685 -0.3625  0.3187 -0.0052
  171DOPC  C31320880   3.906   5.050   5.745 -0.0021 -0.0343 -0.3345
  171DOPC  H13X20881   3.801   5.070   5.716  0.3368  1.6353 -0.5122
  171DOPC  H13Y20882   3.914   4.942   5.772 -0.2373  0.0988  0.2901
  171DOPC  C31420883   3.922   5.125   5.882  0.0259  0.3538  1.5192
  171DOPC  H14X20884   4.023   5.112   5.926  1.3247  0.9715 -1.0773
  171DOPC  H14Y20885   3.927   5.235   5.866  3.7291 -0.0987 -2.2273
  171DOPC  C31520886   3.809   5.071   5.984  0.2956 -0.5698 -0.1967
  171DOPC  H15X20887   3.798   4.961   5.989  1.4479 -0.9214 -3.2346
  171DOPC  H15Y20888   3.719   5.109   5.932 -0.3126 -2.4626 -0.5962
  171DOPC  C31620889   3.829   5.128   6.129  0.0418 -0.6119  0.7312
  171DOPC  H16X20890   3.844   5.238   6.129  1.0486 -0.7451  0.6499
  171DOPC  H16Y20891   3.734   5.101   6.180 -2.2519  0.4357 -2.6474
  171DOPC  C31720892   3.946   5.069   6.197 -0.3923 -0.1893 -0.5233
  171DOPC  H17X20893   3.940   4.959   6.183 -1.1619 -0.2222  0.0201
  171DOPC  H17Y20894   4.036   5.100   6.140 -0.5231 -1.4540 -1.4680
  171DOPC  C31820895   3.955   5.096   6.350  0.3924  0.7658 -0.1252
  171DOPC  H18X20896   4.039   5.035   6.389  0.3914  0.7043 -0.2188
  171DOPC  H18Y20897   3.966   5.206   6.361 -0.9442  0.8166  1.1080
  171DOPC  H18Z20898   3.866   5.059   6.406  1.8798 -2.0983  0.5582
  172DOPC     N20899   2.433   5.501   3.526  0.1585 -0.0107 -0.1749
  172DOPC   C1220900   2.584   5.503   3.542 -0.0722 -0.1084  0.0202
  172DOPC  H12A20901   2.618   5.411   3.497 -0.3863  1.6836 -4.3240
  172DOPC  H12B20902   2.588   5.499   3.650 -3.1013  0.8622  0.2665
  172DOPC   C1320903   2.373   5.623   3.600 -0.5773 -1.0160 -0.1585
  172DOPC  H13A20904   2.389   5.616   3.706 -0.2230 -1.2209 -0.2233
  172DOPC  H13B20905   2.416   5.712   3.557 -3.5746  0.7083  0.0981
  172DOPC  H13C20906   2.266   5.628   3.582 -0.5091  1.7858 -0.1498
  172DOPC   C1420907   2.379   5.373   3.590  0.5078 -0.3571 -0.4045
  172DOPC  H14A20908   2.412   5.362   3.692 -1.0469  0.9963  0.2854
  172DOPC  H14B20909   2.271   5.369   3.599  0.5076  0.3014 -0.1069
  172DOPC  H14C20910   2.411   5.281   3.541  1.5842  0.3295 -1.0395
  172DOPC   C1520911   2.380   5.500   3.385  0.4503 -0.0141 -0.7023
  172DOPC  H15A20912   2.415   5.592   3.341 -0.8820  1.5556  1.3097
  172DOPC  H15B20913   2.272   5.501   3.391  0.3056  2.5296 -2.5196
  172DOPC  H15C20914   2.412   5.413   3.330  2.0057  0.4912 -0.6466
  172DOPC   C1120915   2.659   5.628   3.489 -0.3030  0.0093  0.5820
  172DOPC  H11A20916   2.768   5.610   3.474 -0.3520 -0.2156  0.5032
  172DOPC  H11B20917   2.634   5.639   3.382 -0.4649 -1.2522  0.4794
  172DOPC     P20918   2.712   5.755   3.705 -0.0578  0.4704  0.3917
  172DOPC   O1320919   2.861   5.743   3.686 -0.6634  0.9062  0.0276
  172DOPC   O1420920   2.656   5.659   3.799  0.4329 -0.2206  0.4543
  172DOPC   O1220921   2.648   5.745   3.563 -0.2328  0.1601  0.4307
  172DOPC   O1120922   2.663   5.898   3.748 -0.2020  0.3554  0.3965
  172DOPC    C120923   2.760   5.992   3.788 -0.1513 -0.3673  0.1185
  172DOPC    HA20924   2.741   6.091   3.743 -0.5297 -0.0939  0.8663
  172DOPC    HB20925   2.867   5.972   3.762  0.4730  1.3026  1.2551
  172DOPC    C220926   2.760   6.026   3.937 -0.0477 -0.1583 -0.1588
  172DOPC    HS20927   2.850   6.087   3.957 -1.1621  1.1671  0.9574
  172DOPC   O2120928   2.755   5.909   4.017 -0.1044 -0.0888  0.3163
  172DOPC   C2120929   2.870   5.849   4.049 -0.0701 -0.3475 -0.2493
  172DOPC   O2220930   2.982   5.895   4.030 -0.4149 -0.0860  0.5604
  172DOPC   C2220931   2.834   5.715   4.106  0.2301 -0.0395 -0.9552
  172DOPC   H2R20932   2.930   5.687   4.155  0.1879  1.6558  0.1712
  172DOPC   H2S20933   2.829   5.641   4.023 -0.7719 -0.1247 -0.8279
  172DOPC    C320934   2.635   6.111   3.977 -0.5698 -0.3168  0.2983
  172DOPC    HX20935   2.547   6.050   3.947  0.3749 -2.8042  2.2132
  172DOPC    HY20936   2.623   6.199   3.910 -0.7372  0.0666  0.8302
  172DOPC   O3120937   2.628   6.151   4.114 -0.1714  0.8949  0.4643
  172DOPC   C3120938   2.541   6.087   4.191  0.3899 -0.2799 -0.4316
  172DOPC   O3220939   2.468   5.997   4.156  0.0968 -0.5091  0.0701
  172DOPC   C3220940   2.537   6.157   4.323  0.2387 -0.3534 -0.6881
  172DOPC   H2X20941   2.639   6.160   4.368 -0.8285  0.9614  1.9231
  172DOPC   H2Y20942   2.507   6.264   4.317 -0.5570 -0.2742  2.5452
  172DOPC   C2320943   2.728   5.709   4.213 -0.2910 -0.4199  0.0036
  172DOPC   H3R20944   2.703   5.603   4.238  4.0934 -1.2079  2.0391
  172DOPC   H3S20945   2.637   5.760   4.175  0.1954 -0.7046 -1.6143
  172DOPC   C2420946   2.774   5.789   4.335  0.4570 -0.4557  0.1945
  172DOPC   H4R20947   2.761   5.897   4.313 -2.1769 -0.2072  2.3811
  172DOPC   H4S20948   2.882   5.778   4.358  0.0411 -0.8053  2.1755
  172DOPC   C2520949   2.693   5.759   4.468  0.2356  0.0417 -0.0372
  172DOPC   H5R20950   2.729   5.656   4.487 -0.6854 -0.3165 -0.2046
  172DOPC   H5S20951   2.584   5.743   4.455  0.5717 -2.9402  0.1897
  172DOPC   C2620952   2.729   5.841   4.591  0.8156  0.0947 -0.2631
  172DOPC   H6R20953   2.734   5.948   4.561 -0.2850 -0.5413 -3.1277
  172DOPC   H6S20954   2.833   5.821   4.625  0.6615  1.8213  1.3697
  172DOPC   C2720955   2.623   5.838   4.704 -0.0880  0.4913 -0.5137
  172DOPC   H7R20956   2.633   5.738   4.751  3.3854  0.3543 -1.3009
  172DOPC   H7S20957   2.525   5.847   4.651  1.3528 -3.7000 -4.4944
  172DOPC   C2820958   2.639   5.950   4.818 -0.1361 -0.3517  0.1819
  172DOPC   H8R20959   2.546   5.950   4.880  0.8344 -1.5439  1.7222
  172DOPC   H8S20960   2.638   6.044   4.759 -0.1096 -0.3178  0.2359
  172DOPC   C2920961   2.768   5.943   4.901  0.6378 -0.2549  0.3636
  172DOPC   H9R20962   2.856   5.994   4.859  1.6689 -2.1382  0.1368
  172DOPC  C21020963   2.768   5.894   5.027 -0.1047 -0.3842  0.8180
  172DOPC  H10R20964   2.869   5.892   5.071 -0.8452 -1.2905  2.5564
  172DOPC  C21120965   2.659   5.821   5.100 -0.1562  0.5079 -0.6459
  172DOPC  H11R20966   2.680   5.713   5.111 -3.0953 -0.0922 -0.0497
  172DOPC  H11S20967   2.563   5.823   5.043 -1.3520  2.5396  1.2332
  172DOPC  C21220968   2.621   5.871   5.243  0.3301 -0.0906  0.3042
  172DOPC  H12R20969   2.542   5.804   5.284  1.4764 -0.6020  1.7564
  172DOPC  H12S20970   2.580   5.975   5.240 -0.2070 -0.2981  0.2007
  172DOPC  C21320971   2.746   5.878   5.335  0.4638 -0.9491 -0.1150
  172DOPC  H13R20972   2.812   5.952   5.284 -1.7651  0.7691 -0.6626
  172DOPC  H13S20973   2.790   5.778   5.358 -0.7765 -1.1382  1.6611
  172DOPC  C21420974   2.720   5.934   5.481  0.4313  0.3575 -0.1720
  172DOPC  H14R20975   2.623   5.896   5.518  1.1234 -1.0434  0.2677
  172DOPC  H14S20976   2.707   6.044   5.466  0.6782  0.2548 -1.1934
  172DOPC  C21520977   2.830   5.909   5.582  0.2281  0.3822 -0.2609
  172DOPC  H15R20978   2.929   5.936   5.538  0.1994  0.0130 -0.5652
  172DOPC  H15S20979   2.826   5.800   5.603  1.9147  0.5405  1.0957
  172DOPC  C21620980   2.810   6.000   5.704  0.0527 -0.2219 -0.0622
  172DOPC  H16R20981   2.705   5.989   5.740 -0.5898 -1.2303 -2.0630
  172DOPC  H16S20982   2.826   6.100   5.659  1.0912  0.5519  1.9052
  172DOPC  C21720983   2.910   5.967   5.817 -0.3564 -0.2074  0.7255
  172DOPC  H17R20984   3.015   5.982   5.785  0.0457  0.6270  2.3127
  172DOPC  H17S20985   2.909   5.857   5.834 -0.2319 -1.0639 -3.6236
  172DOPC  C21820986   2.893   6.033   5.954 -0.3373  0.2808 -0.3448
  172DOPC  H18R20987   2.846   6.134   5.961  0.3250  0.4810  1.7148
  172DOPC  H18S20988   2.994   6.049   5.998 -0.3561 -0.9062  0.1663
  172DOPC  H18T20989   2.835   5.968   6.023 -1.8446 -1.0331 -2.7089
  172DOPC   C3320990   2.441   6.094   4.421 -0.5196  0.6061  0.3134
  172DOPC   H3X20991   2.466   5.987   4.436 -0.8579  0.8230  3.0143
  172DOPC   H3Y20992   2.335   6.101   4.390 -0.7049  0.5582  0.9321
  172DOPC   C3420993   2.444   6.173   4.557 -0.0163 -0.0250 -0.1044
  172DOPC   H4X20994   2.417   6.281   4.549  0.5949  0.1717  0.3886
  172DOPC   H4Y20995   2.550   6.174   4.592 -0.0470  3.5040  0.2139
  172DOPC   C3520996   2.359   6.099   4.663 -0.0691  0.5360 -0.4287
  172DOPC   H5X20997   2.378   5.989   4.669 -2.9518 -0.0445 -0.1585
  172DOPC   H5Y20998   2.252   6.101   4.633  0.2146 -1.2691 -1.7583
  172DOPC   C3620999   2.370   6.147   4.813 -0.1117  0.3176  0.3424
  172DOPC   H6X21000   2.476   6.149   4.845 -1.1101 -0.6395  4.1376
  172DOPC   H6Y21001   2.330   6.251   4.818  0.7830  0.7295 -0.6748
  172DOPC   C3721002   2.293   6.058   4.906  0.0000 -0.3054 -0.0701
  172DOPC   H7X21003   2.189   6.047   4.868  0.0214 -2.9181  0.4230
  172DOPC   H7Y21004   2.337   5.956   4.911  0.7498 -0.0219 -0.6250
  172DOPC   C3821005   2.284   6.114   5.052 -0.4836 -0.2100  0.2780
  172DOPC   H8X21006   2.389   6.133   5.082  0.1710  0.4758 -2.1805
  172DOPC   H8Y21007   2.252   6.038   5.126 -1.2800 -1.6107 -1.4102
  172DOPC   C3921008   2.201   6.236   5.094 -1.0014  0.2149 -0.4520
  172DOPC   H9X21009   2.255   6.325   5.060  0.4232 -0.4415 -0.0014
  172DOPC  C31021010   2.099   6.252   5.183 -0.4481  0.0044  0.0888
  172DOPC  H10X21011   2.065   6.354   5.206  0.8202  0.6451 -0.7306
  172DOPC  C31121012   2.020   6.138   5.235 -0.5784 -0.6636  0.0965
  172DOPC  H11X21013   2.038   6.050   5.170  1.7924  1.3292 -2.1238
  172DOPC  H11Y21014   1.910   6.157   5.226 -0.6377 -0.8146  0.4708
  172DOPC  C31221015   2.043   6.090   5.375 -0.6041  0.3414 -0.4740
  172DOPC  H12X21016   2.150   6.064   5.390 -0.3216  0.3572 -2.2437
  172DOPC  H12Y21017   1.979   5.999   5.379  1.0392 -0.8912 -1.0499
  172DOPC  C31321018   1.991   6.181   5.493  0.0892 -0.1220 -0.1812
  172DOPC  H13X21019   2.035   6.283   5.492 -1.0779  0.4046  0.5988
  172DOPC  H13Y21020   1.883   6.200   5.478 -0.4642 -0.6585  2.6488
  172DOPC  C31421021   1.991   6.127   5.637 -0.3500  0.1847 -0.0466
  172DOPC  H14X21022   1.972   6.017   5.634 -1.2375  0.3574 -1.9594
  172DOPC  H14Y21023   2.098   6.141   5.663 -0.5246 -0.6640  1.2336
  172DOPC  C31521024   1.881   6.186   5.721  0.6498 -0.2257  0.6804
  172DOPC  H15X21025   1.786   6.182   5.665  1.3074 -0.1203 -0.4660
  172DOPC  H15Y21026   1.894   6.291   5.754 -0.6305 -0.0587  0.7089
  172DOPC  C31621027   1.860   6.097   5.849  0.1468  0.0395 -0.0871
  172DOPC  H16X21028   1.793   6.146   5.923  0.2028 -0.0054 -0.0068
  172DOPC  H16Y21029   1.820   5.998   5.819 -0.7979  0.0690  1.0069
  172DOPC  C31721030   1.989   6.088   5.926 -0.7619  0.4855  0.0468
  172DOPC  H17X21031   2.069   6.038   5.868  0.8041  3.1164 -0.2437
  172DOPC  H17Y21032   2.038   6.185   5.951  2.3268 -0.6045 -1.2574
  172DOPC  C31821033   1.982   6.019   6.059 -0.8634  0.0881 -0.3135
  172DOPC  H18X21034   1.914   6.074   6.128 -1.4072  1.1931 -1.6802
  172DOPC  H18Y21035   1.918   5.928   6.053 -1.8680  0.2949  3.9789
  172DOPC  H18Z21036   2.077   5.999   6.114 -0.3731 -0.6233 -1.3818
  173DOPC     N21037   2.974   4.391   4.099  0.0253  0.3367 -0.0902
  173DOPC   C1221038   2.963   4.528   4.044  0.8816  0.3189  0.2181
  173DOPC  H12A21039   3.053   4.561   3.994 -0.1533  0.1672 -1.8559
  173DOPC  H12B21040   2.944   4.594   4.127 -0.3538 -0.3823  0.5145
  173DOPC   C1321041   2.843   4.343   4.160  0.3110 -0.1610 -0.2340
  173DOPC  H13A21042   2.855   4.239   4.189  0.5558 -0.7776 -2.3918
  173DOPC  H13B21043   2.808   4.409   4.238 -0.0487 -1.3635  0.6662
  173DOPC  H13C21044   2.766   4.371   4.090  0.7516  0.7561 -0.3589
  173DOPC   C1421045   3.078   4.388   4.212  0.6131  0.3449  0.3528
  173DOPC  H14A21046   3.081   4.289   4.253 -0.9049  0.4771  0.8340
  173DOPC  H14B21047   3.180   4.410   4.180  0.7780  2.2786  1.9793
  173DOPC  H14C21048   3.047   4.460   4.286 -1.2365  1.4751 -1.4095
  173DOPC   C1521049   3.011   4.291   3.999 -0.2907 -0.4039  0.1422
  173DOPC  H15A21050   2.960   4.315   3.907  0.0240  0.6366  0.2299
  173DOPC  H15B21051   2.976   4.196   4.037 -0.0527 -0.5730 -0.0517
  173DOPC  H15C21052   3.118   4.284   3.984 -0.1610 -0.3753  1.0145
  173DOPC   C1121053   2.845   4.561   3.949  0.3115  0.0307 -0.2319
  173DOPC  H11A21054   2.862   4.669   3.925 -1.6798  0.7731  1.4311
  173DOPC  H11B21055   2.863   4.498   3.859  2.1400  0.7231 -0.3949
  173DOPC     P21056   2.657   4.653   4.104 -0.0110 -0.5934  0.2893
  173DOPC   O1321057   2.552   4.607   4.197  0.7222 -0.2355  0.3447
  173DOPC   O1421058   2.625   4.771   4.015 -0.1435 -0.1231  0.3413
  173DOPC   O1221059   2.712   4.536   4.003 -0.2159  0.4926 -0.0925
  173DOPC   O1121060   2.785   4.688   4.187 -0.4497 -0.5133 -0.1946
  173DOPC    C121061   2.790   4.660   4.325 -0.0323  0.4519 -0.7873
  173DOPC    HA21062   2.893   4.634   4.356 -0.8340 -0.9739  0.8243
  173DOPC    HB21063   2.734   4.565   4.344 -0.1372  0.9531  1.7199
  173DOPC    C221064   2.732   4.765   4.411  0.3837 -0.2652  0.0592
  173DOPC    HS21065   2.622   4.773   4.392  0.3984 -0.7592 -0.2405
  173DOPC   O2121066   2.799   4.890   4.385  0.1369 -0.4036  0.4242
  173DOPC   C2121067   2.724   5.000   4.366  0.1956 -0.0445 -0.3608
  173DOPC   O2221068   2.603   5.000   4.355  0.1912  0.4528  0.0745
  173DOPC   C2221069   2.819   5.122   4.354 -0.0604  0.7445 -0.2068
  173DOPC   H2R21070   2.834   5.134   4.245  0.4555  1.6879 -0.0376
  173DOPC   H2S21071   2.918   5.098   4.399  0.1469  0.3182 -0.8747
  173DOPC    C321072   2.742   4.717   4.553 -0.2966  0.2032 -0.6434
  173DOPC    HX21073   2.850   4.705   4.578 -0.3487 -0.4481 -0.7214
  173DOPC    HY21074   2.693   4.620   4.574  1.1408 -0.5402 -0.6475
  173DOPC   O3121075   2.703   4.812   4.654 -0.3787 -0.7896  0.2540
  173DOPC   C3121076   2.746   4.802   4.776 -0.1817 -0.3073 -0.2041
  173DOPC   O3221077   2.809   4.708   4.822 -0.2524  0.3355 -0.2571
  173DOPC   C3221078   2.688   4.919   4.850  0.1340 -0.7254 -0.8571
  173DOPC   H2X21079   2.690   5.009   4.785  0.0288 -0.5520 -0.6203
  173DOPC   H2Y21080   2.580   4.900   4.869 -0.0161 -0.4733 -1.4376
  173DOPC   C2321081   2.766   5.240   4.438 -0.2061 -0.2249 -0.2026
  173DOPC   H3R21082   2.674   5.290   4.399 -0.6477  0.3228  1.4506
  173DOPC   H3S21083   2.847   5.317   4.438  2.0349 -2.2681  3.5499
  173DOPC   C2421084   2.762   5.218   4.591  0.4411 -0.0309  0.1148
  173DOPC   H4R21085   2.865   5.189   4.620  0.6937  0.3543 -0.3770
  173DOPC   H4S21086   2.689   5.138   4.616  1.1928  0.2250  3.5187
  173DOPC   C2521087   2.723   5.334   4.682 -0.1765 -0.1834  0.5245
  173DOPC   H5R21088   2.625   5.368   4.643  0.5850  1.3043 -0.1830
  173DOPC   H5S21089   2.793   5.419   4.672 -0.4212  0.0584  0.8695
  173DOPC   C2621090   2.693   5.303   4.828  0.0912  0.7014 -0.6219
  173DOPC   H6R21091   2.767   5.233   4.871 -2.3539 -2.2596 -0.9255
  173DOPC   H6S21092   2.598   5.247   4.838  0.6623 -0.1032  0.5054
  173DOPC   C2721093   2.686   5.430   4.916 -0.8030  0.5621 -0.5417
  173DOPC   H7R21094   2.618   5.494   4.857  0.0457  0.3795 -1.7478
  173DOPC   H7S21095   2.788   5.472   4.931 -1.3685  1.9691 -0.4527
  173DOPC   C2821096   2.626   5.411   5.056  0.5162  0.2213 -0.9315
  173DOPC   H8R21097   2.521   5.379   5.035  0.1939  0.9829 -0.5400
  173DOPC   H8S21098   2.613   5.513   5.098 -0.5960 -0.4985  0.5965
  173DOPC   C2921099   2.691   5.317   5.152  0.3188  0.8442  0.3943
  173DOPC   H9R21100   2.738   5.232   5.099  0.3145  0.9929  0.1519
  173DOPC  C21021101   2.718   5.338   5.281  0.2733 -0.3019  0.9278
  173DOPC  H10R21102   2.775   5.269   5.345  0.7079  0.7269  1.6750
  173DOPC  C21121103   2.674   5.456   5.358 -0.4082 -0.4433 -0.3344
  173DOPC  H11R21104   2.563   5.461   5.370 -0.3889  1.3644 -0.5327
  173DOPC  H11S21105   2.691   5.550   5.301  0.6275 -0.5318 -0.1834
  173DOPC  C21221106   2.727   5.464   5.502 -0.0857 -0.1159  0.2137
  173DOPC  H12R21107   2.834   5.495   5.502 -0.1439  0.0989  0.7654
  173DOPC  H12S21108   2.720   5.367   5.557  0.5664 -0.1768  0.1930
  173DOPC  C21321109   2.649   5.567   5.590 -0.6269  0.0749  0.6837
  173DOPC  H13R21110   2.539   5.562   5.572 -0.4971 -0.0281 -0.1219
  173DOPC  H13S21111   2.671   5.669   5.552 -2.9612 -0.2687 -1.9457
  173DOPC  C21421112   2.698   5.557   5.733  0.4380 -0.3000 -0.1644
  173DOPC  H14R21113   2.807   5.579   5.735  0.5876 -0.7667 -1.5900
  173DOPC  H14S21114   2.677   5.455   5.772 -0.3734 -0.0931 -0.0459
  173DOPC  C21521115   2.624   5.659   5.822 -0.3809  0.0114 -0.0604
  173DOPC  H15R21116   2.514   5.644   5.810 -0.1864 -0.4211 -1.3956
  173DOPC  H15S21117   2.641   5.765   5.795 -0.5501  0.3236  0.9960
  173DOPC  C21621118   2.661   5.653   5.968  0.2643  0.2594 -0.1025
  173DOPC  H16R21119   2.760   5.698   5.988 -0.3848  2.2500 -1.0825
  173DOPC  H16S21120   2.659   5.544   5.990 -1.6727  0.0287 -1.1893
  173DOPC  C21721121   2.542   5.709   6.048 -0.3791 -0.5414 -0.7268
  173DOPC  H17R21122   2.569   5.719   6.155  2.1603  0.8827 -1.4080
  173DOPC  H17S21123   2.448   5.651   6.038 -2.5095  2.2834  1.2305
  173DOPC  C21821124   2.506   5.856   6.003 -1.1139  0.2203 -0.3038
  173DOPC  H18R21125   2.595   5.922   6.010 -1.3726  0.7381 -1.5201
  173DOPC  H18S21126   2.434   5.899   6.075  2.0133  1.2567  2.4295
  173DOPC  H18T21127   2.470   5.852   5.897  0.1799  0.1231 -0.7508
  173DOPC   C3321128   2.758   4.934   4.986  1.0139  0.6362  0.3471
  173DOPC   H3X21129   2.759   5.042   5.015  3.2551  0.0549  2.7956
  173DOPC   H3Y21130   2.866   4.914   4.969  0.4727 -0.0191 -3.1550
  173DOPC   C3421131   2.704   4.840   5.095 -0.2645  0.4060 -0.5654
  173DOPC   H4X21132   2.745   4.737   5.084  0.1866  0.7335 -2.3144
  173DOPC   H4Y21133   2.596   4.824   5.076 -0.5299  1.3403  0.1004
  173DOPC   C3521134   2.728   4.901   5.235 -0.6168  0.0069 -0.3566
  173DOPC   H5X21135   2.716   5.010   5.224  1.7829  0.2373 -1.3459
  173DOPC   H5Y21136   2.835   4.898   5.265 -0.4824  0.8019 -0.7488
  173DOPC   C3621137   2.636   4.856   5.352  0.4078 -0.2981  0.1804
  173DOPC   H6X21138   2.532   4.847   5.316 -0.0523  0.0738  1.3945
  173DOPC   H6Y21139   2.658   4.753   5.388 -3.5810 -1.2296  0.3910
  173DOPC   C3721140   2.640   4.958   5.469  0.3252 -0.1290  0.1574
  173DOPC   H7X21141   2.746   4.980   5.493  0.8410 -1.5630 -0.6714
  173DOPC   H7Y21142   2.587   5.052   5.444  0.3408  0.9193  3.6277
  173DOPC   C3821143   2.563   4.914   5.595  0.6222 -0.4877 -0.2542
  173DOPC   H8X21144   2.464   4.880   5.558  0.2697 -0.1604  0.3659
  173DOPC   H8Y21145   2.548   5.009   5.652  0.3383 -0.7842  0.1712
  173DOPC   C3921146   2.607   4.809   5.694 -0.3577  0.2084 -1.0011
  173DOPC   H9X21147   2.597   4.708   5.651 -0.2437  0.1764 -0.9530
  173DOPC  C31021148   2.659   4.826   5.816 -1.5700 -1.0105  0.7030
  173DOPC  H10X21149   2.666   4.736   5.878 -2.1361  0.1366  2.5220
  173DOPC  C31121150   2.676   4.951   5.890 -0.4519  0.2793  0.8922
  173DOPC  H11X21151   2.589   4.999   5.940  0.1744 -0.3342  2.6557
  173DOPC  H11Y21152   2.716   5.028   5.820 -1.3546 -1.4657 -1.6911
  173DOPC  C31221153   2.788   4.939   5.991 -0.2037  0.1186  0.3060
  173DOPC  H12X21154   2.837   5.036   6.014  0.6247 -0.3789  0.6650
  173DOPC  H12Y21155   2.866   4.870   5.952 -1.9773 -0.5421 -2.3144
  173DOPC  C31321156   2.747   4.884   6.125  0.3112  0.4442  0.1310
  173DOPC  H13X21157   2.664   4.946   6.166  0.9370  1.2073  0.2573
  173DOPC  H13Y21158   2.711   4.780   6.110  0.3582  0.3006  0.9654
  173DOPC  C31421159   2.867   4.882   6.224  0.6180 -0.4205 -0.1082
  173DOPC  H14X21160   2.948   4.810   6.199  0.2926 -0.9498  0.3558
  173DOPC  H14Y21161   2.921   4.979   6.217 -0.4441  0.1404 -0.7727
  173DOPC  C31521162   2.820   4.848   6.367 -0.5421  0.1245  0.3383
  173DOPC  H15X21163   2.778   4.745   6.365 -2.2033  0.7692 -0.9966
  173DOPC  H15Y21164   2.733   4.910   6.396 -0.7652  0.5557 -1.1650
  173DOPC  C31621165   2.927   4.848   6.480  0.2604  0.0222  0.3162
  173DOPC  H16X21166   2.975   4.947   6.467  0.3017 -0.2154 -1.5894
  173DOPC  H16Y21167   2.872   4.836   6.576 -2.2956 -1.0721 -1.1644
  173DOPC  C31721168   3.015   4.728   6.476 -0.5009  0.1077 -0.0502
  173DOPC  H17X21169   2.958   4.640   6.515  1.4543 -0.7101  1.1140
  173DOPC  H17Y21170   3.043   4.708   6.371  0.8730 -1.7267  0.6031
  173DOPC  C31821171   3.130   4.750   6.561  0.1989 -0.2527 -0.0793
  173DOPC  H18X21172   3.176   4.846   6.526  2.1801 -2.0903 -3.0192
  173DOPC  H18Y21173   3.109   4.741   6.669  0.3049 -1.6297 -0.1558
  173DOPC  H18Z21174   3.206   4.671   6.545 -1.7090 -2.0213 -0.8808
  174DOPC     N21175   4.760   3.807   3.815 -0.0832 -0.4978  0.7650
  174DOPC   C1221176   4.655   3.797   3.927  0.0748  0.4944  0.2643
  174DOPC  H12A21177   4.697   3.851   4.010  0.6326  0.0720  0.2632
  174DOPC  H12B21178   4.657   3.693   3.956 -0.2810  0.2785 -0.4659
  174DOPC   C1321179   4.788   3.950   3.772 -0.6780 -0.1004  0.3899
  174DOPC  H13A21180   4.697   3.997   3.738 -0.5542 -0.1591 -0.0369
  174DOPC  H13B21181   4.831   4.008   3.852 -1.1334  1.5329 -0.5136
  174DOPC  H13C21182   4.846   3.953   3.681 -2.0630 -0.0093 -0.5302
  174DOPC   C1421183   4.720   3.737   3.685 -0.0186 -0.1928 -0.3204
  174DOPC  H14A21184   4.636   3.794   3.648  1.9515  0.8471 -3.6413
  174DOPC  H14B21185   4.794   3.751   3.607  0.8645  0.4533  0.6039
  174DOPC  H14C21186   4.687   3.635   3.690 -1.7317  0.1917 -2.1719
  174DOPC   C1521187   4.893   3.751   3.860 -0.2069  0.2327 -0.4739
  174DOPC  H15A21188   4.929   3.806   3.946 -0.9917  0.9515 -0.5896
  174DOPC  H15B21189   4.969   3.755   3.783  0.4556 -1.8037  0.0205
  174DOPC  H15C21190   4.875   3.647   3.879 -2.8768  1.1943  3.2465
  174DOPC   C1121191   4.510   3.848   3.907 -0.4520  0.4098 -0.5630
  174DOPC  H11A21192   4.455   3.782   3.837 -1.0652 -1.3198  1.4413
  174DOPC  H11B21193   4.451   3.841   4.001 -0.1031  0.9365 -0.2984
  174DOPC     P21194   4.385   4.080   3.868 -0.1450 -0.1737  0.3476
  174DOPC   O1321195   4.263   3.998   3.855  0.0478 -0.1524  0.2593
  174DOPC   O1421196   4.407   4.187   3.765 -0.1183  0.1369 -0.2573
  174DOPC   O1221197   4.514   3.985   3.872 -0.5078  0.0103  0.0468
  174DOPC   O1121198   4.399   4.144   4.013 -0.0292 -0.1545 -0.6421
  174DOPC    C121199   4.525   4.137   4.078 -0.0578  0.0786  1.0735
  174DOPC    HA21200   4.608   4.152   4.006  1.2290 -2.1901  2.0057
  174DOPC    HB21201   4.541   4.033   4.113 -1.0949 -0.3212  0.4189
  174DOPC    C221202   4.538   4.236   4.196  1.0065  0.8064  0.0770
  174DOPC    HS21203   4.643   4.243   4.232  0.5953  0.5887  1.4007
  174DOPC   O2121204   4.454   4.182   4.306  0.2888 -0.4648 -0.0271
  174DOPC   C2121205   4.516   4.152   4.422 -0.2055  0.2778  0.1313
  174DOPC   O2221206   4.635   4.133   4.436  0.2840  0.2321 -0.1695
  174DOPC   C2221207   4.418   4.137   4.540 -0.8014 -0.7168 -0.0104
  174DOPC   H2R21208   4.344   4.066   4.497  0.9351 -1.3585 -2.1377
  174DOPC   H2S21209   4.379   4.239   4.558  0.9711  0.4176 -2.1441
  174DOPC    C321210   4.491   4.376   4.158  0.0582 -0.2254 -0.6692
  174DOPC    HX21211   4.387   4.363   4.120  0.8948 -1.0875 -2.8299
  174DOPC    HY21212   4.554   4.421   4.078  0.8990  0.6033  0.4273
  174DOPC   O3121213   4.484   4.466   4.276  0.2375 -0.3560  0.2801
  174DOPC   C3121214   4.596   4.499   4.332  0.0843  0.5247  0.6941
  174DOPC   O3221215   4.710   4.484   4.298  0.2969  0.1604 -0.1924
  174DOPC   C3221216   4.560   4.584   4.445  0.1092  0.2821  0.3900
  174DOPC   H2X21217   4.642   4.658   4.446 -0.3591  0.8056  0.8832
  174DOPC   H2Y21218   4.465   4.635   4.416  1.6049  2.6284 -0.6382
  174DOPC   C2321219   4.473   4.079   4.669  0.4111 -0.2688 -0.3714
  174DOPC   H3R21220   4.536   3.991   4.643  1.3236  0.3548 -0.3186
  174DOPC   H3S21221   4.384   4.042   4.723 -0.3769  3.1300  0.9041
  174DOPC   C2421222   4.552   4.180   4.747 -0.7941 -0.3368  0.3753
  174DOPC   H4R21223   4.503   4.275   4.777  3.0488  1.9091  0.2546
  174DOPC   H4S21224   4.639   4.216   4.689 -0.6472 -0.5656  0.4486
  174DOPC   C2521225   4.618   4.129   4.876  0.5209  0.0639 -0.7505
  174DOPC   H5R21226   4.675   4.217   4.912 -1.5783  0.8347  0.9412
  174DOPC   H5S21227   4.677   4.039   4.847  0.9024  0.7935 -2.3181
  174DOPC   C2621228   4.507   4.093   4.972  0.2749  0.4459  0.3258
  174DOPC   H6R21229   4.446   4.013   4.925 -0.0742  0.7857  0.1960
  174DOPC   H6S21230   4.438   4.178   4.990 -0.0344  0.1953  0.3298
  174DOPC   C2721231   4.570   4.047   5.104 -0.6460 -0.3146 -0.2130
  174DOPC   H7R21232   4.627   3.953   5.083  1.2677  0.6912  0.2021
  174DOPC   H7S21233   4.495   4.017   5.180 -0.4424  0.5501  0.3483
  174DOPC   C2821234   4.678   4.145   5.168 -0.7438  0.3561  0.9320
  174DOPC   H8R21235   4.760   4.151   5.093 -1.6013 -1.8172 -0.2489
  174DOPC   H8S21236   4.720   4.107   5.264  0.0733  1.6473  1.1134
  174DOPC   C2921237   4.620   4.284   5.184  0.0188 -0.1252  0.0773
  174DOPC   H9R21238   4.615   4.349   5.095 -1.3941  0.0419  0.2460
  174DOPC  C21021239   4.567   4.336   5.295  0.7573 -0.2848 -0.0876
  174DOPC  H10R21240   4.528   4.439   5.300  3.8731  0.9546  1.1610
  174DOPC  C21121241   4.560   4.270   5.427  0.5440 -0.4594  0.2754
  174DOPC  H11R21242   4.648   4.209   5.457 -0.9248 -3.8061 -1.5949
  174DOPC  H11S21243   4.476   4.198   5.421 -0.1420 -0.0558  3.4032
  174DOPC  C21221244   4.539   4.361   5.550 -0.6366  0.4821  0.0715
  174DOPC  H12R21245   4.464   4.437   5.519 -0.8044  0.3917  0.2495
  174DOPC  H12S21246   4.640   4.405   5.567  0.6636 -1.4615 -2.1182
  174DOPC  C21321247   4.503   4.288   5.674  0.1581  0.3403 -0.4315
  174DOPC  H13R21248   4.595   4.234   5.706 -0.1287  0.8196  1.2694
  174DOPC  H13S21249   4.417   4.218   5.663  0.6905 -0.5803  0.9705
  174DOPC  C21421250   4.449   4.377   5.784  0.1122 -0.2519 -0.2536
  174DOPC  H14R21251   4.372   4.452   5.754  0.0157  0.6071  1.9719
  174DOPC  H14S21252   4.527   4.450   5.814 -0.3867  0.8327 -1.4671
  174DOPC  C21521253   4.393   4.300   5.907 -0.3044 -0.2970  1.1815
  174DOPC  H15R21254   4.471   4.230   5.943 -0.4925 -1.3269 -0.3241
  174DOPC  H15S21255   4.308   4.237   5.874  0.5642 -0.7202 -0.3017
  174DOPC  C21621256   4.342   4.392   6.019 -0.2868  0.0794 -0.7116
  174DOPC  H16R21257   4.252   4.444   5.979 -3.3920 -4.4897 -0.3733
  174DOPC  H16S21258   4.425   4.464   6.039  0.8245 -0.4830 -2.9396
  174DOPC  C21721259   4.297   4.337   6.157  0.6028  0.5872 -0.0325
  174DOPC  H17R21260   4.218   4.262   6.134  2.7607 -1.8773  0.1990
  174DOPC  H17S21261   4.268   4.420   6.226  0.7299  0.4436  0.1968
  174DOPC  C21821262   4.402   4.255   6.233 -0.1190 -0.1444  0.1869
  174DOPC  H18R21263   4.481   4.323   6.270 -0.8769  0.5702  0.5338
  174DOPC  H18S21264   4.444   4.183   6.159 -0.4176 -0.7519  0.6022
  174DOPC  H18T21265   4.352   4.200   6.315  1.2053 -0.3489  0.8763
  174DOPC   C3321266   4.546   4.527   4.582  0.7013  0.3690  0.1321
  174DOPC   H3X21267   4.625   4.454   4.609 -1.9489 -1.4844  3.5728
  174DOPC   H3Y21268   4.461   4.456   4.591  1.9422 -1.2744 -0.5575
  174DOPC   C3421269   4.542   4.639   4.680 -0.1559 -0.5683 -0.1262
  174DOPC   H4X21270   4.442   4.686   4.669  0.4447  0.6360 -0.6174
  174DOPC   H4Y21271   4.620   4.716   4.667 -0.5725  0.4056  2.5639
  174DOPC   C3521272   4.561   4.584   4.821 -0.3107 -0.2026  0.9205
  174DOPC   H5X21273   4.662   4.538   4.824  0.5714  1.6050  0.2259
  174DOPC   H5Y21274   4.481   4.511   4.847  0.3074 -0.7291  1.3771
  174DOPC   C3621275   4.555   4.693   4.934  0.0395  0.2567  0.2301
  174DOPC   H6X21276   4.611   4.783   4.901 -0.4075  1.3640  2.3401
  174DOPC   H6Y21277   4.452   4.733   4.940  0.3601  0.8993  2.1924
  174DOPC   C3721278   4.592   4.635   5.072 -0.0771  0.1343  0.1997
  174DOPC   H7X21279   4.512   4.568   5.110  0.2349  0.1661  0.9242
  174DOPC   H7Y21280   4.686   4.577   5.060  0.4855  1.0607 -0.0001
  174DOPC   C3821281   4.629   4.750   5.163  0.6677  0.4141 -0.7856
  174DOPC   H8X21282   4.548   4.826   5.168  1.3419  1.1304 -0.5801
  174DOPC   H8Y21283   4.723   4.794   5.124  0.5960  0.1165 -1.3040
  174DOPC   C3921284   4.664   4.700   5.304  0.1301 -0.0481  0.6053
  174DOPC   H9X21285   4.736   4.617   5.316  0.8109  0.1626 -1.6169
  174DOPC  C31021286   4.610   4.740   5.420  0.3920 -0.0632 -0.5355
  174DOPC  H10X21287   4.639   4.686   5.512  1.2370 -1.6045 -1.6603
  174DOPC  C31121288   4.500   4.845   5.435 -0.1043  0.8586 -0.1738
  174DOPC  H11X21289   4.409   4.797   5.393  0.1195 -0.1051  0.4246
  174DOPC  H11Y21290   4.526   4.935   5.375 -0.2807 -0.3082 -2.0863
  174DOPC  C31221291   4.462   4.895   5.578  0.0406 -0.1935  0.3368
  174DOPC  H12X21292   4.384   4.973   5.566 -1.6252 -1.8836 -0.4719
  174DOPC  H12Y21293   4.551   4.954   5.607  0.0016 -0.2837  0.6482
  174DOPC  C31321294   4.419   4.799   5.695  0.3675  0.5955  0.9277
  174DOPC  H13X21295   4.335   4.740   5.654 -0.9901  2.0207  1.5701
  174DOPC  H13Y21296   4.509   4.741   5.726 -0.0777  0.0933  1.2934
  174DOPC  C31421297   4.364   4.877   5.812  0.4415  0.3895 -0.1408
  174DOPC  H14X21298   4.437   4.956   5.840  2.0267 -0.1701 -2.4411
  174DOPC  H14Y21299   4.265   4.919   5.787  0.5103  0.7438  0.1780
  174DOPC  C31521300   4.331   4.794   5.937 -0.1672 -0.1891 -0.2041
  174DOPC  H15X21301   4.427   4.742   5.959 -1.3034 -2.6823 -0.7624
  174DOPC  H15Y21302   4.260   4.714   5.909  0.4568 -0.6379 -0.5275
  174DOPC  C31621303   4.269   4.878   6.053 -0.0234 -0.1931 -0.2947
  174DOPC  H16X21304   4.332   4.960   6.095 -3.0512  1.7654  0.7496
  174DOPC  H16Y21305   4.188   4.934   6.003 -0.6958 -2.3631 -1.7308
  174DOPC  C31721306   4.225   4.804   6.183  0.0923  0.2190  0.2433
  174DOPC  H17X21307   4.151   4.859   6.246 -0.9689  0.0290 -0.7952
  174DOPC  H17Y21308   4.176   4.709   6.151  0.7946 -0.6559  1.6241
  174DOPC  C31821309   4.341   4.759   6.279 -0.4561  0.0418 -0.6896
  174DOPC  H18X21310   4.308   4.715   6.376  0.9992 -0.7774 -0.5405
  174DOPC  H18Y21311   4.411   4.689   6.230 -1.2962 -1.5759  0.3309
  174DOPC  H18Z21312   4.392   4.851   6.315 -0.5922  0.5872 -1.8421
  175DOPC     N21313   1.492   1.105   3.419 -0.3219 -0.2602  0.7091
  175DOPC   C1221314   1.480   1.169   3.552  0.4191  0.1086 -0.7683
  175DOPC  H12A21315   1.442   1.100   3.626  0.7556 -0.0152 -0.7098
  175DOPC  H12B21316   1.407   1.249   3.557 -0.9421 -1.1522  0.9573
  175DOPC   C1321317   1.358   1.065   3.374  0.4356 -0.3128  0.5719
  175DOPC  H13A21318   1.365   1.032   3.272 -1.2859 -3.2716  1.2906
  175DOPC  H13B21319   1.336   0.982   3.441  2.3786 -1.4401 -0.1073
  175DOPC  H13C21320   1.287   1.144   3.391 -0.2092 -0.3474 -1.6453
  175DOPC   C1421321   1.569   0.979   3.422 -0.4332  0.3915  0.8988
  175DOPC  H14A21322   1.675   0.994   3.429 -0.3922 -0.1380  1.5030
  175DOPC  H14B21323   1.555   0.922   3.513 -1.2443 -0.0287  0.5197
  175DOPC  H14C21324   1.560   0.918   3.334  0.6864 -0.5082  1.3954
  175DOPC   C1521325   1.561   1.197   3.316  0.1394 -0.3449 -0.7873
  175DOPC  H15A21326   1.527   1.298   3.334  1.5974  0.2712 -1.3462
  175DOPC  H15B21327   1.543   1.166   3.214  1.3895 -0.0605 -1.1020
  175DOPC  H15C21328   1.666   1.204   3.340 -0.1291 -1.6004  1.0175
  175DOPC   C1121329   1.615   1.218   3.631 -0.7699  0.4126 -0.1732
  175DOPC  H11A21330   1.598   1.226   3.741 -0.4608  0.0386 -0.0933
  175DOPC  H11B21331   1.680   1.128   3.622 -0.7069  0.3826  0.5085
  175DOPC     P21332   1.839   1.349   3.584  0.7902 -0.2987  0.4775
  175DOPC   O1321333   1.866   1.490   3.553  0.2392  0.0453 -0.0186
  175DOPC   O1421334   1.909   1.255   3.492 -0.0487  0.0845  0.0729
  175DOPC   O1221335   1.680   1.330   3.572 -0.0341 -0.0726  0.1130
  175DOPC   O1121336   1.868   1.317   3.730 -0.6235  0.3068 -0.0810
  175DOPC    C121337   1.816   1.396   3.835 -0.4295  0.1904 -0.2186
  175DOPC    HA21338   1.748   1.339   3.903  0.5131  0.6707  1.1898
  175DOPC    HB21339   1.767   1.490   3.802 -1.3510 -0.0872  0.3014
  175DOPC    C221340   1.934   1.425   3.926  0.2043  0.6886  0.1070
  175DOPC    HS21341   2.022   1.441   3.860 -0.2998 -1.8435 -1.3034
  175DOPC   O2121342   1.965   1.300   3.998  0.3240  0.5944 -0.0484
  175DOPC   C2121343   2.094   1.276   4.020 -0.0271 -0.6526 -0.7257
  175DOPC   O2221344   2.186   1.353   3.990  0.4228 -0.3401  0.0014
  175DOPC   C2221345   2.102   1.139   4.078 -0.0100 -0.1042  0.3618
  175DOPC   H2R21346   2.081   1.070   3.994 -0.4253  1.9292 -1.2919
  175DOPC   H2S21347   2.026   1.128   4.158  1.2156  1.6745  1.8552
  175DOPC    C321348   1.913   1.540   4.029  0.7566 -0.3926 -0.6570
  175DOPC    HX21349   1.824   1.507   4.086  1.0213 -3.2119 -1.6869
  175DOPC    HY21350   1.897   1.628   3.964  3.8415  0.3119 -0.5902
  175DOPC   O3121351   2.020   1.544   4.121 -0.2430 -0.5813  0.2866
  175DOPC   C3121352   2.121   1.618   4.085 -0.1740  0.1470 -0.4990
  175DOPC   O3221353   2.121   1.692   3.988 -0.1019 -0.1956  0.2078
  175DOPC   C3221354   2.225   1.607   4.193 -0.2511  0.4055  0.2486
  175DOPC   H2X21355   2.201   1.686   4.268 -0.6861 -1.3060  1.9957
  175DOPC   H2Y21356   2.219   1.502   4.228 -0.2889 -0.4761 -2.2417
  175DOPC   C2321357   2.250   1.105   4.126 -0.2930 -0.1365  0.1805
  175DOPC   H3R21358   2.326   1.138   4.052 -1.4625 -0.3735 -1.1670
  175DOPC   H3S21359   2.271   0.996   4.132 -0.3194 -0.1903 -0.6152
  175DOPC   C2421360   2.280   1.162   4.271 -0.3294 -0.2675 -0.2860
  175DOPC   H4R21361   2.278   1.273   4.263 -0.0783 -0.1773  0.6928
  175DOPC   H4S21362   2.387   1.135   4.287 -0.2250  0.5527  0.4764
  175DOPC   C2521363   2.203   1.107   4.387 -0.2931 -0.2568  0.0359
  175DOPC   H5R21364   2.231   1.000   4.392  1.3649  0.0754 -1.2071
  175DOPC   H5S21365   2.094   1.120   4.367 -0.3470 -2.0171 -0.9892
  175DOPC   C2621366   2.223   1.154   4.538  0.4392 -0.0557  0.6875
  175DOPC   H6R21367   2.192   1.261   4.544  0.0883 -0.0583 -0.7162
  175DOPC   H6S21368   2.331   1.144   4.564  0.7518  1.4238  0.1102
  175DOPC   C2721369   2.136   1.075   4.634 -0.0569 -0.2955  0.0134
  175DOPC   H7R21370   2.154   0.966   4.623 -2.2411 -0.7829  0.6513
  175DOPC   H7S21371   2.028   1.091   4.611  0.6653  1.8327 -2.3930
  175DOPC   C2821372   2.179   1.128   4.769  0.1917  0.4912 -0.6151
  175DOPC   H8R21373   2.158   1.237   4.774 -0.5026  0.3701 -0.8326
  175DOPC   H8S21374   2.289   1.120   4.788 -0.1090 -0.4405  0.8621
  175DOPC   C2921375   2.116   1.052   4.887 -0.0485 -0.1923 -0.3662
  175DOPC   H9R21376   2.030   0.989   4.861 -1.0569  0.4656  1.1978
  175DOPC  C21021377   2.162   1.045   5.016  0.2657 -1.3970  0.7595
  175DOPC  H10R21378   2.101   0.991   5.090  0.5139 -0.2925  1.7871
  175DOPC  C21121379   2.296   1.092   5.066 -0.5459 -0.2799 -1.0944
  175DOPC  H11R21380   2.314   1.194   5.025 -0.0334  0.3295  0.5722
  175DOPC  H11S21381   2.369   1.025   5.017 -0.5652 -1.1525  0.0331
  175DOPC  C21221382   2.301   1.092   5.217 -0.3196  0.3358  0.3297
  175DOPC  H12R21383   2.409   1.096   5.241  0.0651 -2.9084 -0.3651
  175DOPC  H12S21384   2.273   0.990   5.250  1.1977  0.2286  1.4030
  175DOPC  C21321385   2.235   1.202   5.291  0.4969  0.3134 -0.5968
  175DOPC  H13R21386   2.126   1.182   5.284 -0.0632  2.3187  1.2623
  175DOPC  H13S21387   2.253   1.299   5.238  1.4323 -0.4523 -1.7246
  175DOPC  C21421388   2.273   1.217   5.441 -0.0280 -0.2234  0.2335
  175DOPC  H14R21389   2.217   1.303   5.482 -0.3379  0.3623 -1.3576
  175DOPC  H14S21390   2.381   1.244   5.447 -0.7039  3.1379 -0.7037
  175DOPC  C21521391   2.253   1.086   5.519  0.6634 -0.0253 -0.5032
  175DOPC  H15R21392   2.347   1.027   5.526  0.3516 -0.6646 -1.4846
  175DOPC  H15S21393   2.177   1.018   5.476  0.1988  0.1838 -0.0269
  175DOPC  C21621394   2.219   1.112   5.670 -0.0741  0.2700 -0.0572
  175DOPC  H16R21395   2.219   1.019   5.730  1.5990  0.4383  0.2629
  175DOPC  H16S21396   2.112   1.140   5.678  0.0115 -0.0116  2.9051
  175DOPC  C21721397   2.302   1.220   5.747  0.1262 -0.1371 -0.5010
  175DOPC  H17R21398   2.276   1.318   5.701 -0.5626 -1.2753 -2.6857
  175DOPC  H17S21399   2.408   1.202   5.716 -0.2704 -3.2200 -0.4355
  175DOPC  C21821400   2.269   1.215   5.897 -0.7325 -0.4728  0.6980
  175DOPC  H18R21401   2.253   1.107   5.921 -0.6543 -0.7811 -0.5884
  175DOPC  H18S21402   2.179   1.271   5.929 -1.2787 -1.4959  0.9878
  175DOPC  H18T21403   2.357   1.251   5.955 -0.9618 -2.3956  2.3820
  175DOPC   C3321404   2.369   1.631   4.140 -0.2915  0.1030 -0.0649
  175DOPC   H3X21405   2.371   1.735   4.101  1.6963  1.4632  3.2398
  175DOPC   H3Y21406   2.409   1.558   4.067  2.4394  1.3642  0.0379
  175DOPC   C3421407   2.463   1.649   4.264  0.2970 -0.3944 -0.4823
  175DOPC   H4X21408   2.476   1.556   4.324  2.2639  1.2004  1.7402
  175DOPC   H4Y21409   2.425   1.730   4.330 -1.5275 -0.2954 -1.5897
  175DOPC   C3521410   2.612   1.694   4.228  0.4452 -0.4187  0.1734
  175DOPC   H5X21411   2.613   1.797   4.186 -1.3302 -0.5746 -0.3434
  175DOPC   H5Y21412   2.647   1.627   4.147  2.2710 -1.2533  1.5616
  175DOPC   C3621413   2.690   1.683   4.355  0.2537  0.2020  0.2149
  175DOPC   H6X21414   2.643   1.745   4.434 -1.7555 -3.0308  1.7390
  175DOPC   H6Y21415   2.691   1.579   4.392 -0.5194  0.5054  1.1112
  175DOPC   C3721416   2.837   1.722   4.336 -0.5953  0.0204  0.2706
  175DOPC   H7X21417   2.895   1.667   4.259 -0.9043  0.9306 -0.6191
  175DOPC   H7Y21418   2.840   1.828   4.303  1.1757 -0.3196 -0.8226
  175DOPC   C3821419   2.925   1.705   4.464  0.5316  0.5825 -0.4810
  175DOPC   H8X21420   2.872   1.745   4.553  0.3577 -1.4114  0.3636
  175DOPC   H8Y21421   3.018   1.763   4.449  0.8059  0.2641 -0.0444
  175DOPC   C3921422   2.965   1.559   4.493  0.6357 -0.4830 -0.2297
  175DOPC   H9X21423   2.987   1.510   4.398 -0.6510  0.4503 -1.0452
  175DOPC  C31021424   2.990   1.499   4.615  0.6011  0.1386 -0.0362
  175DOPC  H10X21425   3.020   1.393   4.613 -0.6633 -0.2528  0.8473
  175DOPC  C31121426   2.988   1.567   4.747 -0.3091  0.9249  0.0897
  175DOPC  H11X21427   2.894   1.625   4.754 -1.8924 -1.2812 -1.1791
  175DOPC  H11Y21428   3.073   1.637   4.740  0.2473  0.3397  0.8696
  175DOPC  C31221429   3.017   1.464   4.860 -0.1316 -0.7810 -0.0599
  175DOPC  H12X21430   3.118   1.421   4.841 -0.2172 -0.8219 -0.4393
  175DOPC  H12Y21431   2.938   1.387   4.869  0.9616 -1.8092  1.1049
  175DOPC  C31321432   3.017   1.531   4.999  0.2812  0.4657 -0.6854
  175DOPC  H13X21433   3.100   1.604   4.987  0.8078 -0.3186 -2.0552
  175DOPC  H13Y21434   2.924   1.582   5.030  1.1827  0.1663  2.9059
  175DOPC  C31421435   3.072   1.431   5.114 -0.1780 -0.7146 -0.1333
  175DOPC  H14X21436   2.989   1.367   5.151 -0.2267 -0.5548  0.0392
  175DOPC  H14Y21437   3.156   1.370   5.077  0.5637 -0.5372  1.2041
  175DOPC  C31521438   3.119   1.513   5.236 -0.2220  0.1324  0.5278
  175DOPC  H15X21439   3.044   1.588   5.266 -2.0643 -2.0665  1.7782
  175DOPC  H15Y21440   3.197   1.578   5.191 -1.3483  0.5714 -0.8507
  175DOPC  C31621441   3.174   1.433   5.353 -0.4200 -0.9817  0.2052
  175DOPC  H16X21442   3.165   1.324   5.333 -3.1456 -1.4862  3.3628
  175DOPC  H16Y21443   3.282   1.459   5.348 -0.8492  0.7235 -0.8480
  175DOPC  C31721444   3.117   1.470   5.491 -0.0581  0.3525 -0.1417
  175DOPC  H17X21445   3.101   1.579   5.500 -4.0059 -0.0227 -0.8584
  175DOPC  H17Y21446   3.018   1.421   5.505 -0.1868  0.7657  0.4762
  175DOPC  C31821447   3.210   1.407   5.595  0.2596  0.1638  0.6145
  175DOPC  H18X21448   3.169   1.436   5.694 -0.4567 -1.6125  0.8782
  175DOPC  H18Y21449   3.221   1.297   5.599 -0.1578  0.1072  0.2180
  175DOPC  H18Z21450   3.304   1.466   5.587 -0.1016  0.8710  1.4225
  176DOPC     N21451   3.490   3.343   3.681  0.5962 -0.3773  0.1619
  176DOPC   C1221452   3.547   3.342   3.823 -0.0953 -0.2406 -0.1946
  176DOPC  H12A21453   3.487   3.406   3.886  2.0499 -0.2496  2.0122
  176DOPC  H12B21454   3.643   3.392   3.825 -0.3994  0.3722  2.3601
  176DOPC   C1321455   3.590   3.285   3.586 -0.2046 -0.4498 -0.3818
  176DOPC  H13A21456   3.612   3.184   3.616 -2.7256 -1.3291 -1.2095
  176DOPC  H13B21457   3.550   3.272   3.487 -1.0376  0.7490 -0.2320
  176DOPC  H13C21458   3.684   3.337   3.581  0.8958 -1.9852  2.2095
  176DOPC   C1421459   3.457   3.485   3.635 -0.0397 -0.3383 -0.2515
  176DOPC  H14A21460   3.371   3.490   3.570  1.8263  0.6436 -2.8021
  176DOPC  H14B21461   3.429   3.547   3.719  0.1091  0.2596 -0.6303
  176DOPC  H14C21462   3.551   3.525   3.599 -0.2997 -0.7186 -1.3810
  176DOPC   C1521463   3.364   3.262   3.665 -0.3514  0.0488  0.0049
  176DOPC  H15A21464   3.339   3.278   3.561 -0.5121  0.1063  0.0522
  176DOPC  H15B21465   3.284   3.312   3.717 -0.5666 -1.1538  0.8723
  176DOPC  H15C21466   3.371   3.159   3.695 -0.9595  0.6055  2.2536
  176DOPC   C1121467   3.549   3.213   3.903 -0.3784 -0.5127  0.0477
  176DOPC  H11A21468   3.456   3.153   3.891 -0.1303 -1.2670  1.6263
  176DOPC  H11B21469   3.639   3.159   3.866  0.4685  0.5125  0.5822
  176DOPC     P21470   3.697   3.295   4.105 -0.3919  0.2583  0.3614
  176DOPC   O1321471   3.656   3.411   4.178  0.5198 -0.1810 -0.0658
  176DOPC   O1421472   3.796   3.319   3.999  0.4438 -0.6197 -0.0578
  176DOPC   O1221473   3.567   3.233   4.041 -0.2614 -0.2393  0.3972
  176DOPC   O1121474   3.748   3.194   4.209  0.2256 -0.1383 -0.2926
  176DOPC    C121475   3.722   3.058   4.204  0.2354  0.0409 -0.4265
  176DOPC    HA21476   3.810   2.999   4.238 -0.7135 -0.3752  1.4187
  176DOPC    HB21477   3.704   3.024   4.099 -2.3563 -0.6293  0.1612
  176DOPC    C221478   3.596   3.016   4.286 -0.1556  0.0333  0.0285
  176DOPC    HS21479   3.510   3.065   4.236 -0.1388  1.6517  1.4717
  176DOPC   O2121480   3.625   3.059   4.422  0.0719 -0.3569 -0.1121
  176DOPC   C2121481   3.510   3.060   4.498 -0.2885  0.2209  0.0283
  176DOPC   O2221482   3.397   3.032   4.458  0.1566 -0.0816 -0.1049
  176DOPC   C2221483   3.558   3.089   4.637 -0.0835  0.5547  0.0314
  176DOPC   H2R21484   3.583   3.197   4.635 -1.6687  0.9445 -1.2530
  176DOPC   H2S21485   3.652   3.032   4.655  0.3325  1.0939 -0.3992
  176DOPC    C321486   3.573   2.861   4.275  0.3343  0.2830 -0.2779
  176DOPC    HX21487   3.539   2.834   4.173  0.0013 -0.7771  0.0962
  176DOPC    HY21488   3.482   2.839   4.336  1.4596 -3.0246  0.4149
  176DOPC   O3121489   3.679   2.772   4.313 -0.5337 -0.3880 -0.0855
  176DOPC   C3121490   3.712   2.759   4.443 -0.9795  0.4265  0.2336
  176DOPC   O3221491   3.651   2.806   4.539 -0.3913 -0.2524 -0.7326
  176DOPC   C3221492   3.857   2.702   4.453  0.5295  0.4246 -0.0521
  176DOPC   H2X21493   3.863   2.610   4.392  1.8776  0.2437  0.3198
  176DOPC   H2Y21494   3.927   2.783   4.423 -0.0612  0.4484 -1.4035
  176DOPC   C2321495   3.455   3.038   4.744  0.2103  0.1018  0.1109
  176DOPC   H3R21496   3.432   2.933   4.716  2.9680 -0.3757 -0.7095
  176DOPC   H3S21497   3.364   3.100   4.728  0.7091  0.2462 -2.5979
  176DOPC   C2421498   3.501   3.050   4.889  0.1025 -0.3229 -0.0073
  176DOPC   H4R21499   3.531   3.152   4.920  1.4718 -0.9448  0.8362
  176DOPC   H4S21500   3.595   2.992   4.898  0.1705  0.1466  3.5657
  176DOPC   C2521501   3.409   2.989   4.994  1.4244 -0.9040 -0.4322
  176DOPC   H5R21502   3.395   2.884   4.960 -1.1661 -0.5815 -0.6005
  176DOPC   H5S21503   3.316   3.050   4.987  0.6705 -2.1268 -1.8905
  176DOPC   C2621504   3.460   2.987   5.140  0.3151  0.1079  0.3365
  176DOPC   H6R21505   3.493   3.089   5.171 -0.4556  0.3786  0.2788
  176DOPC   H6S21506   3.548   2.919   5.137  0.2068 -0.0347  0.3777
  176DOPC   C2721507   3.358   2.938   5.237 -0.3649  0.5375  0.2668
  176DOPC   H7R21508   3.333   2.833   5.209  0.2452  1.0012 -2.2958
  176DOPC   H7S21509   3.262   2.993   5.222  0.1532  1.2593 -0.5067
  176DOPC   C2821510   3.401   2.958   5.388 -0.5437  0.1897  0.1825
  176DOPC   H8R21511   3.313   2.946   5.454  0.4557  1.0067  1.7152
  176DOPC   H8S21512   3.431   3.061   5.416 -1.8565  0.7665 -0.4677
  176DOPC   C2921513   3.512   2.869   5.436  0.3828  0.0522  0.6880
  176DOPC   H9R21514   3.607   2.902   5.391 -1.3874  2.3247 -1.6701
  176DOPC  C21021515   3.507   2.772   5.529 -0.0674  0.0305  0.2648
  176DOPC  H10R21516   3.604   2.723   5.543  0.5072  1.6391  2.6038
  176DOPC  C21121517   3.379   2.729   5.590  0.2487 -0.0769 -0.5853
  176DOPC  H11R21518   3.388   2.622   5.616 -2.2604 -0.2367 -0.1665
  176DOPC  H11S21519   3.294   2.728   5.518 -1.9876  1.1585  1.8735
  176DOPC  C21221520   3.332   2.803   5.714  0.3432  0.5091  0.2383
  176DOPC  H12R21521   3.303   2.908   5.692 -0.0598  0.4171  0.3160
  176DOPC  H12S21522   3.418   2.799   5.783  0.4005 -0.9936  0.1200
  176DOPC  C21321523   3.212   2.743   5.782  0.4515  0.3737 -0.2189
  176DOPC  H13R21524   3.134   2.737   5.703  1.2710 -0.2701 -1.0032
  176DOPC  H13S21525   3.178   2.823   5.852 -0.7863  0.1070 -0.4862
  176DOPC  C21421526   3.226   2.610   5.865 -0.3390 -0.0518  0.2828
  176DOPC  H14R21527   3.278   2.548   5.790 -0.7845  0.3987 -0.4083
  176DOPC  H14S21528   3.122   2.581   5.892 -1.0464  2.4110  0.5043
  176DOPC  C21521529   3.306   2.625   5.992  0.3349  0.5834  0.6322
  176DOPC  H15R21530   3.268   2.720   6.036  0.7667  2.2248 -2.2575
  176DOPC  H15S21531   3.415   2.629   5.971 -0.0290 -1.1129 -2.2383
  176DOPC  C21621532   3.288   2.502   6.077 -0.3434 -0.0115 -0.4270
  176DOPC  H16R21533   3.325   2.418   6.016 -4.3142 -1.5304 -1.0364
  176DOPC  H16S21534   3.180   2.484   6.092 -0.4485 -0.7835 -1.9485
  176DOPC  C21721535   3.370   2.526   6.209 -0.1902 -0.0242 -0.7350
  176DOPC  H17R21536   3.351   2.632   6.237  1.2717 -0.3199  1.6287
  176DOPC  H17S21537   3.479   2.514   6.196 -0.2391 -0.4551 -0.7364
  176DOPC  C21821538   3.318   2.431   6.313 -0.5829 -0.0687 -0.3900
  176DOPC  H18R21539   3.362   2.442   6.414 -0.1569 -2.8929 -0.1821
  176DOPC  H18S21540   3.341   2.326   6.284  1.6038  0.1410  0.4244
  176DOPC  H18T21541   3.208   2.431   6.326 -0.7072  1.8758 -1.0967
  176DOPC   C3321542   3.900   2.645   4.596  0.1808 -0.1943  0.2694
  176DOPC   H3X21543   3.884   2.733   4.663 -1.5701 -0.7759  0.6665
  176DOPC   H3Y21544   4.010   2.628   4.595  0.3346  0.4977  1.8170
  176DOPC   C3421545   3.824   2.521   4.647  0.0994 -0.6367  0.4334
  176DOPC   H4X21546   3.896   2.443   4.680  0.5985 -1.0373 -1.5229
  176DOPC   H4Y21547   3.771   2.492   4.555 -0.5234  0.8733  0.2833
  176DOPC   C3521548   3.703   2.538   4.740 -0.1102  0.2523 -0.4609
  176DOPC   H5X21549   3.644   2.444   4.748  1.7773 -0.8644  1.5521
  176DOPC   H5Y21550   3.645   2.616   4.688 -0.8975  1.0030  1.4428
  176DOPC   C3621551   3.730   2.594   4.881 -0.2092  0.2824  0.6340
  176DOPC   H6X21552   3.800   2.516   4.918 -1.7114 -0.8408  1.1655
  176DOPC   H6Y21553   3.780   2.693   4.869 -0.5397  0.5367  1.3125
  176DOPC   C3721554   3.605   2.587   4.962 -0.4029  0.3036 -0.3265
  176DOPC   H7X21555   3.538   2.666   4.921 -0.8375 -0.2790 -0.7493
  176DOPC   H7Y21556   3.544   2.496   4.944 -0.0189  0.0544 -0.3818
  176DOPC   C3821557   3.643   2.609   5.112 -0.1775 -0.1496  0.2388
  176DOPC   H8X21558   3.694   2.707   5.126 -0.3351  0.1013 -0.8820
  176DOPC   H8Y21559   3.709   2.521   5.130 -0.5979 -0.2407  1.4609
  176DOPC   C3921560   3.535   2.592   5.213 -0.5239  0.0961 -1.3738
  176DOPC   H9X21561   3.458   2.671   5.215 -1.5010 -0.8483 -1.2339
  176DOPC  C31021562   3.546   2.515   5.326 -0.4490  0.5316  0.3578
  176DOPC  H10X21563   3.475   2.524   5.410 -0.1114 -1.0577  0.8582
  176DOPC  C31121564   3.660   2.419   5.349  0.0919 -0.6905 -0.1598
  176DOPC  H11X21565   3.747   2.485   5.369 -0.7731  0.0957  1.1236
  176DOPC  H11Y21566   3.679   2.352   5.262  0.8438  0.0643 -0.5876
  176DOPC  C31221567   3.653   2.331   5.475  0.8508 -0.5755  0.1453
  176DOPC  H12X21568   3.736   2.258   5.479  0.9884 -0.5031 -1.0997
  176DOPC  H12Y21569   3.558   2.273   5.474 -0.2969  1.2073 -0.1034
  176DOPC  C31321570   3.641   2.398   5.609  0.7560  0.0443 -0.9619
  176DOPC  H13X21571   3.709   2.485   5.597 -1.0753  1.3932 -2.1442
  176DOPC  H13Y21572   3.544   2.444   5.635  0.7773 -1.0466  1.2758
  176DOPC  C31421573   3.691   2.313   5.729 -0.4397 -0.3962 -0.2690
  176DOPC  H14X21574   3.609   2.243   5.755  0.1454 -0.4370  1.6669
  176DOPC  H14Y21575   3.783   2.253   5.710 -0.8574 -1.9431  2.1163
  176DOPC  C31521576   3.712   2.395   5.858  0.0962 -0.6448  0.4584
  176DOPC  H15X21577   3.624   2.463   5.866  1.0335  0.5871  0.7684
  176DOPC  H15Y21578   3.799   2.464   5.854  0.9499 -1.7492 -1.0850
  176DOPC  C31621579   3.722   2.307   5.982 -0.8199 -0.2183 -0.0028
  176DOPC  H16X21580   3.621   2.264   6.002 -0.3708 -0.6726  1.3836
  176DOPC  H16Y21581   3.797   2.228   5.962 -1.6336 -0.7949 -0.8652
  176DOPC  C31721582   3.760   2.387   6.103 -0.5479 -0.8666 -0.8077
  176DOPC  H17X21583   3.869   2.410   6.090 -0.4129  0.8730  2.4424
  176DOPC  H17Y21584   3.700   2.479   6.116 -0.8639 -1.0599 -0.8921
  176DOPC  C31821585   3.749   2.304   6.234 -0.2974  0.4293  0.2260
  176DOPC  H18X21586   3.639   2.289   6.242 -0.5476 -0.0725 -2.8289
  176DOPC  H18Y21587   3.804   2.210   6.212 -0.5940  0.8730 -2.7480
  176DOPC  H18Z21588   3.795   2.353   6.323  0.7241  2.1560 -1.1930
  177DOPC     N21589   5.147   6.491   2.986  0.2495  0.1082 -0.5256
  177DOPC   C1221590   5.197   6.384   3.079 -0.2256  0.2210 -0.4633
  177DOPC  H12A21591   5.292   6.351   3.039  2.2247  1.9547  3.4253
  177DOPC  H12B21592   5.121   6.308   3.091  0.6704 -0.8844 -1.5066
  177DOPC   C1321593   5.238   6.612   2.981  0.3540  0.6840 -0.3254
  177DOPC  H13A21594   5.249   6.651   3.081 -1.0454  0.9472 -0.2513
  177DOPC  H13B21595   5.335   6.598   2.936  0.6048  0.9953  0.1149
  177DOPC  H13C21596   5.179   6.687   2.930 -0.3675 -0.7197 -1.6241
  177DOPC   C1421597   5.005   6.524   3.033 -0.2327  0.5338  0.1460
  177DOPC  H14A21598   4.949   6.565   2.950 -0.6996 -0.5271 -0.0669
  177DOPC  H14B21599   4.958   6.432   3.063  0.4708  0.2399  0.3720
  177DOPC  H14C21600   5.016   6.591   3.117  0.4922  0.0139  0.4685
  177DOPC   C1521601   5.147   6.437   2.846 -0.3467 -0.3573  0.2946
  177DOPC  H15A21602   5.246   6.441   2.802  0.5127  1.0526  2.2174
  177DOPC  H15B21603   5.097   6.505   2.779  0.6904  0.3874  0.2439
  177DOPC  H15C21604   5.094   6.343   2.838  1.0190 -1.5198  3.2921
  177DOPC   C1121605   5.242   6.434   3.221 -0.4311 -0.3259 -0.5704
  177DOPC  H11A21606   5.295   6.353   3.276  2.5002  1.4613 -0.5336
  177DOPC  H11B21607   5.323   6.509   3.208  0.9252 -1.7129 -0.2868
  177DOPC     P21608   5.142   6.628   3.366 -0.2907 -0.0977  0.2769
  177DOPC   O1321609   5.044   6.638   3.473  0.1948  0.0195  0.3492
  177DOPC   O1421610   5.147   6.733   3.265  0.1206 -0.3656  0.4376
  177DOPC   O1221611   5.130   6.490   3.288  0.5379  0.2678  0.3451
  177DOPC   O1121612   5.279   6.619   3.441  0.1834  0.1155  0.1293
  177DOPC    C121613   5.308   6.503   3.523  0.5001  0.3053 -0.3090
  177DOPC    HA21614   5.376   6.429   3.474 -0.4337 -0.4904 -0.4240
  177DOPC    HB21615   5.217   6.439   3.527  0.4817  0.2483 -1.4078
  177DOPC    C221616   5.349   6.531   3.669 -0.5485  0.2824  0.5700
  177DOPC    HS21617   5.367   6.439   3.727 -1.0447  0.5443  1.1486
  177DOPC   O2121618   5.255   6.615   3.728  0.6693  0.1469  0.1251
  177DOPC   C2121619   5.160   6.549   3.794  0.4746 -0.4890  0.3356
  177DOPC   O2221620   5.160   6.429   3.814  0.2216 -0.4196  0.1935
  177DOPC   C2221621   5.045   6.641   3.840 -0.2036  0.1245  0.4767
  177DOPC   H2R21622   4.956   6.581   3.871 -1.4770  0.4806 -2.2045
  177DOPC   H2S21623   4.999   6.693   3.753 -0.2437 -1.0643 -0.2422
  177DOPC    C321624   5.481   6.603   3.669  0.0083  0.2658  0.6015
  177DOPC    HX21625   5.459   6.702   3.625  1.6151 -0.2350 -1.5401
  177DOPC    HY21626   5.551   6.556   3.596 -2.3255  0.2835 -1.8076
  177DOPC   O3121627   5.539   6.608   3.795 -0.0167 -0.2471  0.3803
  177DOPC   C3121628   5.612   6.718   3.814 -0.2427  0.5207 -0.0241
  177DOPC   O3221629   5.626   6.810   3.732  0.4596  0.3389  0.2684
  177DOPC   C3221630   5.678   6.725   3.950 -0.0309  0.2955 -0.2133
  177DOPC   H2X21631   5.753   6.807   3.961  2.0349 -1.7034  1.4933
  177DOPC   H2Y21632   5.597   6.746   4.023 -0.4039 -0.3804 -0.4306
  177DOPC   C2321633   5.104   6.725   3.959 -0.1977 -0.2413 -0.9669
  177DOPC   H3R21634   5.159   6.816   3.928  0.6574 -0.5637 -0.4208
  177DOPC   H3S21635   5.180   6.670   4.018  0.7846 -0.5882 -2.4807
  177DOPC   C2421636   4.990   6.764   4.052  0.0642  0.5068 -0.1142
  177DOPC   H4R21637   4.971   6.675   4.116  1.5126 -0.0247 -0.3897
  177DOPC   H4S21638   4.898   6.788   3.995  0.7066 -0.4244 -1.6197
  177DOPC   C2521639   5.033   6.880   4.147 -0.1165  0.1076  0.0419
  177DOPC   H5R21640   4.947   6.947   4.167 -0.3476 -0.4686  1.0604
  177DOPC   H5S21641   5.111   6.945   4.102 -0.8780  1.5338  0.7403
  177DOPC   C2621642   5.087   6.832   4.279 -0.7595 -0.6165  0.4253
  177DOPC   H6R21643   5.191   6.800   4.258 -1.1115 -1.0170 -0.8473
  177DOPC   H6S21644   5.026   6.746   4.313 -2.6667 -0.3195 -1.9173
  177DOPC   C2721645   5.084   6.943   4.388 -0.5050  0.9004 -0.2509
  177DOPC   H7R21646   4.983   6.990   4.386 -1.8353 -1.5949 -3.9646
  177DOPC   H7S21647   5.162   7.017   4.360 -0.4690  1.2361  0.7070
  177DOPC   C2821648   5.131   6.903   4.533  0.0592  0.6555 -0.3466
  177DOPC   H8R21649   5.147   7.001   4.583  1.8143  0.8855 -1.2807
  177DOPC   H8S21650   5.225   6.846   4.518  0.6949  0.9196  2.2201
  177DOPC   C2921651   5.022   6.817   4.600 -0.5836 -0.2414 -0.1943
  177DOPC   H9R21652   4.977   6.744   4.531  1.2330  0.5924 -2.3961
  177DOPC  C21021653   4.978   6.831   4.728  0.2782 -0.4334  0.9155
  177DOPC  H10R21654   4.894   6.768   4.761  0.3293 -0.8360  0.3035
  177DOPC  C21121655   5.039   6.916   4.833  0.0233  0.2058 -0.1156
  177DOPC  H11R21656   4.967   6.997   4.859  1.1288  1.0328  0.4888
  177DOPC  H11S21657   5.134   6.971   4.812  1.7558 -1.6043  2.2915
  177DOPC  C21221658   5.065   6.823   4.956 -0.8535  0.0292 -0.0049
  177DOPC  H12R21659   5.156   6.765   4.930  0.5910  3.0843 -2.6089
  177DOPC  H12S21660   4.982   6.754   4.981 -0.1910 -1.1116 -0.8462
  177DOPC  C21321661   5.074   6.905   5.085 -0.2335 -0.0827  0.0886
  177DOPC  H13R21662   4.978   6.960   5.100  0.0376 -0.0464  2.0261
  177DOPC  H13S21663   5.162   6.972   5.069 -0.3341  0.5195  1.8289
  177DOPC  C21421664   5.105   6.828   5.211 -0.3697  0.0068  0.2771
  177DOPC  H14R21665   5.206   6.781   5.211 -0.7945 -0.9353  0.7530
  177DOPC  H14S21666   5.037   6.740   5.223 -0.9247  0.5519  1.2200
  177DOPC  C21521667   5.086   6.899   5.346  0.5849  0.0244  0.5007
  177DOPC  H15R21668   4.992   6.958   5.348 -0.1780 -1.1823  1.3569
  177DOPC  H15S21669   5.164   6.979   5.346 -0.9498  1.6561  2.7325
  177DOPC  C21621670   5.108   6.811   5.464  0.4679  0.0949 -0.1165
  177DOPC  H16R21671   5.216   6.795   5.483  0.1803  0.1016  1.7623
  177DOPC  H16S21672   5.066   6.711   5.440  1.5823 -0.3798 -0.1364
  177DOPC  C21721673   5.060   6.872   5.605  0.0560  0.3157 -0.5098
  177DOPC  H17R21674   4.951   6.891   5.592  0.1247  1.7531  0.7463
  177DOPC  H17S21675   5.109   6.970   5.620 -0.2961  0.4453 -0.1917
  177DOPC  C21821676   5.092   6.790   5.730  0.0816 -0.3142 -0.3046
  177DOPC  H18R21677   5.023   6.704   5.745  0.5531 -0.9171 -1.4754
  177DOPC  H18S21678   5.100   6.849   5.824  0.7124 -0.7818 -0.0483
  177DOPC  H18T21679   5.194   6.746   5.719  0.4852 -0.1812  2.1793
  177DOPC   C3321680   5.760   6.599   3.975  1.1769  0.3306  0.4878
  177DOPC   H3X21681   5.833   6.583   3.893  0.3376 -1.7058  0.0811
  177DOPC   H3Y21682   5.695   6.509   3.975  0.3685  0.9007 -0.1706
  177DOPC   C3421683   5.829   6.598   4.117  0.4814 -0.5748 -0.6086
  177DOPC   H4X21684   5.754   6.616   4.197  2.1008 -1.3379  1.1569
  177DOPC   H4Y21685   5.901   6.683   4.113  1.6240 -1.5649 -2.3709
  177DOPC   C3521686   5.902   6.473   4.142  0.4969  0.1694 -0.5556
  177DOPC   H5X21687   5.971   6.466   4.055 -0.1975  2.5662 -1.3945
  177DOPC   H5Y21688   5.821   6.398   4.150 -0.3837  1.1744  0.3387
  177DOPC   C3621689   5.981   6.481   4.273  0.2825 -0.1333  0.3185
  177DOPC   H6X21690   6.076   6.537   4.261  1.5070 -1.6584  2.2030
  177DOPC   H6Y21691   5.924   6.551   4.337  0.0269  1.2033 -1.3179
  177DOPC   C3721692   6.007   6.349   4.346  0.2863  0.8812 -0.3610
  177DOPC   H7X21693   5.903   6.311   4.357  0.0800  1.6134  0.3846
  177DOPC   H7Y21694   6.067   6.284   4.280  0.6386 -0.5479  1.2882
  177DOPC   C3821695   6.066   6.370   4.487  0.4463  0.0236 -0.3599
  177DOPC   H8X21696   6.000   6.419   4.561  2.2730  0.8300  0.8150
  177DOPC   H8Y21697   6.150   6.443   4.487  0.0215  0.5134 -0.4834
  177DOPC   C3921698   6.114   6.235   4.535  0.1664 -0.2525  0.4936
  177DOPC   H9X21699   6.117   6.157   4.458  0.4549 -0.1473  0.3960
  177DOPC  C31021700   6.170   6.210   4.657 -0.3380  0.1434  0.0013
  177DOPC  H10X21701   6.200   6.107   4.683 -2.2104 -0.3821  0.1836
  177DOPC  C31121702   6.186   6.310   4.771  0.0623 -0.2113  0.0658
  177DOPC  H11X21703   6.149   6.414   4.757  2.4669  0.7515  0.3741
  177DOPC  H11Y21704   6.294   6.322   4.793 -0.5484  1.1087  2.7017
  177DOPC  C31221705   6.143   6.255   4.912  0.1022  0.1344 -0.7418
  177DOPC  H12X21706   6.219   6.183   4.952  2.5923  3.0008  0.0896
  177DOPC  H12Y21707   6.044   6.206   4.908  0.6487 -1.2305  0.9654
  177DOPC  C31321708   6.142   6.374   5.011  0.0952  0.6910 -0.3273
  177DOPC  H13X21709   6.247   6.405   5.025  1.1315 -1.4569 -2.6325
  177DOPC  H13Y21710   6.091   6.464   4.968  3.0991  1.0872 -3.4630
  177DOPC  C31421711   6.090   6.331   5.155 -0.1659  0.1521 -0.4665
  177DOPC  H14X21712   5.981   6.309   5.150 -0.1926  0.2833 -0.4641
  177DOPC  H14Y21713   6.136   6.247   5.211 -0.4980  0.2990  0.0303
  177DOPC  C31521714   6.108   6.449   5.246 -0.4739 -0.8724  0.3359
  177DOPC  H15X21715   6.047   6.534   5.207 -1.5891 -1.7931  0.0320
  177DOPC  H15Y21716   6.214   6.475   5.268  0.0762 -2.3405 -0.4569
  177DOPC  C31621717   6.040   6.423   5.384  1.1573 -0.1518  0.1952
  177DOPC  H16X21718   5.939   6.377   5.372  0.3164  0.8186  2.8471
  177DOPC  H16Y21719   6.099   6.347   5.440 -0.1517 -1.5083 -0.1844
  177DOPC  C31721720   6.024   6.553   5.468 -0.2371  0.6549  0.4106
  177DOPC  H17X21721   5.959   6.527   5.554 -0.4537 -0.3433 -0.0443
  177DOPC  H17Y21722   6.120   6.591   5.509 -0.7257 -0.4678  2.7526
  177DOPC  C31821723   5.941   6.667   5.409 -0.1004  0.1952 -0.0708
  177DOPC  H18X21724   6.011   6.716   5.338 -0.2687 -0.3309 -0.6068
  177DOPC  H18Y21725   5.846   6.636   5.360 -0.8206 -0.6983  1.8015
  177DOPC  H18Z21726   5.921   6.746   5.484  1.4909 -0.3063  0.9499
  178DOPC     N21727   2.267   1.243   3.552 -0.2353  0.1910  0.2362
  178DOPC   C1221728   2.281   1.120   3.630 -0.2840 -0.2440 -0.0358
  178DOPC  H12A21729   2.333   1.048   3.568  1.7906  1.0956  0.0398
  178DOPC  H12B21730   2.179   1.086   3.641 -0.6059 -0.3361 -2.6265
  178DOPC   C1321731   2.195   1.342   3.639 -0.3475 -0.3428  1.2741
  178DOPC  H13A21732   2.245   1.361   3.733  2.0149 -0.2113  0.0626
  178DOPC  H13B21733   2.204   1.441   3.596  1.0605 -0.9855  0.0396
  178DOPC  H13C21734   2.096   1.307   3.664  0.1420 -0.1810  3.6370
  178DOPC   C1421735   2.188   1.202   3.435 -0.6986 -0.5141 -0.2527
  178DOPC  H14A21736   2.236   1.125   3.376  1.0995  1.3417 -1.3433
  178DOPC  H14B21737   2.089   1.162   3.453 -1.7312  0.5995 -2.8123
  178DOPC  H14C21738   2.160   1.287   3.375  0.5420  1.0398  1.3027
  178DOPC   C1521739   2.398   1.291   3.513 -0.0281 -0.0353  0.0011
  178DOPC  H15A21740   2.458   1.315   3.600 -1.1263 -0.1767  0.8033
  178DOPC  H15B21741   2.404   1.378   3.449  0.2765  0.0413  0.1300
  178DOPC  H15C21742   2.446   1.204   3.471 -1.1585 -0.7291  0.1295
  178DOPC   C1121743   2.358   1.128   3.765 -0.1287  0.1197  0.0363
  178DOPC  H11A21744   2.286   1.184   3.828 -1.3233 -3.1213  1.8371
  178DOPC  H11B21745   2.346   1.028   3.812 -1.6239  0.2494 -0.0241
  178DOPC     P21746   2.614   1.063   3.728  0.6618  0.2496 -0.0295
  178DOPC   O1321747   2.730   1.147   3.698 -0.4495  0.0949 -0.6071
  178DOPC   O1421748   2.574   0.960   3.631 -0.6508  0.2318 -0.3785
  178DOPC   O1221749   2.498   1.162   3.755  0.0481 -0.6098 -0.0412
  178DOPC   O1121750   2.625   0.995   3.874 -0.2394  0.5537  0.7431
  178DOPC    C121751   2.694   1.062   3.977  0.0690 -0.3162  0.7373
  178DOPC    HA21752   2.701   1.171   3.958 -0.4859 -0.4609 -0.3906
  178DOPC    HB21753   2.797   1.020   3.987  0.2089 -0.1855 -0.1046
  178DOPC    C221754   2.620   1.045   4.121  0.2044  0.1757 -0.6260
  178DOPC    HS21755   2.514   1.078   4.114 -0.4524 -1.5735  0.5202
  178DOPC   O2121756   2.701   1.112   4.217  0.5634 -0.5530 -0.0945
  178DOPC   C2121757   2.656   1.233   4.239  0.6070  0.1309  0.1404
  178DOPC   O2221758   2.579   1.297   4.166 -0.1429 -0.0666 -0.2501
  178DOPC   C2221759   2.731   1.289   4.355 -0.6097 -0.5859 -0.4435
  178DOPC   H2R21760   2.749   1.396   4.332  0.2224 -0.1027  2.1605
  178DOPC   H2S21761   2.829   1.236   4.349 -0.1197  0.4074 -1.9390
  178DOPC    C321762   2.596   0.894   4.153 -0.4065  0.2779 -0.0439
  178DOPC    HX21763   2.695   0.843   4.153  0.7880  2.4565 -0.0011
  178DOPC    HY21764   2.541   0.855   4.066 -0.7047  1.0493 -0.2078
  178DOPC   O3121765   2.518   0.883   4.264 -0.7327 -0.6403 -0.4808
  178DOPC   C3121766   2.556   0.801   4.362  0.5724 -0.4533  0.1055
  178DOPC   O3221767   2.636   0.711   4.353 -0.2446  0.4859 -0.6365
  178DOPC   C3221768   2.479   0.838   4.491  0.3004  0.3420 -0.5331
  178DOPC   H2X21769   2.458   0.947   4.500 -3.6126 -0.1832 -1.4349
  178DOPC   H2Y21770   2.387   0.777   4.483  0.0637  0.5180  0.7389
  178DOPC   C2321771   2.653   1.290   4.492 -0.3930 -0.5381 -0.3774
  178DOPC   H3R21772   2.544   1.304   4.478 -0.5822  1.6074  2.3493
  178DOPC   H3S21773   2.683   1.374   4.558 -2.4025  0.7182 -0.9802
  178DOPC   C2421774   2.684   1.159   4.567  0.3874 -0.1034  1.0745
  178DOPC   H4R21775   2.794   1.152   4.583  0.9644 -0.6432 -2.4057
  178DOPC   H4S21776   2.646   1.070   4.513 -0.4191  0.1512  1.2044
  178DOPC   C2521777   2.610   1.158   4.695  0.1953  0.3537 -0.1213
  178DOPC   H5R21778   2.633   1.058   4.736  0.3932  0.6655  0.5558
  178DOPC   H5S21779   2.499   1.161   4.697  0.2089  1.6507 -0.1269
  178DOPC   C2621780   2.668   1.255   4.802  0.2551 -0.1887  0.2569
  178DOPC   H6R21781   2.665   1.353   4.748  0.0047 -0.9793 -1.2360
  178DOPC   H6S21782   2.767   1.212   4.827  0.0479  0.1411  1.7069
  178DOPC   C2721783   2.588   1.258   4.927 -0.3472 -1.0605  0.0893
  178DOPC   H7R21784   2.561   1.155   4.958 -2.7637 -0.5516 -0.0600
  178DOPC   H7S21785   2.491   1.312   4.913  0.0662 -0.6505 -1.4443
  178DOPC   C2821786   2.672   1.339   5.028  0.0399 -0.5183 -0.1718
  178DOPC   H8R21787   2.710   1.436   4.989  0.5092 -0.6724 -0.1121
  178DOPC   H8S21788   2.755   1.271   5.059  0.9828  0.0217 -1.3871
  178DOPC   C2921789   2.593   1.364   5.158 -0.1984 -0.0321  0.1152
  178DOPC   H9R21790   2.497   1.412   5.134  0.6117  0.5120 -2.3771
  178DOPC  C21021791   2.625   1.336   5.287  0.0654  0.1654 -0.4631
  178DOPC  H10R21792   2.549   1.353   5.364  0.5879 -0.1480  0.1294
  178DOPC  C21121793   2.752   1.274   5.346 -0.0724  0.1434  0.0205
  178DOPC  H11R21794   2.820   1.352   5.388 -1.1906  2.4219 -2.1861
  178DOPC  H11S21795   2.802   1.211   5.269 -0.7485  0.2614 -0.5196
  178DOPC  C21221796   2.719   1.171   5.458  0.5137  0.2307 -0.6930
  178DOPC  H12R21797   2.781   1.079   5.453  1.5163  0.9416 -3.2327
  178DOPC  H12S21798   2.614   1.136   5.452  0.5614  0.2161 -1.8155
  178DOPC  C21321799   2.745   1.233   5.593  0.2597 -0.4640  0.4169
  178DOPC  H13R21800   2.677   1.318   5.614  0.7914  0.1318 -0.2510
  178DOPC  H13S21801   2.844   1.280   5.578 -0.2366 -0.0546 -1.8779
  178DOPC  C21421802   2.739   1.138   5.719 -0.1932 -0.4316  0.3451
  178DOPC  H14R21803   2.797   1.047   5.692 -0.7952 -1.5550  2.5608
  178DOPC  H14S21804   2.634   1.106   5.732  0.0393 -1.5782 -0.4407
  178DOPC  C21521805   2.795   1.201   5.846  0.3261 -0.9260 -0.0860
  178DOPC  H15R21806   2.759   1.160   5.943 -3.7917  0.9263 -0.6377
  178DOPC  H15S21807   2.767   1.309   5.848 -1.3251 -1.3334  0.9693
  178DOPC  C21621808   2.946   1.183   5.863 -0.2871 -0.2908  1.1247
  178DOPC  H16R21809   2.993   1.233   5.775 -1.5544  0.1142  0.6570
  178DOPC  H16S21810   2.978   1.077   5.854  0.7027  0.1594 -1.6441
  178DOPC  C21721811   3.012   1.249   5.981 -0.0957 -0.4550  0.2328
  178DOPC  H17R21812   2.999   1.359   5.984  2.1034 -0.0085 -2.3194
  178DOPC  H17S21813   3.122   1.235   5.974  0.6876  2.1528  4.2798
  178DOPC  C21821814   2.983   1.182   6.112  0.5050  0.6353  0.2871
  178DOPC  H18R21815   3.004   1.073   6.108  0.9822  0.7481 -1.3084
  178DOPC  H18S21816   2.877   1.194   6.142 -0.1171  1.4618 -2.0076
  178DOPC  H18T21817   3.054   1.217   6.190  0.5086  0.6303  0.2861
  178DOPC   C3321818   2.561   0.788   4.610 -0.6007  0.2195 -0.1029
  178DOPC   H3X21819   2.646   0.860   4.624 -0.8733  0.4925  0.1682
  178DOPC   H3Y21820   2.600   0.685   4.596 -1.7579 -0.4368  1.2949
  178DOPC   C3421821   2.475   0.769   4.731  0.8634  0.0956 -0.0453
  178DOPC   H4X21822   2.399   0.688   4.728 -2.5085  2.9758  1.4971
  178DOPC   H4Y21823   2.395   0.844   4.742 -1.2392 -2.1690  1.1580
  178DOPC   C3521824   2.550   0.773   4.863 -0.4444  0.1091  0.0999
  178DOPC   H5X21825   2.592   0.874   4.880  0.2177 -0.2531  0.6443
  178DOPC   H5Y21826   2.628   0.694   4.874 -0.7688 -0.2553 -0.1739
  178DOPC   C3621827   2.459   0.750   4.986 -0.5748 -0.4434 -0.2865
  178DOPC   H6X21828   2.361   0.802   4.982 -1.0519 -1.3622 -1.1060
  178DOPC   H6Y21829   2.441   0.640   4.993  0.4577 -0.5999 -0.0403
  178DOPC   C3721830   2.536   0.807   5.108  0.3037  0.2005  0.0064
  178DOPC   H7X21831   2.637   0.761   5.109 -0.1612 -0.8782  1.7849
  178DOPC   H7Y21832   2.542   0.918   5.107  0.7801  0.1808  0.2958
  178DOPC   C3821833   2.465   0.777   5.246 -0.0738  0.4102 -0.8024
  178DOPC   H8X21834   2.468   0.669   5.274 -2.6782  0.2304 -1.0199
  178DOPC   H8Y21835   2.362   0.816   5.241 -0.1797  0.0405 -1.8019
  178DOPC   C3921836   2.533   0.859   5.352  0.3892  0.4367  0.2557
  178DOPC   H9X21837   2.588   0.940   5.302  1.1833 -0.8297 -0.9674
  178DOPC  C31021838   2.533   0.842   5.484  0.5615  0.3647 -0.0023
  178DOPC  H10X21839   2.575   0.918   5.552 -1.8081 -0.5815  2.7035
  178DOPC  C31121840   2.465   0.730   5.557 -0.0846  0.1659  0.5579
  178DOPC  H11X21841   2.469   0.632   5.504  1.2125  0.7411 -0.4575
  178DOPC  H11Y21842   2.356   0.754   5.563 -0.0122  0.1967  2.1975
  178DOPC  C31221843   2.534   0.721   5.698  0.2149  0.2454  0.3590
  178DOPC  H12X21844   2.643   0.726   5.683 -0.1364  0.7121 -2.5536
  178DOPC  H12Y21845   2.515   0.625   5.750 -0.0305  1.2238  2.1799
  178DOPC  C31321846   2.496   0.840   5.795 -0.6553  0.2415 -0.2018
  178DOPC  H13X21847   2.518   0.930   5.734  2.0578 -1.3374 -1.7642
  178DOPC  H13Y21848   2.387   0.844   5.815 -0.7108 -0.8979 -0.2134
  178DOPC  C31421849   2.564   0.837   5.932  0.1845  0.1136  0.0779
  178DOPC  H14X21850   2.544   0.736   5.975 -0.4805  0.1613 -0.1175
  178DOPC  H14Y21851   2.672   0.851   5.913  0.0161  2.1329  0.4399
  178DOPC  C31521852   2.524   0.941   6.042 -0.3593 -0.0939  0.0068
  178DOPC  H15X21853   2.414   0.943   6.053 -0.3711 -0.9404  0.1424
  178DOPC  H15Y21854   2.550   1.046   6.015  0.1075 -0.0638  0.5643
  178DOPC  C31621855   2.593   0.916   6.173 -0.4623  0.5922 -0.1397
  178DOPC  H16X21856   2.586   0.808   6.199 -0.6829  0.4681 -0.7119
  178DOPC  H16Y21857   2.701   0.938   6.154 -0.1462 -1.5907 -1.1114
  178DOPC  C31721858   2.546   1.001   6.288 -0.1325 -0.2949 -0.1809
  178DOPC  H17X21859   2.440   0.976   6.311 -0.0358 -0.8602 -0.3341
  178DOPC  H17Y21860   2.610   0.973   6.374  2.1882  0.5759 -1.5184
  178DOPC  C31821861   2.560   1.148   6.255  0.2649 -0.1616  0.3495
  178DOPC  H18X21862   2.488   1.185   6.178  1.4202 -1.5231 -1.4408
  178DOPC  H18Y21863   2.554   1.208   6.349 -1.4357 -0.6998  0.6171
  178DOPC  H18Z21864   2.663   1.157   6.216  0.6454 -1.5598  0.9870
  179DOPC     N21865   6.096   0.008   2.798 -0.1749 -0.5954 -1.0175
  179DOPC   C1221866   6.096   0.032   2.944  0.6391 -0.0990 -0.0527
  179DOPC  H12A21867   6.048   0.128   2.956  0.5631 -0.2194  0.6831
  179DOPC  H12B21868   6.198   0.038   2.978  0.1800  1.3979  1.1879
  179DOPC   C1321869   6.140  -0.132   2.756 -0.7203 -0.3778  0.1419
  179DOPC  H13A21870   6.248  -0.138   2.764 -0.6573  0.7460  0.4563
  179DOPC  H13B21871   6.093  -0.208   2.817 -0.8595 -0.3625  0.0536
  179DOPC  H13C21872   6.130  -0.153   2.651  2.6148 -2.4456  0.1140
  179DOPC   C1421873   6.172   0.113   2.728  0.0118 -0.1464  0.1442
  179DOPC  H14A21874   6.164   0.093   2.623  2.0495  0.1341 -0.1074
  179DOPC  H14B21875   6.122   0.208   2.737 -0.5017 -0.4273  0.3157
  179DOPC  H14C21876   6.274   0.126   2.764 -0.8889  2.8137  2.0060
  179DOPC   C1521877   5.951   0.013   2.756  0.2036 -0.1798  0.0805
  179DOPC  H15A21878   5.896  -0.067   2.804 -1.1349  0.9969  0.5757
  179DOPC  H15B21879   5.946   0.002   2.649  1.6095 -0.1576 -0.0033
  179DOPC  H15C21880   5.907   0.109   2.777  0.7740  0.0186  0.3875
  179DOPC   C1121881   6.023  -0.057   3.051  0.3949 -0.2268  0.1870
  179DOPC  H11A21882   6.056  -0.023   3.151 -0.6310  3.0436 -0.4700
  179DOPC  H11B21883   5.916  -0.026   3.053 -0.3992 -2.7690  1.2819
  179DOPC     P21884   6.164  -0.275   3.086  0.2956 -0.2515 -0.3857
  179DOPC   O1321885   6.296  -0.197   3.087 -0.0038  0.0992 -0.0314
  179DOPC   O1421886   6.172  -0.403   3.020  0.1549 -0.1800  0.3506
  179DOPC   O1221887   6.046  -0.196   3.023  0.4767 -0.0007  0.0241
  179DOPC   O1121888   6.121  -0.299   3.235 -0.4069  0.0393  0.6186
  179DOPC    C121889   5.984  -0.304   3.277  0.0478  0.1601  0.4747
  179DOPC    HA21890   5.924  -0.397   3.265 -1.9420  1.5928 -1.4095
  179DOPC    HB21891   5.919  -0.234   3.221  0.4073  0.5785  0.5738
  179DOPC    C221892   5.971  -0.276   3.427 -0.1182 -0.2779 -0.1103
  179DOPC    HS21893   5.863  -0.274   3.453  0.0921 -0.7011  0.8782
  179DOPC   O2121894   6.040  -0.162   3.468 -0.2883  0.0350  0.0639
  179DOPC   C2121895   5.986  -0.092   3.561  0.2336 -0.4269  0.0671
  179DOPC   O2221896   5.895  -0.132   3.636 -0.0270  0.0664 -0.3136
  179DOPC   C2221897   6.038   0.054   3.550  0.3509 -0.3340 -0.6052
  179DOPC   H2R21898   5.965   0.124   3.597  1.4116  1.1589 -1.0776
  179DOPC   H2S21899   6.053   0.084   3.444 -0.3310  2.6145  0.0342
  179DOPC    C321900   6.026  -0.399   3.506 -0.1744 -0.5217 -0.0910
  179DOPC    HX21901   6.136  -0.386   3.512 -0.5504  3.3826  1.9868
  179DOPC    HY21902   6.008  -0.496   3.456 -0.4266 -0.4084 -0.2231
  179DOPC   O3121903   5.985  -0.399   3.645 -0.2972  0.3375 -0.0296
  179DOPC   C3121904   5.875  -0.475   3.672  0.1685 -0.3217  0.0436
  179DOPC   O3221905   5.813  -0.543   3.598  0.1811 -0.3583  0.4522
  179DOPC   C3221906   5.847  -0.457   3.824  0.3091  0.1954 -0.2065
  179DOPC   H2X21907   5.923  -0.384   3.858 -0.1000  0.7940 -0.5525
  179DOPC   H2Y21908   5.744  -0.416   3.835  0.5609  0.5673  0.8941
  179DOPC   C2321909   6.166   0.074   3.621 -0.0837  0.2342  0.0300
  179DOPC   H3R21910   6.226   0.160   3.584 -1.9939  1.3594 -0.6262
  179DOPC   H3S21911   6.231  -0.014   3.602 -0.9343 -0.3968 -0.0174
  179DOPC   C2421912   6.146   0.097   3.773  0.7725  0.0103 -0.3038
  179DOPC   H4R21913   6.092   0.017   3.827  1.8395 -0.5166  0.0214
  179DOPC   H4S21914   6.087   0.190   3.787 -3.3811 -2.4682  0.3428
  179DOPC   C2521915   6.283   0.116   3.847 -0.5157 -0.2177 -0.2824
  179DOPC   H5R21916   6.337   0.205   3.807  0.9372 -0.6641  0.6135
  179DOPC   H5S21917   6.341   0.022   3.837 -0.9105 -0.5072  0.1054
  179DOPC   C2621918   6.255   0.154   3.990 -0.1011 -0.3411 -0.0781
  179DOPC   H6R21919   6.201   0.076   4.047 -2.3478  1.2643  0.0903
  179DOPC   H6S21920   6.188   0.242   3.981 -0.3363 -0.6682 -2.0403
  179DOPC   C2721921   6.381   0.198   4.064 -0.3129  0.2268  0.2983
  179DOPC   H7R21922   6.415   0.290   4.012  1.6605 -1.3226 -1.3256
  179DOPC   H7S21923   6.460   0.124   4.041 -3.0505 -2.3520 -1.5382
  179DOPC   C2821924   6.359   0.209   4.213  0.1479  0.0474 -0.0506
  179DOPC   H8R21925   6.461   0.217   4.256  0.1535 -1.3342  0.2415
  179DOPC   H8S21926   6.306   0.113   4.234  1.2462 -0.6551 -0.4316
  179DOPC   C2921927   6.264   0.322   4.248  0.0693 -0.2354 -0.1395
  179DOPC   H9R21928   6.259   0.406   4.177  2.1077  1.2528  1.3435
  179DOPC  C21021929   6.180   0.320   4.351  0.5881  0.0458  0.0275
  179DOPC  H10R21930   6.111   0.406   4.349  0.8267  0.2364 -1.7345
  179DOPC  C21121931   6.179   0.224   4.475  0.1807  0.0315  0.4574
  179DOPC  H11R21932   6.169   0.283   4.568 -1.4383  0.9655 -0.2615
  179DOPC  H11S21933   6.275   0.168   4.481  0.0959 -0.0225  1.4869
  179DOPC  C21221934   6.062   0.130   4.451  0.3614 -0.3674  0.1699
  179DOPC  H12R21935   6.080   0.059   4.368  1.9591  1.0572 -0.7694
  179DOPC  H12S21936   5.976   0.193   4.418  0.2969 -0.4448  0.1902
  179DOPC  C21321937   6.009   0.048   4.571 -0.3450  0.0648  0.1016
  179DOPC  H13R21938   6.070  -0.044   4.584  0.0606  0.0858 -1.4741
  179DOPC  H13S21939   5.905   0.019   4.547 -0.5126 -0.4153  1.3494
  179DOPC  C21421940   6.008   0.119   4.708 -0.5818 -0.4595  0.9837
  179DOPC  H14R21941   5.928   0.195   4.697 -0.6614 -0.7691 -0.8877
  179DOPC  H14S21942   6.104   0.166   4.738 -1.3188  2.0278 -0.2856
  179DOPC  C21521943   5.970   0.012   4.809  0.2438  0.4694  0.4465
  179DOPC  H15R21944   6.018  -0.086   4.786  1.4684  1.2880 -0.5740
  179DOPC  H15S21945   5.860   0.000   4.795  0.2879 -1.6666  1.4201
  179DOPC  C21621946   5.999   0.071   4.944  0.3437 -0.4297 -0.0871
  179DOPC  H16R21947   6.099   0.121   4.948  0.2829 -0.0398 -2.3898
  179DOPC  H16S21948   5.985  -0.006   5.023  1.4514  0.2327  0.8038
  179DOPC  C21721949   5.913   0.198   4.978 -0.0994  0.3530 -0.0333
  179DOPC  H17R21950   5.805   0.172   4.975  0.0149 -0.1412  0.0293
  179DOPC  H17S21951   5.947   0.284   4.917  0.5899  1.3783  1.7035
  179DOPC  C21821952   5.932   0.231   5.124 -0.0218  0.8298 -0.4245
  179DOPC  H18R21953   5.895   0.150   5.191 -0.0650 -0.2917 -1.7463
  179DOPC  H18S21954   5.872   0.322   5.147 -0.5476  0.3090  0.2993
  179DOPC  H18T21955   6.038   0.258   5.138  1.0770 -1.5922 -3.1063
  179DOPC   C3321956   5.870  -0.587   3.900  0.0818 -0.0811 -0.2722
  179DOPC   H3X21957   5.972  -0.631   3.889  0.1183 -0.2306  0.5875
  179DOPC   H3Y21958   5.800  -0.662   3.860  0.7861 -0.7120 -0.3437
  179DOPC   C3421959   5.851  -0.577   4.051 -0.2029  0.0520 -0.3283
  179DOPC   H4X21960   5.744  -0.548   4.059 -0.6915 -1.9815  1.3143
  179DOPC   H4Y21961   5.904  -0.494   4.105 -0.8371 -1.0969  2.2147
  179DOPC   C3521962   5.855  -0.711   4.121 -0.2269 -0.2482  0.2712
  179DOPC   H5X21963   5.963  -0.727   4.142  0.2384 -1.1143 -2.4029
  179DOPC   H5Y21964   5.822  -0.795   4.056 -1.3072 -1.6938  2.5716
  179DOPC   C3621965   5.758  -0.721   4.245 -0.9589 -0.0719  0.7495
  179DOPC   H6X21966   5.802  -0.803   4.306 -2.3501 -0.8851  0.6831
  179DOPC   H6Y21967   5.757  -0.629   4.308  0.0915  1.7810 -1.7621
  179DOPC   C3721968   5.623  -0.771   4.223  1.4047 -0.0280  0.6591
  179DOPC   H7X21969   5.573  -0.712   4.144  1.8242 -1.8212 -1.0318
  179DOPC   H7Y21970   5.628  -0.867   4.167 -0.5552  1.4382 -2.3200
  179DOPC   C3821971   5.544  -0.792   4.355 -0.4314 -0.1348  0.7393
  179DOPC   H8X21972   5.538  -0.699   4.416 -1.6325 -1.1697  2.2720
  179DOPC   H8Y21973   5.593  -0.876   4.409  0.3179  0.3481  0.8291
  179DOPC   C3921974   5.400  -0.839   4.329 -0.3312  0.2264 -0.0988
  179DOPC   H9X21975   5.382  -0.912   4.249 -0.9642 -0.3087  0.5159
  179DOPC  C31021976   5.289  -0.800   4.399 -1.1963 -0.3872 -0.1103
  179DOPC  H10X21977   5.192  -0.847   4.379 -1.9102  0.3491  1.4918
  179DOPC  C31121978   5.282  -0.709   4.518 -1.1389  0.4594  0.3583
  179DOPC  H11X21979   5.176  -0.680   4.530 -1.0367  0.7036  0.6807
  179DOPC  H11Y21980   5.343  -0.616   4.505 -0.8792  0.0834 -1.3837
  179DOPC  C31221981   5.329  -0.771   4.649 -0.2177  0.3031 -1.2830
  179DOPC  H12X21982   5.439  -0.788   4.643 -0.0366  0.8055  0.0853
  179DOPC  H12Y21983   5.272  -0.862   4.677  2.7377 -1.1792  0.4706
  179DOPC  C31321984   5.301  -0.675   4.767 -0.0890  0.1442 -0.2170
  179DOPC  H13X21985   5.355  -0.578   4.761 -0.7419  0.6704  1.6922
  179DOPC  H13Y21986   5.194  -0.654   4.787 -0.2709 -2.2274  1.8319
  179DOPC  C31421987   5.332  -0.751   4.903  0.7844  0.0975  0.6251
  179DOPC  H14X21988   5.262  -0.835   4.921 -0.1462  0.7766  0.2751
  179DOPC  H14Y21989   5.434  -0.793   4.901  0.3829 -0.8810 -0.3061
  179DOPC  C31521990   5.331  -0.656   5.022 -0.3163 -0.1866  0.0083
  179DOPC  H15X21991   5.232  -0.624   5.059 -1.2193  0.6035 -2.8587
  179DOPC  H15Y21992   5.395  -0.567   5.000 -0.2438 -0.3899 -0.6245
  179DOPC  C31621993   5.393  -0.721   5.142  0.8681 -0.5096  0.3177
  179DOPC  H16X21994   5.345  -0.821   5.151  0.3692 -0.6788 -2.8290
  179DOPC  H16Y21995   5.498  -0.751   5.120  0.7078 -0.6955 -0.2259
  179DOPC  C31721996   5.384  -0.634   5.269  0.2975 -0.3162 -0.1404
  179DOPC  H17X21997   5.471  -0.568   5.249  2.1217 -2.7773 -0.9045
  179DOPC  H17Y21998   5.290  -0.578   5.286  0.3352  0.4731 -2.2159
  179DOPC  C31821999   5.406  -0.718   5.396  0.4369 -0.2660 -0.5162
  179DOPC  H18X22000   5.331  -0.801   5.395 -1.2961  1.2439  0.0269
  179DOPC  H18Y22001   5.505  -0.769   5.399  1.4032  1.5793  1.0526
  179DOPC  H18Z22002   5.389  -0.669   5.493 -0.5076 -0.3271 -0.6374
  180DOPC     N22003   0.707   3.966   4.679  0.1438 -0.2388 -0.0169
  180DOPC   C1222004   0.623   4.060   4.593  0.0544  0.1797  0.2796
  180DOPC  H12A22005   0.629   4.021   4.493 -0.0514  0.3214  0.2178
  180DOPC  H12B22006   0.665   4.160   4.591  0.7426 -0.1123 -0.5009
  180DOPC   C1322007   0.729   4.024   4.818 -0.8602 -0.0034 -0.0394
  180DOPC  H13A22008   0.813   3.976   4.867  0.8837  0.9210 -1.9616
  180DOPC  H13B22009   0.752   4.130   4.811  2.0986 -0.5244  0.4661
  180DOPC  H13C22010   0.632   4.008   4.863 -0.0452 -2.7888  0.9053
  180DOPC   C1422011   0.844   3.943   4.617  0.0470  0.3571  0.0805
  180DOPC  H14A22012   0.836   3.894   4.522  2.8525 -2.2203  1.0198
  180DOPC  H14B22013   0.900   4.036   4.610  0.6247 -0.0053 -0.2019
  180DOPC  H14C22014   0.901   3.879   4.682  2.4825  1.7447 -0.5575
  180DOPC   C1522015   0.645   3.835   4.688  0.0937  0.3598  0.1433
  180DOPC  H15A22016   0.550   3.831   4.739 -1.4890 -3.6875 -2.6319
  180DOPC  H15B22017   0.705   3.763   4.741  0.9330  0.2466 -0.9311
  180DOPC  H15C22018   0.628   3.796   4.589  1.6648 -2.0547  0.7447
  180DOPC   C1122019   0.472   4.051   4.644 -0.0637 -0.7682 -0.3482
  180DOPC  H11A22020   0.406   4.090   4.564  0.9951 -0.7669 -1.2542
  180DOPC  H11B22021   0.439   3.947   4.662  1.6302 -1.2761 -0.0011
  180DOPC     P22022   0.354   4.106   4.875  0.1932  0.2866 -0.3779
  180DOPC   O1322023   0.407   3.987   4.951  0.2618 -0.4130  0.0873
  180DOPC   O1422024   0.218   4.095   4.823 -0.4942 -0.1472 -0.1302
  180DOPC   O1222025   0.456   4.137   4.760  0.3279 -0.0366 -0.2136
  180DOPC   O1122026   0.354   4.226   4.987 -0.4358 -0.9827  0.1132
  180DOPC    C122027   0.263   4.234   5.092 -0.4927 -0.2295 -0.0968
  180DOPC    HA22028   0.315   4.269   5.183 -1.1280  3.0336 -0.8181
  180DOPC    HB22029   0.215   4.138   5.121 -3.2900  0.5813 -1.5834
  180DOPC    C222030   0.158   4.346   5.070 -0.4930 -0.3594 -0.0357
  180DOPC    HS22031   0.116   4.343   4.967  1.0149 -0.1145 -0.6927
  180DOPC   O2122032   0.227   4.469   5.086 -0.5237 -0.3742  0.0716
  180DOPC   C2122033   0.197   4.571   5.002 -0.6583  0.0580 -0.3270
  180DOPC   O2222034   0.112   4.561   4.919 -0.1337 -0.1953  0.1114
  180DOPC   C2222035   0.280   4.692   5.036  0.2600  0.4159  0.6155
  180DOPC   H2R22036   0.264   4.769   4.957  0.6993 -1.7378 -1.7116
  180DOPC   H2S22037   0.387   4.662   5.025  0.0214 -0.1104 -0.3704
  180DOPC    C322038   0.049   4.330   5.175  0.1382  0.1586  0.9622
  180DOPC    HX22039   0.016   4.227   5.151  1.4942 -0.0474 -0.1409
  180DOPC    HY22040  -0.039   4.395   5.153  0.5123  1.2956  2.6470
  180DOPC   O3122041   0.087   4.345   5.312  0.6729 -0.3114 -0.4011
  180DOPC   C3122042   0.063   4.468   5.366  0.0190 -0.2735  0.6391
  180DOPC   O3222043   0.012   4.560   5.306 -0.1913  0.2991 -0.2069
  180DOPC   C3222044   0.119   4.476   5.508  0.1588 -0.2546 -0.5095
  180DOPC   H2X22045   0.164   4.376   5.528  0.4104 -0.8570 -3.5385
  180DOPC   H2Y22046   0.211   4.538   5.498  0.7591 -1.2361 -1.3260
  180DOPC   C2322047   0.252   4.749   5.175 -0.6825  0.8798 -0.5139
  180DOPC   H3R22048   0.265   4.670   5.253 -0.3591  0.1922 -1.2486
  180DOPC   H3S22049   0.143   4.772   5.176 -0.5243  1.6235  0.5342
  180DOPC   C2422050   0.338   4.871   5.216  0.0984 -0.0172  0.4752
  180DOPC   H4R22051   0.350   4.938   5.128 -1.7880 -0.0118  0.1930
  180DOPC   H4S22052   0.437   4.829   5.245 -0.5912 -1.0087  1.4866
  180DOPC   C2522053   0.282   4.982   5.306  0.1736 -0.6098 -0.2289
  180DOPC   H5R22054   0.182   5.007   5.264 -0.8479  1.2059  2.9179
  180DOPC   H5S22055   0.339   5.076   5.313 -2.1400  1.0264 -1.9192
  180DOPC   C2622056   0.254   4.948   5.458 -0.3152  0.0361 -0.1822
  180DOPC   H6R22057   0.347   4.897   5.493  0.0691  0.2295 -0.9010
  180DOPC   H6S22058   0.177   4.868   5.451 -1.1023  0.5352  2.0225
  180DOPC   C2722059   0.188   5.061   5.529 -0.0579  0.4601 -0.5158
  180DOPC   H7R22060   0.100   5.099   5.472  0.4009  0.6140 -1.1317
  180DOPC   H7S22061   0.253   5.148   5.553 -1.3513  0.6406  2.8964
  180DOPC   C2822062   0.138   5.006   5.671  0.3804 -0.4819  0.4842
  180DOPC   H8R22063   0.098   4.904   5.652 -0.4509 -0.0190 -0.3331
  180DOPC   H8S22064   0.049   5.071   5.687  0.3497  0.0739 -1.6769
  180DOPC   C2922065   0.243   5.003   5.782  0.0206  0.3726 -0.6391
  180DOPC   H9R22066   0.329   4.941   5.752  0.0016 -0.0729  0.2035
  180DOPC  C21022067   0.239   5.072   5.892 -0.9733 -0.3730  0.4280
  180DOPC  H10R22068   0.323   5.063   5.964  0.0117  3.0151 -0.1343
  180DOPC  C21122069   0.128   5.161   5.936 -0.3503 -1.2132 -0.1108
  180DOPC  H11R22070   0.099   5.225   5.850 -2.6436  1.0050  2.1451
  180DOPC  H11S22071   0.179   5.228   6.008  1.2996 -1.2474 -1.1876
  180DOPC  C21222072  -0.001   5.086   5.982 -0.1828 -0.1954 -0.3284
  180DOPC  H12R22073  -0.055   5.040   5.897 -1.1950  0.4155 -0.0331
  180DOPC  H12S22074  -0.075   5.163   6.013  0.0582 -0.6934  1.6584
  180DOPC  C21322075   0.024   4.979   6.088 -0.5721  0.0404  0.5877
  180DOPC  H13R22076   0.063   5.031   6.178 -0.2031  1.8494 -0.5887
  180DOPC  H13S22077   0.104   4.906   6.062  0.2342  0.4485  1.8180
  180DOPC  C21422078  -0.103   4.909   6.125  0.0782  0.1573 -0.4394
  180DOPC  H14R22079  -0.133   4.852   6.035 -0.3726  0.3136 -0.3879
  180DOPC  H14S22080  -0.183   4.984   6.141 -0.7959 -0.9415  0.5211
  180DOPC  C21522081  -0.071   4.818   6.244 -0.0666  0.7298  0.4119
  180DOPC  H15R22082  -0.044   4.881   6.332  1.1314  0.2815  0.3870
  180DOPC  H15S22083   0.016   4.754   6.220 -0.9441 -0.2622 -0.2268
  180DOPC  C21622084  -0.200   4.736   6.274  0.5436 -0.4432  0.3187
  180DOPC  H16R22085  -0.181   4.669   6.361 -0.4550 -1.1616  0.0031
  180DOPC  H16S22086  -0.214   4.684   6.177 -0.5586 -0.5256  0.5139
  180DOPC  C21722087  -0.325   4.816   6.314  0.1520  0.8851 -0.5545
  180DOPC  H17R22088  -0.392   4.847   6.231 -0.7971 -0.5647 -0.3601
  180DOPC  H17S22089  -0.287   4.908   6.364  0.0061  1.2439 -1.0897
  180DOPC  C21822090  -0.405   4.742   6.419 -0.7296 -0.7225  0.1962
  180DOPC  H18R22091  -0.337   4.716   6.503  0.0086  0.0543 -0.1453
  180DOPC  H18S22092  -0.443   4.647   6.376 -0.2387 -1.0062  0.3927
  180DOPC  H18T22093  -0.493   4.801   6.453  0.6634  0.8656  1.1885
  180DOPC   C3322094   0.010   4.523   5.604  0.4423 -0.2919 -0.3042
  180DOPC   H3X22095  -0.071   4.448   5.601 -1.4029  1.4259  2.4818
  180DOPC   H3Y22096  -0.028   4.624   5.575  1.6567  0.4224  0.4722
  180DOPC   C3422097   0.038   4.522   5.754  0.7396 -0.0053 -0.4672
  180DOPC   H4X22098   0.032   4.418   5.793 -0.1592 -0.1752 -1.0367
  180DOPC   H4Y22099  -0.047   4.575   5.801 -0.5094 -1.9871 -0.3933
  180DOPC   C3522100   0.177   4.571   5.796  0.3595 -0.5521 -0.2890
  180DOPC   H5X22101   0.216   4.641   5.718  1.7145  0.0466  0.8731
  180DOPC   H5Y22102   0.251   4.489   5.795 -2.1525 -2.9603  0.2438
  180DOPC   C3622103   0.181   4.655   5.926 -0.1901 -0.4168 -0.0993
  180DOPC   H6X22104   0.200   4.763   5.907 -1.8230 -0.5172 -2.8618
  180DOPC   H6Y22105   0.079   4.657   5.970  0.1603  1.9106  0.7633
  180DOPC   C3722106   0.275   4.593   6.031 -0.6975  0.1609 -0.6938
  180DOPC   H7X22107   0.381   4.617   6.005 -1.0497  2.0320 -0.5257
  180DOPC   H7Y22108   0.246   4.650   6.122 -0.4378  1.2567 -1.2703
  180DOPC   C3822109   0.263   4.438   6.061  0.1016 -0.1364 -0.1526
  180DOPC   H8X22110   0.333   4.406   6.140 -1.4095  0.4646  1.4825
  180DOPC   H8Y22111   0.291   4.377   5.972  1.0578  0.1751 -0.0763
  180DOPC   C3922112   0.129   4.379   6.101  0.5904  0.4083  0.2336
  180DOPC   H9X22113   0.068   4.355   6.013 -0.3246  0.6894  0.7848
  180DOPC  C31022114   0.095   4.323   6.218 -0.3205 -0.0535 -0.3087
  180DOPC  H10X22115  -0.002   4.271   6.223  0.4731 -1.5095  0.8126
  180DOPC  C31122116   0.178   4.326   6.344  0.1748  0.1407 -0.2933
  180DOPC  H11X22117   0.248   4.412   6.342 -0.5283  0.8002  1.3688
  180DOPC  H11Y22118   0.234   4.230   6.343 -0.4360 -0.2619  1.0270
  180DOPC  C31222119   0.104   4.331   6.478 -0.3145 -0.6634 -0.3584
  180DOPC  H12X22120   0.175   4.318   6.562 -3.0461 -1.7570  1.9375
  180DOPC  H12Y22121   0.033   4.246   6.481 -0.6716 -0.5127 -2.7070
  180DOPC  C31322122   0.010   4.460   6.490 -0.0056 -0.1160  0.2450
  180DOPC  H13X22123   0.084   4.543   6.489  0.0123 -0.1139 -1.8760
  180DOPC  H13Y22124  -0.054   4.479   6.401 -2.5249  3.7870  2.5773
  180DOPC  C31422125  -0.085   4.463   6.615 -0.1671  0.2597  0.5648
  180DOPC  H14X22126  -0.170   4.528   6.584  0.4038  0.2510 -1.1353
  180DOPC  H14Y22127  -0.107   4.357   6.637  0.3366 -0.3227 -1.4774
  180DOPC  C31522128  -0.034   4.525   6.746  0.2453  0.2711  0.0370
  180DOPC  H15X22129  -0.005   4.630   6.726 -2.1600  1.0677  0.4320
  180DOPC  H15Y22130   0.052   4.467   6.788 -0.0005 -0.3085 -0.2529
  180DOPC  C31622131  -0.138   4.530   6.861 -1.0374 -0.6819  0.7093
  180DOPC  H16X22132  -0.092   4.582   6.948 -2.2226 -1.2761  1.7236
  180DOPC  H16Y22133  -0.238   4.572   6.837 -0.6915  0.1361  0.6450
  180DOPC  C31722134  -0.168   4.386   6.912  0.6206  0.2751  0.3115
  180DOPC  H17X22135  -0.232   4.330   6.840  0.3413 -2.3331  2.4598
  180DOPC  H17Y22136  -0.074   4.328   6.909  2.0391  2.4866 -2.0271
  180DOPC  C31822137  -0.227   4.385   7.051  0.2014  0.3523  0.2564
  180DOPC  H18X22138  -0.151   4.432   7.117  0.5496 -0.0257  0.1311
  180DOPC  H18Y22139  -0.312   4.456   7.058  0.3005  0.3843  1.2676
  180DOPC  H18Z22140  -0.243   4.279   7.079  0.1379  0.2139 -0.2846
  181DOPC     N22141   1.229   4.649   4.772 -0.4306 -0.5308  0.5633
  181DOPC   C1222142   1.259   4.528   4.849  0.3112  0.4368  0.2103
  181DOPC  H12A22143   1.208   4.444   4.803  0.2634  0.9612 -0.7249
  181DOPC  H12B22144   1.211   4.547   4.944  1.0274 -0.2078  0.7072
  181DOPC   C1322145   1.267   4.625   4.631 -0.8362 -0.0461 -0.6026
  181DOPC  H13A22146   1.218   4.536   4.594  1.4402 -1.8168  0.4006
  181DOPC  H13B22147   1.249   4.713   4.571 -0.1156 -1.2939 -2.7477
  181DOPC  H13C22148   1.373   4.607   4.629 -0.6065  0.8423  1.2722
  181DOPC   C1422149   1.310   4.765   4.824 -0.1497  0.0719  0.6808
  181DOPC  H14A22150   1.414   4.743   4.812  0.0926  1.7805 -0.8580
  181DOPC  H14B22151   1.304   4.861   4.775  0.6204  0.1731  0.7725
  181DOPC  H14C22152   1.282   4.780   4.927  0.8188 -0.2622  0.9972
  181DOPC   C1522153   1.081   4.676   4.782 -0.1233 -0.2528 -0.1338
  181DOPC  H15A22154   1.058   4.702   4.884 -0.1361 -2.1339  0.3772
  181DOPC  H15B22155   1.031   4.586   4.750 -0.4277 -0.5630  1.1437
  181DOPC  H15C22156   1.053   4.759   4.718  0.2192 -0.6452 -0.8019
  181DOPC   C1122157   1.407   4.492   4.870  0.0546 -0.0466  0.0506
  181DOPC  H11A22158   1.472   4.571   4.914  1.0375 -0.6022 -0.3747
  181DOPC  H11B22159   1.404   4.405   4.940 -0.9729  1.2593  1.7070
  181DOPC     P22160   1.440   4.326   4.681  0.0283 -0.2025  0.1589
  181DOPC   O1322161   1.454   4.343   4.535 -0.1084  0.6163 -0.4597
  181DOPC   O1422162   1.312   4.274   4.732  0.1613 -0.2445 -0.7293
  181DOPC   O1222163   1.474   4.458   4.752  0.2760  0.5985  0.2540
  181DOPC   O1122164   1.557   4.228   4.732 -0.0179  0.7521  0.3833
  181DOPC    C122165   1.577   4.184   4.873  0.2750  0.0024  0.1129
  181DOPC    HA22166   1.618   4.081   4.880 -1.3768 -0.5732  2.0763
  181DOPC    HB22167   1.480   4.178   4.926 -1.0044 -0.1750 -2.1044
  181DOPC    C222168   1.686   4.273   4.947 -0.0820 -0.5624 -0.4272
  181DOPC    HS22169   1.657   4.380   4.948 -1.0825 -0.8030 -1.5589
  181DOPC   O2122170   1.813   4.263   4.880  0.0073 -0.2143 -0.3747
  181DOPC   C2122171   1.912   4.350   4.916 -0.3456  0.2703  1.4826
  181DOPC   O2222172   1.896   4.453   4.977  0.2017  0.9367  0.1287
  181DOPC   C2222173   2.050   4.291   4.879 -0.4658  0.3530  0.4066
  181DOPC   H2R22174   2.118   4.378   4.871 -0.7873  0.5864  0.2080
  181DOPC   H2S22175   2.041   4.244   4.778 -1.0397 -0.6383  0.9055
  181DOPC    C322176   1.687   4.231   5.099 -0.2590 -0.9068 -0.0330
  181DOPC    HX22177   1.719   4.125   5.102  0.2211 -0.7944 -0.9942
  181DOPC    HY22178   1.587   4.230   5.149 -0.2520 -0.6638 -0.0149
  181DOPC   O3122179   1.787   4.297   5.183  0.4461  0.6431 -0.0692
  181DOPC   C3122180   1.759   4.409   5.250 -0.3713 -0.1808  0.9474
  181DOPC   O3222181   1.652   4.469   5.235 -0.3393 -0.2827 -0.8746
  181DOPC   C3222182   1.890   4.449   5.331  0.4598 -0.1710  0.0999
  181DOPC   H2X22183   1.979   4.448   5.264  0.6212 -1.5001  0.3108
  181DOPC   H2Y22184   1.875   4.553   5.367  1.2758 -0.0945  0.2393
  181DOPC   C2322185   2.117   4.191   4.979 -0.0486 -0.7816  0.0506
  181DOPC   H3R22186   2.219   4.175   4.937  0.2895  2.0495 -0.4104
  181DOPC   H3S22187   2.068   4.092   4.990  0.9404 -1.4122 -0.9414
  181DOPC   C2422188   2.149   4.261   5.113 -0.2871 -0.3947  0.1598
  181DOPC   H4R22189   2.051   4.291   5.157  0.9933  1.3843  1.9897
  181DOPC   H4S22190   2.205   4.353   5.085  0.0915 -1.0621 -1.3511
  181DOPC   C2522191   2.232   4.171   5.214  0.3608  0.3185 -0.2865
  181DOPC   H5R22192   2.333   4.156   5.171 -0.2956 -3.1167 -0.9531
  181DOPC   H5S22193   2.198   4.065   5.207 -1.0798  0.6847  0.7000
  181DOPC   C2622194   2.237   4.222   5.363  0.1989  0.8744  1.2814
  181DOPC   H6R22195   2.135   4.246   5.400 -0.3168  0.1547  0.3875
  181DOPC   H6S22196   2.300   4.313   5.362  1.4012  0.0698 -0.0331
  181DOPC   C2722197   2.314   4.119   5.448 -0.1968  0.0167  0.6135
  181DOPC   H7R22198   2.420   4.116   5.417 -0.4502 -1.7444 -0.2315
  181DOPC   H7S22199   2.281   4.015   5.424  1.8515 -0.3512 -0.8925
  181DOPC   C2822200   2.295   4.144   5.599 -0.2884  0.7122  0.5002
  181DOPC   H8R22201   2.187   4.137   5.623 -0.3016  1.1100  0.5622
  181DOPC   H8S22202   2.335   4.243   5.630  1.2277  0.8914 -1.7808
  181DOPC   C2922203   2.378   4.038   5.676 -0.2169 -0.5840 -0.0932
  181DOPC   H9R22204   2.424   3.950   5.628  2.2405  0.0929  0.8770
  181DOPC  C21022205   2.391   4.046   5.812 -0.2531  0.1731  0.5056
  181DOPC  H10R22206   2.458   3.979   5.867  2.2274  1.0513 -1.2867
  181DOPC  C21122207   2.329   4.152   5.895  0.4605  0.4136 -0.2178
  181DOPC  H11R22208   2.297   4.100   5.988  1.2586  2.6851  1.4503
  181DOPC  H11S22209   2.242   4.203   5.848 -1.8438  0.1203  3.2960
  181DOPC  C21222210   2.436   4.259   5.940  0.7337 -0.7771  0.2410
  181DOPC  H12R22211   2.484   4.292   5.845  0.0648  0.1074  0.1998
  181DOPC  H12S22212   2.516   4.212   6.001 -0.5667 -0.7378  2.0292
  181DOPC  C21322213   2.367   4.371   6.016  1.2234  0.1065  0.4590
  181DOPC  H13R22214   2.291   4.407   5.944  1.3317  1.0229  0.7888
  181DOPC  H13S22215   2.433   4.458   6.038 -1.7598  2.3083  1.3901
  181DOPC  C21422216   2.309   4.332   6.158  0.1144  0.8026  0.0663
  181DOPC  H14R22217   2.206   4.295   6.141 -0.4818  1.9278  1.0524
  181DOPC  H14S22218   2.306   4.431   6.209  0.7300  1.4659 -1.1265
  181DOPC  C21522219   2.388   4.235   6.247 -0.0420  0.2016  0.9361
  181DOPC  H15R22220   2.490   4.265   6.278 -0.0273  0.1188  0.9677
  181DOPC  H15S22221   2.394   4.140   6.191  2.2286 -0.3370  1.9946
  181DOPC  C21622222   2.308   4.192   6.369  0.3086 -0.3441  0.2183
  181DOPC  H16R22223   2.202   4.178   6.338  0.4541 -2.2436  0.4339
  181DOPC  H16S22224   2.303   4.278   6.439  0.3946  0.0730 -0.2796
  181DOPC  C21722225   2.364   4.069   6.445  0.2464  0.1900 -0.0209
  181DOPC  H17R22226   2.405   3.996   6.372  0.7658 -1.2075  1.6030
  181DOPC  H17S22227   2.284   4.013   6.499 -1.2802  0.3765 -1.9485
  181DOPC  C21822228   2.481   4.100   6.535 -1.4746 -0.1850  0.3305
  181DOPC  H18R22229   2.459   4.164   6.622  1.5108 -1.0774  1.8820
  181DOPC  H18S22230   2.554   4.147   6.465  0.2908 -0.2876  2.0373
  181DOPC  H18T22231   2.523   4.008   6.579 -0.8005  0.3155  0.7455
  181DOPC   C3322232   1.913   4.359   5.457  0.5785 -0.1360  0.5504
  181DOPC   H3X22233   2.015   4.381   5.494  0.9508  0.8502 -0.9750
  181DOPC   H3Y22234   1.927   4.259   5.410 -1.0369  0.3088 -1.0056
  181DOPC   C3422235   1.807   4.368   5.567  0.3929  0.2059  0.1628
  181DOPC   H4X22236   1.716   4.317   5.531  2.2607 -0.6785 -3.9739
  181DOPC   H4Y22237   1.781   4.475   5.583  0.6082  0.0238  1.9428
  181DOPC   C3522238   1.853   4.312   5.698  0.5911  0.1985 -0.5204
  181DOPC   H5X22239   1.933   4.369   5.749  0.1990  0.2453  0.0471
  181DOPC   H5Y22240   1.890   4.208   5.684  3.2032  1.0247 -0.2772
  181DOPC   C3622241   1.738   4.312   5.804 -0.3014  0.5859  0.4224
  181DOPC   H6X22242   1.718   4.418   5.831 -0.7950 -0.0482  2.7234
  181DOPC   H6Y22243   1.650   4.260   5.760 -0.5779  0.7027  0.8328
  181DOPC   C3722244   1.774   4.233   5.923 -0.8845 -0.3677  0.0413
  181DOPC   H7X22245   1.694   4.180   5.980  1.7066 -2.0991  2.3792
  181DOPC   H7Y22246   1.825   4.142   5.885  0.0236  0.6798 -1.3424
  181DOPC   C3822247   1.875   4.305   6.024 -0.2758  0.1723  1.1493
  181DOPC   H8X22248   1.980   4.321   5.990 -0.4101 -0.3842  0.4664
  181DOPC   H8Y22249   1.886   4.230   6.105 -2.9729 -2.2355 -0.5219
  181DOPC   C3922250   1.812   4.429   6.076 -0.0382 -0.3537 -0.7359
  181DOPC   H9X22251   1.782   4.500   5.997 -1.9030 -1.4515 -1.0850
  181DOPC  C31022252   1.787   4.462   6.207 -0.4071  0.2984  0.3367
  181DOPC  H10X22253   1.724   4.549   6.231 -1.7033 -0.5787  0.2182
  181DOPC  C31122254   1.818   4.371   6.322  0.4242  0.1193 -0.1054
  181DOPC  H11X22255   1.884   4.286   6.294 -0.7749 -0.5772 -0.8814
  181DOPC  H11Y22256   1.726   4.339   6.375  0.8599  0.6953  1.0481
  181DOPC  C31222257   1.889   4.448   6.432 -0.1805  0.0346 -0.2367
  181DOPC  H12X22258   1.890   4.379   6.519  0.6148 -0.0670 -0.3177
  181DOPC  H12Y22259   1.838   4.536   6.476  1.0923  0.6922 -0.0139
  181DOPC  C31322260   2.031   4.488   6.394 -0.0586 -0.3720 -0.3260
  181DOPC  H13X22261   2.105   4.406   6.408  0.2300  0.1577  1.4870
  181DOPC  H13Y22262   2.039   4.507   6.284 -2.9498  0.7645 -0.4104
  181DOPC  C31422263   2.083   4.608   6.470  0.2917 -0.2164  0.8678
  181DOPC  H14X22264   2.075   4.592   6.580 -0.5984 -2.7901  0.4910
  181DOPC  H14Y22265   2.186   4.617   6.429  0.2015 -3.8331 -0.5238
  181DOPC  C31522266   2.014   4.740   6.411 -0.3884 -0.8128 -0.3150
  181DOPC  H15X22267   1.905   4.747   6.430 -0.3768  1.2731 -0.8128
  181DOPC  H15Y22268   2.036   4.731   6.302  2.0629 -1.9591  0.2003
  181DOPC  C31622269   2.082   4.875   6.455  0.7455 -0.1359  0.1528
  181DOPC  H16X22270   2.045   4.919   6.550  1.8323 -0.3414  0.6907
  181DOPC  H16Y22271   2.192   4.860   6.465  0.3788 -2.4184  1.3679
  181DOPC  C31722272   2.068   4.993   6.353 -0.8185  0.0572  0.4864
  181DOPC  H17X22273   2.105   4.946   6.259  1.7036  1.7615  0.5119
  181DOPC  H17Y22274   1.965   5.030   6.337 -0.5976  0.3829 -0.1998
  181DOPC  C31822275   2.170   5.102   6.392  0.3431 -0.3214 -0.5482
  181DOPC  H18X22276   2.268   5.052   6.378 -0.0930 -1.4701  0.3557
  181DOPC  H18Y22277   2.157   5.200   6.342 -0.4838  0.4795  1.1591
  181DOPC  H18Z22278   2.144   5.126   6.497  0.8687  2.2706 -0.9524
  182DOPC     N22279   1.835   2.668   3.724  0.0224 -0.3941  0.2553
  182DOPC   C1222280   1.737   2.762   3.781  0.6804 -0.5350 -0.7530
  182DOPC  H12A22281   1.663   2.712   3.842  2.2254 -0.0375  1.6572
  182DOPC  H12B22282   1.679   2.816   3.707 -0.2333 -0.0232  0.3122
  182DOPC   C1322283   1.925   2.742   3.636  0.5220  0.0252  0.0023
  182DOPC  H13A22284   1.990   2.813   3.685  1.3003 -1.4249  1.1394
  182DOPC  H13B22285   1.980   2.688   3.560  1.5349  1.7594 -0.5665
  182DOPC  H13C22286   1.867   2.809   3.575  2.6768 -0.1857 -2.4480
  182DOPC   C1422287   1.764   2.565   3.647  0.3956  0.1377 -0.6018
  182DOPC  H14A22288   1.669   2.541   3.693  1.2424  0.9055  1.6685
  182DOPC  H14B22289   1.752   2.593   3.543 -1.0188  1.9746 -0.0018
  182DOPC  H14C22290   1.827   2.478   3.651  0.5832  0.3177  1.1409
  182DOPC   C1522291   1.920   2.609   3.837 -0.3960  0.7183  0.1334
  182DOPC  H15A22292   1.989   2.534   3.802  0.2277  1.4129 -0.1678
  182DOPC  H15B22293   1.848   2.566   3.905 -0.3848  2.1555  1.1119
  182DOPC  H15C22294   1.978   2.684   3.888  0.9117 -0.6803  0.7629
  182DOPC   C1122295   1.798   2.874   3.867 -0.4875 -0.2195  0.4736
  182DOPC  H11A22296   1.886   2.925   3.821 -1.1676  1.2050  0.7117
  182DOPC  H11B22297   1.737   2.967   3.873 -2.2910 -1.3285 -0.0352
  182DOPC     P22298   1.743   2.852   4.122 -0.0318 -0.2717 -0.2375
  182DOPC   O1322299   1.625   2.930   4.078 -0.8562 -0.0422 -0.0759
  182DOPC   O1422300   1.824   2.916   4.230  0.4711 -0.4800  0.4415
  182DOPC   O1222301   1.839   2.825   3.998  0.3885 -0.4987 -0.2084
  182DOPC   O1122302   1.692   2.709   4.164 -0.0872 -0.2730  0.3905
  182DOPC    C122303   1.789   2.613   4.206 -0.0031 -0.0772 -0.0815
  182DOPC    HA22304   1.888   2.659   4.227 -0.5161  2.1265 -2.0043
  182DOPC    HB22305   1.804   2.542   4.122 -2.5373 -1.6340  0.6950
  182DOPC    C222306   1.745   2.533   4.328  0.2379 -0.2456  0.5978
  182DOPC    HS22307   1.840   2.485   4.360  1.2090  1.1814 -0.0153
  182DOPC   O2122308   1.640   2.444   4.294  0.1889 -0.8440  0.1250
  182DOPC   C2122309   1.652   2.326   4.354  0.1227  0.6301 -0.4910
  182DOPC   O2222310   1.752   2.297   4.420 -0.7273 -0.2207 -0.1874
  182DOPC   C2222311   1.530   2.244   4.325  0.3143  0.6011  0.0687
  182DOPC   H2R22312   1.541   2.192   4.228  2.4839  0.1918  0.4964
  182DOPC   H2S22313   1.442   2.312   4.326 -1.3163 -1.3584 -1.1403
  182DOPC    C322314   1.701   2.625   4.447 -0.4394  0.7176  0.6666
  182DOPC    HX22315   1.594   2.645   4.425 -0.3721  0.7535  0.3710
  182DOPC    HY22316   1.755   2.722   4.444 -0.7475  0.9344  1.7409
  182DOPC   O3122317   1.723   2.570   4.580 -0.3792  0.5603  0.1962
  182DOPC   C3122318   1.848   2.570   4.622 -0.0523 -0.5727 -0.9931
  182DOPC   O3222319   1.947   2.619   4.566  0.0970 -0.0324 -0.3146
  182DOPC   C3222320   1.854   2.519   4.774  0.3647  0.2111  0.2281
  182DOPC   H2X22321   1.910   2.423   4.770  0.2472  0.1811 -1.0814
  182DOPC   H2Y22322   1.916   2.592   4.831 -0.7228  1.8035 -0.5624
  182DOPC   C2322323   1.498   2.147   4.441 -0.0251 -0.1676  0.4339
  182DOPC   H3R22324   1.577   2.070   4.461  0.4690  0.6270  1.7260
  182DOPC   H3S22325   1.402   2.098   4.414 -1.2689  2.3416  0.0795
  182DOPC   C2422326   1.458   2.217   4.567 -0.6617 -0.3613  0.1695
  182DOPC   H4R22327   1.372   2.284   4.549 -0.0503  0.5479  0.5523
  182DOPC   H4S22328   1.536   2.289   4.602 -0.4178  0.0757 -1.2152
  182DOPC   C2522329   1.421   2.122   4.682  0.5354 -0.4646  0.5035
  182DOPC   H5R22330   1.509   2.065   4.718  0.0113 -0.6077  1.6260
  182DOPC   H5S22331   1.342   2.052   4.648 -0.5781  1.5316 -1.2557
  182DOPC   C2622332   1.356   2.193   4.806  0.3932 -0.2185  0.3852
  182DOPC   H6R22333   1.261   2.246   4.785  0.0090 -0.9081  0.3598
  182DOPC   H6S22334   1.433   2.259   4.852  0.8864 -0.6148  0.1336
  182DOPC   C2722335   1.316   2.086   4.908  0.2613  0.4828 -0.1212
  182DOPC   H7R22336   1.406   2.022   4.919  0.5695  1.0417  0.7001
  182DOPC   H7S22337   1.230   2.022   4.878  1.5743 -1.0125 -0.8737
  182DOPC   C2822338   1.279   2.148   5.046  0.0541 -0.8081  0.0416
  182DOPC   H8R22339   1.191   2.215   5.033  0.0698 -0.4111  1.7058
  182DOPC   H8S22340   1.363   2.207   5.089  1.4022 -1.1541 -1.9721
  182DOPC   C2922341   1.241   2.044   5.150  0.3073  0.2348  0.1725
  182DOPC   H9R22342   1.174   1.965   5.113  1.5482 -1.5400  1.5159
  182DOPC  C21022343   1.283   2.041   5.282  0.5712  0.0311  0.3723
  182DOPC  H10R22344   1.247   1.969   5.356  0.3867 -1.5170 -1.1521
  182DOPC  C21122345   1.367   2.144   5.353 -0.2564  0.5306  0.1253
  182DOPC  H11R22346   1.326   2.245   5.330  1.0510  1.2811  0.9400
  182DOPC  H11S22347   1.470   2.142   5.310 -0.2005  2.0545  0.1309
  182DOPC  C21222348   1.380   2.138   5.506  0.5956  0.2409 -0.6935
  182DOPC  H12R22349   1.286   2.172   5.555  1.3312  2.5157 -0.7233
  182DOPC  H12S22350   1.459   2.208   5.542  1.2302  0.1539 -1.8827
  182DOPC  C21322351   1.385   2.001   5.561  0.6322  0.0998 -0.6227
  182DOPC  H13R22352   1.446   1.932   5.499 -0.1056 -0.6926 -0.4820
  182DOPC  H13S22353   1.284   1.957   5.551  0.9707 -0.2324 -3.7587
  182DOPC  C21422354   1.429   2.002   5.708  0.8366 -0.6958 -0.2400
  182DOPC  H14R22355   1.536   2.033   5.703  0.9488 -1.2747 -2.3248
  182DOPC  H14S22356   1.417   1.899   5.750  0.8940 -0.6920 -0.2136
  182DOPC  C21522357   1.350   2.096   5.797  0.2212  0.8243 -0.6433
  182DOPC  H15R22358   1.243   2.106   5.771 -0.2307  0.8777  1.1628
  182DOPC  H15S22359   1.382   2.199   5.770 -2.5086  1.4445 -1.7842
  182DOPC  C21622360   1.351   2.084   5.948  0.1773 -0.3202 -0.4086
  182DOPC  H16R22361   1.295   1.993   5.978 -0.4959 -0.1163 -1.0284
  182DOPC  H16S22362   1.301   2.170   5.996 -0.1809  0.4604 -2.0955
  182DOPC  C21722363   1.503   2.076   6.003  1.3284  0.1503 -0.2713
  182DOPC  H17R22364   1.566   2.127   5.927  0.8317  0.2249 -0.6375
  182DOPC  H17S22365   1.529   1.968   6.001 -0.4117 -0.2884 -0.7597
  182DOPC  C21822366   1.519   2.127   6.144  0.3760 -0.1778 -0.6377
  182DOPC  H18R22367   1.481   2.231   6.149  1.2680  0.0929  3.0594
  182DOPC  H18S22368   1.620   2.139   6.189  0.1157  1.2963 -0.3982
  182DOPC  H18T22369   1.454   2.068   6.212  1.6806  0.7685  1.5312
  182DOPC   C3322370   1.710   2.511   4.843  0.4308 -0.3622 -0.8092
  182DOPC   H3X22371   1.630   2.471   4.778 -0.2641 -0.9396  0.3647
  182DOPC   H3Y22372   1.674   2.615   4.858  0.1786 -0.5220 -0.2457
  182DOPC   C3422373   1.716   2.449   4.990  0.2095 -0.0139 -0.8374
  182DOPC   H4X22374   1.614   2.466   5.029 -0.3188 -0.5385 -1.9527
  182DOPC   H4Y22375   1.791   2.508   5.047  0.4917  0.1087 -1.3320
  182DOPC   C3522376   1.760   2.301   4.978 -0.3269  0.2647  0.3331
  182DOPC   H5X22377   1.853   2.295   4.918 -1.3508  0.6411 -1.3446
  182DOPC   H5Y22378   1.681   2.243   4.926 -0.1141  0.5349 -0.2988
  182DOPC   C3622379   1.790   2.240   5.118  0.1952  0.6945 -0.3635
  182DOPC   H6X22380   1.696   2.233   5.176 -0.4133  0.0438 -1.3823
  182DOPC   H6Y22381   1.826   2.136   5.109  0.1761  0.5902  0.7099
  182DOPC   C3722382   1.897   2.320   5.196  1.3065  0.1863 -0.3488
  182DOPC   H7X22383   1.976   2.338   5.120 -0.1047  0.9715 -1.6853
  182DOPC   H7Y22384   1.845   2.412   5.229  1.0541 -0.8362  2.4352
  182DOPC   C3822385   1.942   2.249   5.329  0.0753 -0.0364  0.2985
  182DOPC   H8X22386   1.861   2.245   5.405  0.7691  1.0464  1.1302
  182DOPC   H8Y22387   2.009   2.326   5.374 -0.0955  0.2044  0.1421
  182DOPC   C3922388   2.016   2.116   5.312  0.6721 -0.2385  0.0016
  182DOPC   H9X22389   1.965   2.052   5.238  0.9444  2.1044 -2.3824
  182DOPC  C31022390   2.135   2.085   5.361  0.3768 -1.2994  0.1115
  182DOPC  H10X22391   2.189   1.994   5.331  1.8777  0.0109 -1.3956
  182DOPC  C31122392   2.224   2.179   5.445 -0.0816 -0.6416 -0.3739
  182DOPC  H11X22393   2.216   2.286   5.418  0.9084 -0.4011  0.2203
  182DOPC  H11Y22394   2.335   2.168   5.442 -0.1029 -1.3062  0.5527
  182DOPC  C31222395   2.181   2.174   5.594  0.0274 -0.1376  0.2001
  182DOPC  H12X22396   2.073   2.197   5.597 -0.2690 -1.4786  0.5783
  182DOPC  H12Y22397   2.238   2.245   5.658 -0.9412  0.2867  0.6133
  182DOPC  C31322398   2.218   2.041   5.659  0.4208 -1.2001 -0.9069
  182DOPC  H13X22399   2.160   1.964   5.604  0.4800 -1.1368 -1.0569
  182DOPC  H13Y22400   2.327   2.024   5.644  0.3304  0.0490 -3.4801
  182DOPC  C31422401   2.202   2.028   5.813 -0.2641  0.2609  0.2062
  182DOPC  H14X22402   2.279   2.093   5.861 -0.1960 -0.4879  1.1293
  182DOPC  H14Y22403   2.098   2.061   5.832  0.5960  5.3489 -1.9934
  182DOPC  C31522404   2.230   1.886   5.873  0.6847  0.3790  0.2865
  182DOPC  H15X22405   2.335   1.863   5.847  0.2578 -1.3910 -0.0058
  182DOPC  H15Y22406   2.169   1.808   5.823  3.6611 -1.3448 -0.9436
  182DOPC  C31622407   2.220   1.861   6.026  0.1125 -0.7513  0.7336
  182DOPC  H16X22408   2.295   1.927   6.075 -0.5730  1.1827 -0.7001
  182DOPC  H16Y22409   2.125   1.904   6.063 -0.0761  0.2902 -0.8722
  182DOPC  C31722410   2.229   1.719   6.072  0.3092  0.3481  0.6456
  182DOPC  H17X22411   2.134   1.677   6.032 -0.4396  2.0300  0.5727
  182DOPC  H17Y22412   2.316   1.673   6.021  0.8262  2.0397 -0.0672
  182DOPC  C31822413   2.255   1.702   6.220  0.3251 -0.0704 -0.2157
  182DOPC  H18X22414   2.186   1.758   6.287  2.1302 -0.4481  2.0799
  182DOPC  H18Y22415   2.252   1.595   6.251  1.4063  0.0530  0.3470
  182DOPC  H18Z22416   2.355   1.736   6.253 -0.1435 -0.7945  2.1641
  183DOPC     N22417   0.707   5.735   3.460 -1.1196  0.3022  0.9472
  183DOPC   C1222418   0.709   5.790   3.604 -0.3521  0.2414  0.2164
  183DOPC  H12A22419   0.635   5.868   3.614 -1.5521 -0.9762  1.1751
  183DOPC  H12B22420   0.805   5.837   3.624  0.1619 -0.8455  0.3670
  183DOPC   C1322421   0.738   5.835   3.359  0.0182  0.4120 -0.3997
  183DOPC  H13A22422   0.755   5.802   3.258  0.6450 -1.2720  0.2281
  183DOPC  H13B22423   0.662   5.910   3.344  0.4422  0.6536 -1.3833
  183DOPC  H13C22424   0.832   5.882   3.384 -0.5059  2.5555 -2.1043
  183DOPC   C1422425   0.566   5.684   3.436  0.4411 -0.1985 -0.5070
  183DOPC  H14A22426   0.545   5.658   3.333  1.0488  2.5399 -1.4190
  183DOPC  H14B22427   0.542   5.599   3.498  0.3112 -0.0365 -0.3346
  183DOPC  H14C22428   0.490   5.756   3.466  0.8241 -0.1822  0.4500
  183DOPC   C1522429   0.800   5.613   3.440 -0.0995  0.5543 -0.1201
  183DOPC  H15A22430   0.778   5.547   3.522 -1.1660  1.1588  0.1011
  183DOPC  H15B22431   0.900   5.653   3.432 -0.7742  2.0494 -2.0521
  183DOPC  H15C22432   0.773   5.565   3.346 -0.2266 -0.6808  0.5328
  183DOPC   C1122433   0.694   5.687   3.717 -0.1183 -0.5239 -0.0921
  183DOPC  H11A22434   0.681   5.745   3.811 -1.4976 -1.8914  0.6016
  183DOPC  H11B22435   0.607   5.623   3.692 -1.5147 -0.5106  3.9964
  183DOPC     P22436   0.817   5.490   3.817  0.2352  0.3094  0.3896
  183DOPC   O1322437   0.954   5.437   3.838  0.0095  0.2734  0.7925
  183DOPC   O1422438   0.712   5.388   3.784 -0.2248 -0.2597  0.1362
  183DOPC   O1222439   0.815   5.611   3.719  0.8135 -0.2920 -0.2930
  183DOPC   O1122440   0.766   5.553   3.954 -0.5839  0.0374 -0.1205
  183DOPC    C122441   0.842   5.642   4.029 -0.2557  0.5221  0.2331
  183DOPC    HA22442   0.779   5.732   4.049 -1.1950 -0.0236 -0.2021
  183DOPC    HB22443   0.935   5.674   3.978  0.2529 -0.4644  0.5069
  183DOPC    C222444   0.871   5.584   4.167 -0.2876  0.5141 -0.4141
  183DOPC    HS22445   0.916   5.484   4.156 -3.2362 -1.0632  0.8117
  183DOPC   O2122446   0.753   5.574   4.243  0.3144 -0.6763 -0.4381
  183DOPC   C2122447   0.697   5.450   4.247 -0.5785  0.2682  0.4306
  183DOPC   O2222448   0.742   5.349   4.199 -0.0004 -0.1594  0.0150
  183DOPC   C2222449   0.563   5.463   4.324 -0.2270 -0.4366 -0.1232
  183DOPC   H2R22450   0.488   5.414   4.258  1.0795 -0.3803 -1.7287
  183DOPC   H2S22451   0.541   5.571   4.337 -0.9869 -0.5262 -0.6001
  183DOPC    C322452   0.973   5.669   4.243  0.0194 -0.4869 -0.1786
  183DOPC    HX22453   0.916   5.761   4.268 -1.8642 -1.8088  0.6297
  183DOPC    HY22454   1.063   5.698   4.186 -0.1740  2.6498  0.9504
  183DOPC   O3122455   1.019   5.601   4.358 -0.4199  0.1094 -0.1097
  183DOPC   C3122456   1.010   5.677   4.471  0.2858 -0.3700 -1.2225
  183DOPC   O3222457   0.957   5.789   4.480  0.1967  0.2716 -0.3320
  183DOPC   C3222458   1.053   5.581   4.588  0.3909  0.5647  0.1622
  183DOPC   H2X22459   1.004   5.482   4.574  3.1491 -1.0025  0.8059
  183DOPC   H2Y22460   1.163   5.567   4.582  0.7220  2.9923 -0.5033
  183DOPC   C2322461   0.552   5.396   4.459  0.6976 -0.6730 -0.0520
  183DOPC   H3R22462   0.565   5.287   4.449  0.7181 -0.6219 -0.6146
  183DOPC   H3S22463   0.450   5.412   4.502  1.4868 -1.0224  2.0813
  183DOPC   C2422464   0.654   5.453   4.558 -0.8252  0.4514  0.0837
  183DOPC   H4R22465   0.619   5.553   4.592 -1.9631 -0.1003  0.5816
  183DOPC   H4S22466   0.755   5.462   4.513 -0.4112  1.5573  1.1647
  183DOPC   C2522467   0.684   5.358   4.679  0.5231 -0.1069  0.0441
  183DOPC   H5R22468   0.794   5.341   4.678  1.1001  2.9247 -1.6820
  183DOPC   H5S22469   0.631   5.262   4.663 -0.0429  0.1339  0.4839
  183DOPC   C2622470   0.652   5.435   4.808 -0.4588 -0.3706  0.2637
  183DOPC   H6R22471   0.554   5.485   4.797 -1.0588 -1.7675 -1.0819
  183DOPC   H6S22472   0.732   5.511   4.821 -2.0400  1.6338 -1.2376
  183DOPC   C2722473   0.645   5.349   4.939 -0.6607 -0.1869 -0.2050
  183DOPC   H7R22474   0.741   5.296   4.958 -1.0492 -1.3612 -1.3565
  183DOPC   H7S22475   0.576   5.262   4.929  2.2864 -2.5318 -1.8691
  183DOPC   C2822476   0.605   5.424   5.071 -0.8222 -0.2290  0.1505
  183DOPC   H8R22477   0.700   5.478   5.093 -0.7994  0.0195 -0.5313
  183DOPC   H8S22478   0.592   5.358   5.159  2.0787  0.3348  1.1227
  183DOPC   C2922479   0.494   5.519   5.068 -0.7106 -0.0059 -0.7161
  183DOPC   H9R22480   0.423   5.511   4.984  0.6380 -0.4343 -1.8451
  183DOPC  C21022481   0.485   5.626   5.150 -0.3463  0.0841  0.2852
  183DOPC  H10R22482   0.410   5.702   5.125  0.7758  1.7017  1.5896
  183DOPC  C21122483   0.562   5.650   5.280  0.0156  0.0763 -0.0338
  183DOPC  H11R22484   0.654   5.710   5.266  0.2288 -0.0113  0.9103
  183DOPC  H11S22485   0.593   5.557   5.333 -1.8204 -0.3559  0.3551
  183DOPC  C21222486   0.462   5.715   5.381 -0.2136 -0.3156  1.1203
  183DOPC  H12R22487   0.382   5.651   5.424 -0.0561 -0.5515  1.0663
  183DOPC  H12S22488   0.406   5.792   5.324 -0.1699 -0.2889  1.1131
  183DOPC  C21322489   0.528   5.782   5.507 -0.4778  0.0969  0.8194
  183DOPC  H13R22490   0.585   5.871   5.472  0.8516 -1.7612 -2.1704
  183DOPC  H13S22491   0.604   5.707   5.539 -0.6743 -1.4316 -1.9747
  183DOPC  C21422492   0.427   5.816   5.624 -0.6883 -0.3576 -0.6395
  183DOPC  H14R22493   0.392   5.719   5.666  2.3747 -1.7514 -1.0267
  183DOPC  H14S22494   0.346   5.882   5.586  0.0757  0.3406 -1.0876
  183DOPC  C21522495   0.497   5.892   5.743  0.2120 -0.2958 -0.3317
  183DOPC  H15R22496   0.524   5.994   5.707  0.1880 -0.4691 -0.8511
  183DOPC  H15S22497   0.591   5.840   5.771 -0.5231 -0.8228  1.3002
  183DOPC  C21622498   0.399   5.905   5.869 -0.5709  0.1594 -0.5106
  183DOPC  H16R22499   0.365   5.801   5.887  1.0284 -0.2399  0.3948
  183DOPC  H16S22500   0.318   5.977   5.846  1.6730  2.8317 -0.5556
  183DOPC  C21722501   0.467   5.951   5.996 -0.6589  0.4951 -0.1493
  183DOPC  H17R22502   0.525   6.043   5.976  1.1528 -0.5876 -0.1835
  183DOPC  H17S22503   0.545   5.879   6.029 -0.6612  1.3461  1.8221
  183DOPC  C21822504   0.382   5.970   6.119 -0.1505  0.0979  0.5906
  183DOPC  H18R22505   0.449   5.989   6.205  0.5033 -0.9180  0.3265
  183DOPC  H18S22506   0.325   5.878   6.146  1.8656 -0.8979  1.7061
  183DOPC  H18T22507   0.312   6.056   6.113  1.4469  1.5945  2.3987
  183DOPC   C3322508   1.001   5.633   4.726  0.1590  0.2848  0.3563
  183DOPC   H3X22509   0.894   5.602   4.718 -0.3551  2.4202 -3.6475
  183DOPC   H3Y22510   1.009   5.743   4.738  1.9280  0.7703 -3.6808
  183DOPC   C3422511   1.059   5.545   4.844  0.1838  0.2725  0.7075
  183DOPC   H4X22512   1.166   5.575   4.848 -0.2668  2.2596 -0.5017
  183DOPC   H4Y22513   1.052   5.438   4.818  1.9877  0.2529  0.2239
  183DOPC   C3522514   0.990   5.578   4.973 -0.2611  0.1636  0.2191
  183DOPC   H5X22515   0.881   5.593   4.963 -0.1714  2.5341  2.0648
  183DOPC   H5Y22516   1.028   5.667   5.027 -2.9034  0.4511  1.7407
  183DOPC   C3622517   1.005   5.468   5.079 -0.4204  0.1618 -0.5939
  183DOPC   H6X22518   0.942   5.380   5.052 -0.7371  0.6829 -1.6106
  183DOPC   H6Y22519   1.109   5.430   5.075 -0.2215 -0.7992  5.3060
  183DOPC   C3722520   0.976   5.496   5.224  0.2315 -0.2636 -0.5840
  183DOPC   H7X22521   1.042   5.576   5.262 -1.6443 -0.6901  4.2656
  183DOPC   H7Y22522   0.873   5.535   5.239 -0.4758 -1.9475 -0.8166
  183DOPC   C3822523   1.011   5.376   5.317  0.5836 -0.3819  0.1027
  183DOPC   H8X22524   1.121   5.366   5.306  0.9864  0.4542  2.7242
  183DOPC   H8Y22525   0.958   5.290   5.269 -3.4009  2.2264 -0.7108
  183DOPC   C3922526   0.983   5.383   5.460 -0.4277 -0.4129 -0.8469
  183DOPC   H9X22527   0.995   5.283   5.504 -0.1788 -1.1822 -2.5959
  183DOPC  C31022528   0.958   5.483   5.549  0.2072  0.1757 -0.1793
  183DOPC  H10X22529   0.937   5.459   5.655 -1.0294  2.6455  0.2123
  183DOPC  C31122530   0.968   5.631   5.537  0.5055  0.1042 -0.7842
  183DOPC  H11X22531   0.870   5.680   5.516  1.1532  0.6689 -2.7673
  183DOPC  H11Y22532   1.026   5.656   5.445  1.9393 -1.1767 -0.2669
  183DOPC  C31222533   1.031   5.707   5.653  0.1895 -0.5053  0.0234
  183DOPC  H12X22534   1.006   5.815   5.638 -1.3211 -0.9577 -0.9048
  183DOPC  H12Y22535   1.140   5.686   5.646 -0.0034 -1.4221 -0.3681
  183DOPC  C31322536   0.980   5.677   5.799  0.5043 -0.6252  0.3370
  183DOPC  H13X22537   0.875   5.712   5.794  0.8798  1.0028  2.4250
  183DOPC  H13Y22538   0.994   5.567   5.806  0.4073 -0.5911  1.0885
  183DOPC  C31422539   1.053   5.739   5.923  0.5402 -0.1598 -0.6576
  183DOPC  H14X22540   1.066   5.849   5.910  0.4974 -0.0667  0.0319
  183DOPC  H14Y22541   0.994   5.729   6.017  1.2488  0.4300 -0.1346
  183DOPC  C31522542   1.191   5.679   5.950  0.9754 -0.1881  0.6524
  183DOPC  H15X22543   1.257   5.694   5.861  0.2416  1.1108  0.2947
  183DOPC  H15Y22544   1.185   5.569   5.962  1.6007 -0.6818 -2.5453
  183DOPC  C31622545   1.262   5.731   6.064  0.4902  0.6159 -0.5666
  183DOPC  H16X22546   1.370   5.720   6.041  0.2975 -0.6561 -0.9173
  183DOPC  H16Y22547   1.236   5.839   6.073 -1.8609  0.0055  0.9578
  183DOPC  C31722548   1.217   5.657   6.192 -0.0437 -0.1324  0.2176
  183DOPC  H17X22549   1.111   5.625   6.196  0.2391 -1.8289 -2.8710
  183DOPC  H17Y22550   1.258   5.554   6.182  0.1445  0.0228 -0.6418
  183DOPC  C31822551   1.261   5.709   6.328  0.4724  0.4879 -0.3947
  183DOPC  H18X22552   1.226   5.642   6.409 -1.2528  1.9745  0.1487
  183DOPC  H18Y22553   1.370   5.723   6.341  0.8223 -2.7419  1.1337
  183DOPC  H18Z22554   1.211   5.806   6.350  0.3592  0.9806 -2.6051
  184DOPC     N22555   3.892   2.721   3.917 -0.1725  0.5217 -0.3028
  184DOPC   C1222556   3.884   2.596   3.837  0.4685  0.2052  0.5104
  184DOPC  H12A22557   3.918   2.623   3.738 -0.9203  0.1727  0.0042
  184DOPC  H12B22558   3.781   2.565   3.844  0.0998  1.3375  0.3370
  184DOPC   C1322559   3.784   2.814   3.873 -0.6850  0.3171 -0.2854
  184DOPC  H13A22560   3.687   2.779   3.905  0.6128 -2.1392  1.2783
  184DOPC  H13B22561   3.811   2.909   3.918 -2.1051  0.4682  0.2911
  184DOPC  H13C22562   3.792   2.835   3.767  1.3354 -0.3988 -0.3094
  184DOPC   C1422563   4.020   2.786   3.901  0.1611  0.1820  0.0724
  184DOPC  H14A22564   4.096   2.716   3.934 -2.1516 -1.5919  1.9931
  184DOPC  H14B22565   4.047   2.823   3.803  1.6047  2.0800  1.1228
  184DOPC  H14C22566   4.031   2.866   3.972  3.0370  0.9545 -1.0893
  184DOPC   C1522567   3.879   2.687   4.063 -0.2477 -0.5606 -0.9395
  184DOPC  H15A22568   3.791   2.626   4.075 -0.0892 -0.4268  1.3654
  184DOPC  H15B22569   3.843   2.761   4.133 -1.7867 -3.6403  1.7949
  184DOPC  H15C22570   3.969   2.637   4.095  0.2031 -0.1741 -1.5580
  184DOPC   C1122571   3.974   2.471   3.884  0.3390 -0.0186 -0.1524
  184DOPC  H11A22572   3.953   2.442   3.989  0.0211 -2.3341 -0.8067
  184DOPC  H11B22573   3.938   2.391   3.816  0.9605 -0.6897  0.2959
  184DOPC     P22574   4.230   2.483   3.940 -0.3053  0.2765 -0.0936
  184DOPC   O1322575   4.238   2.614   4.009 -0.6329  0.9630  0.6502
  184DOPC   O1422576   4.358   2.441   3.881  0.2382 -0.1219 -0.3570
  184DOPC   O1222577   4.108   2.481   3.838  0.2465 -0.8714 -0.5075
  184DOPC   O1122578   4.188   2.382   4.055 -0.5362  0.3560  0.0597
  184DOPC    C122579   4.161   2.241   4.032 -0.5012 -0.8033 -0.7154
  184DOPC    HA22580   4.151   2.215   3.925  0.7463 -0.7140 -0.8684
  184DOPC    HB22581   4.064   2.208   4.075 -0.5448 -1.5959 -1.3894
  184DOPC    C222582   4.270   2.149   4.095  0.2040  0.2070 -0.3168
  184DOPC    HS22583   4.228   2.047   4.103 -1.8943  0.8861 -1.7494
  184DOPC   O2122584   4.311   2.195   4.223 -0.1006  0.5087  0.2670
  184DOPC   C2122585   4.222   2.201   4.315 -0.2654 -0.1863 -0.1640
  184DOPC   O2222586   4.105   2.167   4.302  0.0318  0.4105 -0.0285
  184DOPC   C2222587   4.297   2.267   4.434  0.1302 -0.1570  0.6025
  184DOPC   H2R22588   4.350   2.358   4.398 -0.5412  0.9428  2.3013
  184DOPC   H2S22589   4.363   2.183   4.466 -1.6161 -1.0316  2.1185
  184DOPC    C322590   4.398   2.143   4.011  0.7298 -0.1020  0.8463
  184DOPC    HX22591   4.459   2.230   4.043  2.3189 -0.7735 -0.2316
  184DOPC    HY22592   4.375   2.140   3.902 -1.1825  0.9823  1.1778
  184DOPC   O3122593   4.473   2.025   4.040 -0.3653  0.3585 -0.8665
  184DOPC   C3122594   4.595   2.012   3.982  0.9064  0.6275  0.1113
  184DOPC   O3222595   4.641   2.102   3.913 -0.1362 -0.0861  0.0303
  184DOPC   C3222596   4.657   1.884   4.030 -0.0324 -0.0960  0.1503
  184DOPC   H2X22597   4.575   1.816   4.062  0.5528  0.4562  3.1872
  184DOPC   H2Y22598   4.717   1.843   3.946  0.1290 -1.7831  1.0638
  184DOPC   C2322599   4.210   2.293   4.558 -0.2166  0.0906 -0.0232
  184DOPC   H3R22600   4.151   2.204   4.586  1.2493 -0.1736  2.5532
  184DOPC   H3S22601   4.146   2.383   4.547  1.3820  1.4015  0.9097
  184DOPC   C2422602   4.298   2.322   4.683  0.8056  0.1248 -0.0497
  184DOPC   H4R22603   4.362   2.403   4.642 -0.1604 -0.2058 -2.3909
  184DOPC   H4S22604   4.350   2.227   4.709 -1.5797 -1.0967  0.5682
  184DOPC   C2522605   4.218   2.364   4.816  0.4732  0.1717 -0.0164
  184DOPC   H5R22606   4.160   2.456   4.791 -2.2568 -1.3190  0.4354
  184DOPC   H5S22607   4.300   2.380   4.889 -0.6847 -1.4152  1.7144
  184DOPC   C2622608   4.109   2.269   4.866 -0.3039  0.2449  0.6775
  184DOPC   H6R22609   4.154   2.168   4.877 -0.8583 -0.3231 -1.7600
  184DOPC   H6S22610   4.026   2.279   4.792  0.5540  3.1464 -0.0426
  184DOPC   C2722611   4.071   2.311   5.006  0.0981  0.5164  0.7132
  184DOPC   H7R22612   4.038   2.417   5.006 -0.4792  0.3868 -1.2951
  184DOPC   H7S22613   4.160   2.302   5.071  1.3460  2.1807 -0.6671
  184DOPC   C2822614   3.946   2.233   5.066  0.1486 -0.0989  0.6017
  184DOPC   H8R22615   3.852   2.269   5.019  0.3282 -1.2932 -0.7434
  184DOPC   H8S22616   3.929   2.244   5.176 -0.8187 -0.7148  0.5254
  184DOPC   C2922617   3.947   2.088   5.041 -0.3192  1.3686 -0.3073
  184DOPC   H9R22618   3.924   2.071   4.934  1.1416  0.7964 -0.5501
  184DOPC  C21022619   3.992   1.987   5.119  0.4341  0.1251 -0.5926
  184DOPC  H10R22620   3.971   1.881   5.096 -0.0136  0.2611 -0.8311
  184DOPC  C21122621   4.043   1.990   5.261  0.1318 -0.8742  0.1946
  184DOPC  H11R22622   4.103   2.082   5.275 -0.4846 -0.0626 -1.9870
  184DOPC  H11S22623   4.104   1.903   5.292 -2.0603 -2.0422  1.5045
  184DOPC  C21222624   3.919   1.993   5.364  0.5627 -0.2887  0.5603
  184DOPC  H12R22625   3.852   1.910   5.332 -2.5187  1.7300  1.3558
  184DOPC  H12S22626   3.861   2.084   5.339 -0.1717 -1.1390 -0.9821
  184DOPC  C21322627   3.961   1.995   5.514  0.0865  0.0064  0.5593
  184DOPC  H13R22628   4.022   2.082   5.545  0.6660 -0.6603  1.3371
  184DOPC  H13S22629   4.021   1.902   5.520  0.3498  0.1778  0.5725
  184DOPC  C21422630   3.839   1.972   5.601 -0.5457 -0.1806  0.3948
  184DOPC  H14R22631   3.788   1.876   5.578 -3.0076  1.2008 -0.3185
  184DOPC  H14S22632   3.767   2.050   5.565  1.1547  0.8037 -1.0409
  184DOPC  C21522633   3.870   1.963   5.750  0.0072  0.5164 -0.1982
  184DOPC  H15R22634   3.779   1.971   5.813  0.9150  1.2868  1.0722
  184DOPC  H15S22635   3.931   2.051   5.782 -0.5883  2.0830 -2.9762
  184DOPC  C21622636   3.936   1.835   5.799  0.6530 -0.1380 -0.1671
  184DOPC  H16R22637   4.038   1.815   5.761 -0.3145 -0.7719 -2.6628
  184DOPC  H16S22638   3.867   1.753   5.770  1.9572 -0.8684 -1.3107
  184DOPC  C21722639   3.939   1.809   5.957 -0.1856 -0.0623 -0.3073
  184DOPC  H17R22640   3.832   1.809   5.985 -0.5315 -1.6901 -1.4663
  184DOPC  H17S22641   3.989   1.888   6.016 -1.3682 -0.0361  0.6858
  184DOPC  C21822642   4.004   1.674   6.002 -0.6011  0.2793 -0.9213
  184DOPC  H18R22643   3.961   1.584   5.952  0.9610 -1.4933  0.7712
  184DOPC  H18S22644   3.982   1.651   6.108 -1.2290 -0.1265 -1.1297
  184DOPC  H18T22645   4.114   1.678   5.990 -0.2807 -0.9660  1.1435
  184DOPC   C3322646   4.769   1.911   4.136 -0.0792 -0.4062  0.8526
  184DOPC   H3X22647   4.840   1.988   4.097 -0.0251 -1.4014 -1.1237
  184DOPC   H3Y22648   4.818   1.813   4.148 -0.2703 -0.5460  0.5043
  184DOPC   C3422649   4.700   1.946   4.264  0.7600  0.1029 -0.0661
  184DOPC   H4X22650   4.632   2.032   4.246 -0.4262 -0.9121 -0.5008
  184DOPC   H4Y22651   4.775   1.989   4.335  0.2812 -1.3529  1.3784
  184DOPC   C3522652   4.642   1.832   4.347  0.1816  0.3215 -0.1611
  184DOPC   H5X22653   4.723   1.757   4.364 -0.5837 -0.6813 -0.7769
  184DOPC   H5Y22654   4.555   1.787   4.294 -0.5396  0.8113  0.5926
  184DOPC   C3622655   4.594   1.884   4.484  0.5029 -0.7473 -0.0375
  184DOPC   H6X22656   4.673   1.924   4.551  0.4062  0.5396 -0.6642
  184DOPC   H6Y22657   4.510   1.955   4.468  0.5547  0.0646  2.7471
  184DOPC   C3722658   4.525   1.777   4.563 -0.0481 -0.5339 -0.0761
  184DOPC   H7X22659   4.422   1.762   4.525  0.5428 -0.6551 -1.6766
  184DOPC   H7Y22660   4.583   1.682   4.556  0.3846 -0.2324 -0.6311
  184DOPC   C3822661   4.500   1.811   4.707 -0.8144 -0.6613 -0.0845
  184DOPC   H8X22662   4.599   1.822   4.758 -1.0970  1.4378  0.1301
  184DOPC   H8Y22663   4.450   1.724   4.754 -3.5801  0.2907 -1.0848
  184DOPC   C3922664   4.428   1.940   4.737 -0.1988 -0.4600  0.5579
  184DOPC   H9X22665   4.343   1.954   4.668 -0.0956 -2.3540 -0.0271
  184DOPC  C31022666   4.420   1.987   4.861 -0.9811 -0.1556 -0.4772
  184DOPC  H10X22667   4.355   2.073   4.884 -1.2144 -0.0704 -1.4469
  184DOPC  C31122668   4.527   1.954   4.966  0.0002 -0.2632 -0.0157
  184DOPC  H11X22669   4.602   2.035   4.973 -0.4282  0.1310  0.0764
  184DOPC  H11Y22670   4.579   1.858   4.948  0.7624  0.0221  0.6281
  184DOPC  C31222671   4.470   1.935   5.108  0.1093 -0.4451  0.4404
  184DOPC  H12X22672   4.379   1.995   5.130 -0.2933 -0.9770  0.2446
  184DOPC  H12Y22673   4.541   1.983   5.178  0.5944 -1.2020  0.4718
  184DOPC  C31322674   4.438   1.793   5.151  0.0255  0.0668  0.0040
  184DOPC  H13X22675   4.333   1.758   5.140  0.3869 -0.8163 -0.7127
  184DOPC  H13Y22676   4.509   1.727   5.096 -0.3610  1.7225 -2.6882
  184DOPC  C31422677   4.473   1.772   5.302 -0.4608 -0.1997 -0.4571
  184DOPC  H14X22678   4.427   1.675   5.333 -1.2060  0.6735  1.2667
  184DOPC  H14Y22679   4.584   1.764   5.307 -0.1935  2.6191 -0.7768
  184DOPC  C31522680   4.437   1.878   5.404  0.0078  0.9113  0.0784
  184DOPC  H15X22681   4.337   1.923   5.386 -1.2106 -0.4772  2.9132
  184DOPC  H15Y22682   4.500   1.970   5.400  1.1023  0.1439 -1.4555
  184DOPC  C31622683   4.437   1.820   5.544 -0.2615  0.5523  0.1596
  184DOPC  H16X22684   4.381   1.724   5.551 -1.4638  1.1437 -0.9423
  184DOPC  H16Y22685   4.545   1.807   5.568 -0.6607  0.2337  1.9595
  184DOPC  C31722686   4.384   1.912   5.652  0.6031  0.0495 -0.1278
  184DOPC  H17X22687   4.451   2.000   5.648  0.3105  0.2659 -0.3034
  184DOPC  H17Y22688   4.285   1.956   5.626  0.2983 -0.4824  0.1041
  184DOPC  C31822689   4.379   1.849   5.791  0.2345  0.4119 -0.2311
  184DOPC  H18X22690   4.299   1.771   5.795  0.2547  0.4425  1.3277
  184DOPC  H18Y22691   4.480   1.817   5.823  0.3321 -0.7841 -1.6413
  184DOPC  H18Z22692   4.346   1.930   5.860 -0.6015 -0.1350  0.0223
  185DOPC     N22693   0.076   5.610   3.612  0.1231  0.0766  0.0469
  185DOPC   C1222694   0.018   5.636   3.755 -0.2375  0.6642  0.0583
  185DOPC  H12A22695   0.103   5.671   3.811  1.0302 -0.2019 -1.2447
  185DOPC  H12B22696  -0.016   5.543   3.797 -1.6004  1.6722  1.2837
  185DOPC   C1322697   0.204   5.529   3.629  0.3832 -0.2212  0.0975
  185DOPC  H13A22698   0.281   5.577   3.688  1.1993 -0.8569 -0.4215
  185DOPC  H13B22699   0.180   5.433   3.673 -2.4485  0.7162  0.7836
  185DOPC  H13C22700   0.256   5.507   3.537  0.2058 -1.2527  0.2339
  185DOPC   C1422701   0.108   5.742   3.540  0.1208 -0.0995  0.6766
  185DOPC  H14A22702   0.017   5.796   3.515  1.8312  1.4972 -2.8024
  185DOPC  H14B22703   0.166   5.808   3.602  1.6081  2.0198 -2.6862
  185DOPC  H14C22704   0.164   5.722   3.450  1.6109  0.0544  1.5354
  185DOPC   C1522705  -0.024   5.537   3.532 -0.6033  0.0491 -0.9227
  185DOPC  H15A22706  -0.059   5.454   3.591  0.5017 -1.4561 -2.2913
  185DOPC  H15B22707   0.031   5.491   3.451  2.5158  0.8928  0.5593
  185DOPC  H15C22708  -0.111   5.596   3.505  0.1366  0.0074 -3.6979
  185DOPC   C1122709  -0.106   5.734   3.760 -0.1264 -0.0624 -0.0911
  185DOPC  H11A22710  -0.118   5.765   3.866  0.6689 -0.3809  0.0976
  185DOPC  H11B22711  -0.080   5.828   3.707 -3.4157  1.3966  0.6387
  185DOPC     P22712  -0.367   5.687   3.775  0.1801 -0.0109  0.4048
  185DOPC   O1322713  -0.413   5.547   3.792  0.4305 -0.6405  0.5807
  185DOPC   O1422714  -0.449   5.773   3.692 -0.4907 -0.6439 -0.0665
  185DOPC   O1222715  -0.227   5.677   3.706  0.7205 -0.2926 -0.3122
  185DOPC   O1122716  -0.344   5.748   3.915 -0.5559  0.3408  0.3824
  185DOPC    C122717  -0.370   5.881   3.944  0.1725  0.3598 -0.7535
  185DOPC    HA22718  -0.467   5.919   3.905 -0.1555 -0.4045 -0.6989
  185DOPC    HB22719  -0.291   5.951   3.909 -0.0770  0.2255 -1.5919
  185DOPC    C222720  -0.367   5.888   4.100 -0.0446 -0.1619  0.5250
  185DOPC    HS22721  -0.265   5.854   4.125 -0.2526  1.0279  3.3201
  185DOPC   O2122722  -0.466   5.796   4.148  0.0132  0.4384  0.0214
  185DOPC   C2122723  -0.444   5.748   4.263 -0.2173  0.7062 -0.2927
  185DOPC   O2222724  -0.338   5.759   4.329  0.5219 -0.2974 -0.2074
  185DOPC   C2222725  -0.567   5.673   4.311  0.3604  0.4229  0.0824
  185DOPC   H2R22726  -0.539   5.585   4.373  0.9222 -0.4800 -1.3908
  185DOPC   H2S22727  -0.620   5.638   4.220 -0.2157 -0.2461  0.6678
  185DOPC    C322728  -0.403   6.037   4.135  0.1545  0.1886 -0.1132
  185DOPC    HX22729  -0.506   6.069   4.109  0.9984  2.2265 -1.2131
  185DOPC    HY22730  -0.339   6.102   4.072 -1.4160  0.5735 -1.3825
  185DOPC   O3122731  -0.373   6.058   4.279  0.5175  0.1761  0.1505
  185DOPC   C3122732  -0.239   6.065   4.302 -0.5595 -0.0499 -0.2528
  185DOPC   O3222733  -0.147   6.059   4.227 -0.0566 -0.3688 -0.0138
  185DOPC   C3222734  -0.223   6.095   4.456  0.2239 -0.1854  0.0843
  185DOPC   H2X22735  -0.275   6.190   4.479  0.4941 -0.4346  1.8790
  185DOPC   H2Y22736  -0.274   6.008   4.503  1.2610 -1.5701 -1.2445
  185DOPC   C2322737  -0.666   5.758   4.400  0.0734  0.0373  0.3256
  185DOPC   H3R22738  -0.757   5.696   4.414 -0.3175  0.4596 -0.2537
  185DOPC   H3S22739  -0.706   5.847   4.346 -1.2133 -0.0354  1.1199
  185DOPC   C2422740  -0.632   5.800   4.539  0.2344 -0.3823  0.0334
  185DOPC   H4R22741  -0.530   5.844   4.541 -0.4713  1.3258  1.2294
  185DOPC   H4S22742  -0.614   5.709   4.600  1.0670 -0.3662 -0.1706
  185DOPC   C2522743  -0.749   5.890   4.596 -0.5064 -0.1741 -0.9943
  185DOPC   H5R22744  -0.841   5.837   4.566 -0.7565 -1.1779  1.2930
  185DOPC   H5S22745  -0.735   5.988   4.545  0.4280 -0.7559 -1.9070
  185DOPC   C2622746  -0.751   5.889   4.752 -0.4385 -0.6169 -0.5452
  185DOPC   H6R22747  -0.663   5.936   4.801 -0.8156 -2.3027  1.8623
  185DOPC   H6S22748  -0.740   5.784   4.786  1.2636 -0.3448 -0.1576
  185DOPC   C2722749  -0.875   5.951   4.811  0.7896  0.4001 -0.5962
  185DOPC   H7R22750  -0.961   5.895   4.768  0.4418 -0.6306  1.3301
  185DOPC   H7S22751  -0.880   6.054   4.769 -0.6241  0.1729 -1.0461
  185DOPC   C2822752  -0.885   5.941   4.957  0.4016 -0.0175 -0.5579
  185DOPC   H8R22753  -0.779   5.937   4.989  0.1805 -0.4211  0.1367
  185DOPC   H8S22754  -0.928   5.855   5.012  0.9864  0.1256  0.1397
  185DOPC   C2922755  -0.944   6.060   5.019  0.0570 -0.4044 -0.3992
  185DOPC   H9R22756  -1.010   6.115   4.951  1.4193  1.4305 -0.3095
  185DOPC  C21022757  -0.924   6.112   5.142  0.3749  0.4747  0.2331
  185DOPC  H10R22758  -0.968   6.209   5.171 -0.5479  0.0762  0.2233
  185DOPC  C21122759  -0.832   6.061   5.247 -0.2683  0.5141 -1.0331
  185DOPC  H11R22760  -0.749   6.127   5.281 -0.5609  0.9349 -1.1279
  185DOPC  H11S22761  -0.793   5.962   5.213 -0.8934  0.6144 -2.0609
  185DOPC  C21222762  -0.903   6.030   5.386  0.2568 -0.1451 -0.2755
  185DOPC  H12R22763  -0.850   5.940   5.424 -2.3628 -1.3001  0.8865
  185DOPC  H12S22764  -1.002   5.987   5.362 -0.3550  1.1434 -0.1098
  185DOPC  C21322765  -0.905   6.144   5.488  0.2692  0.0818  0.0365
  185DOPC  H13R22766  -0.956   6.230   5.439  0.8729 -0.1771 -1.0877
  185DOPC  H13S22767  -0.798   6.170   5.507  1.3768 -2.2528 -2.3796
  185DOPC  C21422768  -0.972   6.105   5.623  0.5287 -0.6299 -0.1893
  185DOPC  H14R22769  -0.903   6.034   5.674 -1.0855 -1.6749  0.6129
  185DOPC  H14S22770  -1.061   6.056   5.579  0.6840  0.4968 -1.8646
  185DOPC  C21522771  -1.027   6.219   5.715 -0.1492  0.0996  1.0401
  185DOPC  H15R22772  -1.100   6.175   5.785  0.3965  0.9396  2.1702
  185DOPC  H15S22773  -1.080   6.291   5.648 -1.6424 -2.1051 -0.2620
  185DOPC  C21622774  -0.911   6.290   5.789  0.0629 -1.2817  0.2660
  185DOPC  H16R22775  -0.953   6.380   5.838 -1.5426 -0.8857 -1.7122
  185DOPC  H16S22776  -0.844   6.332   5.710  1.3701 -1.6049  1.1742
  185DOPC  C21722777  -0.829   6.208   5.890 -1.1616 -0.3051  0.4152
  185DOPC  H17R22778  -0.777   6.132   5.828 -0.0164  0.5314  0.3136
  185DOPC  H17S22779  -0.895   6.167   5.970  0.2683 -0.5627  1.5156
  185DOPC  C21822780  -0.729   6.302   5.954 -0.7217 -0.3074  0.1773
  185DOPC  H18R22781  -0.653   6.344   5.885 -1.9182  0.3414 -0.7851
  185DOPC  H18S22782  -0.676   6.255   6.040 -1.2109 -0.7791  0.2243
  185DOPC  H18T22783  -0.786   6.386   5.999  2.7900  1.1336  2.3375
  185DOPC   C3322784  -0.077   6.082   4.502  0.2088 -0.5494 -0.7213
  185DOPC   H3X22785  -0.009   6.128   4.427 -1.5328  2.2452 -0.7388
  185DOPC   H3Y22786  -0.047   5.976   4.496 -2.6469 -1.3505 -2.9326
  185DOPC   C3422787  -0.068   6.142   4.643  0.0278 -0.2212  0.5447
  185DOPC   H4X22788  -0.106   6.246   4.638  1.4124  0.2581 -0.7477
  185DOPC   H4Y22789   0.041   6.162   4.654  0.4787 -0.0786 -2.9900
  185DOPC   C3522790  -0.129   6.070   4.763 -0.2297  0.0976  0.1841
  185DOPC   H5X22791  -0.080   5.973   4.787 -0.2482 -0.0718 -0.4429
  185DOPC   H5Y22792  -0.233   6.033   4.752  0.2847 -2.3263  2.3458
  185DOPC   C3622793  -0.113   6.157   4.890  0.4545  0.0608  0.4953
  185DOPC   H6X22794  -0.004   6.165   4.910  0.5726 -2.8111  1.4934
  185DOPC   H6Y22795  -0.162   6.254   4.867 -0.0472 -1.0215 -3.9206
  185DOPC   C3722796  -0.190   6.091   5.009 -0.1075  0.7380  0.2423
  185DOPC   H7X22797  -0.297   6.122   5.010  0.7259  4.0175  1.2126
  185DOPC   H7Y22798  -0.171   5.982   5.007 -0.4025  0.6883  0.1897
  185DOPC   C3822799  -0.123   6.129   5.143 -0.6324 -1.3011 -0.0971
  185DOPC   H8X22800  -0.017   6.097   5.139 -0.2644 -0.4960  1.9867
  185DOPC   H8Y22801  -0.175   6.075   5.225 -1.0028 -0.0894  0.4922
  185DOPC   C3922802  -0.139   6.276   5.169  0.3340  0.4451 -0.1313
  185DOPC   H9X22803  -0.076   6.344   5.110 -0.5477  0.8379 -0.6431
  185DOPC  C31022804  -0.217   6.324   5.264 -0.2488  0.0893  0.9431
  185DOPC  H10X22805  -0.198   6.432   5.273 -1.2368  0.4761 -1.0846
  185DOPC  C31122806  -0.299   6.259   5.372 -0.7044  0.2122 -0.5531
  185DOPC  H11X22807  -0.307   6.150   5.353 -0.2812  0.4081 -1.9323
  185DOPC  H11Y22808  -0.403   6.298   5.375 -1.1447 -0.9307 -0.5191
  185DOPC  C31222809  -0.237   6.263   5.514  0.3745 -0.8462  0.7139
  185DOPC  H12X22810  -0.132   6.228   5.505  0.5361 -0.0099 -1.1662
  185DOPC  H12Y22811  -0.289   6.181   5.567 -0.4668 -1.5327 -1.0928
  185DOPC  C31322812  -0.234   6.399   5.585  0.0831  0.0739  0.4005
  185DOPC  H13X22813  -0.168   6.464   5.524 -1.8806  0.2433 -1.6850
  185DOPC  H13Y22814  -0.334   6.447   5.575  0.8789  1.8767  0.6676
  185DOPC  C31422815  -0.185   6.397   5.729  0.1549  0.1481  0.5536
  185DOPC  H14X22816  -0.253   6.337   5.792 -0.0168 -0.9818 -0.6690
  185DOPC  H14Y22817  -0.081   6.358   5.734  0.4228  0.7828  0.0614
  185DOPC  C31522818  -0.186   6.545   5.787  0.7864 -0.6116  0.5313
  185DOPC  H15X22819  -0.288   6.588   5.795  0.9548 -0.0607 -0.1337
  185DOPC  H15Y22820  -0.142   6.614   5.711 -1.5721  0.6082  0.1881
  185DOPC  C31622821  -0.110   6.552   5.915 -0.6027  0.6304  0.0992
  185DOPC  H16X22822  -0.141   6.477   5.991  3.9710 -0.7603  0.8706
  185DOPC  H16Y22823  -0.005   6.527   5.889 -0.8655 -0.1556 -0.2507
  185DOPC  C31722824  -0.107   6.692   5.983  0.4899  0.3723 -0.2057
  185DOPC  H17X22825  -0.061   6.760   5.907 -2.1693  1.9494 -0.5491
  185DOPC  H17Y22826  -0.212   6.722   6.005  1.2228  1.5643  2.0329
  185DOPC  C31822827  -0.036   6.693   6.114  0.0460 -0.0367  0.2156
  185DOPC  H18X22828  -0.068   6.605   6.173 -2.5689  0.3229 -0.5675
  185DOPC  H18Y22829   0.070   6.675   6.085 -0.7395 -0.2560 -2.9067
  185DOPC  H18Z22830  -0.055   6.785   6.174 -0.0347 -0.3533  0.6827
  186DOPC     N22831   6.603   3.698   4.875 -0.3070 -0.0408  0.8603
  186DOPC   C1222832   6.653   3.839   4.905 -0.1086  0.4264 -0.3703
  186DOPC  H12A22833   6.566   3.901   4.922  0.0499  0.5843 -0.1279
  186DOPC  H12B22834   6.696   3.873   4.812 -0.0678  2.5449  0.3580
  186DOPC   C1322835   6.513   3.691   4.763  0.0708 -0.1761 -0.5806
  186DOPC  H13A22836   6.493   3.588   4.737  1.2035 -0.0919 -1.9037
  186DOPC  H13B22837   6.423   3.740   4.798  0.4761 -0.1246  0.4229
  186DOPC  H13C22838   6.532   3.748   4.673  0.3317  1.0704  0.2344
  186DOPC   C1422839   6.553   3.637   4.998 -1.2398  0.1830  0.0162
  186DOPC  H14A22840   6.623   3.620   5.078  0.0704 -1.5750 -1.4305
  186DOPC  H14B22841   6.470   3.695   5.037 -0.2601  0.4902  1.7296
  186DOPC  H14C22842   6.520   3.538   4.972  0.4291 -0.5612  0.5861
  186DOPC   C1522843   6.729   3.619   4.832  1.0466  0.4015 -0.2441
  186DOPC  H15A22844   6.804   3.628   4.909 -1.0464  0.6798  1.8570
  186DOPC  H15B22845   6.761   3.658   4.736 -0.3045  2.0276 -0.0756
  186DOPC  H15C22846   6.719   3.511   4.827 -0.9212  0.3361  2.7534
  186DOPC   C1122847   6.762   3.853   5.017  0.4035 -0.0653  0.6200
  186DOPC  H11A22848   6.817   3.944   4.987  1.4724 -1.5495 -2.3161
  186DOPC  H11B22849   6.722   3.884   5.116  1.5042  0.5135  0.9004
  186DOPC     P22850   6.917   3.680   5.143 -0.2171 -0.3189 -0.4576
  186DOPC   O1322851   7.041   3.605   5.108  0.0178 -0.2236 -0.3700
  186DOPC   O1422852   6.803   3.601   5.195  0.2914  0.8312 -0.0962
  186DOPC   O1222853   6.867   3.769   5.018 -0.2999 -0.0918 -0.0211
  186DOPC   O1122854   6.953   3.791   5.248 -0.3096  0.1476 -0.3530
  186DOPC    C122855   6.919   3.782   5.390  0.4998 -0.8897  0.1255
  186DOPC    HA22856   7.013   3.813   5.440  2.5359 -1.1761 -3.2042
  186DOPC    HB22857   6.913   3.678   5.430 -0.3568  0.0045  2.5183
  186DOPC    C222858   6.800   3.874   5.421  0.7138  0.0060 -0.0747
  186DOPC    HS22859   6.797   3.880   5.532  0.5029 -2.1037  0.0609
  186DOPC   O2122860   6.675   3.824   5.374  0.2213  0.1874 -0.0366
  186DOPC   C2122861   6.627   3.716   5.441 -0.0686 -0.4334  0.7381
  186DOPC   O2222862   6.676   3.670   5.543  0.4249 -0.1650 -0.4832
  186DOPC   C2222863   6.507   3.655   5.364 -0.2198 -0.1496 -0.1437
  186DOPC   H2R22864   6.556   3.592   5.286  1.0308 -1.5379  1.6793
  186DOPC   H2S22865   6.446   3.735   5.318  0.7204  1.3604  1.1374
  186DOPC    C322866   6.817   4.016   5.367  0.6113 -0.0761  0.3494
  186DOPC    HX22867   6.733   4.087   5.374  0.3471 -0.1100 -1.8064
  186DOPC    HY22868   6.818   3.991   5.259  0.1644 -0.1456  0.3611
  186DOPC   O3122869   6.945   4.074   5.413 -0.2254 -0.1437 -0.0394
  186DOPC   C3122870   6.947   4.125   5.539 -0.4405 -0.4364  0.5618
  186DOPC   O3222871   6.852   4.126   5.613 -0.2767 -0.1199  0.0489
  186DOPC   C3222872   7.086   4.165   5.565 -0.3395 -0.3938  0.2330
  186DOPC   H2X22873   7.157   4.084   5.537 -1.4891 -1.2062 -0.4524
  186DOPC   H2Y22874   7.113   4.244   5.491  1.4137  2.3182  3.5132
  186DOPC   C2322875   6.431   3.567   5.460  0.5337  0.7171 -0.4132
  186DOPC   H3R22876   6.502   3.497   5.509 -0.3303  0.5088  0.5663
  186DOPC   H3S22877   6.366   3.497   5.402  1.0831 -0.6558  0.5873
  186DOPC   C2422878   6.348   3.641   5.561 -0.2735  0.1536 -0.2184
  186DOPC   H4R22879   6.270   3.698   5.507 -0.9299 -0.4742  0.0470
  186DOPC   H4S22880   6.418   3.710   5.612 -1.3881  0.7307  0.5571
  186DOPC   C2522881   6.282   3.562   5.670  0.3154  0.1482 -0.1242
  186DOPC   H5R22882   6.353   3.498   5.727 -0.3527 -0.4468  0.0450
  186DOPC   H5S22883   6.202   3.500   5.625  1.1148 -1.4471  0.5864
  186DOPC   C2622884   6.241   3.655   5.779  0.0075 -0.6501  0.3473
  186DOPC   H6R22885   6.197   3.748   5.739 -0.9571 -0.9359  0.7334
  186DOPC   H6S22886   6.332   3.692   5.832  0.5945 -1.2458 -0.2100
  186DOPC   C2722887   6.152   3.586   5.883  0.6970 -0.1633 -0.8014
  186DOPC   H7R22888   6.211   3.510   5.939  2.1375  2.9034  2.1928
  186DOPC   H7S22889   6.072   3.532   5.827 -1.4614  1.2217  0.7979
  186DOPC   C2822890   6.097   3.688   5.985  0.4681  0.1917  0.0520
  186DOPC   H8R22891   6.022   3.752   5.934  0.0050 -0.9455 -0.7415
  186DOPC   H8S22892   6.181   3.751   6.022  1.2305 -1.3405  1.0456
  186DOPC   C2922893   6.017   3.624   6.099 -0.3236 -0.1011  0.4578
  186DOPC   H9R22894   5.914   3.594   6.077  0.2723 -1.3891 -0.7776
  186DOPC  C21022895   6.067   3.583   6.225 -0.0748 -0.3436  0.4349
  186DOPC  H10R22896   5.999   3.537   6.298 -1.0971 -1.4903 -1.1669
  186DOPC  C21122897   6.214   3.591   6.269 -0.0276  0.6417 -0.1983
  186DOPC  H11R22898   6.268   3.612   6.174  0.8402 -0.8687 -0.0710
  186DOPC  H11S22899   6.253   3.500   6.318  1.3706  0.0469 -2.3028
  186DOPC  C21222900   6.257   3.715   6.353  0.5141 -0.0633 -0.4956
  186DOPC  H12R22901   6.212   3.803   6.304  2.2524  3.5561  3.7183
  186DOPC  H12S22902   6.367   3.725   6.341  0.3693 -1.0620 -3.3513
  186DOPC  C21322903   6.219   3.711   6.501 -0.8046  0.1370 -0.8864
  186DOPC  H13R22904   6.293   3.772   6.558 -0.1779  0.7326 -2.3130
  186DOPC  H13S22905   6.242   3.605   6.526  0.0364 -0.0461 -2.3681
  186DOPC  C21422906   6.077   3.765   6.534  0.5962 -0.1376  0.4533
  186DOPC  H14R22907   6.013   3.768   6.443 -1.4680 -0.2269  1.8194
  186DOPC  H14S22908   6.085   3.867   6.578  0.6973 -0.5561  1.4315
  186DOPC  C21522909   6.019   3.675   6.636 -0.5195  0.4538 -0.2175
  186DOPC  H15R22910   6.086   3.645   6.720 -1.6600 -0.1360  0.5079
  186DOPC  H15S22911   5.992   3.581   6.583  0.6509 -0.7521  1.2067
  186DOPC  C21622912   5.890   3.732   6.691 -0.6359 -0.1754  0.2140
  186DOPC  H16R22913   5.822   3.737   6.603  0.2276  0.8057 -0.4214
  186DOPC  H16S22914   5.903   3.832   6.737 -0.5170 -0.2911  0.4317
  186DOPC  C21722915   5.834   3.634   6.801  0.1448 -0.2505 -0.1671
  186DOPC  H17R22916   5.899   3.635   6.890 -1.5285 -1.0840  1.1116
  186DOPC  H17S22917   5.837   3.539   6.743  0.1961  1.8417 -3.9555
  186DOPC  C21822918   5.688   3.661   6.835 -0.4920  0.3807  0.3400
  186DOPC  H18R22919   5.626   3.640   6.745 -0.6754  2.0168  0.0470
  186DOPC  H18S22920   5.671   3.766   6.869 -3.7644 -0.1053  0.5455
  186DOPC  H18T22921   5.654   3.614   6.929  0.5940  0.4618  0.7881
  186DOPC   C3322922   7.114   4.218   5.707  0.0251 -0.5241 -1.1752
  186DOPC   H3X22923   7.069   4.142   5.775 -0.0180  0.4027 -0.1462
  186DOPC   H3Y22924   7.064   4.316   5.717 -1.5676 -1.4712  1.1800
  186DOPC   C3422925   7.261   4.227   5.743 -0.3077  0.4928  0.0590
  186DOPC   H4X22926   7.311   4.301   5.677  1.9265 -0.0758  0.9950
  186DOPC   H4Y22927   7.306   4.129   5.714  0.2347  1.1523 -1.3922
  186DOPC   C3522928   7.302   4.248   5.884  0.1364 -0.1877  0.3602
  186DOPC   H5X22929   7.229   4.317   5.931  0.4474  1.2327 -1.1742
  186DOPC   H5Y22930   7.404   4.291   5.888  0.8728 -1.8737  0.7984
  186DOPC   C3622931   7.297   4.117   5.962 -0.3449  0.2276 -0.5198
  186DOPC   H6X22932   7.193   4.084   5.942  0.5525 -1.9981 -1.9513
  186DOPC   H6Y22933   7.364   4.042   5.914  2.0112  2.1894 -0.5243
  186DOPC   C3722934   7.322   4.125   6.111 -0.1978 -0.1400 -0.3308
  186DOPC   H7X22935   7.432   4.140   6.116 -0.4246  1.0305  2.2771
  186DOPC   H7Y22936   7.277   4.216   6.154 -0.8823 -0.4889 -0.2955
  186DOPC   C3822937   7.299   4.007   6.201  0.5064 -0.3913 -0.5021
  186DOPC   H8X22938   7.191   3.984   6.217  0.1117  0.3668 -1.9305
  186DOPC   H8Y22939   7.332   4.051   6.298  1.3627  1.3400 -1.5286
  186DOPC   C3922940   7.381   3.888   6.171 -0.0451  0.3517 -0.1131
  186DOPC   H9X22941   7.456   3.899   6.091  0.1325  1.8242  0.2285
  186DOPC  C31022942   7.359   3.768   6.224  0.5484  0.3615 -0.0625
  186DOPC  H10X22943   7.418   3.682   6.190 -1.3437 -0.6526 -0.9288
  186DOPC  C31122944   7.242   3.729   6.308 -0.2733 -0.1945  0.1020
  186DOPC  H11X22945   7.225   3.621   6.324  0.1781 -0.4560 -1.0647
  186DOPC  H11Y22946   7.148   3.754   6.254 -0.1851  1.6744  0.7222
  186DOPC  C31222947   7.243   3.792   6.449 -0.4436  0.2470 -0.6596
  186DOPC  H12X22948   7.144   3.823   6.488 -0.1153  1.1019 -0.4779
  186DOPC  H12Y22949   7.302   3.886   6.461 -1.4032  0.6275  1.4496
  186DOPC  C31322950   7.299   3.693   6.556 -0.0917  0.2179 -0.1967
  186DOPC  H13X22951   7.245   3.597   6.553  1.0877 -0.4461 -2.1668
  186DOPC  H13Y22952   7.404   3.676   6.524  0.3597  0.5640  1.0335
  186DOPC  C31422953   7.299   3.747   6.697  0.0136  0.0737  0.3279
  186DOPC  H14X22954   7.334   3.670   6.769  1.5095 -0.6456 -1.1103
  186DOPC  H14Y22955   7.375   3.825   6.718  1.6557 -1.3584 -0.0761
  186DOPC  C31522956   7.167   3.799   6.743  0.2796 -0.2404 -0.0576
  186DOPC  H15X22957   7.147   3.892   6.686  1.2254  0.2969  0.4637
  186DOPC  H15Y22958   7.183   3.834   6.847  0.9321 -0.9906  0.0994
  186DOPC  C31622959   7.062   3.691   6.749  0.3025 -0.1607  0.4268
  186DOPC  H16X22960   7.059   3.639   6.651  1.2914  0.3833  0.0981
  186DOPC  H16Y22961   7.096   3.625   6.832 -1.4047 -2.1547 -0.3648
  186DOPC  C31722962   6.924   3.737   6.798  0.0585  0.0552 -0.1714
  186DOPC  H17X22963   6.932   3.781   6.899  0.8736 -0.3905 -0.0279
  186DOPC  H17Y22964   6.881   3.811   6.727 -0.1924  1.6629  1.5837
  186DOPC  C31822965   6.834   3.612   6.795 -1.1428 -0.2144  0.1841
  186DOPC  H18X22966   6.737   3.656   6.829 -1.4200  0.5055 -1.4710
  186DOPC  H18Y22967   6.815   3.561   6.699  1.2118 -0.3361 -0.2642
  186DOPC  H18Z22968   6.870   3.538   6.869  0.6859 -0.3815 -0.8156
  187DOPC     N22969   5.809   2.699   4.518 -0.3162 -0.1516 -0.3590
  187DOPC   C1222970   5.921   2.775   4.596 -0.1712 -0.3269 -0.1784
  187DOPC  H12A22971   5.953   2.855   4.531 -2.8573  0.1007 -1.1064
  187DOPC  H12B22972   6.001   2.703   4.609 -0.3072 -0.2949  0.9243
  187DOPC   C1322973   5.873   2.630   4.401 -0.1382 -0.2344  0.0689
  187DOPC  H13A22974   5.951   2.557   4.421  0.4241  0.0000 -1.1654
  187DOPC  H13B22975   5.791   2.593   4.341  1.2522 -1.5455 -1.1311
  187DOPC  H13C22976   5.927   2.701   4.341  0.7870 -2.4331 -1.8893
  187DOPC   C1422977   5.705   2.799   4.469 -0.1769 -0.9130  0.0686
  187DOPC  H14A22978   5.684   2.869   4.549 -0.2670 -0.8824  0.0180
  187DOPC  H14B22979   5.729   2.852   4.378 -1.5941  1.9458  1.2155
  187DOPC  H14C22980   5.613   2.744   4.462 -0.5220 -0.1476 -2.3296
  187DOPC   C1522981   5.749   2.600   4.611  0.2239 -0.3182  0.0649
  187DOPC  H15A22982   5.699   2.653   4.690  0.7927  0.5893 -0.1618
  187DOPC  H15B22983   5.829   2.537   4.645  0.1515 -0.3562  0.1661
  187DOPC  H15C22984   5.666   2.549   4.565 -1.6176  2.3253  0.1953
  187DOPC   C1122985   5.878   2.839   4.732 -0.8387  0.3742  0.5635
  187DOPC  H11A22986   5.837   2.758   4.796 -1.1954 -0.1934 -0.3680
  187DOPC  H11B22987   5.963   2.874   4.794  0.2391 -0.9817 -0.0931
  187DOPC     P22988   5.822   3.081   4.704  0.1192  0.3556  0.5958
  187DOPC   O1322989   5.726   3.148   4.618 -0.3839  0.1294 -0.9373
  187DOPC   O1422990   5.964   3.083   4.658  0.1815 -0.1461  0.3553
  187DOPC   O1222991   5.771   2.935   4.712 -0.4258 -0.7480 -0.3680
  187DOPC   O1122992   5.815   3.129   4.857 -0.0590 -0.0932 -0.4536
  187DOPC    C122993   5.687   3.160   4.922  0.5198 -0.6676  0.2617
  187DOPC    HA22994   5.598   3.128   4.864  0.4638 -0.6133  0.3188
  187DOPC    HB22995   5.669   3.267   4.946  0.2634 -0.7884  0.6093
  187DOPC    C222996   5.678   3.084   5.052 -0.1064 -0.1901 -0.9188
  187DOPC    HS22997   5.572   3.081   5.083  0.2921 -0.2557  0.4842
  187DOPC   O2122998   5.769   3.138   5.153  0.1035 -0.2365 -0.4387
  187DOPC   C2122999   5.708   3.229   5.225  0.0140 -0.5115 -0.5255
  187DOPC   O2223000   5.594   3.270   5.210  0.0498 -0.0926 -0.1647
  187DOPC   C2223001   5.809   3.280   5.328 -0.2090  0.7999 -0.6733
  187DOPC   H2R23002   5.863   3.365   5.280 -2.6941  2.2161 -1.0861
  187DOPC   H2S23003   5.869   3.190   5.354 -0.7549  0.5683 -0.2263
  187DOPC    C323004   5.722   2.934   5.040  0.1450 -0.1206  0.9233
  187DOPC    HX23005   5.817   2.932   4.983  2.1362  0.3742  3.9740
  187DOPC    HY23006   5.643   2.887   4.978 -1.2389  1.2813  1.5620
  187DOPC   O3123007   5.730   2.860   5.161 -0.1167 -0.0212  0.4108
  187DOPC   C3123008   5.842   2.870   5.231  0.7196 -0.0598 -0.9581
  187DOPC   O3223009   5.942   2.928   5.200 -0.3957  0.3822 -0.4148
  187DOPC   C3223010   5.818   2.789   5.366 -0.4930  0.3792  0.0442
  187DOPC   H2X23011   5.722   2.734   5.354 -0.5060  0.5371 -0.5730
  187DOPC   H2Y23012   5.897   2.711   5.377 -2.2519 -1.3141  1.4923
  187DOPC   C2323013   5.737   3.336   5.451 -0.2628  0.0114  0.2175
  187DOPC   H3R23014   5.646   3.386   5.413 -0.5339 -0.3436  0.3880
  187DOPC   H3S23015   5.808   3.415   5.482  1.6536 -0.4396 -2.6692
  187DOPC   C2423016   5.697   3.234   5.555 -0.7247  0.1837  0.1276
  187DOPC   H4R23017   5.774   3.163   5.592 -3.5715 -2.2167  1.9065
  187DOPC   H4S23018   5.613   3.173   5.514 -0.6163  0.6517 -0.8152
  187DOPC   C2523019   5.637   3.302   5.672  0.0932 -0.9595 -0.7031
  187DOPC   H5R23020   5.546   3.358   5.641 -0.7079 -0.4259  2.3189
  187DOPC   H5S23021   5.704   3.388   5.694 -0.8282  0.4415 -3.0079
  187DOPC   C2623022   5.594   3.223   5.793  0.4123 -0.3152 -0.0405
  187DOPC   H6R23023   5.687   3.185   5.839  1.0217  0.0179 -0.9637
  187DOPC   H6S23024   5.528   3.140   5.758 -0.3074  0.3957 -0.4127
  187DOPC   C2723025   5.514   3.313   5.892 -0.1985  0.1775  0.4123
  187DOPC   H7R23026   5.462   3.251   5.968 -0.3413  0.8859  0.9075
  187DOPC   H7S23027   5.429   3.358   5.837 -0.4417  1.1901  1.5789
  187DOPC   C2823028   5.600   3.417   5.974  0.1834 -0.2447  0.7237
  187DOPC   H8R23029   5.531   3.478   6.036 -0.9857 -3.0417  2.3431
  187DOPC   H8S23030   5.649   3.485   5.901  0.9205  0.6091  1.9735
  187DOPC   C2923031   5.703   3.364   6.064  0.0161  0.0843 -0.1772
  187DOPC   H9R23032   5.802   3.388   6.025  0.0062  0.3395 -0.0463
  187DOPC  C21023033   5.691   3.299   6.176 -0.6680  0.3205  0.3724
  187DOPC  H10R23034   5.777   3.263   6.235 -1.3496  1.0691  1.8549
  187DOPC  C21123035   5.561   3.249   6.236 -0.1231  0.4887 -0.2350
  187DOPC  H11R23036   5.558   3.138   6.235  4.8074  0.1147  0.1687
  187DOPC  H11S23037   5.471   3.279   6.179 -2.2257 -2.2098  1.3768
  187DOPC  C21223038   5.539   3.294   6.375 -0.4647  0.2374 -0.0755
  187DOPC  H12R23039   5.571   3.400   6.380  2.1125 -0.4113 -1.0186
  187DOPC  H12S23040   5.602   3.238   6.447  1.7497  0.6314 -1.5748
  187DOPC  C21323041   5.386   3.295   6.415 -0.2029  0.2993  0.5010
  187DOPC  H13R23042   5.362   3.186   6.419 -3.1501  0.8110 -0.6105
  187DOPC  H13S23043   5.322   3.346   6.339  1.6055  1.6137 -0.1904
  187DOPC  C21423044   5.378   3.366   6.548  0.0148 -0.2021  0.3972
  187DOPC  H14R23045   5.432   3.462   6.535 -0.1477 -0.2330 -0.5263
  187DOPC  H14S23046   5.424   3.309   6.632 -0.5956 -2.0857 -0.4892
  187DOPC  C21523047   5.236   3.389   6.596  0.2019 -0.4798 -0.0296
  187DOPC  H15R23048   5.184   3.291   6.596  0.2677 -0.5279 -1.2092
  187DOPC  H15S23049   5.171   3.452   6.532  1.2683  0.9001  0.1967
  187DOPC  C21623050   5.236   3.470   6.734  0.1843  0.7287 -0.2073
  187DOPC  H16R23051   5.289   3.401   6.803  0.6027  0.2298 -1.0135
  187DOPC  H16S23052   5.130   3.470   6.768 -0.0110 -1.9702 -0.5952
  187DOPC  C21723053   5.284   3.614   6.734 -0.1960  0.2674  0.1503
  187DOPC  H17R23054   5.203   3.676   6.687 -0.6684 -0.8973 -0.6195
  187DOPC  H17S23055   5.368   3.613   6.662  1.6628 -1.2241  2.2190
  187DOPC  C21823056   5.326   3.677   6.864  0.1512 -0.1643  0.0153
  187DOPC  H18R23057   5.256   3.640   6.942 -1.6037  1.3561 -0.7798
  187DOPC  H18S23058   5.302   3.785   6.871 -0.3758 -0.1587 -1.5969
  187DOPC  H18T23059   5.432   3.654   6.887  0.0095 -0.2609  0.5847
  187DOPC   C3323060   5.806   2.858   5.501  0.0736 -0.4507 -0.7091
  187DOPC   H3X23061   5.743   2.947   5.482  3.0363  1.6879 -1.3117
  187DOPC   H3Y23062   5.900   2.909   5.532 -0.1761  0.5171 -1.4538
  187DOPC   C3423063   5.758   2.769   5.619 -0.6636  0.9994 -0.4886
  187DOPC   H4X23064   5.822   2.678   5.616  0.1465  1.3710  2.5909
  187DOPC   H4Y23065   5.660   2.730   5.585 -1.8429  0.4930  3.0816
  187DOPC   C3523066   5.762   2.848   5.751  0.0114 -0.0292 -0.9591
  187DOPC   H5X23067   5.718   2.949   5.735 -0.3303  0.2459  1.3520
  187DOPC   H5Y23068   5.869   2.857   5.778 -0.6263  0.8412  1.4865
  187DOPC   C3623069   5.682   2.789   5.864  0.1101  0.4048 -0.6465
  187DOPC   H6X23070   5.580   2.772   5.822 -0.5437 -2.6946  1.8078
  187DOPC   H6Y23071   5.721   2.687   5.885 -0.7702  0.0526 -0.6700
  187DOPC   C3723072   5.673   2.871   5.999  0.5042  0.2110  0.5033
  187DOPC   H7X23073   5.610   2.960   5.976  0.9547  0.3227 -0.3480
  187DOPC   H7Y23074   5.612   2.813   6.072 -0.6972 -1.6479 -1.8254
  187DOPC   C3823075   5.808   2.903   6.069  0.7070  0.1925  0.5269
  187DOPC   H8X23076   5.780   2.979   6.146  4.1278  1.0492  1.0596
  187DOPC   H8Y23077   5.876   2.955   5.998 -0.8970  0.2023 -1.0786
  187DOPC   C3923078   5.855   2.765   6.125 -0.1000  0.4407  0.8838
  187DOPC   H9X23079   5.875   2.686   6.052 -1.0229  0.0074  1.0847
  187DOPC  C31023080   5.873   2.732   6.256 -0.0628 -0.4171 -0.1790
  187DOPC  H10X23081   5.908   2.633   6.286 -1.8520 -0.5693  1.6241
  187DOPC  C31123082   5.830   2.825   6.370  0.6675  0.0579 -1.1436
  187DOPC  H11X23083   5.827   2.932   6.339 -2.2996 -0.0735 -1.5802
  187DOPC  H11Y23084   5.898   2.811   6.457  1.8023  0.8858 -1.8585
  187DOPC  C31223085   5.693   2.814   6.443 -0.2871  0.3214 -0.0711
  187DOPC  H12X23086   5.613   2.841   6.371 -0.2234 -0.0614 -0.2841
  187DOPC  H12Y23087   5.693   2.892   6.523  2.3074  2.4806 -2.0019
  187DOPC  C31323088   5.658   2.674   6.494 -0.3641  0.0409 -0.3442
  187DOPC  H13X23089   5.611   2.602   6.422 -0.2044 -0.7693  0.3496
  187DOPC  H13Y23090   5.755   2.632   6.528 -2.4862 -3.2284  2.3167
  187DOPC  C31423091   5.572   2.681   6.621  0.0919  0.2357  0.7454
  187DOPC  H14X23092   5.615   2.753   6.693 -0.9288  1.2395  0.3839
  187DOPC  H14Y23093   5.478   2.732   6.591  0.5890 -0.4513 -2.3346
  187DOPC  C31523094   5.526   2.549   6.685 -0.5938 -0.4271 -0.0114
  187DOPC  H15X23095   5.466   2.574   6.775  0.1577  0.1456  0.3431
  187DOPC  H15Y23096   5.609   2.490   6.730 -1.2303  0.2892  2.2442
  187DOPC  C31623097   5.455   2.453   6.591  0.1557  0.1857  0.0586
  187DOPC  H16X23098   5.348   2.483   6.587 -0.2852 -1.3208 -0.0350
  187DOPC  H16Y23099   5.491   2.439   6.487  1.5363 -2.7038  0.8200
  187DOPC  C31723100   5.452   2.320   6.659  0.4578  0.6881 -0.1040
  187DOPC  H17X23101   5.557   2.293   6.685  1.1136  2.0977 -1.1489
  187DOPC  H17Y23102   5.391   2.319   6.752  2.4719 -1.0629  1.3230
  187DOPC  C31823103   5.397   2.201   6.575 -0.1809  0.3777  0.1414
  187DOPC  H18X23104   5.464   2.173   6.492  0.4014  1.5622  0.1952
  187DOPC  H18Y23105   5.396   2.118   6.649  0.1266  0.9533  0.8038
  187DOPC  H18Z23106   5.290   2.220   6.549 -0.3773  0.3876  0.9242
  188DOPC     N23107   2.191   3.081   4.087 -0.0526 -0.2272  0.0768
  188DOPC   C1223108   2.227   3.036   4.230  0.5605 -0.1550  0.1891
  188DOPC  H12A23109   2.304   2.960   4.229  0.7019 -0.0833  1.9020
  188DOPC  H12B23110   2.143   2.980   4.268  0.8728  0.8895  2.6112
  188DOPC   C1323111   2.073   3.181   4.094  0.5451  0.7674 -0.3797
  188DOPC  H13A23112   1.986   3.123   4.120 -0.2110  0.5506 -3.0509
  188DOPC  H13B23113   2.101   3.255   4.167 -0.6246 -1.0060  1.9796
  188DOPC  H13C23114   2.041   3.219   3.998 -0.0802  1.2023 -0.0099
  188DOPC   C1423115   2.134   2.958   4.012  0.3679 -0.2123 -0.4119
  188DOPC  H14A23116   2.134   2.972   3.905 -0.1296 -1.7378 -0.6310
  188DOPC  H14B23117   2.202   2.874   4.012  1.1805  0.3942 -2.2080
  188DOPC  H14C23118   2.036   2.924   4.042  0.9562 -2.0705 -0.4559
  188DOPC   C1523119   2.313   3.135   4.020  0.3947 -0.2173  0.3487
  188DOPC  H15A23120   2.296   3.212   3.946  3.3048  0.4057  0.2004
  188DOPC  H15B23121   2.360   3.052   3.970 -0.4409 -0.7525  0.4382
  188DOPC  H15C23122   2.378   3.160   4.103  0.3632  1.4637 -0.0890
  188DOPC   C1123123   2.255   3.141   4.341  0.3705 -0.2351 -0.7105
  188DOPC  H11A23124   2.167   3.199   4.376  1.0074 -0.4945  1.5273
  188DOPC  H11B23125   2.283   3.071   4.424  4.0477  0.9010 -0.8120
  188DOPC     P23126   2.376   3.368   4.299 -0.4879 -0.0906 -0.4447
  188DOPC   O1323127   2.267   3.405   4.207  0.2883  0.1608  0.3900
  188DOPC   O1423128   2.510   3.415   4.259 -0.2107 -0.2594  0.1540
  188DOPC   O1223129   2.380   3.211   4.310 -0.1466  0.5630 -0.0203
  188DOPC   O1123130   2.352   3.423   4.449  0.7367  0.3203 -0.2783
  188DOPC    C123131   2.449   3.410   4.551 -0.5781  0.2868  0.3927
  188DOPC    HA23132   2.505   3.505   4.562 -0.9397  0.4348  0.9803
  188DOPC    HB23133   2.513   3.320   4.538  0.2133  0.9982 -0.8025
  188DOPC    C223134   2.382   3.381   4.694  0.2827 -0.4847  0.0964
  188DOPC    HS23135   2.346   3.481   4.724  1.3761  0.2791 -1.0700
  188DOPC   O2123136   2.482   3.336   4.787  0.1920 -0.3428 -0.5942
  188DOPC   C2123137   2.451   3.363   4.916  0.3699  0.5862 -0.2083
  188DOPC   O2223138   2.346   3.417   4.951 -0.3570  0.1056  0.0988
  188DOPC   C2223139   2.562   3.323   5.005 -0.2160  0.8306  0.0463
  188DOPC   H2R23140   2.631   3.410   5.013  1.2271 -0.3981  2.1414
  188DOPC   H2S23141   2.624   3.242   4.960 -0.6236 -0.2586  1.3669
  188DOPC    C323142   2.257   3.281   4.697  0.2405  0.1975 -0.1414
  188DOPC    HX23143   2.184   3.318   4.622  0.0009  1.1564  0.5430
  188DOPC    HY23144   2.211   3.318   4.791 -1.6601  1.7780 -1.6105
  188DOPC   O3123145   2.300   3.137   4.698  0.0263  0.1319  0.1980
  188DOPC   C3123146   2.223   3.053   4.776  0.3107 -0.2275 -0.0834
  188DOPC   O3223147   2.139   3.098   4.851 -0.0529 -0.4818 -0.0451
  188DOPC   C3223148   2.235   2.908   4.722 -0.4023 -0.7067  0.5430
  188DOPC   H2X23149   2.219   2.919   4.613  1.3703  1.2886  0.4214
  188DOPC   H2Y23150   2.345   2.891   4.719 -0.2989 -0.3647  1.7213
  188DOPC   C2323151   2.508   3.292   5.153 -0.3045  0.0370 -0.1194
  188DOPC   H3R23152   2.483   3.184   5.150 -3.0980  0.6033 -0.3842
  188DOPC   H3S23153   2.413   3.346   5.171  1.0014  2.2144  0.6187
  188DOPC   C2423154   2.613   3.317   5.258 -0.3335 -0.6088 -0.4097
  188DOPC   H4R23155   2.637   3.425   5.272  1.7080 -1.0442 -0.1363
  188DOPC   H4S23156   2.709   3.273   5.224 -0.8350 -3.1509  1.1538
  188DOPC   C2523157   2.590   3.248   5.393 -0.1168  0.0682 -0.7214
  188DOPC   H5R23158   2.557   3.143   5.381 -0.9465  0.3175 -0.6646
  188DOPC   H5S23159   2.509   3.301   5.447 -0.6702  0.6532 -2.0794
  188DOPC   C2623160   2.713   3.253   5.487  0.4446  0.1793  0.0780
  188DOPC   H6R23161   2.760   3.351   5.465  0.7553  0.1760  0.6898
  188DOPC   H6S23162   2.794   3.186   5.452  0.9700  1.1451 -0.5919
  188DOPC   C2723163   2.692   3.229   5.639  0.2542 -0.4686  0.2265
  188DOPC   H7R23164   2.639   3.313   5.689  1.0567  0.7134 -0.8345
  188DOPC   H7S23165   2.791   3.215   5.688  1.1643 -0.1977 -1.4552
  188DOPC   C2823166   2.599   3.111   5.665  0.3781  0.4581  0.8202
  188DOPC   H8R23167   2.502   3.142   5.619  0.4403  1.5469  1.3750
  188DOPC   H8S23168   2.577   3.118   5.774  2.3592 -4.0577  1.7261
  188DOPC   C2923169   2.658   2.976   5.630  0.0185 -0.1986  0.5197
  188DOPC   H9R23170   2.658   2.943   5.525  0.9245 -0.6742  0.6565
  188DOPC  C21023171   2.717   2.896   5.718  0.6434 -0.6627 -0.0513
  188DOPC  H10R23172   2.749   2.794   5.694  0.2944 -0.9269  0.5890
  188DOPC  C21123173   2.708   2.930   5.864 -0.6942  0.0618 -0.3818
  188DOPC  H11R23174   2.602   2.945   5.892  0.0404  2.5035  1.4743
  188DOPC  H11S23175   2.756   3.026   5.891  0.5132 -0.6698  0.1263
  188DOPC  C21223176   2.750   2.817   5.959 -0.4551  0.0007  0.0497
  188DOPC  H12R23177   2.862   2.819   5.963 -0.4419  3.4820  1.3497
  188DOPC  H12S23178   2.721   2.717   5.919  2.9665 -1.3161  0.5018
  188DOPC  C21323179   2.707   2.831   6.108 -0.0168  0.2258 -0.1293
  188DOPC  H13R23180   2.597   2.843   6.098 -0.0010  0.4507 -0.0436
  188DOPC  H13S23181   2.741   2.929   6.149 -1.6108  0.7532 -0.0103
  188DOPC  C21423182   2.739   2.712   6.194 -0.4608 -0.3724 -0.0734
  188DOPC  H14R23183   2.848   2.694   6.201 -0.2555  1.3621  2.7700
  188DOPC  H14S23184   2.687   2.623   6.153 -2.2743  0.4251  0.3807
  188DOPC  C21523185   2.698   2.725   6.343  0.7255 -0.3882  0.0327
  188DOPC  H15R23186   2.715   2.624   6.386  2.3415  0.0374  0.4677
  188DOPC  H15S23187   2.591   2.751   6.331  0.4034 -0.9969  1.3860
  188DOPC  C21623188   2.771   2.835   6.416 -0.1025 -0.3561 -0.4559
  188DOPC  H16R23189   2.747   2.927   6.359 -1.7554 -0.1232  0.5595
  188DOPC  H16S23190   2.878   2.813   6.393 -0.5530 -0.5702 -2.6053
  188DOPC  C21723191   2.728   2.863   6.562  0.6405  0.4205  0.3742
  188DOPC  H17R23192   2.686   2.770   6.607  0.1753 -0.9772 -2.6778
  188DOPC  H17S23193   2.637   2.926   6.556 -1.3689 -2.4015 -1.8153
  188DOPC  C21823194   2.844   2.938   6.644  0.0394 -0.1389  0.0413
  188DOPC  H18R23195   2.809   2.977   6.741 -0.3421  1.0584 -0.5644
  188DOPC  H18S23196   2.873   3.024   6.580 -1.3419 -0.9933 -1.8296
  188DOPC  H18T23197   2.923   2.860   6.657 -1.3054 -1.5702 -0.0833
  188DOPC   C3323198   2.159   2.798   4.793 -0.0247  0.5801  0.0024
  188DOPC   H3X23199   2.187   2.696   4.759 -1.5849 -0.0959  0.6052
  188DOPC   H3Y23200   2.049   2.808   4.782 -0.1690 -2.0304 -1.9852
  188DOPC   C3423201   2.198   2.788   4.942  0.5125 -0.1315 -0.1215
  188DOPC   H4X23202   2.147   2.697   4.980 -0.1177 -0.8169 -2.4149
  188DOPC   H4Y23203   2.157   2.882   4.984  1.0457  0.6695 -1.3077
  188DOPC   C3523204   2.354   2.793   4.961 -0.3502 -0.3087 -0.3411
  188DOPC   H5X23205   2.392   2.883   4.908  1.6003  0.0194  1.4953
  188DOPC   H5Y23206   2.404   2.707   4.913  0.0184  0.6393 -1.7401
  188DOPC   C3623207   2.398   2.812   5.103  0.1306 -0.2405 -0.1063
  188DOPC   H6X23208   2.509   2.823   5.104  0.0219  1.3840 -1.4761
  188DOPC   H6Y23209   2.347   2.903   5.141 -1.7464 -1.1168 -0.4483
  188DOPC   C3723210   2.347   2.694   5.183  0.5198 -0.5044  0.0277
  188DOPC   H7X23211   2.237   2.711   5.189  0.6612  0.2026  0.7358
  188DOPC   H7Y23212   2.360   2.605   5.117 -0.4103 -1.0727  0.5882
  188DOPC   C3823213   2.431   2.683   5.306  0.8402 -0.5703 -0.1484
  188DOPC   H8X23214   2.422   2.780   5.361  1.7686 -0.1760 -0.6729
  188DOPC   H8Y23215   2.533   2.668   5.266  1.6098  0.9688  1.1189
  188DOPC   C3923216   2.389   2.561   5.392  0.6822 -0.0544 -0.0699
  188DOPC   H9X23217   2.364   2.477   5.326 -1.7819  0.0688  0.5671
  188DOPC  C31023218   2.363   2.547   5.524  0.3562 -0.0269 -0.2587
  188DOPC  H10X23219   2.343   2.444   5.559  2.0567 -0.5550 -0.7695
  188DOPC  C31123220   2.372   2.654   5.633 -0.0834  0.0475  0.1519
  188DOPC  H11X23221   2.278   2.678   5.687  0.5264  0.6571  0.9582
  188DOPC  H11Y23222   2.414   2.745   5.585 -1.3569  0.3295 -0.4705
  188DOPC  C31223223   2.471   2.604   5.744 -0.3616  0.1606 -0.5374
  188DOPC  H12X23224   2.484   2.690   5.813 -0.6224 -0.3173  0.1170
  188DOPC  H12Y23225   2.571   2.593   5.697 -0.7513 -0.6112 -1.2214
  188DOPC  C31323226   2.419   2.488   5.811 -0.1161 -0.0540 -0.1069
  188DOPC  H13X23227   2.310   2.500   5.831 -0.1145  1.8583 -0.9916
  188DOPC  H13Y23228   2.442   2.396   5.755  1.1055  0.5178 -0.5812
  188DOPC  C31423229   2.479   2.475   5.948 -0.7384 -0.6544 -0.2479
  188DOPC  H14X23230   2.587   2.489   5.931 -1.3222  0.5299 -4.0388
  188DOPC  H14Y23231   2.444   2.561   6.009 -0.5534  0.2610 -1.4074
  188DOPC  C31523232   2.442   2.344   6.016 -0.6564 -0.2043  0.1534
  188DOPC  H15X23233   2.468   2.266   5.940  1.1106 -0.1839  0.7039
  188DOPC  H15Y23234   2.333   2.336   6.035 -0.3586 -0.2991  2.0366
  188DOPC  C31623235   2.511   2.314   6.147 -0.0675 -0.2106  0.1853
  188DOPC  H16X23236   2.615   2.352   6.157 -0.8277  2.1106 -0.1558
  188DOPC  H16Y23237   2.451   2.369   6.223 -0.4389 -1.2689  0.6936
  188DOPC  C31723238   2.512   2.169   6.177  1.1631  0.0771  0.5431
  188DOPC  H17X23239   2.411   2.123   6.180  1.1719 -0.1672 -1.4641
  188DOPC  H17Y23240   2.562   2.120   6.091  2.0746 -0.9038  1.5900
  188DOPC  C31823241   2.577   2.134   6.313  0.4095  0.1199  0.2633
  188DOPC  H18X23242   2.529   2.191   6.395  0.3833  0.9789 -0.3312
  188DOPC  H18Y23243   2.578   2.027   6.342  1.5594 -0.6213 -2.2246
  188DOPC  H18Z23244   2.684   2.165   6.319  0.3643  0.2812  0.2426
  189DOPC     N23245   3.759   0.909   3.188  0.1518 -0.5530 -0.6004
  189DOPC   C1223246   3.743   0.776   3.259 -0.3805  0.0626  0.2738
  189DOPC  H12A23247   3.805   0.697   3.219 -0.9213 -1.2408  1.9149
  189DOPC  H12B23248   3.645   0.736   3.239 -0.0199 -1.9935  2.2259
  189DOPC   C1323249   3.892   0.963   3.219  0.1608 -0.4420 -0.0756
  189DOPC  H13A23250   3.918   0.944   3.322  1.8175  1.1697 -0.1516
  189DOPC  H13B23251   3.971   0.916   3.163  0.9294  1.4483 -0.6686
  189DOPC  H13C23252   3.886   1.070   3.206 -2.9329 -0.4035  0.8852
  189DOPC   C1423253   3.644   0.996   3.230  0.6498  0.1322 -0.0324
  189DOPC  H14A23254   3.656   1.019   3.335 -0.4157 -1.4620  0.4738
  189DOPC  H14B23255   3.658   1.091   3.181 -1.5573  2.0816  2.7534
  189DOPC  H14C23256   3.548   0.953   3.205  0.2758  0.6286  0.5087
  189DOPC   C1523257   3.750   0.887   3.043 -0.0026 -0.0226  0.4441
  189DOPC  H15A23258   3.806   0.803   3.004  0.2285  0.0595  0.5967
  189DOPC  H15B23259   3.765   0.981   2.992  1.8436 -1.3468 -1.6009
  189DOPC  H15C23260   3.646   0.865   3.020 -0.3554  2.3604 -0.4727
  189DOPC   C1123261   3.767   0.774   3.408 -0.2841  0.5093 -0.2597
  189DOPC  H11A23262   3.727   0.862   3.462  0.6934 -0.7506  2.7427
  189DOPC  H11B23263   3.708   0.690   3.450 -0.2824  1.5289  1.9629
  189DOPC     P23264   3.986   0.657   3.491  0.4870  0.1892  0.0303
  189DOPC   O1323265   4.112   0.706   3.555 -0.0072  0.5316  0.4931
  189DOPC   O1423266   3.995   0.555   3.376 -0.2027 -0.4004 -0.2437
  189DOPC   O1223267   3.907   0.778   3.448  1.3814 -0.0464  0.1071
  189DOPC   O1123268   3.900   0.587   3.600  0.2915 -0.1987  0.0530
  189DOPC    C123269   3.863   0.647   3.728  0.5919  0.3534  0.6892
  189DOPC    HA23270   3.783   0.587   3.776  0.2652 -0.7939 -1.1480
  189DOPC    HB23271   3.823   0.751   3.725  0.9948  0.6090  2.9108
  189DOPC    C223272   3.980   0.650   3.833 -0.4502  1.1053  0.8158
  189DOPC    HS23273   4.059   0.722   3.801  0.2232 -0.7486 -2.1567
  189DOPC   O2123274   4.031   0.522   3.850  0.6107 -0.0560  0.3458
  189DOPC   C2123275   4.157   0.507   3.884 -0.2926 -0.9637  0.3945
  189DOPC   O2223276   4.240   0.599   3.890  0.0689  0.7324  0.0530
  189DOPC   C2223277   4.194   0.367   3.922  0.0844 -0.2916  0.7056
  189DOPC   H2R23278   4.300   0.365   3.953 -0.4065 -0.3688  2.5100
  189DOPC   H2S23279   4.187   0.306   3.829 -0.0919  1.3670 -0.4197
  189DOPC    C323280   3.926   0.700   3.976  0.0259  0.6678 -0.4562
  189DOPC    HX23281   3.842   0.634   4.007  0.7522 -0.9548 -1.7463
  189DOPC    HY23282   3.891   0.803   3.953 -0.8188  1.0312  2.1950
  189DOPC   O3123283   4.024   0.695   4.082 -0.2432  0.3563  0.0081
  189DOPC   C3123284   4.107   0.792   4.094 -0.3431 -0.1162 -0.7375
  189DOPC   O3223285   4.107   0.896   4.034  0.1471  0.5040  0.8674
  189DOPC   C3223286   4.223   0.748   4.188 -0.4132  0.7026  0.2833
  189DOPC   H2X23287   4.212   0.642   4.220  0.7238  0.0557 -1.3309
  189DOPC   H2Y23288   4.320   0.752   4.133  0.4369 -4.0726  0.9988
  189DOPC   C2323289   4.114   0.306   4.040 -0.1192 -0.8894  0.8425
  189DOPC   H3R23290   4.128   0.196   4.031 -0.8308 -0.8332 -1.5842
  189DOPC   H3S23291   4.005   0.322   4.026  0.2625  0.7353 -0.7305
  189DOPC   C2423292   4.155   0.367   4.175 -0.1892 -0.0159  0.4317
  189DOPC   H4R23293   4.197   0.465   4.143 -0.2214  0.1661  0.9368
  189DOPC   H4S23294   4.239   0.313   4.224  0.9630  1.9549  0.7307
  189DOPC   C2523295   4.046   0.392   4.283 -0.2966 -0.4242  0.1028
  189DOPC   H5R23296   4.005   0.289   4.292 -1.4119 -0.2393 -2.0918
  189DOPC   H5S23297   3.973   0.459   4.232 -0.6171 -0.6706  0.2331
  189DOPC   C2623298   4.100   0.441   4.410  0.0612 -0.8971 -0.0233
  189DOPC   H6R23299   4.149   0.540   4.399  0.5122 -1.0458  0.6216
  189DOPC   H6S23300   4.182   0.382   4.456  0.3554 -0.5045 -0.0430
  189DOPC   C2723301   3.981   0.449   4.514  0.1652 -0.0081 -1.0738
  189DOPC   H7R23302   3.919   0.359   4.495 -2.1881  0.5678  2.6837
  189DOPC   H7S23303   3.913   0.534   4.489  0.4720  0.5938  0.0921
  189DOPC   C2823304   4.037   0.462   4.656 -0.2366 -0.3339  0.6314
  189DOPC   H8R23305   4.111   0.381   4.676  2.0221  0.9088 -2.0116
  189DOPC   H8S23306   3.942   0.445   4.710 -2.2360  2.8858 -1.5511
  189DOPC   C2923307   4.098   0.593   4.695 -0.7591  0.0047  0.8034
  189DOPC   H9R23308   4.074   0.673   4.624  0.7969 -0.1739  0.0320
  189DOPC  C21023309   4.189   0.607   4.790 -0.6682  0.3548  0.2407
  189DOPC  H10R23310   4.217   0.711   4.808  2.7605 -0.6461  1.5516
  189DOPC  C21123311   4.253   0.507   4.883  0.2213 -0.1592 -0.6984
  189DOPC  H11R23312   4.363   0.509   4.868  0.3846 -0.1004  0.4307
  189DOPC  H11S23313   4.220   0.403   4.863 -0.8154  0.1560 -0.6980
  189DOPC  C21223314   4.227   0.530   5.031  0.3436 -0.4283 -0.0379
  189DOPC  H12R23315   4.205   0.636   5.054  0.7968 -0.7140  1.8008
  189DOPC  H12S23316   4.307   0.484   5.092 -1.5943 -2.7139  0.9713
  189DOPC  C21323317   4.095   0.461   5.075  0.6416  0.2089  0.5760
  189DOPC  H13R23318   4.112   0.353   5.056  3.3581  0.0406  3.1830
  189DOPC  H13S23319   4.015   0.495   5.006 -1.1381 -0.7539  2.0693
  189DOPC  C21423320   4.062   0.481   5.217 -0.4962  0.4346 -0.6209
  189DOPC  H14R23321   4.142   0.436   5.280  0.0138 -0.4332 -1.8429
  189DOPC  H14S23322   3.972   0.417   5.234  0.9179 -1.8410 -1.1810
  189DOPC  C21523323   4.026   0.626   5.257 -0.3967 -0.0887  0.1021
  189DOPC  H15R23324   3.976   0.668   5.167  0.1737 -0.0670 -0.2093
  189DOPC  H15S23325   4.119   0.685   5.273  0.2093 -1.1575  0.6125
  189DOPC  C21623326   3.936   0.637   5.378  0.7264 -0.2651  0.5993
  189DOPC  H16R23327   3.985   0.602   5.471 -0.8959 -1.7813  0.9421
  189DOPC  H16S23328   3.851   0.566   5.362 -0.1106  1.3080 -3.0072
  189DOPC  C21723329   3.861   0.775   5.401  0.1331 -0.2531  0.1223
  189DOPC  H17R23330   3.948   0.840   5.422  0.4254 -0.0255 -1.6191
  189DOPC  H17S23331   3.793   0.756   5.487 -1.4627 -0.9944 -1.2581
  189DOPC  C21823332   3.780   0.824   5.284 -0.2757 -0.2203 -0.2460
  189DOPC  H18R23333   3.847   0.839   5.196 -0.8668  1.5558 -0.4358
  189DOPC  H18S23334   3.737   0.924   5.305 -2.2538 -1.3997  1.8066
  189DOPC  H18T23335   3.699   0.755   5.254  0.5885 -0.4755 -2.1017
  189DOPC   C3323336   4.231   0.831   4.318  0.4462  0.0930  0.1538
  189DOPC   H3X23337   4.138   0.810   4.374  1.1298 -2.7206  0.3685
  189DOPC   H3Y23338   4.234   0.937   4.283  0.0299  0.2351  0.5408
  189DOPC   C3423339   4.356   0.798   4.407  0.1415 -1.1649  0.0326
  189DOPC   H4X23340   4.451   0.819   4.354  0.5963 -0.5733  1.0500
  189DOPC   H4Y23341   4.352   0.694   4.444 -0.8603 -0.9029  0.7269
  189DOPC   C3523342   4.377   0.897   4.524 -0.2479 -0.2156 -0.3278
  189DOPC   H5X23343   4.281   0.939   4.560 -0.5405 -1.1644  0.0498
  189DOPC   H5Y23344   4.431   0.986   4.487  0.1646 -0.2531  0.1661
  189DOPC   C3623345   4.447   0.839   4.645 -0.2427  0.2767 -0.0746
  189DOPC   H6X23346   4.385   0.752   4.678 -0.8141  1.1431  1.2070
  189DOPC   H6Y23347   4.550   0.809   4.617  0.2673  0.7812  1.1840
  189DOPC   C3723348   4.453   0.932   4.767 -1.3391  0.0626  0.1548
  189DOPC   H7X23349   4.499   1.029   4.738 -0.6074  0.5046  2.5586
  189DOPC   H7Y23350   4.350   0.953   4.803 -0.9068 -0.8052  1.9982
  189DOPC   C3823351   4.552   0.874   4.873  0.0347  0.1846  0.0925
  189DOPC   H8X23352   4.587   0.961   4.933  1.0221 -1.7521  2.4728
  189DOPC   H8Y23353   4.643   0.852   4.814 -0.4967 -0.7955 -0.3884
  189DOPC   C3923354   4.492   0.752   4.947 -0.7928 -0.4654 -0.1637
  189DOPC   H9X23355   4.439   0.685   4.878  2.4125 -0.1105 -3.2736
  189DOPC  C31023356   4.495   0.736   5.084  0.1099 -0.2022 -1.0122
  189DOPC  H10X23357   4.435   0.658   5.133 -0.5235  1.1989  0.5458
  189DOPC  C31123358   4.560   0.824   5.190  0.5438 -0.3571  0.6811
  189DOPC  H11X23359   4.476   0.855   5.256 -0.5204 -2.3185  0.3269
  189DOPC  H11Y23360   4.608   0.918   5.156 -0.5106 -0.3242 -0.8322
  189DOPC  C31223361   4.673   0.758   5.267 -0.2047 -0.3361  0.0158
  189DOPC  H12X23362   4.725   0.835   5.328 -0.1018 -0.1366 -0.3211
  189DOPC  H12Y23363   4.741   0.712   5.192  0.5069  0.2257  0.3078
  189DOPC  C31323364   4.620   0.649   5.351  0.4672  0.5705 -0.8723
  189DOPC  H13X23365   4.509   0.653   5.353  0.4630  0.4329  0.5756
  189DOPC  H13Y23366   4.642   0.547   5.312  0.2756 -0.5959  1.8282
  189DOPC  C31423367   4.674   0.648   5.496 -0.2636 -0.4415 -0.0777
  189DOPC  H14X23368   4.775   0.603   5.498 -0.5698 -1.1406  0.0100
  189DOPC  H14Y23369   4.667   0.757   5.515  1.0825 -0.4831  0.7900
  189DOPC  C31523370   4.586   0.568   5.595  0.1413 -0.3837  0.2808
  189DOPC  H15X23371   4.554   0.469   5.558 -2.7428 -0.5040  2.7004
  189DOPC  H15Y23372   4.497   0.630   5.619  0.1961 -0.2305  0.0918
  189DOPC  C31623373   4.656   0.548   5.730  0.2830  0.8265 -0.0612
  189DOPC  H16X23374   4.746   0.487   5.708 -0.9684 -1.1024 -0.0287
  189DOPC  H16Y23375   4.686   0.650   5.762 -1.1157  1.9190 -1.9708
  189DOPC  C31723376   4.554   0.479   5.832 -0.3013 -0.4915  0.7436
  189DOPC  H17X23377   4.456   0.531   5.826  0.0654  0.1104 -0.2020
  189DOPC  H17Y23378   4.538   0.375   5.797  0.6243 -1.7576  3.7470
  189DOPC  C31823379   4.598   0.462   5.977  0.0504 -0.2337  0.4391
  189DOPC  H18X23380   4.599   0.553   6.041 -2.6570 -0.4533  0.8723
  189DOPC  H18Y23381   4.516   0.405   6.023 -2.9377  1.1768 -2.6788
  189DOPC  H18Z23382   4.693   0.405   5.992  0.9972  1.0504 -0.4003
  190DOPC     N23383   3.389   2.228   3.452  0.0523 -0.6174  0.2017
  190DOPC   C1223384   3.329   2.174   3.583 -0.7413 -0.9730  0.5572
  190DOPC  H12A23385   3.362   2.072   3.596 -0.5318 -1.2177 -1.4499
  190DOPC  H12B23386   3.223   2.169   3.560 -0.9412  2.2652  0.2765
  190DOPC   C1323387   3.330   2.149   3.338 -0.5362 -0.5645 -0.4058
  190DOPC  H13A23388   3.375   2.173   3.243  0.5574 -1.2850 -0.0743
  190DOPC  H13B23389   3.343   2.045   3.360  0.2880 -1.4097 -4.2027
  190DOPC  H13C23390   3.226   2.180   3.335 -1.0307 -2.1081  0.2357
  190DOPC   C1423391   3.537   2.211   3.443  0.2128 -0.2318 -0.4728
  190DOPC  H14A23392   3.586   2.238   3.535 -0.1014 -0.9768 -0.0874
  190DOPC  H14B23393   3.564   2.111   3.413 -0.9194 -0.9716  0.8781
  190DOPC  H14C23394   3.577   2.275   3.365 -0.3170  0.9311  0.1860
  190DOPC   C1523395   3.351   2.374   3.426 -0.1978 -0.8864 -0.8794
  190DOPC  H15A23396   3.414   2.408   3.345  0.8128  0.6538  0.5143
  190DOPC  H15B23397   3.379   2.432   3.512 -1.1610 -2.1091  0.3031
  190DOPC  H15C23398   3.244   2.385   3.413 -0.2819  0.3538  0.6528
  190DOPC   C1123399   3.347   2.265   3.707  0.2348  0.0404 -0.4506
  190DOPC  H11A23400   3.454   2.294   3.720  1.3646 -4.0822  0.9996
  190DOPC  H11B23401   3.279   2.352   3.692 -0.6967 -0.3516  1.2570
  190DOPC     P23402   3.402   2.087   3.899  0.2911 -0.5397 -0.1289
  190DOPC   O1323403   3.532   2.151   3.926  0.0977 -0.1667  0.1289
  190DOPC   O1423404   3.398   1.958   3.830 -0.4922  0.5896 -0.7466
  190DOPC   O1223405   3.310   2.192   3.823 -0.4977 -0.0316 -0.0187
  190DOPC   O1123406   3.331   2.066   4.033  0.3858 -0.0363  0.0207
  190DOPC    C123407   3.205   2.006   4.048  0.0912 -0.3394  0.1568
  190DOPC    HA23408   3.211   1.900   4.083 -0.6146 -0.1070  1.0151
  190DOPC    HB23409   3.147   2.014   3.954  2.1138  0.6970 -1.0730
  190DOPC    C223410   3.125   2.080   4.159 -0.0197 -0.0849  0.5257
  190DOPC    HS23411   3.141   2.189   4.148 -0.3108  0.2085  2.5788
  190DOPC   O2123412   3.158   2.034   4.290  0.1786 -0.0766  0.0931
  190DOPC   C2123413   3.153   2.122   4.391 -0.1968 -0.0368  0.3372
  190DOPC   O2223414   3.112   2.232   4.382 -0.2418 -0.2345  0.0229
  190DOPC   C2223415   3.196   2.066   4.521  0.5978 -0.5168  1.0523
  190DOPC   H2R23416   3.303   2.096   4.529  0.4185  0.9162 -1.2866
  190DOPC   H2S23417   3.185   1.956   4.506 -1.0772 -0.4043  1.2566
  190DOPC    C323418   2.970   2.061   4.133  0.1357 -0.9321  0.0917
  190DOPC    HX23419   2.971   1.952   4.112 -0.9501 -0.4047 -3.2110
  190DOPC    HY23420   2.953   2.114   4.037 -1.6233 -2.5112 -0.5185
  190DOPC   O3123421   2.889   2.106   4.244 -0.2659  0.0703 -0.5401
  190DOPC   C3123422   2.759   2.097   4.222 -0.0166 -0.5880  0.3763
  190DOPC   O3223423   2.711   2.060   4.114  0.4133  0.7847  0.8168
  190DOPC   C3223424   2.670   2.149   4.337 -1.1121 -0.8144 -0.0726
  190DOPC   H2X23425   2.684   2.259   4.338  0.0965 -0.9538 -0.1220
  190DOPC   H2Y23426   2.563   2.126   4.318 -1.3948  0.9592 -0.8314
  190DOPC   C2323427   3.115   2.103   4.648 -0.1631 -0.3162 -0.4342
  190DOPC   H3R23428   3.006   2.116   4.633 -0.6408 -1.6047  1.5588
  190DOPC   H3S23429   3.160   2.197   4.688 -0.8568  0.8463 -2.2649
  190DOPC   C2423430   3.121   1.993   4.754  0.0952 -0.0077 -0.2736
  190DOPC   H4R23431   3.228   1.966   4.767 -0.0975 -0.8350 -0.3504
  190DOPC   H4S23432   3.073   1.898   4.722 -0.4556  0.7789 -1.8761
  190DOPC   C2523433   3.047   2.051   4.876 -0.3636 -0.2948 -0.0207
  190DOPC   H5R23434   2.950   2.091   4.839 -0.6958 -0.8496  0.2506
  190DOPC   H5S23435   3.094   2.144   4.914 -0.6696  0.2937 -1.0420
  190DOPC   C2623436   3.023   1.961   4.995  0.4753  0.4973  0.2889
  190DOPC   H6R23437   3.110   1.906   5.036  2.4654  2.7848 -0.6562
  190DOPC   H6S23438   2.950   1.884   4.960  2.4369 -1.2868 -0.0333
  190DOPC   C2723439   2.972   2.045   5.110  0.1583 -0.0839  0.2534
  190DOPC   H7R23440   2.882   2.101   5.076  0.7117 -0.7158 -2.5804
  190DOPC   H7S23441   3.052   2.117   5.138  0.4504 -0.8604  1.4676
  190DOPC   C2823442   2.947   1.965   5.242  0.5712 -0.0850  0.0784
  190DOPC   H8R23443   2.874   1.882   5.238  0.2819  0.1357  0.6797
  190DOPC   H8S23444   2.904   2.039   5.313  0.7054 -2.7467  3.1430
  190DOPC   C2923445   3.067   1.901   5.302  0.7167 -0.0753  0.0481
  190DOPC   H9R23446   3.138   1.864   5.226 -0.5199  2.0719 -2.2929
  190DOPC  C21023447   3.083   1.868   5.429 -0.1398 -0.1828 -0.4597
  190DOPC  H10R23448   3.168   1.809   5.466 -1.7451 -1.2809  1.7469
  190DOPC  C21123449   2.979   1.900   5.538  0.3301  0.0032  0.1912
  190DOPC  H11R23450   2.874   1.922   5.511 -0.1127 -0.1199  1.6951
  190DOPC  H11S23451   3.023   1.986   5.592  3.3161 -0.5550 -1.1421
  190DOPC  C21223452   2.968   1.791   5.651 -0.3010  0.5445  0.9488
  190DOPC  H12R23453   2.939   1.696   5.601  2.0915  0.0632  0.3741
  190DOPC  H12S23454   2.887   1.817   5.723  0.2665 -1.4927  2.4053
  190DOPC  C21323455   3.090   1.773   5.735  0.1556 -1.2206  0.4460
  190DOPC  H13R23456   3.118   1.869   5.784 -1.9607  0.0800 -0.7346
  190DOPC  H13S23457   3.175   1.738   5.673  1.0861  2.0782 -0.3232
  190DOPC  C21423458   3.071   1.665   5.838 -0.5308 -0.0159  0.7011
  190DOPC  H14R23459   3.071   1.564   5.791  1.2174  0.0818  0.4552
  190DOPC  H14S23460   2.974   1.670   5.893 -0.8245 -3.1064  0.6315
  190DOPC  C21523461   3.182   1.674   5.944 -0.1734 -0.5568 -0.1033
  190DOPC  H15R23462   3.179   1.779   5.981 -1.5218 -1.1395  1.5967
  190DOPC  H15S23463   3.285   1.659   5.907  0.3572  0.8317  0.7020
  190DOPC  C21623464   3.167   1.582   6.060  0.4094  0.4315 -0.7802
  190DOPC  H16R23465   3.191   1.480   6.021 -2.1497  0.2016 -1.9485
  190DOPC  H16S23466   3.061   1.581   6.091  0.7018  0.7243  0.2935
  190DOPC  C21723467   3.253   1.629   6.182 -0.4774  0.6262  0.2324
  190DOPC  H17R23468   3.215   1.731   6.204 -2.0310 -0.1702  1.4483
  190DOPC  H17S23469   3.363   1.637   6.165 -0.5703  0.8665 -0.2623
  190DOPC  C21823470   3.241   1.543   6.308 -0.2288 -0.1288 -0.2064
  190DOPC  H18R23471   3.299   1.583   6.395  0.9367  1.0033 -1.4530
  190DOPC  H18S23472   3.261   1.437   6.280 -0.1715 -0.8586  2.3256
  190DOPC  H18T23473   3.137   1.549   6.346 -0.2060 -1.2378  0.0613
  190DOPC   C3323474   2.711   2.084   4.475  0.0639 -0.0741  0.2197
  190DOPC   H3X23475   2.821   2.094   4.491  0.5275 -2.2551 -1.1954
  190DOPC   H3Y23476   2.671   1.981   4.460 -1.5820  0.6027 -0.1364
  190DOPC   C3423477   2.644   2.163   4.585  0.0441 -0.1608 -0.3606
  190DOPC   H4X23478   2.535   2.159   4.562  0.3801 -2.0720 -1.8578
  190DOPC   H4Y23479   2.690   2.264   4.582  0.1010 -0.1307  0.8131
  190DOPC   C3523480   2.665   2.102   4.724 -0.6863 -0.6635  0.1763
  190DOPC   H5X23481   2.616   2.168   4.799 -3.3128 -2.3944  0.1306
  190DOPC   H5Y23482   2.772   2.113   4.751 -0.5604 -4.1060  1.4874
  190DOPC   C3623483   2.616   1.959   4.744 -0.1950  0.6247  0.0785
  190DOPC   H6X23484   2.510   1.961   4.778  0.0552 -1.3741  1.0897
  190DOPC   H6Y23485   2.610   1.916   4.641 -3.6973 -0.9603  0.7960
  190DOPC   C3723486   2.698   1.870   4.835 -0.0581 -0.5184  0.4927
  190DOPC   H7X23487   2.798   1.871   4.786 -0.9796  1.7723 -1.5305
  190DOPC   H7Y23488   2.709   1.910   4.938  1.5120  0.2697  0.0470
  190DOPC   C3823489   2.625   1.729   4.849 -0.3700 -0.1753 -0.5780
  190DOPC   H8X23490   2.529   1.761   4.893 -0.4063 -1.0698  0.0162
  190DOPC   H8Y23491   2.681   1.669   4.925 -0.1416 -3.0467 -2.8482
  190DOPC   C3923492   2.603   1.646   4.726  0.1213  0.2844  0.3481
  190DOPC   H9X23493   2.692   1.613   4.671 -0.2279 -0.4307  0.1996
  190DOPC  C31023494   2.487   1.622   4.653 -0.0527 -0.5360  0.6333
  190DOPC  H10X23495   2.486   1.569   4.557 -2.4814  0.5058  0.0136
  190DOPC  C31123496   2.347   1.672   4.675  0.9287 -0.4971 -0.7424
  190DOPC  H11X23497   2.304   1.705   4.578  0.5678 -0.4431 -0.5673
  190DOPC  H11Y23498   2.344   1.760   4.744  1.9834 -0.4943 -0.6788
  190DOPC  C31223499   2.270   1.555   4.743 -0.3523  0.0610  0.1629
  190DOPC  H12X23500   2.285   1.462   4.683  0.2304 -0.0963  0.5424
  190DOPC  H12Y23501   2.161   1.572   4.745 -0.7943 -2.1173 -1.4178
  190DOPC  C31323502   2.302   1.520   4.895  0.0630 -0.1218 -0.3401
  190DOPC  H13X23503   2.250   1.425   4.920  0.7379 -0.3593  0.1839
  190DOPC  H13Y23504   2.412   1.505   4.892 -0.1637 -1.9154 -1.7091
  190DOPC  C31423505   2.262   1.633   4.982 -0.1480  0.5102  0.0450
  190DOPC  H14X23506   2.344   1.707   4.974  0.5345 -0.1348  0.8277
  190DOPC  H14Y23507   2.164   1.672   4.948 -0.5769 -0.5362  0.0237
  190DOPC  C31523508   2.240   1.585   5.131 -0.5007 -0.1670 -0.5388
  190DOPC  H15X23509   2.333   1.557   5.183 -0.9715 -1.7779 -0.5067
  190DOPC  H15Y23510   2.182   1.490   5.128  1.8528 -1.8045  1.8681
  190DOPC  C31623511   2.183   1.698   5.213  0.4933  0.0026 -0.2242
  190DOPC  H16X23512   2.255   1.782   5.210  1.0327 -0.4029  0.7756
  190DOPC  H16Y23513   2.087   1.733   5.169 -0.8436 -0.7758  1.8879
  190DOPC  C31723514   2.150   1.670   5.363 -0.5939 -0.3709  0.2065
  190DOPC  H17X23515   2.244   1.646   5.416 -0.2302 -1.8953 -1.0553
  190DOPC  H17Y23516   2.126   1.768   5.409  3.7232  0.4294  1.1474
  190DOPC  C31823517   2.038   1.565   5.377  0.5357 -0.1923 -0.8633
  190DOPC  H18X23518   2.064   1.468   5.329  0.0786 -0.3809 -0.7390
  190DOPC  H18Y23519   2.003   1.553   5.482 -0.3950 -2.5278 -1.3732
  190DOPC  H18Z23520   1.946   1.607   5.331 -1.6611 -2.8693  0.7949
  191DOPC     N23521   5.139   2.259   3.271 -0.0259 -0.8330 -0.0145
  191DOPC   C1223522   5.117   2.307   3.414  0.3771 -0.1922  0.0766
  191DOPC  H12A23523   5.030   2.371   3.415 -0.7649 -1.6623 -0.8497
  191DOPC  H12B23524   5.205   2.358   3.450  0.6389 -2.0796  2.4656
  191DOPC   C1323525   5.257   2.165   3.264 -0.0132 -0.2179 -0.5485
  191DOPC  H13A23526   5.295   2.140   3.166  0.6790 -1.1162 -0.0673
  191DOPC  H13B23527   5.335   2.211   3.322 -1.2050 -0.6807  1.5353
  191DOPC  H13C23528   5.231   2.076   3.320 -1.0942  0.9044  0.7986
  191DOPC   C1423529   5.177   2.377   3.181  0.0718 -0.1679 -0.2200
  191DOPC  H14A23530   5.105   2.455   3.162  0.9700  0.6214 -0.4454
  191DOPC  H14B23531   5.268   2.414   3.225 -0.4925  0.1074  0.7319
  191DOPC  H14C23532   5.205   2.334   3.086 -1.8976 -0.4086 -0.7528
  191DOPC   C1523533   5.021   2.190   3.218  0.0659  0.4889 -0.1806
  191DOPC  H15A23534   5.001   2.108   3.286  0.6753  0.4895  0.0077
  191DOPC  H15B23535   5.041   2.150   3.120 -0.3192 -2.2401  0.7445
  191DOPC  H15C23536   4.933   2.252   3.209  0.9741  1.8538  0.0631
  191DOPC   C1123537   5.081   2.194   3.516 -0.1227  0.7172 -0.1002
  191DOPC  H11A23538   5.078   2.245   3.614  0.1706 -1.4438  1.1123
  191DOPC  H11B23539   4.977   2.162   3.494  0.0580 -1.2219  1.4855
  191DOPC     P23540   5.303   2.087   3.595  0.1746 -0.0622 -0.0418
  191DOPC   O1323541   5.342   2.229   3.609  0.1542 -0.2016 -0.0358
  191DOPC   O1423542   5.400   1.994   3.527  0.6516 -0.6376 -0.8451
  191DOPC   O1223543   5.169   2.076   3.520 -0.5805  0.2666 -0.9001
  191DOPC   O1123544   5.281   2.035   3.744 -0.0783 -0.2728  0.0746
  191DOPC    C123545   5.190   1.929   3.770  0.1265  0.6262 -0.9324
  191DOPC    HA23546   5.211   1.837   3.711  0.9833  0.7565 -0.8530
  191DOPC    HB23547   5.086   1.949   3.737 -0.8904 -1.4561  0.7448
  191DOPC    C223548   5.195   1.894   3.928 -0.0296 -0.0156  0.1738
  191DOPC    HS23549   5.094   1.855   3.954  0.0787 -1.2869 -1.1796
  191DOPC   O2123550   5.233   2.013   4.004  0.6583 -0.4327  0.4064
  191DOPC   C2123551   5.139   2.103   4.022 -0.7079 -0.2358  0.7475
  191DOPC   O2223552   5.038   2.117   3.956 -0.4958  0.2164 -0.0334
  191DOPC   C2223553   5.171   2.198   4.144 -0.1915 -0.3749  0.5214
  191DOPC   H2R23554   5.129   2.296   4.115  1.5636  0.2627  0.0084
  191DOPC   H2S23555   5.282   2.207   4.152 -0.4535  3.2856  1.7729
  191DOPC    C323556   5.297   1.781   3.967  0.7062 -0.8362  0.0277
  191DOPC    HX23557   5.397   1.814   3.930  0.4963 -0.5217 -0.2638
  191DOPC    HY23558   5.264   1.687   3.918 -2.3842 -0.0688  0.4551
  191DOPC   O3123559   5.283   1.758   4.112  0.3308 -0.7525  0.5997
  191DOPC   C3123560   5.391   1.776   4.185 -0.0039 -0.1152  0.1573
  191DOPC   O3223561   5.501   1.808   4.141 -0.7446 -0.2982 -0.4040
  191DOPC   C3223562   5.345   1.765   4.326 -0.1951 -0.4963  0.3455
  191DOPC   H2X23563   5.301   1.863   4.356  3.2156  1.6305 -0.9533
  191DOPC   H2Y23564   5.275   1.679   4.336 -1.1351 -0.0171 -1.6230
  191DOPC   C2323565   5.094   2.157   4.273  1.0353 -0.6590  0.1788
  191DOPC   H3R23566   5.113   2.049   4.290  2.8943 -0.4671 -0.5060
  191DOPC   H3S23567   4.985   2.170   4.255  1.1116 -1.6101 -1.0389
  191DOPC   C2423568   5.130   2.237   4.401  0.0273  0.4639  0.6532
  191DOPC   H4R23569   5.133   2.347   4.382 -1.2105  0.3823 -0.1148
  191DOPC   H4S23570   5.230   2.195   4.426 -0.0026  0.8552  1.4797
  191DOPC   C2523571   5.030   2.198   4.512  0.6023 -0.1304  0.4898
  191DOPC   H5R23572   4.930   2.219   4.470  0.6699 -2.2274 -0.8723
  191DOPC   H5S23573   5.039   2.267   4.598 -0.6973  1.0357 -0.2721
  191DOPC   C2623574   5.060   2.060   4.563 -0.2564  1.0958  0.5573
  191DOPC   H6R23575   5.161   2.058   4.608  0.1181 -1.2499 -0.2513
  191DOPC   H6S23576   5.067   1.987   4.480  2.1942  0.0815  1.5679
  191DOPC   C2723577   4.955   2.013   4.660  0.1612  0.4378  0.1810
  191DOPC   H7R23578   4.960   1.903   4.663 -1.6186  0.2310 -1.6227
  191DOPC   H7S23579   4.856   2.032   4.611  0.6071 -0.3157 -1.0495
  191DOPC   C2823580   4.977   2.059   4.805  0.5342  0.1433 -0.1674
  191DOPC   H8R23581   4.957   2.167   4.796 -4.1980 -0.6667 -2.7372
  191DOPC   H8S23582   5.082   2.033   4.833  1.3221  0.6393 -2.4523
  191DOPC   C2923583   4.882   1.995   4.902  0.1094 -0.2316 -0.4993
  191DOPC   H9R23584   4.793   1.946   4.860 -1.2920  0.5561  1.4053
  191DOPC  C21023585   4.889   2.005   5.037 -0.5294 -0.2244  0.5398
  191DOPC  H10R23586   4.812   1.960   5.102 -0.6051  0.3609  0.8626
  191DOPC  C21123587   5.001   2.075   5.110  0.0042 -0.2917 -0.1092
  191DOPC  H11R23588   5.056   2.147   5.046  0.6391 -0.9868 -0.3537
  191DOPC  H11S23589   5.080   2.006   5.147  1.6198  1.6805  0.3321
  191DOPC  C21223590   4.949   2.152   5.240  0.8096  0.2466  0.3983
  191DOPC  H12R23591   4.868   2.224   5.213 -0.1782 -1.1442 -0.5161
  191DOPC  H12S23592   5.035   2.204   5.287  0.4694 -0.0755  1.4036
  191DOPC  C21323593   4.888   2.063   5.351 -0.2326 -0.2099  0.0179
  191DOPC  H13R23594   4.939   1.964   5.356 -1.8263 -1.2117 -1.8523
  191DOPC  H13S23595   4.782   2.050   5.319 -0.6899  1.5092  0.7431
  191DOPC  C21423596   4.893   2.126   5.488  0.0232  0.4904 -0.4979
  191DOPC  H14R23597   4.851   2.229   5.491 -2.2608 -0.4069  1.4081
  191DOPC  H14S23598   5.002   2.133   5.507 -0.0632 -0.5886  0.4251
  191DOPC  C21523599   4.831   2.031   5.596 -0.0316 -0.4466  0.5554
  191DOPC  H15R23600   4.895   1.940   5.608  1.7294  0.6563 -0.0679
  191DOPC  H15S23601   4.728   2.005   5.562 -0.1625  1.5487 -0.7066
  191DOPC  C21623602   4.822   2.103   5.726 -0.5951 -0.2404  0.3235
  191DOPC  H16R23603   4.772   2.201   5.705 -2.7284 -0.9810  1.6287
  191DOPC  H16S23604   4.916   2.126   5.781 -1.0082 -0.7634  1.2631
  191DOPC  C21723605   4.734   2.031   5.827 -0.4128 -0.1205  0.7931
  191DOPC  H17R23606   4.765   1.924   5.827  1.2853  0.3341 -0.0087
  191DOPC  H17S23607   4.629   2.017   5.794 -0.2376  0.2025  0.0866
  191DOPC  C21823608   4.727   2.105   5.961  0.1454 -0.2553 -0.3075
  191DOPC  H18R23609   4.680   2.032   6.030  1.2261 -1.1500 -0.4986
  191DOPC  H18S23610   4.665   2.196   5.949 -0.1324 -0.2565  1.0080
  191DOPC  H18T23611   4.825   2.147   5.991 -0.6403  2.4361 -1.1929
  191DOPC   C3323612   5.470   1.739   4.417 -0.4641 -0.2907  0.5870
  191DOPC   H3X23613   5.543   1.822   4.411 -1.7571  0.8025 -0.8655
  191DOPC   H3Y23614   5.528   1.649   4.386 -0.1108 -0.3384  1.3603
  191DOPC   C3423615   5.426   1.723   4.563 -0.1762  0.1920 -0.0678
  191DOPC   H4X23616   5.344   1.794   4.583  1.3699  2.3420 -1.0041
  191DOPC   H4Y23617   5.514   1.753   4.624 -0.0677  2.0976 -1.1024
  191DOPC   C3523618   5.383   1.578   4.591  0.6490 -0.6457 -0.1601
  191DOPC   H5X23619   5.454   1.501   4.555  1.2512 -1.7331  3.0080
  191DOPC   H5Y23620   5.286   1.554   4.543  0.3154 -0.1947  0.2660
  191DOPC   C3623621   5.370   1.539   4.739 -0.4647 -0.0466  0.0467
  191DOPC   H6X23622   5.468   1.559   4.785 -0.3988  2.2227 -0.9564
  191DOPC   H6Y23623   5.294   1.601   4.791 -0.6301  1.3050 -1.7094
  191DOPC   C3723624   5.334   1.388   4.746  0.5224  0.0676 -0.1794
  191DOPC   H7X23625   5.230   1.362   4.718  0.5776  0.1594 -0.4654
  191DOPC   H7Y23626   5.398   1.331   4.676  1.5575  0.5316  0.3706
  191DOPC   C3823627   5.367   1.334   4.881  0.0293 -0.1956  0.0035
  191DOPC   H8X23628   5.469   1.363   4.915  0.6115 -2.9446  0.8773
  191DOPC   H8Y23629   5.354   1.224   4.883  0.0396 -0.1976  1.7630
  191DOPC   C3923630   5.265   1.370   4.988 -1.0500  0.7755  0.1496
  191DOPC   H9X23631   5.163   1.364   4.947  0.4611 -1.5040 -3.8984
  191DOPC  C31023632   5.291   1.378   5.122 -0.0726 -0.1984 -0.7475
  191DOPC  H10X23633   5.200   1.387   5.183  0.3706 -1.3531  0.1152
  191DOPC  C31123634   5.423   1.351   5.187  0.2455  0.7471 -0.1995
  191DOPC  H11X23635   5.475   1.449   5.187  3.5176 -0.8232  1.8746
  191DOPC  H11Y23636   5.490   1.283   5.131 -0.6526  0.4363 -0.9185
  191DOPC  C31223637   5.395   1.295   5.331  0.1160 -0.5837  0.2004
  191DOPC  H12X23638   5.334   1.205   5.308 -0.2963  0.3423 -2.7132
  191DOPC  H12Y23639   5.350   1.374   5.395  0.7585  1.7176 -2.0445
  191DOPC  C31323640   5.527   1.262   5.406 -0.1079  0.3612  0.4441
  191DOPC  H13X23641   5.511   1.192   5.491  0.9147 -2.6146 -1.6874
  191DOPC  H13Y23642   5.587   1.215   5.325 -2.9407  0.6526 -1.9803
  191DOPC  C31423643   5.592   1.390   5.455  0.0694 -0.0802 -0.1408
  191DOPC  H14X23644   5.594   1.476   5.386 -0.5994  1.4476  1.6674
  191DOPC  H14Y23645   5.534   1.430   5.541  0.1093 -0.2518 -0.0330
  191DOPC  C31523646   5.731   1.350   5.505  0.3499 -0.3111 -0.2220
  191DOPC  H15X23647   5.786   1.321   5.413  0.0815  1.3477 -0.9419
  191DOPC  H15Y23648   5.730   1.268   5.580  1.0783 -0.9399 -0.8818
  191DOPC  C31623649   5.817   1.460   5.568  0.6039  0.0910 -0.3645
  191DOPC  H16X23650   5.839   1.523   5.480 -0.9076 -2.3675 -2.6772
  191DOPC  H16Y23651   5.758   1.522   5.638  2.0204 -0.8386  1.7836
  191DOPC  C31723652   5.943   1.402   5.626 -0.3009  0.3954 -0.5955
  191DOPC  H17X23653   5.925   1.298   5.661 -0.3548  0.0820 -1.5384
  191DOPC  H17Y23654   6.002   1.392   5.532 -0.1527  1.5730 -0.6467
  191DOPC  C31823655   6.010   1.484   5.736  0.2970  0.0529  0.8973
  191DOPC  H18X23656   6.022   1.590   5.704 -2.2265 -0.4909 -2.4042
  191DOPC  H18Y23657   5.941   1.473   5.822 -0.1141 -1.1702  0.4263
  191DOPC  H18Z23658   6.109   1.439   5.760 -0.6144 -1.1242  2.6553
  192DOPC     N23659   1.459   6.014   3.236  0.0039  0.5743 -0.0536
  192DOPC   C1223660   1.487   5.942   3.367 -0.2273 -0.0291 -0.4050
  192DOPC  H12A23661   1.544   6.007   3.431 -0.5102 -0.9967  0.8738
  192DOPC  H12B23662   1.544   5.854   3.342 -0.9466 -1.1202  1.5377
  192DOPC   C1323663   1.375   6.134   3.256 -0.5272  0.7203  0.1559
  192DOPC  H13A23664   1.416   6.190   3.338 -0.8102 -0.3118  1.0245
  192DOPC  H13B23665   1.360   6.189   3.164 -1.5367 -1.1372 -0.8394
  192DOPC  H13C23666   1.276   6.110   3.293  0.2406 -0.3171  1.6116
  192DOPC   C1423667   1.390   5.925   3.136  0.4926  0.4473 -0.4945
  192DOPC  H14A23668   1.348   5.985   3.057 -0.7425  0.6896  0.3015
  192DOPC  H14B23669   1.462   5.856   3.096 -2.0402 -2.1779 -0.8697
  192DOPC  H14C23670   1.308   5.873   3.184 -0.7643  2.1966 -0.6528
  192DOPC   C1523671   1.589   6.067   3.181  0.1306 -0.0740 -0.4655
  192DOPC  H15A23672   1.643   6.135   3.244  0.4816  0.2038 -1.0534
  192DOPC  H15B23673   1.571   6.130   3.095  0.6754  2.2867  1.0805
  192DOPC  H15C23674   1.654   5.988   3.147 -1.1608 -1.8653  1.0320
  192DOPC   C1123675   1.364   5.887   3.443 -0.3502 -0.5788 -0.6983
  192DOPC  H11A23676   1.403   5.864   3.544 -0.0734 -0.5877 -0.8078
  192DOPC  H11B23677   1.294   5.974   3.445 -0.1313 -0.4098  0.3353
  192DOPC     P23678   1.165   5.751   3.379  0.4519  0.2060 -0.1183
  192DOPC   O1323679   1.127   5.611   3.359  0.2557  0.2941 -0.5095
  192DOPC   O1423680   1.107   5.860   3.295 -0.0641 -0.5409 -0.0752
  192DOPC   O1223681   1.325   5.764   3.382  0.5890  0.3549 -0.1426
  192DOPC   O1123682   1.120   5.784   3.527  0.1632  0.2536  0.2515
  192DOPC    C123683   1.145   5.682   3.632  0.1404  0.7453  0.0959
  192DOPC    HA23684   1.195   5.588   3.598 -2.4915 -0.2693 -1.2767
  192DOPC    HB23685   1.053   5.634   3.672  0.8964 -0.6566  0.2361
  192DOPC    C223686   1.223   5.750   3.740 -0.1103 -0.0334 -0.5897
  192DOPC    HS23687   1.324   5.775   3.701  0.3151  0.9267  1.0052
  192DOPC   O2123688   1.238   5.666   3.853 -0.4533  0.3928  0.2128
  192DOPC   C2123689   1.301   5.550   3.835 -0.8976  0.6849 -0.1418
  192DOPC   O2223690   1.369   5.520   3.739 -0.1632 -0.1473 -0.0633
  192DOPC   C2223691   1.287   5.466   3.959  0.4181  0.3570 -0.3316
  192DOPC   H2R23692   1.324   5.362   3.940 -1.1837 -0.0912 -1.2017
  192DOPC   H2S23693   1.180   5.453   3.984  0.5879 -0.5301 -0.0049
  192DOPC    C323694   1.152   5.887   3.768  0.0922  0.7721 -0.9903
  192DOPC    HX23695   1.046   5.853   3.776  0.8586 -1.4417  0.7385
  192DOPC    HY23696   1.156   5.964   3.688 -1.4016  1.4999 -0.4049
  192DOPC   O3123697   1.219   5.945   3.876  0.2828 -0.3789 -0.6482
  192DOPC   C3123698   1.151   5.959   3.989 -0.2141  0.2353 -0.0989
  192DOPC   O3223699   1.032   5.935   4.007  0.0068 -0.7281  1.0557
  192DOPC   C3223700   1.239   6.018   4.102  0.4194 -0.0365 -0.5224
  192DOPC   H2X23701   1.347   6.006   4.078  0.5587 -0.9659  0.5427
  192DOPC   H2Y23702   1.212   6.125   4.117 -1.6935 -0.8667  2.3774
  192DOPC   C2323703   1.356   5.530   4.082  0.0916  0.8667  0.3086
  192DOPC   H3R23704   1.322   5.632   4.108  0.4689  0.4243  2.8257
  192DOPC   H3S23705   1.464   5.543   4.057 -0.2455  0.4983 -1.4983
  192DOPC   C2423706   1.358   5.439   4.210 -0.4513  1.1885 -0.1780
  192DOPC   H4R23707   1.424   5.350   4.195 -2.8095 -0.4881 -1.3692
  192DOPC   H4S23708   1.255   5.412   4.242  0.4819 -2.7646  0.0241
  192DOPC   C2523709   1.410   5.521   4.336 -0.3346  0.0403  0.5939
  192DOPC   H5R23710   1.351   5.615   4.331 -0.0185  0.3191  1.8298
  192DOPC   H5S23711   1.516   5.545   4.314 -0.2884  0.2640  1.0515
  192DOPC   C2623712   1.392   5.449   4.467 -0.0487  0.3568  0.8909
  192DOPC   H6R23713   1.441   5.349   4.462  0.6219  0.7081  0.2081
  192DOPC   H6S23714   1.283   5.428   4.473  0.0273 -0.5449 -0.3334
  192DOPC   C2723715   1.446   5.516   4.599 -0.1662  1.0164 -0.4908
  192DOPC   H7R23716   1.389   5.611   4.607 -0.2073  0.8804  1.0793
  192DOPC   H7S23717   1.555   5.536   4.592 -0.2420  1.7248  0.1929
  192DOPC   C2823718   1.427   5.434   4.728  0.4855 -0.2806 -0.5082
  192DOPC   H8R23719   1.491   5.343   4.718 -0.3632 -0.9300 -0.1573
  192DOPC   H8S23720   1.321   5.404   4.739  0.2534  1.0781  1.4260
  192DOPC   C2923721   1.449   5.521   4.852  0.5765  0.0537 -0.6492
  192DOPC   H9R23722   1.480   5.626   4.838  1.8570 -0.2388 -0.1019
  192DOPC  C21023723   1.440   5.471   4.979 -0.0422  0.2903  0.2701
  192DOPC  H10R23724   1.472   5.542   5.057  1.4313  1.6515 -1.4778
  192DOPC  C21123725   1.413   5.330   5.021  0.4010  0.4551  0.9363
  192DOPC  H11R23726   1.459   5.265   4.943  0.0906  0.7388  0.5201
  192DOPC  H11S23727   1.303   5.316   5.027  0.4605 -0.0420  0.9260
  192DOPC  C21223728   1.481   5.283   5.155  0.3633  0.1326  0.0971
  192DOPC  H12R23729   1.590   5.264   5.144 -0.0072 -1.3497 -1.4654
  192DOPC  H12S23730   1.453   5.176   5.169  3.1694 -0.7555 -0.4407
  192DOPC  C21323731   1.446   5.352   5.285  0.2639 -0.2681 -0.2693
  192DOPC  H13R23732   1.338   5.378   5.288  0.2414 -0.4457  1.3720
  192DOPC  H13S23733   1.500   5.450   5.288  0.4101 -0.3174 -0.9413
  192DOPC  C21423734   1.477   5.272   5.416 -0.7037 -0.5325 -0.4087
  192DOPC  H14R23735   1.567   5.210   5.394  1.5625  2.0395  0.9497
  192DOPC  H14S23736   1.390   5.205   5.435 -0.8312 -0.5229 -0.9345
  192DOPC  C21523737   1.506   5.371   5.526 -0.0468  1.3810 -0.6274
  192DOPC  H15R23738   1.430   5.453   5.525 -1.9590 -0.2347  1.2334
  192DOPC  H15S23739   1.603   5.421   5.505  0.9685 -0.1178  0.3242
  192DOPC  C21623740   1.513   5.312   5.667  0.0049  0.0654 -0.1557
  192DOPC  H16R23741   1.590   5.232   5.664 -1.6724 -1.6264 -0.1645
  192DOPC  H16S23742   1.412   5.266   5.675 -0.1855  0.2655 -1.2799
  192DOPC  C21723743   1.536   5.418   5.774  0.2910  0.4640 -0.6525
  192DOPC  H17R23744   1.641   5.452   5.763  0.5727 -0.6646 -1.7116
  192DOPC  H17S23745   1.543   5.355   5.865 -2.1841  1.2774  0.1705
  192DOPC  C21823746   1.443   5.535   5.783 -0.0569  0.0429 -0.2479
  192DOPC  H18R23747   1.492   5.602   5.858 -0.1717 -0.2711  0.1106
  192DOPC  H18S23748   1.344   5.498   5.818 -0.3874  1.0487 -0.0956
  192DOPC  H18T23749   1.428   5.598   5.693  2.0010  3.1946  1.4175
  192DOPC   C3323750   1.204   5.949   4.232  0.4067 -0.0005  0.3298
  192DOPC   H3X23751   1.223   5.839   4.237 -1.1578 -0.3152 -0.1453
  192DOPC   H3Y23752   1.095   5.967   4.238  0.5123  1.2025 -1.0055
  192DOPC   C3423753   1.275   6.021   4.346 -0.0984  0.2955 -0.2704
  192DOPC   H4X23754   1.247   6.128   4.358  0.2391  0.3849 -0.2705
  192DOPC   H4Y23755   1.384   6.015   4.329  0.1543 -0.5246  1.4740
  192DOPC   C3523756   1.241   5.946   4.479  0.2953  0.0212  0.5942
  192DOPC   H5X23757   1.279   5.842   4.483 -1.0491 -0.4637  2.7251
  192DOPC   H5Y23758   1.130   5.945   4.492  0.3840  1.8746  1.9112
  192DOPC   C3623759   1.315   6.003   4.602 -0.6287  0.5327 -0.0908
  192DOPC   H6X23760   1.422   6.024   4.584 -0.2855 -0.0406  1.1567
  192DOPC   H6Y23761   1.268   6.099   4.630 -2.1219 -0.3182  0.4193
  192DOPC   C3723762   1.316   5.902   4.719  0.5041 -0.3715  0.3115
  192DOPC   H7X23763   1.214   5.865   4.742  0.3587  0.0485  0.3575
  192DOPC   H7Y23764   1.385   5.823   4.684  2.8397  1.6694  0.0508
  192DOPC   C3823765   1.376   5.967   4.855 -0.1823  0.0850  0.7349
  192DOPC   H8X23766   1.324   6.065   4.853  0.7834  0.5943  0.1080
  192DOPC   H8Y23767   1.486   5.974   4.844 -0.0130 -1.8978  0.7988
  192DOPC   C3923768   1.353   5.895   4.983 -0.3522 -0.3375  0.8635
  192DOPC   H9X23769   1.318   5.791   4.979  2.3252 -1.2808 -0.5950
  192DOPC  C31023770   1.363   5.962   5.099 -0.8875  0.2579 -0.3145
  192DOPC  H10X23771   1.332   5.915   5.194  0.4936 -1.2548 -0.5648
  192DOPC  C31123772   1.411   6.099   5.122  0.2890  0.1709  0.2427
  192DOPC  H11X23773   1.314   6.153   5.126 -1.3747 -2.6397  0.5148
  192DOPC  H11Y23774   1.461   6.135   5.029 -2.8291 -0.9856 -2.0753
  192DOPC  C31223775   1.480   6.133   5.250 -0.0679  0.9033  0.6044
  192DOPC  H12X23776   1.504   6.242   5.248 -0.8455  1.1084  1.7441
  192DOPC  H12Y23777   1.577   6.082   5.266 -0.5370  0.1718  1.1875
  192DOPC  C31323778   1.401   6.117   5.382 -0.5430  0.6341 -0.2914
  192DOPC  H13X23779   1.302   6.163   5.359  0.4714  1.5992 -3.1511
  192DOPC  H13Y23780   1.388   6.008   5.400 -0.4124  0.9006  1.6380
  192DOPC  C31423781   1.470   6.189   5.502 -0.9898 -1.1229  0.0371
  192DOPC  H14X23782   1.578   6.163   5.504 -0.5069  0.7836  0.2093
  192DOPC  H14Y23783   1.479   6.298   5.485 -1.6619 -0.9222  0.9112
  192DOPC  C31523784   1.418   6.161   5.641  0.1012  0.0185  0.5311
  192DOPC  H15X23785   1.308   6.169   5.637  0.0792  0.3144  1.4844
  192DOPC  H15Y23786   1.465   6.238   5.707 -0.4825  0.8941 -0.0509
  192DOPC  C31623787   1.443   6.014   5.680  0.9000  0.0906 -0.0393
  192DOPC  H16X23788   1.388   5.953   5.606 -1.4788 -2.1776  3.3092
  192DOPC  H16Y23789   1.551   5.986   5.676  0.3240 -2.3358  0.2713
  192DOPC  C31723790   1.383   5.988   5.824 -0.9593 -0.2786  0.1888
  192DOPC  H17X23791   1.286   6.043   5.820 -0.3472  1.0150  1.7858
  192DOPC  H17Y23792   1.369   5.880   5.847  0.9995 -0.3386  1.3031
  192DOPC  C31823793   1.465   6.042   5.944  0.4800  0.1978  0.2604
  192DOPC  H18X23794   1.413   6.047   6.042  1.0508 -0.3824  0.5993
  192DOPC  H18Y23795   1.559   5.983   5.949  0.5218  0.3303  1.1188
  192DOPC  H18Z23796   1.502   6.146   5.931  1.6123 -0.4781 -2.8472
  193DOPC     N23797   0.211   3.383   3.923 -0.4007  0.4039 -0.0001
  193DOPC   C1223798   0.127   3.354   4.042 -0.5738 -0.6606 -0.4710
  193DOPC  H12A23799   0.037   3.413   4.039  0.9129  1.6765 -2.1581
  193DOPC  H12B23800   0.187   3.393   4.123 -0.2437  0.0716 -1.0544
  193DOPC   C1323801   0.135   3.372   3.793 -0.3147 -0.4679 -0.4026
  193DOPC  H13A23802   0.051   3.439   3.792 -1.0664 -1.3650  0.7503
  193DOPC  H13B23803   0.202   3.376   3.707  0.5383 -2.1284  0.1420
  193DOPC  H13C23804   0.102   3.269   3.791  0.3447 -0.6859 -1.8018
  193DOPC   C1423805   0.336   3.297   3.921 -0.0381 -0.1023 -0.0525
  193DOPC  H14A23806   0.409   3.330   3.849 -0.7802  1.7101 -0.0322
  193DOPC  H14B23807   0.382   3.307   4.018  3.1897 -2.2218 -1.2152
  193DOPC  H14C23808   0.327   3.193   3.894  2.0542 -0.1756 -0.6813
  193DOPC   C1523809   0.261   3.524   3.944  0.1625 -0.3690  0.0138
  193DOPC  H15A23810   0.190   3.605   3.951  0.6985  0.2010 -0.9435
  193DOPC  H15B23811   0.327   3.546   3.861 -0.2765 -1.3402 -0.6038
  193DOPC  H15C23812   0.321   3.521   4.034 -1.5721  2.0448  1.3630
  193DOPC   C1123813   0.093   3.207   4.065  0.0701 -0.9318  0.3591
  193DOPC  H11A23814   0.011   3.199   4.140 -0.3870  0.6472  0.0741
  193DOPC  H11B23815   0.040   3.161   3.978  2.0832 -1.5726 -0.6014
  193DOPC     P23816   0.278   3.150   4.247 -0.2681 -0.2114 -0.0187
  193DOPC   O1323817   0.295   3.297   4.265  0.6881 -0.3465  0.4765
  193DOPC   O1423818   0.403   3.067   4.267  0.1756 -0.2164  0.4628
  193DOPC   O1223819   0.207   3.125   4.104  0.1314  0.0345 -0.2044
  193DOPC   O1123820   0.181   3.093   4.357  0.3855  1.1065  0.2985
  193DOPC    C123821   0.128   3.154   4.472 -0.6022  0.6345 -0.2042
  193DOPC    HA23822   0.024   3.188   4.458 -0.8966 -1.0171 -2.6374
  193DOPC    HB23823   0.194   3.239   4.497 -0.9201  0.8281 -0.0221
  193DOPC    C223824   0.144   3.060   4.598 -0.5654 -0.0301 -0.8668
  193DOPC    HS23825   0.251   3.041   4.619 -1.1208 -0.3523  2.1453
  193DOPC   O2123826   0.063   2.940   4.580 -0.3251 -0.6629  0.4998
  193DOPC   C2123827   0.101   2.833   4.640  0.0136 -0.0769 -0.9445
  193DOPC   O2223828   0.206   2.821   4.704 -0.3206 -0.0592  0.0338
  193DOPC   C2223829  -0.016   2.728   4.626  0.4824  0.4569 -0.4778
  193DOPC   H2R23830  -0.038   2.716   4.518 -2.4478  0.0980  0.0850
  193DOPC   H2S23831  -0.105   2.761   4.683 -0.3588  0.5497 -1.8240
  193DOPC    C323832   0.097   3.149   4.727  0.2096  0.2965  0.2201
  193DOPC    HX23833  -0.013   3.160   4.717  0.2482  1.2294  0.7566
  193DOPC    HY23834   0.149   3.247   4.724  2.1101 -0.5670  2.3813
  193DOPC   O3123835   0.134   3.085   4.848  0.2135 -0.1174 -0.5333
  193DOPC   C3123836   0.041   3.014   4.921  0.1641 -0.1664 -0.3830
  193DOPC   O3223837  -0.077   2.998   4.887 -0.6277 -0.1837 -0.2970
  193DOPC   C3223838   0.112   2.947   5.043 -0.0218  0.0494  0.4274
  193DOPC   H2X23839   0.075   3.001   5.134  1.5105 -0.0343  1.1269
  193DOPC   H2Y23840   0.088   2.839   5.034 -0.2700  0.2221 -1.1718
  193DOPC   C2323841   0.011   2.584   4.676  0.0653  0.1172  0.4921
  193DOPC   H3R23842   0.109   2.553   4.635 -0.4377  1.3455 -1.8110
  193DOPC   H3S23843  -0.073   2.527   4.632  1.2443  0.9580 -3.1613
  193DOPC   C2423844   0.016   2.569   4.821  0.2777  0.0054 -0.9113
  193DOPC   H4R23845  -0.063   2.628   4.873  1.5880  1.7434 -0.8161
  193DOPC   H4S23846   0.114   2.604   4.859  0.1669 -1.4794  0.9433
  193DOPC   C2523847   0.002   2.421   4.863 -0.0331  0.5296 -0.0647
  193DOPC   H5R23848   0.058   2.356   4.793  1.2170  1.0712  0.4134
  193DOPC   H5S23849  -0.103   2.383   4.865 -0.7885  2.4977  1.6544
  193DOPC   C2623850   0.069   2.384   4.998 -0.0164  0.5185  0.9682
  193DOPC   H6R23851   0.175   2.416   4.991 -0.2527  0.9209 -1.6472
  193DOPC   H6S23852   0.073   2.275   5.020  3.1724  0.6269  1.5239
  193DOPC   C2723853   0.020   2.466   5.117 -0.2340  0.2609  0.7026
  193DOPC   H7R23854   0.046   2.573   5.101 -0.0596 -0.0040 -0.9418
  193DOPC   H7S23855   0.073   2.442   5.212 -0.7864  0.7857  1.1483
  193DOPC   C2823856  -0.133   2.459   5.142 -0.4206 -1.3343  0.5049
  193DOPC   H8R23857  -0.196   2.470   5.052  0.8386 -0.1579 -0.2657
  193DOPC   H8S23858  -0.165   2.544   5.206 -0.2632 -0.2786 -0.7716
  193DOPC   C2923859  -0.171   2.326   5.188 -0.2242  0.0951 -0.1459
  193DOPC   H9R23860  -0.227   2.270   5.111 -1.1768  1.6004 -0.5982
  193DOPC  C21023861  -0.160   2.278   5.311  0.8415  0.5530 -0.3553
  193DOPC  H10R23862  -0.215   2.185   5.329 -1.0306  1.8357  0.9485
  193DOPC  C21123863  -0.109   2.343   5.436 -0.1865  0.0690  0.0965
  193DOPC  H11R23864  -0.066   2.443   5.416  3.0124 -1.0993  0.6473
  193DOPC  H11S23865  -0.028   2.282   5.479  0.1394  1.5917  1.7725
  193DOPC  C21223866  -0.216   2.345   5.549  0.4728 -0.4170 -0.1379
  193DOPC  H12R23867  -0.237   2.236   5.556  1.0151 -0.5832 -0.9214
  193DOPC  H12S23868  -0.305   2.396   5.506 -0.3672 -0.5390  1.3920
  193DOPC  C21323869  -0.156   2.410   5.674 -0.2200 -0.1225  0.1762
  193DOPC  H13R23870  -0.131   2.513   5.642  0.0721 -0.0600  0.6120
  193DOPC  H13S23871  -0.066   2.350   5.700  0.0387  0.1785 -0.0245
  193DOPC  C21423872  -0.239   2.421   5.799  0.7984 -0.1277 -0.5315
  193DOPC  H14R23873  -0.325   2.490   5.783 -2.8699 -3.9425  0.5847
  193DOPC  H14S23874  -0.175   2.462   5.880 -1.8527  1.5035  0.9067
  193DOPC  C21523875  -0.294   2.286   5.846  0.2255 -0.1258 -0.1977
  193DOPC  H15R23876  -0.218   2.205   5.852 -1.3062 -1.5881  0.3408
  193DOPC  H15S23877  -0.360   2.251   5.764 -0.6384 -1.4061  0.9833
  193DOPC  C21623878  -0.367   2.313   5.981  0.1178  0.5477 -0.1754
  193DOPC  H16R23879  -0.462   2.370   5.968  0.3127  1.5757  2.2798
  193DOPC  H16S23880  -0.305   2.381   6.043 -0.4284 -1.6437  3.0333
  193DOPC  C21723881  -0.383   2.178   6.052  0.0744  0.0338 -0.2530
  193DOPC  H17R23882  -0.280   2.136   6.060 -0.0662 -0.4275 -0.7860
  193DOPC  H17S23883  -0.443   2.113   5.985 -1.4247  1.9095 -0.7923
  193DOPC  C21823884  -0.453   2.182   6.186 -0.1844  0.6241 -0.4468
  193DOPC  H18R23885  -0.386   2.207   6.271 -0.0506  0.6444 -0.5579
  193DOPC  H18S23886  -0.490   2.080   6.210  2.9219 -0.6921 -0.7589
  193DOPC  H18T23887  -0.539   2.252   6.184 -1.2832 -0.6757 -0.8394
  193DOPC   C3323888   0.268   2.955   5.030 -0.5378 -0.3916  0.2290
  193DOPC   H3X23889   0.303   3.060   5.034 -0.5768 -0.2970 -1.1964
  193DOPC   H3Y23890   0.315   2.912   4.939  0.1801  1.2820 -0.2304
  193DOPC   C3423891   0.332   2.879   5.145 -0.4353  0.1472  0.4860
  193DOPC   H4X23892   0.440   2.865   5.124 -0.2433 -0.6411  1.8638
  193DOPC   H4Y23893   0.288   2.777   5.150  2.7605 -1.4922 -1.3673
  193DOPC   C3523894   0.294   2.940   5.284 -0.9466  0.6429 -0.2746
  193DOPC   H5X23895   0.331   2.879   5.368 -0.9724 -1.2517 -1.5770
  193DOPC   H5Y23896   0.185   2.929   5.302 -0.9139 -1.2473 -1.0425
  193DOPC   C3623897   0.338   3.084   5.308 -0.0088  0.2899  0.6500
  193DOPC   H6X23898   0.447   3.078   5.287 -0.6819 -1.9012 -3.2065
  193DOPC   H6Y23899   0.295   3.155   5.234 -0.0280 -0.3485  0.0333
  193DOPC   C3723900   0.291   3.153   5.440 -0.2900  0.2135  0.5545
  193DOPC   H7X23901   0.333   3.256   5.433  1.0749 -0.3114  0.8250
  193DOPC   H7Y23902   0.181   3.164   5.450 -0.4189 -1.6858  1.5733
  193DOPC   C3823903   0.358   3.089   5.561 -0.1959  0.1057 -1.2293
  193DOPC   H8X23904   0.469   3.091   5.562 -0.1467  0.5682  2.0279
  193DOPC   H8Y23905   0.336   2.980   5.558 -0.3934  0.1602 -2.6829
  193DOPC   C3923906   0.317   3.163   5.685  0.4315  0.0202  0.0674
  193DOPC   H9X23907   0.291   3.268   5.669  0.0875 -0.3160 -1.7146
  193DOPC  C31023908   0.330   3.125   5.811 -0.7311  0.6014  1.0312
  193DOPC  H10X23909   0.289   3.183   5.895 -1.3694 -0.4583  1.4715
  193DOPC  C31123910   0.394   2.997   5.863  0.3325 -0.3117 -0.2430
  193DOPC  H11X23911   0.492   3.008   5.914  0.9928 -2.4999 -0.9230
  193DOPC  H11Y23912   0.412   2.920   5.785 -2.1905 -1.6397  0.3976
  193DOPC  C31223913   0.286   2.930   5.951 -0.0408  0.2959 -0.1989
  193DOPC  H12X23914   0.180   2.951   5.924 -0.4897 -1.1598  0.3205
  193DOPC  H12Y23915   0.305   2.961   6.056  1.3199 -0.0195 -0.3332
  193DOPC  C31323916   0.297   2.776   5.941 -0.2658  0.5464  0.0625
  193DOPC  H13X23917   0.313   2.746   5.836 -0.7078  3.7086 -1.0322
  193DOPC  H13Y23918   0.390   2.747   5.994  1.1344  3.1636 -0.8041
  193DOPC  C31423919   0.191   2.699   6.019  0.4556  0.2142  0.4321
  193DOPC  H14X23920   0.174   2.739   6.121  0.0206 -1.0029  0.8562
  193DOPC  H14Y23921   0.097   2.717   5.964  2.3159  1.7345 -2.5678
  193DOPC  C31523922   0.225   2.548   6.031  0.3627  0.6767 -0.1830
  193DOPC  H15X23923   0.309   2.528   6.101  0.9106 -1.8532 -1.4497
  193DOPC  H15Y23924   0.257   2.522   5.928 -1.0901  0.2101 -0.5344
  193DOPC  C31623925   0.105   2.467   6.059 -0.3480  0.3403 -0.0819
  193DOPC  H16X23926   0.028   2.484   5.980 -0.7208 -1.1573 -0.0539
  193DOPC  H16Y23927   0.134   2.360   6.050 -0.4482  0.3472 -0.5507
  193DOPC  C31723928   0.051   2.473   6.204  0.1611 -0.4201 -0.2788
  193DOPC  H17X23929   0.143   2.452   6.263  2.7888  0.5348 -3.7074
  193DOPC  H17Y23930   0.023   2.577   6.230  0.3828  0.0617 -1.8077
  193DOPC  C31823931  -0.068   2.384   6.237  0.6275 -0.0042  0.3958
  193DOPC  H18X23932  -0.034   2.287   6.195 -1.3730 -0.4431 -0.3558
  193DOPC  H18Y23933  -0.080   2.367   6.346 -0.9926  0.6411  0.3416
  193DOPC  H18Z23934  -0.167   2.419   6.200  0.7779  0.1336  0.1198
  194DOPC     N23935   2.623   2.229   3.811  0.3581  0.2981  0.1851
  194DOPC   C1223936   2.520   2.244   3.924 -0.4636 -0.1093 -0.5673
  194DOPC  H12A23937   2.553   2.191   4.012 -2.5447 -0.5882 -0.0222
  194DOPC  H12B23938   2.427   2.200   3.891 -1.4339 -1.6867  3.6815
  194DOPC   C1323939   2.753   2.262   3.866 -0.7525  0.2761  0.1251
  194DOPC  H13A23940   2.759   2.362   3.908 -0.2404  1.0344 -1.6453
  194DOPC  H13B23941   2.777   2.184   3.936  0.5153 -0.2443 -0.8539
  194DOPC  H13C23942   2.832   2.256   3.793  0.8405 -2.7948  1.8915
  194DOPC   C1423943   2.584   2.320   3.698  0.1718 -0.7384 -0.8217
  194DOPC  H14A23944   2.490   2.299   3.649 -0.0774 -1.1677 -0.1864
  194DOPC  H14B23945   2.589   2.413   3.753  2.0765 -1.8514  1.0482
  194DOPC  H14C23946   2.662   2.316   3.625  2.2725  1.0222  1.1753
  194DOPC   C1523947   2.629   2.091   3.755  0.2206  0.3386 -0.1119
  194DOPC  H15A23948   2.711   2.075   3.686  0.0879  0.5545 -0.3207
  194DOPC  H15B23949   2.541   2.055   3.704  0.9055 -2.3707  0.4389
  194DOPC  H15C23950   2.637   2.016   3.833 -1.6803 -1.2362 -1.3384
  194DOPC   C1123951   2.497   2.388   3.972  0.9502 -0.3958  0.1256
  194DOPC  H11A23952   2.439   2.385   4.067  0.7562 -1.5550 -0.0225
  194DOPC  H11B23953   2.597   2.433   3.991  1.5290 -1.7209  0.3020
  194DOPC     P23954   2.277   2.423   3.837  0.5358 -0.0650 -0.4175
  194DOPC   O1323955   2.272   2.277   3.814 -0.3850 -0.4663  0.3156
  194DOPC   O1423956   2.229   2.509   3.730 -0.0264  0.5242  0.2643
  194DOPC   O1223957   2.425   2.464   3.875 -0.7481  0.8110 -0.9251
  194DOPC   O1123958   2.210   2.471   3.972  0.0778  0.1697 -0.2041
  194DOPC    C123959   2.087   2.403   4.005  0.5005 -0.4008 -0.2941
  194DOPC    HA23960   2.036   2.347   3.924  0.9104  0.0832 -0.9018
  194DOPC    HB23961   2.010   2.479   4.033  0.4683 -1.3280  2.4235
  194DOPC    C223962   2.095   2.312   4.133 -0.5693  1.1606 -0.1161
  194DOPC    HS23963   1.995   2.311   4.182 -0.8302  0.1024 -0.6554
  194DOPC   O2123964   2.200   2.353   4.223 -0.2402 -0.3495 -0.4391
  194DOPC   C2123965   2.162   2.459   4.299 -0.3663  0.4663 -0.2717
  194DOPC   O2223966   2.053   2.511   4.300  0.1174 -0.9712  0.0236
  194DOPC   C2223967   2.277   2.494   4.394 -0.4679 -0.0867  0.4334
  194DOPC   H2R23968   2.247   2.584   4.452  2.2959  0.3133  1.3869
  194DOPC   H2S23969   2.355   2.523   4.320 -0.3034 -0.1253  0.5933
  194DOPC    C323970   2.129   2.165   4.093  0.9057 -0.2511 -0.8254
  194DOPC    HX23971   2.233   2.165   4.055  1.0832 -0.5587 -0.3527
  194DOPC    HY23972   2.063   2.129   4.011  0.2276  0.5923 -0.6664
  194DOPC   O3123973   2.104   2.083   4.211 -0.1966  0.5072  0.6366
  194DOPC   C3123974   2.207   2.033   4.274  0.1269  0.3597 -0.4546
  194DOPC   O3223975   2.324   2.050   4.240 -0.4789  0.5722  0.3123
  194DOPC   C3223976   2.153   1.962   4.391 -0.2675  0.5464 -0.3377
  194DOPC   H2X23977   2.107   1.864   4.363 -0.9397 -0.3278  3.2422
  194DOPC   H2Y23978   2.244   1.942   4.452 -1.2664 -0.1873  0.9850
  194DOPC   C2323979   2.318   2.373   4.482 -0.1034  0.0287 -0.2793
  194DOPC   H3R23980   2.421   2.394   4.519  0.9596  0.9773 -3.4374
  194DOPC   H3S23981   2.329   2.275   4.431 -2.9024 -2.0788  2.7512
  194DOPC   C2423982   2.228   2.352   4.605  0.3067  0.1705  0.5485
  194DOPC   H4R23983   2.135   2.299   4.576  0.0355  1.6063 -1.3624
  194DOPC   H4S23984   2.186   2.448   4.640  1.2042  1.7845 -2.4948
  194DOPC   C2523985   2.292   2.308   4.737 -0.0931 -0.0455 -0.6503
  194DOPC   H5R23986   2.392   2.355   4.742  1.0255 -2.3118 -0.7119
  194DOPC   H5S23987   2.321   2.201   4.731  0.1090 -0.0608  0.3120
  194DOPC   C2623988   2.205   2.346   4.865 -0.1630 -0.9622  0.3163
  194DOPC   H6R23989   2.122   2.272   4.874 -0.5728 -0.4273  1.0494
  194DOPC   H6S23990   2.162   2.447   4.850 -0.0999 -1.1698 -1.5777
  194DOPC   C2723991   2.286   2.340   4.994  0.0095 -0.5301 -0.0594
  194DOPC   H7R23992   2.255   2.421   5.063 -1.5025 -2.6742  1.9696
  194DOPC   H7S23993   2.396   2.350   4.986  0.0933  0.2245  1.7579
  194DOPC   C2823994   2.257   2.210   5.072  0.1766 -0.4782  0.4258
  194DOPC   H8R23995   2.147   2.193   5.085  0.4531 -1.2050  2.2291
  194DOPC   H8S23996   2.293   2.227   5.176  2.5025 -0.0452 -0.4158
  194DOPC   C2923997   2.316   2.089   5.007 -0.7306  0.5900  0.3669
  194DOPC   H9R23998   2.272   2.040   4.919  0.3837 -2.3949  1.3737
  194DOPC  C21023999   2.422   2.022   5.051  0.1051 -0.4932 -0.5136
  194DOPC  H10R24000   2.450   1.928   5.002 -0.6905 -0.3262 -1.3080
  194DOPC  C21124001   2.504   2.045   5.180 -0.2100 -0.4618  0.4160
  194DOPC  H11R24002   2.469   2.133   5.238  0.2299 -0.7078  1.0719
  194DOPC  H11S24003   2.607   2.073   5.149 -0.6156  3.3242  1.9941
  194DOPC  C21224004   2.499   1.925   5.268 -0.1871 -0.6124 -0.6478
  194DOPC  H12R24005   2.394   1.899   5.296 -0.2335 -0.0592 -0.3028
  194DOPC  H12S24006   2.552   1.965   5.357  1.0651 -0.0388 -1.6188
  194DOPC  C21324007   2.578   1.800   5.223 -0.3687  1.0336  0.0592
  194DOPC  H13R24008   2.668   1.831   5.167  1.2882 -1.1273  1.3802
  194DOPC  H13S24009   2.501   1.739   5.171  0.3912 -0.8811  1.0874
  194DOPC  C21424010   2.634   1.730   5.350  0.3128 -0.0745  0.2609
  194DOPC  H14R24011   2.710   1.800   5.394 -1.2400  1.4897  0.5697
  194DOPC  H14S24012   2.688   1.637   5.322  0.1341 -0.0607 -0.1336
  194DOPC  C21524013   2.523   1.679   5.453 -0.4760  0.2842  0.1731
  194DOPC  H15R24014   2.469   1.588   5.418 -1.5886  0.3416  1.6515
  194DOPC  H15S24015   2.441   1.748   5.479  0.6376  1.5646  0.3928
  194DOPC  C21624016   2.588   1.632   5.586  0.7262  0.9498  0.0176
  194DOPC  H16R24017   2.607   1.715   5.658  1.3080 -0.1105  1.1162
  194DOPC  H16S24018   2.682   1.579   5.559 -0.4197  0.0855 -2.6241
  194DOPC  C21724019   2.500   1.532   5.664 -0.6874  0.9749 -0.1495
  194DOPC  H17R24020   2.575   1.474   5.723 -0.5600  0.0260 -1.2318
  194DOPC  H17S24021   2.455   1.453   5.602  0.8018  0.5665 -0.7533
  194DOPC  C21824022   2.398   1.605   5.755 -0.9437 -1.1386  0.0078
  194DOPC  H18R24023   2.338   1.674   5.692  0.6958 -0.0023 -0.3901
  194DOPC  H18S24024   2.447   1.665   5.835  2.0501 -2.0270 -1.0028
  194DOPC  H18T24025   2.332   1.526   5.796  0.7361 -2.8188 -0.3979
  194DOPC   C3324026   2.051   2.036   4.475  1.0690 -0.0993  0.1046
  194DOPC   H3X24027   1.950   2.014   4.435  0.5089  0.9017  0.9223
  194DOPC   H3Y24028   2.059   2.147   4.470  0.2177 -0.0426 -5.2731
  194DOPC   C3424029   2.055   1.998   4.626 -0.4545 -0.7949 -0.6085
  194DOPC   H4X24030   2.158   2.020   4.659 -0.6935 -3.8287  2.8175
  194DOPC   H4Y24031   2.026   1.890   4.629  3.0446 -1.8323  2.0619
  194DOPC   C3524032   1.963   2.068   4.719  0.6287 -0.8176 -0.0130
  194DOPC   H5X24033   1.965   2.177   4.697 -2.7365 -0.2856  1.6985
  194DOPC   H5Y24034   1.995   2.061   4.825  1.0649 -2.1331 -0.2146
  194DOPC   C3624035   1.814   2.036   4.703 -1.1421  0.0816 -0.3238
  194DOPC   H6X24036   1.761   2.113   4.764 -1.9399 -0.3367 -0.4686
  194DOPC   H6Y24037   1.768   2.046   4.603 -3.5594 -0.4252  0.6547
  194DOPC   C3724038   1.766   1.901   4.757  0.1618  0.1378  0.5694
  194DOPC   H7X24039   1.660   1.890   4.726  0.5176  0.6478 -0.8851
  194DOPC   H7Y24040   1.818   1.815   4.711 -0.4437  0.0954 -0.0497
  194DOPC   C3824041   1.783   1.899   4.908 -0.9216 -0.2584  0.4901
  194DOPC   H8X24042   1.882   1.936   4.944 -0.1955  1.2067 -2.7399
  194DOPC   H8Y24043   1.795   1.790   4.929  0.3031 -0.2087  0.1614
  194DOPC   C3924044   1.660   1.954   4.974  0.0339  0.2259 -0.4861
  194DOPC   H9X24045   1.602   2.029   4.918 -0.0581  1.9426  1.7397
  194DOPC  C31024046   1.618   1.926   5.098 -0.3655 -0.3911 -0.1455
  194DOPC  H10X24047   1.524   1.972   5.132 -0.1253  0.9680 -1.2552
  194DOPC  C31124048   1.683   1.835   5.195  0.0173 -0.1495  0.2657
  194DOPC  H11X24049   1.776   1.787   5.159 -0.2057 -0.9858  0.7855
  194DOPC  H11Y24050   1.597   1.765   5.200  1.1535 -2.2575 -4.2993
  194DOPC  C31224051   1.698   1.896   5.336  0.2970 -0.2875 -0.1504
  194DOPC  H12X24052   1.603   1.946   5.365  0.2089  0.0060 -0.9430
  194DOPC  H12Y24053   1.777   1.973   5.326  0.3143 -0.5925 -3.0269
  194DOPC  C31324054   1.742   1.801   5.446 -0.3931 -0.2368  0.4234
  194DOPC  H13X24055   1.662   1.725   5.457  1.4016 -2.5844 -1.6592
  194DOPC  H13Y24056   1.833   1.752   5.405  0.4588  1.5398  0.0602
  194DOPC  C31424057   1.768   1.863   5.583  1.0111 -0.2601  0.1913
  194DOPC  H14X24058   1.851   1.935   5.566 -0.4195  1.0093 -1.9270
  194DOPC  H14Y24059   1.684   1.928   5.617  0.7831 -1.5680  2.3217
  194DOPC  C31524060   1.819   1.757   5.680  0.0311  0.0297  0.2408
  194DOPC  H15X24061   1.910   1.711   5.636  0.5150  0.9307  0.2815
  194DOPC  H15Y24062   1.733   1.689   5.698 -1.6034  2.4065  1.9596
  194DOPC  C31624063   1.850   1.815   5.819  0.1202 -0.6822  0.3141
  194DOPC  H16X24064   1.946   1.870   5.826 -0.9907  1.1497  2.2790
  194DOPC  H16Y24065   1.767   1.879   5.856 -0.1861 -1.1646  0.4803
  194DOPC  C31724066   1.846   1.698   5.926 -0.2025 -0.1216  0.5179
  194DOPC  H17X24067   1.764   1.627   5.906 -1.6369  1.7104 -0.4739
  194DOPC  H17Y24068   1.942   1.643   5.913  0.5642  0.8957  1.5099
  194DOPC  C31824069   1.841   1.737   6.074 -0.2704  0.1505 -0.6848
  194DOPC  H18X24070   1.859   1.644   6.131 -0.6770 -0.1990 -1.1207
  194DOPC  H18Y24071   1.920   1.808   6.109 -1.2406  1.5658 -1.2669
  194DOPC  H18Z24072   1.739   1.776   6.097  0.6199  2.8858 -0.9390
  195DOPC     N24073   5.578   2.213   3.960 -0.6362  0.2375 -0.0998
  195DOPC   C1224074   5.642   2.172   4.086 -0.1605  0.2163  0.0029
  195DOPC  H12A24075   5.692   2.255   4.134 -2.3772  1.7303 -0.1509
  195DOPC  H12B24076   5.716   2.096   4.065  1.2538  1.5537 -0.0474
  195DOPC   C1324077   5.674   2.274   3.870 -0.4500  0.8101 -0.0327
  195DOPC  H13A24078   5.629   2.304   3.776  2.0964  0.2170 -1.5163
  195DOPC  H13B24079   5.698   2.366   3.922  2.4992  0.5269 -0.7629
  195DOPC  H13C24080   5.769   2.226   3.853 -0.1650  1.1471  0.5647
  195DOPC   C1424081   5.473   2.321   3.980  0.4343  0.2402 -0.3041
  195DOPC  H14A24082   5.509   2.421   3.993  0.1638  0.2372  0.5662
  195DOPC  H14B24083   5.400   2.322   3.900 -2.7232  1.6608  2.3574
  195DOPC  H14C24084   5.415   2.297   4.068 -1.7124  3.5551 -0.6481
  195DOPC   C1524085   5.525   2.093   3.889 -0.2017 -0.9796 -0.3607
  195DOPC  H15A24086   5.599   2.018   3.865  0.3778 -0.6412  0.3377
  195DOPC  H15B24087   5.470   2.113   3.798  1.6652 -0.0596 -1.3437
  195DOPC  H15C24088   5.457   2.044   3.957  0.8554 -0.4132  1.1559
  195DOPC   C1124089   5.544   2.122   4.195 -0.4656  0.4375  0.5713
  195DOPC  H11A24090   5.458   2.066   4.153 -0.1623  0.9115 -0.7425
  195DOPC  H11B24091   5.599   2.052   4.261  1.0281  1.8298  0.8897
  195DOPC     P24092   5.588   2.315   4.357 -0.3893  0.4672  0.0086
  195DOPC   O1324093   5.505   2.436   4.377 -0.1112  0.0193 -0.2792
  195DOPC   O1424094   5.728   2.340   4.311 -0.6988  0.0327  0.1242
  195DOPC   O1224095   5.501   2.243   4.260  0.1983  0.5221 -0.1874
  195DOPC   O1124096   5.607   2.241   4.494  0.2094  0.3181 -0.0894
  195DOPC    C124097   5.510   2.215   4.594  0.1850 -0.2297 -0.7381
  195DOPC    HA24098   5.519   2.109   4.628  2.1922  0.3751  0.8788
  195DOPC    HB24099   5.407   2.236   4.561 -0.0667 -0.4216 -0.0966
  195DOPC    C224100   5.519   2.310   4.717 -0.4075  0.1883 -0.1422
  195DOPC    HS24101   5.530   2.412   4.676  0.0341 -0.1165 -0.7973
  195DOPC   O2124102   5.633   2.285   4.802  0.6105  0.1136 -0.0431
  195DOPC   C2124103   5.673   2.391   4.868 -0.0141  0.2346 -0.6171
  195DOPC   O2224104   5.624   2.505   4.860  0.2513 -0.2595  0.0818
  195DOPC   C2224105   5.792   2.360   4.962  0.6205  0.4162  0.1130
  195DOPC   H2R24106   5.874   2.321   4.898 -0.9730 -0.8545 -1.2439
  195DOPC   H2S24107   5.763   2.278   5.031  0.4654  0.9116  0.6459
  195DOPC    C324108   5.383   2.293   4.800 -0.3169  0.1403 -0.8018
  195DOPC    HX24109   5.314   2.340   4.726 -0.0938  1.3052 -0.2907
  195DOPC    HY24110   5.394   2.340   4.900  0.7171 -0.2741 -0.7065
  195DOPC   O3124111   5.354   2.149   4.799  0.0897  0.0005 -0.4740
  195DOPC   C3124112   5.369   2.076   4.909  0.4257 -0.0021  0.0431
  195DOPC   O3224113   5.407   2.121   5.013  0.0299 -0.4804  0.0438
  195DOPC   C3224114   5.348   1.926   4.876 -0.4669 -0.3434  0.5247
  195DOPC   H2X24115   5.288   1.912   4.783 -0.9042 -1.0790  0.9072
  195DOPC   H2Y24116   5.446   1.885   4.845 -1.0428 -0.2444 -1.5895
  195DOPC   C2324117   5.839   2.478   5.052 -0.2120  0.0919  0.2906
  195DOPC   H3R24118   5.752   2.530   5.097 -0.1023 -0.4536  1.1550
  195DOPC   H3S24119   5.881   2.556   4.985 -2.3827  0.7984 -0.3370
  195DOPC   C2424120   5.930   2.446   5.167  0.4050  0.1698 -0.1082
  195DOPC   H4R24121   5.875   2.399   5.252 -0.4982 -0.9600 -1.2820
  195DOPC   H4S24122   5.966   2.548   5.194 -1.7563  1.2103 -0.9098
  195DOPC   C2524123   6.056   2.364   5.140  0.3108  0.2261  0.0150
  195DOPC   H5R24124   6.118   2.409   5.060  3.5285 -0.2165  2.0605
  195DOPC   H5S24125   6.016   2.265   5.108  0.2579 -0.6164  2.4220
  195DOPC   C2624126   6.146   2.337   5.261  0.4862 -0.7281  0.4167
  195DOPC   H6R24127   6.164   2.427   5.322  0.6006 -0.1076 -0.5211
  195DOPC   H6S24128   6.247   2.307   5.228  0.3607 -1.9854  1.1085
  195DOPC   C2724129   6.085   2.230   5.347  0.2256  0.9895 -0.1220
  195DOPC   H7R24130   6.079   2.140   5.283  0.8908 -0.4118  1.6778
  195DOPC   H7S24131   5.986   2.272   5.372 -0.3228 -1.1744  1.6556
  195DOPC   C2824132   6.157   2.198   5.471  0.2170  0.4064 -0.5022
  195DOPC   H8R24133   6.150   2.289   5.535 -2.1987  2.1625 -3.0257
  195DOPC   H8S24134   6.267   2.186   5.456  0.8746  0.5032  3.1391
  195DOPC   C2924135   6.105   2.081   5.544  0.6322 -0.5655 -0.6272
  195DOPC   H9R24136   6.091   1.987   5.488 -1.2020 -0.5511 -0.2566
  195DOPC  C21024137   6.054   2.084   5.670 -0.0598 -0.6691 -0.5715
  195DOPC  H10R24138   6.012   1.990   5.706 -0.4389 -1.0473 -1.9332
  195DOPC  C21124139   6.040   2.204   5.766  0.2622  0.0532  0.3966
  195DOPC  H11R24140   6.113   2.285   5.750 -1.3091  1.2141 -1.2935
  195DOPC  H11S24141   6.046   2.159   5.867 -2.6251 -0.0163  0.6266
  195DOPC  C21224142   5.910   2.282   5.757  0.2074  0.0039 -0.2234
  195DOPC  H12R24143   5.816   2.223   5.763 -1.1737  2.2051  1.2296
  195DOPC  H12S24144   5.911   2.327   5.655 -0.5870  0.9174  0.1521
  195DOPC  C21324145   5.904   2.387   5.878 -0.5031 -0.9818  0.6594
  195DOPC  H13R24146   5.848   2.476   5.845  3.5075  1.4472 -0.3230
  195DOPC  H13S24147   6.003   2.434   5.894 -0.8702 -0.5981  1.8858
  195DOPC  C21424148   5.849   2.315   6.002 -0.2509 -0.1932 -0.0232
  195DOPC  H14R24149   5.892   2.212   6.009 -1.8718 -0.8968  0.0804
  195DOPC  H14S24150   5.744   2.289   5.976  0.5737 -0.5166 -3.5927
  195DOPC  C21524151   5.871   2.386   6.136 -0.7472 -0.4161  0.4041
  195DOPC  H15R24152   5.816   2.483   6.134 -0.7861 -0.3839  1.8170
  195DOPC  H15S24153   5.980   2.404   6.123 -1.1392  1.3905 -0.8103
  195DOPC  C21624154   5.850   2.302   6.260  0.4870 -0.2827 -0.3876
  195DOPC  H16R24155   5.920   2.215   6.253  0.9892 -0.0962  1.6171
  195DOPC  H16S24156   5.746   2.264   6.250 -0.8940  3.3193 -1.1073
  195DOPC  C21724157   5.868   2.374   6.392  0.4321 -0.2454  0.5383
  195DOPC  H17R24158   5.810   2.469   6.394  1.7167  0.5974 -0.3702
  195DOPC  H17S24159   5.974   2.407   6.396  0.5428 -0.5004 -0.1531
  195DOPC  C21824160   5.822   2.295   6.511  0.3588 -0.1383 -1.1467
  195DOPC  H18R24161   5.816   2.365   6.596  2.0564 -0.0540 -1.0819
  195DOPC  H18S24162   5.880   2.204   6.538  2.5160  2.0102  2.0729
  195DOPC  H18T24163   5.719   2.253   6.508  0.6836 -0.9611 -0.9874
  195DOPC   C3324164   5.288   1.847   4.992  0.1764 -0.5533  0.6707
  195DOPC   H3X24165   5.258   1.746   4.956  1.4774 -0.1041 -1.9369
  195DOPC   H3Y24166   5.196   1.898   5.027 -0.7394  0.0410 -2.3712
  195DOPC   C3424167   5.385   1.836   5.115  0.3343 -0.3055  0.0978
  195DOPC   H4X24168   5.391   1.938   5.159 -0.4086 -0.1851 -0.0565
  195DOPC   H4Y24169   5.488   1.826   5.074 -0.1491  0.3473 -1.3735
  195DOPC   C3524170   5.354   1.735   5.218  0.7149  0.4448  0.1674
  195DOPC   H5X24171   5.449   1.694   5.259 -0.2755 -0.6246  1.5201
  195DOPC   H5Y24172   5.303   1.653   5.163  1.8944 -1.3187  1.5795
  195DOPC   C3624173   5.268   1.784   5.332  0.1595  0.9644  0.0104
  195DOPC   H6X24174   5.312   1.874   5.379  1.7829 -0.2626  0.9453
  195DOPC   H6Y24175   5.169   1.818   5.293 -1.4312 -0.3146  2.6257
  195DOPC   C3724176   5.235   1.672   5.426 -0.0638 -0.2794  0.0074
  195DOPC   H7X24177   5.185   1.593   5.366  1.8516 -0.2001 -1.7638
  195DOPC   H7Y24178   5.330   1.622   5.453 -0.3933 -1.1753 -0.4316
  195DOPC   C3824179   5.154   1.711   5.545  0.0513 -0.3827 -0.1256
  195DOPC   H8X24180   5.130   1.617   5.600  0.3853 -0.1661  0.3950
  195DOPC   H8Y24181   5.053   1.750   5.520  0.9399  2.6799  0.6738
  195DOPC   C3924182   5.218   1.816   5.634 -0.1102  0.0229  0.3608
  195DOPC   H9X24183   5.297   1.867   5.578 -0.0974 -0.8409 -0.4401
  195DOPC  C31024184   5.178   1.846   5.763 -0.2513  0.2553  0.1898
  195DOPC  H10X24185   5.223   1.931   5.817 -0.7699 -0.5227  1.9179
  195DOPC  C31124186   5.060   1.784   5.838  0.4602  0.2652 -0.1076
  195DOPC  H11X24187   4.992   1.731   5.768  0.6188 -0.6694  0.4343
  195DOPC  H11Y24188   4.993   1.865   5.873 -1.3335 -0.2846 -2.0549
  195DOPC  C31224189   5.099   1.693   5.959 -0.0260  0.3897  0.2530
  195DOPC  H12X24190   5.148   1.601   5.921  0.4291 -0.0208  1.7995
  195DOPC  H12Y24191   5.003   1.654   6.001  1.1449 -0.5727  2.1524
  195DOPC  C31324192   5.184   1.758   6.069 -0.0006  0.3210  0.1990
  195DOPC  H13X24193   5.223   1.676   6.134 -0.3695  1.6030  2.1476
  195DOPC  H13Y24194   5.278   1.798   6.025 -0.3208 -1.4984 -2.3718
  195DOPC  C31424195   5.110   1.872   6.134  0.0610  0.1109 -0.4015
  195DOPC  H14X24196   5.104   1.956   6.062 -2.1253  0.2584 -0.1319
  195DOPC  H14Y24197   5.004   1.857   6.163  0.4241 -2.0135 -0.0402
  195DOPC  C31524198   5.170   1.919   6.267  0.4421  0.4673  0.1559
  195DOPC  H15X24199   5.131   2.019   6.293  1.4568  1.4422 -1.8540
  195DOPC  H15Y24200   5.279   1.940   6.255  0.2753  1.0989 -0.2827
  195DOPC  C31624201   5.154   1.801   6.373  0.4531 -0.0090  1.1151
  195DOPC  H16X24202   5.052   1.763   6.351  1.8268 -2.8550 -1.1129
  195DOPC  H16Y24203   5.222   1.720   6.338 -1.1286 -0.8274 -0.1949
  195DOPC  C31724204   5.175   1.857   6.511 -0.6913  0.5368  0.4639
  195DOPC  H17X24205   5.262   1.925   6.501  1.7806 -2.5203 -0.1286
  195DOPC  H17Y24206   5.089   1.926   6.527 -2.1361 -0.9343 -0.6467
  195DOPC  C31824207   5.200   1.758   6.624  0.3299 -0.5687  0.3684
  195DOPC  H18X24208   5.142   1.665   6.633  1.1807 -1.0526  1.0276
  195DOPC  H18Y24209   5.301   1.715   6.603 -0.8752 -3.0951 -0.6496
  195DOPC  H18Z24210   5.194   1.812   6.721 -2.5882 -0.6854  0.3392
  196DOPC     N24211   0.830   3.070   4.394  0.0820 -0.5788  0.0351
  196DOPC   C1224212   0.768   3.001   4.518  0.3949 -0.3513  0.0884
  196DOPC  H12A24213   0.673   2.961   4.488  1.5517 -1.8607 -1.8612
  196DOPC  H12B24214   0.739   3.087   4.576  0.0962 -1.5822  1.8172
  196DOPC   C1324215   0.904   2.990   4.286  0.1470  0.0293 -0.2317
  196DOPC  H13A24216   0.913   3.044   4.193 -2.0653  1.1992  0.1611
  196DOPC  H13B24217   0.990   2.952   4.338 -0.8906 -1.1062  0.7293
  196DOPC  H13C24218   0.848   2.900   4.262  1.5714 -0.7212 -0.8198
  196DOPC   C1424219   0.917   3.176   4.447 -0.0826 -0.2856 -0.3535
  196DOPC  H14A24220   0.997   3.138   4.510 -0.0755  0.4933  0.1196
  196DOPC  H14B24221   0.967   3.226   4.366  1.2734 -0.7789  0.1555
  196DOPC  H14C24222   0.868   3.255   4.503  1.2897  0.0083  0.4752
  196DOPC   C1524223   0.711   3.143   4.329  0.0173 -0.0869  0.1488
  196DOPC  H15A24224   0.746   3.194   4.240 -1.0642  0.4402  0.0114
  196DOPC  H15B24225   0.682   3.218   4.400  2.6480  0.5153  0.7124
  196DOPC  H15C24226   0.630   3.075   4.308 -0.3500  0.2208  0.5608
  196DOPC   C1124227   0.850   2.900   4.600 -0.0964  0.0668 -0.2525
  196DOPC  H11A24228   0.780   2.876   4.682 -1.0853  1.7494 -0.5682
  196DOPC  H11B24229   0.873   2.813   4.534 -0.5941  0.7167 -1.2965
  196DOPC     P24230   0.980   3.036   4.777 -0.6787  0.1759 -0.0354
  196DOPC   O1324231   0.902   3.158   4.758 -0.2043 -0.1268 -0.2310
  196DOPC   O1424232   1.122   3.060   4.810  0.2267 -0.6362 -0.4520
  196DOPC   O1224233   0.975   2.947   4.646 -0.3199  0.6667 -0.0272
  196DOPC   O1124234   0.915   2.946   4.892  0.0219  0.0783 -0.0343
  196DOPC    C124235   0.996   2.846   4.960 -0.0007  0.1041 -0.1461
  196DOPC    HA24236   1.097   2.828   4.917  0.3180 -0.3732  0.7914
  196DOPC    HB24237   0.950   2.748   4.933  0.2343  0.0887 -0.5102
  196DOPC    C224238   0.994   2.862   5.116 -0.1766  0.0125  0.0079
  196DOPC    HS24239   1.059   2.781   5.154 -0.8617 -1.3122 -1.5279
  196DOPC   O2124240   0.859   2.859   5.169 -0.5758 -0.0181  0.2962
  196DOPC   C2124241   0.843   2.795   5.281 -0.5547  0.0543  0.5010
  196DOPC   O2224242   0.932   2.748   5.349  0.4460  0.2362  0.0127
  196DOPC   C2224243   0.690   2.785   5.320  0.5768  0.1403 -0.1044
  196DOPC   H2R24244   0.642   2.745   5.227  3.6494 -1.0957 -1.3098
  196DOPC   H2S24245   0.651   2.885   5.347 -2.8253 -1.0843  0.0367
  196DOPC    C324246   1.061   3.001   5.146  0.4849  0.0026  0.1987
  196DOPC    HX24247   0.987   3.079   5.120 -0.0117 -0.9129 -1.2307
  196DOPC    HY24248   1.149   3.010   5.078  2.1256  0.1902  2.2223
  196DOPC   O3124249   1.087   3.012   5.290 -1.0317 -0.1331 -0.7772
  196DOPC   C3124250   1.199   2.952   5.320 -0.2150  0.0581 -1.1619
  196DOPC   O3224251   1.277   2.902   5.239 -0.4151 -0.3036 -0.4169
  196DOPC   C3224252   1.210   2.955   5.474 -0.0013  0.1899 -0.2944
  196DOPC   H2X24253   1.194   3.061   5.504 -0.8570  0.7123 -2.4602
  196DOPC   H2Y24254   1.139   2.889   5.527  0.1010  0.2403 -0.0923
  196DOPC   C2324255   0.660   2.699   5.442 -0.0054  0.5587  0.0093
  196DOPC   H3R24256   0.685   2.591   5.437  2.3059  1.0706 -1.2241
  196DOPC   H3S24257   0.552   2.697   5.464 -0.1941  1.0158 -0.8254
  196DOPC   C2424258   0.735   2.736   5.577 -0.1391 -0.2003 -0.1732
  196DOPC   H4R24259   0.715   2.840   5.612 -1.7206 -0.9203  1.2345
  196DOPC   H4S24260   0.845   2.721   5.578  0.0796  1.2654  0.6088
  196DOPC   C2524261   0.674   2.651   5.690  0.4631 -0.0829  0.4042
  196DOPC   H5R24262   0.686   2.544   5.662 -0.8647 -0.5879  1.6649
  196DOPC   H5S24263   0.566   2.670   5.704  0.3881 -1.1981  1.4728
  196DOPC   C2624264   0.732   2.691   5.828 -0.3394 -0.6619  0.6076
  196DOPC   H6R24265   0.720   2.799   5.848 -0.5056 -0.9912  2.4169
  196DOPC   H6S24266   0.841   2.672   5.841 -0.2705 -2.0945 -1.4837
  196DOPC   C2724267   0.642   2.617   5.929 -0.2816 -0.4170 -0.0606
  196DOPC   H7R24268   0.668   2.509   5.918  0.3899 -0.4014  1.1986
  196DOPC   H7S24269   0.534   2.622   5.904 -0.7321 -1.5513  1.4872
  196DOPC   C2824270   0.680   2.665   6.067  0.4449 -0.1514  0.0882
  196DOPC   H8R24271   0.612   2.623   6.144  1.6065  1.0625  1.8783
  196DOPC   H8S24272   0.661   2.775   6.066  0.1230 -0.0499  3.5803
  196DOPC   C2924273   0.823   2.645   6.108 -0.3104 -0.5390 -1.0607
  196DOPC   H9R24274   0.861   2.550   6.067 -1.0317 -1.0912 -0.4969
  196DOPC  C21024275   0.907   2.727   6.179  0.5048  0.9092 -0.3045
  196DOPC  H10R24276   1.009   2.692   6.201 -0.5227 -0.3371  3.0226
  196DOPC  C21124277   0.871   2.855   6.246  0.1554 -0.1873  0.6950
  196DOPC  H11R24278   0.769   2.852   6.290 -0.5290  0.6016 -0.7676
  196DOPC  H11S24279   0.870   2.941   6.176 -2.2115  1.0969  2.1565
  196DOPC  C21224280   0.971   2.882   6.359  0.4149 -0.8046  0.0706
  196DOPC  H12R24281   0.937   2.975   6.409 -0.7468 -2.3501  2.3637
  196DOPC  H12S24282   1.078   2.886   6.331  0.7727  1.6628  1.5180
  196DOPC  C21324283   0.951   2.795   6.490 -0.0831  0.2101  0.6117
  196DOPC  H13R24284   0.981   2.691   6.464 -4.1128 -0.2959 -3.0046
  196DOPC  H13S24285   0.842   2.780   6.506 -0.5311  3.4679  1.3003
  196DOPC  C21424286   1.008   2.865   6.612 -0.1763 -0.6909 -0.1561
  196DOPC  H14R24287   0.999   2.799   6.700  0.8931 -0.8823 -0.1687
  196DOPC  H14S24288   0.967   2.966   6.636 -0.3509 -0.4612 -1.3506
  196DOPC  C21524289   1.168   2.883   6.599  0.3639  0.2209  0.5474
  196DOPC  H15R24290   1.197   2.950   6.515 -1.1319 -0.6768 -0.7444
  196DOPC  H15S24291   1.207   2.782   6.576  0.3531  0.2900  0.2220
  196DOPC  C21624292   1.229   2.936   6.733 -0.7226  0.0281 -0.1473
  196DOPC  H16R24293   1.337   2.912   6.724 -1.3419 -2.6609 -1.3708
  196DOPC  H16S24294   1.189   2.871   6.814 -0.6158 -0.2078 -0.2849
  196DOPC  C21724295   1.211   3.089   6.763 -0.3000 -0.2102  0.0806
  196DOPC  H17R24296   1.110   3.119   6.728  0.6894  0.1945 -2.6217
  196DOPC  H17S24297   1.282   3.150   6.703  1.0167 -0.2627  1.5202
  196DOPC  C21824298   1.233   3.135   6.912 -0.3477 -0.0387 -0.2615
  196DOPC  H18R24299   1.341   3.114   6.929 -0.1847  1.0712  0.1880
  196DOPC  H18S24300   1.164   3.079   6.977 -1.0128  0.5063 -0.4881
  196DOPC  H18T24301   1.224   3.245   6.929  1.8681 -0.0899  1.6852
  196DOPC   C3324302   1.358   2.928   5.519  0.5753  0.1473 -0.1203
  196DOPC   H3X24303   1.430   3.011   5.503 -0.2215  0.7936 -0.4473
  196DOPC   H3Y24304   1.393   2.852   5.446 -0.4675  1.7719 -2.4616
  196DOPC   C3424305   1.374   2.898   5.666  0.2836 -0.1165  0.0637
  196DOPC   H4X24306   1.481   2.879   5.687  0.8946  1.6676 -1.2163
  196DOPC   H4Y24307   1.310   2.810   5.692 -1.3256  1.2047  0.7525
  196DOPC   C3524308   1.337   3.014   5.754 -0.3271 -0.5466 -0.5674
  196DOPC   H5X24309   1.239   3.055   5.719 -1.3465 -2.0278  0.4030
  196DOPC   H5Y24310   1.413   3.095   5.745  1.5380 -1.9117  1.6696
  196DOPC   C3624311   1.327   2.972   5.901  0.3133 -0.4060 -0.8912
  196DOPC   H6X24312   1.253   2.889   5.898 -1.8706  1.4643 -1.6875
  196DOPC   H6Y24313   1.424   2.945   5.948 -1.3410 -2.1824  1.7885
  196DOPC   C3724314   1.279   3.092   5.993 -1.1588  0.2111  1.0772
  196DOPC   H7X24315   1.351   3.176   5.984 -0.1872 -0.6426  0.6262
  196DOPC   H7Y24316   1.184   3.131   5.949 -0.9181  0.0604  0.4012
  196DOPC   C3824317   1.261   3.052   6.139  0.8253 -0.1848  0.8430
  196DOPC   H8X24318   1.352   3.025   6.196  0.8696  2.4201  2.1508
  196DOPC   H8Y24319   1.205   2.957   6.131  1.2224 -0.3100 -1.1058
  196DOPC   C3924320   1.167   3.159   6.195  0.4269  0.7037 -0.0596
  196DOPC   H9X24321   1.068   3.156   6.149 -0.2876  0.9223  1.4204
  196DOPC  C31024322   1.197   3.238   6.300  0.3373  0.8855 -0.4086
  196DOPC  H10X24323   1.122   3.315   6.325 -2.0415 -1.1902 -0.7301
  196DOPC  C31124324   1.324   3.248   6.372  0.2947  0.8733 -0.2283
  196DOPC  H11X24325   1.357   3.145   6.400 -0.8111  0.2996 -0.9559
  196DOPC  H11Y24326   1.302   3.295   6.470  1.1016  0.6303  0.0795
  196DOPC  C31224327   1.435   3.334   6.310  0.8593 -0.6392 -0.2577
  196DOPC  H12X24328   1.394   3.435   6.291  1.9207 -0.4922 -2.0213
  196DOPC  H12Y24329   1.475   3.284   6.219  0.7282 -2.0340  0.4137
  196DOPC  C31324330   1.559   3.332   6.400 -0.6892  0.1118 -0.1876
  196DOPC  H13X24331   1.601   3.229   6.410  0.4676  0.4207 -1.5257
  196DOPC  H13Y24332   1.638   3.389   6.348  0.2603  1.7126  2.7809
  196DOPC  C31424333   1.530   3.393   6.534 -0.3646 -0.4303 -0.4484
  196DOPC  H14X24334   1.501   3.497   6.506 -2.6110 -0.3506  1.8242
  196DOPC  H14Y24335   1.449   3.346   6.593 -0.0217  0.7193  0.9917
  196DOPC  C31524336   1.646   3.387   6.635 -0.5238 -0.2619  0.3505
  196DOPC  H15X24337   1.731   3.438   6.586 -0.0011 -0.1737  1.3282
  196DOPC  H15Y24338   1.680   3.283   6.655  0.1996  0.1638  1.3721
  196DOPC  C31624339   1.631   3.465   6.767  0.1592 -0.0530  0.4754
  196DOPC  H16X24340   1.587   3.564   6.741 -0.1147 -0.3625 -0.2674
  196DOPC  H16Y24341   1.555   3.418   6.833 -0.7857  2.0814  0.9857
  196DOPC  C31724342   1.759   3.490   6.852 -0.3358  0.3212 -0.3085
  196DOPC  H17X24343   1.734   3.517   6.957 -1.0774  0.2181 -0.4549
  196DOPC  H17Y24344   1.816   3.395   6.852  0.1673  0.6133  0.4110
  196DOPC  C31824345   1.843   3.608   6.805 -0.6800 -0.7032  0.4409
  196DOPC  H18X24346   1.784   3.701   6.812  1.5696  1.0019 -1.5006
  196DOPC  H18Y24347   1.932   3.615   6.872  1.1401  0.5950 -1.9856
  196DOPC  H18Z24348   1.886   3.589   6.704  0.1811  1.2380  0.4073
  197DOPC     N24349   2.032   6.606   3.528 -0.0828 -0.0328  0.0898
  197DOPC   C1224350   1.954   6.557   3.651  0.3230 -0.2500  0.6271
  197DOPC  H12A24351   1.957   6.449   3.648 -0.9478 -0.2747 -0.3467
  197DOPC  H12B24352   1.853   6.589   3.629  2.0104  3.1909 -3.5412
  197DOPC   C1324353   2.178   6.623   3.552 -0.3370  0.3977  0.1727
  197DOPC  H13A24354   2.191   6.709   3.616  2.5243  1.7366 -2.0160
  197DOPC  H13B24355   2.217   6.539   3.608  0.8845 -0.8418 -2.3632
  197DOPC  H13C24356   2.234   6.637   3.461 -1.1732 -0.2358 -0.4646
  197DOPC   C1424357   1.979   6.737   3.469 -0.6253  0.3593  0.2112
  197DOPC  H14A24358   2.015   6.762   3.371 -2.9899  2.1573 -0.2707
  197DOPC  H14B24359   1.871   6.736   3.466 -0.6359  1.8221 -0.7131
  197DOPC  H14C24360   2.003   6.813   3.542  1.4842 -1.7514  1.8727
  197DOPC   C1524361   2.009   6.499   3.421  0.6423 -0.0057  1.7312
  197DOPC  H15A24362   2.093   6.505   3.353  0.8125 -0.3842  1.9073
  197DOPC  H15B24363   1.923   6.524   3.361  1.8606 -1.3784 -0.7506
  197DOPC  H15C24364   1.998   6.400   3.462  0.4270 -2.1752 -2.9067
  197DOPC   C1124365   1.999   6.604   3.790 -0.4733 -0.4391 -0.6882
  197DOPC  H11A24366   1.930   6.566   3.868  0.6668 -0.6896  0.2282
  197DOPC  H11B24367   2.090   6.542   3.806 -0.5028 -0.7309 -1.5738
  197DOPC     P24368   1.933   6.860   3.802  0.0569 -0.1810  0.0368
  197DOPC   O1324369   1.802   6.828   3.730 -0.7275  0.2592 -0.7841
  197DOPC   O1424370   2.017   6.975   3.750 -0.3728  0.0847  0.2729
  197DOPC   O1224371   2.031   6.736   3.808 -0.0326  0.1509 -0.7798
  197DOPC   O1124372   1.901   6.884   3.955 -0.2037  0.0138 -0.1230
  197DOPC    C124373   1.997   6.863   4.059 -0.0650  0.9253 -0.5044
  197DOPC    HA24374   2.104   6.871   4.029  0.1950  0.8579  0.3719
  197DOPC    HB24375   2.002   6.758   4.094  2.2704  1.2131  0.1956
  197DOPC    C224376   1.983   6.969   4.174 -0.8855  0.2553 -0.1066
  197DOPC    HS24377   1.881   6.956   4.214 -0.2194 -0.4912  1.4401
  197DOPC   O2124378   2.012   7.101   4.119  0.0022 -0.3785 -0.1611
  197DOPC   C2124379   1.900   7.171   4.073  0.4567 -0.1508 -0.2197
  197DOPC   O2224380   1.787   7.128   4.071  0.1667 -0.1145 -0.1627
  197DOPC   C2224381   1.939   7.317   4.056 -0.4450  0.2578  0.0504
  197DOPC   H2R24382   1.892   7.346   3.960  0.6532 -0.0501 -0.5980
  197DOPC   H2S24383   2.049   7.315   4.040 -0.6754  1.0177 -1.8345
  197DOPC    C324384   2.081   6.940   4.290  0.0949  0.4210 -0.2807
  197DOPC    HX24385   2.098   7.028   4.357 -1.5782  0.0354  0.7110
  197DOPC    HY24386   2.181   6.923   4.245  0.4372  0.6146  0.3857
  197DOPC   O3124387   2.049   6.815   4.350 -0.5412  0.0433  0.5506
  197DOPC   C3124388   1.980   6.832   4.463  0.2601 -0.2751 -0.1272
  197DOPC   O3224389   1.955   6.939   4.516 -1.0329 -0.1117  0.3824
  197DOPC   C3224390   1.945   6.695   4.519 -0.4112 -0.5800 -0.0317
  197DOPC   H2X24391   1.897   6.644   4.432 -1.1572 -0.3229  0.2217
  197DOPC   H2Y24392   2.044   6.654   4.547 -0.7941 -1.6513 -0.1909
  197DOPC   C2324393   1.904   7.409   4.173  0.1869 -1.0073  0.4018
  197DOPC   H3R24394   1.793   7.410   4.183  0.0673 -1.4632 -0.7904
  197DOPC   H3S24395   1.935   7.511   4.143 -0.1891 -0.8766  0.4460
  197DOPC   C2424396   1.979   7.367   4.308  0.2734 -0.0486  0.0605
  197DOPC   H4R24397   2.085   7.347   4.280 -0.2111  0.3904 -2.3324
  197DOPC   H4S24398   1.928   7.276   4.344 -0.7169 -0.0391 -1.2559
  197DOPC   C2524399   1.968   7.473   4.421 -0.1812 -0.0680  0.3208
  197DOPC   H5R24400   1.993   7.576   4.387  0.5547 -0.0878  0.7816
  197DOPC   H5S24401   2.034   7.440   4.504 -0.3976  1.6539  1.2382
  197DOPC   C2624402   1.833   7.477   4.487  0.0174 -0.3512 -0.2547
  197DOPC   H6R24403   1.802   7.385   4.541 -0.0810 -0.7368 -0.9668
  197DOPC   H6S24404   1.764   7.482   4.400  0.3762 -0.9135 -0.5742
  197DOPC   C2724405   1.813   7.599   4.580  0.5382 -0.3545 -0.4308
  197DOPC   H7R24406   1.846   7.694   4.531 -1.5994  0.3596 -0.6131
  197DOPC   H7S24407   1.878   7.590   4.669 -0.7879 -2.1779  0.4095
  197DOPC   C2824408   1.661   7.610   4.630 -0.7822  0.5727  0.4962
  197DOPC   H8R24409   1.610   7.520   4.669 -1.3961  0.0183 -1.4703
  197DOPC   H8S24410   1.621   7.620   4.527 -1.0901  1.1064  0.6619
  197DOPC   C2924411   1.626   7.729   4.709  0.2083  0.9361 -0.0680
  197DOPC   H9R24412   1.614   7.826   4.657 -1.6208  2.1391  2.4097
  197DOPC  C21024413   1.647   7.736   4.841 -0.1660 -0.1322  0.4581
  197DOPC  H10R24414   1.637   7.831   4.895  0.2801 -0.4484  1.1124
  197DOPC  C21124415   1.684   7.615   4.932 -0.3013 -0.2800  0.2303
  197DOPC  H11R24416   1.731   7.537   4.869  0.2397  0.5265 -0.3905
  197DOPC  H11S24417   1.588   7.578   4.972 -1.0504 -0.3729 -1.5579
  197DOPC  C21224418   1.784   7.653   5.041  0.7786  0.6547 -0.4616
  197DOPC  H12R24419   1.746   7.741   5.097  0.7597  2.6896 -3.4384
  197DOPC  H12S24420   1.882   7.678   4.993  1.2000 -0.2204 -0.0749
  197DOPC  C21324421   1.794   7.537   5.134 -0.2793  0.8543 -0.5251
  197DOPC  H13R24422   1.841   7.456   5.074  1.3053  2.4923 -1.5938
  197DOPC  H13S24423   1.695   7.502   5.170  0.4013  1.5606  2.2252
  197DOPC  C21424424   1.872   7.567   5.266  0.0839 -0.0497  0.3668
  197DOPC  H14R24425   1.868   7.676   5.286  0.4530 -0.3856  2.4491
  197DOPC  H14S24426   1.981   7.549   5.250 -0.1458 -0.1718 -1.2912
  197DOPC  C21524427   1.815   7.487   5.381  0.6754 -0.0654 -0.1443
  197DOPC  H15R24428   1.836   7.378   5.377  1.5859  0.1131 -3.2801
  197DOPC  H15S24429   1.707   7.510   5.393  0.9999  1.4803  0.0362
  197DOPC  C21624430   1.875   7.543   5.516  0.9471 -0.4141  0.5106
  197DOPC  H16R24431   1.861   7.653   5.517  1.0413 -0.3285 -1.8387
  197DOPC  H16S24432   1.983   7.520   5.521  1.1902 -0.2577 -2.4558
  197DOPC  C21724433   1.810   7.493   5.652 -0.5298 -0.7671 -0.3557
  197DOPC  H17R24434   1.787   7.386   5.635 -0.0107 -1.5246  3.0511
  197DOPC  H17S24435   1.715   7.545   5.678 -0.2877 -0.3367 -0.3294
  197DOPC  C21824436   1.907   7.492   5.765 -0.6145 -0.2896  0.0651
  197DOPC  H18R24437   1.869   7.451   5.861 -1.6282 -1.3004 -0.7375
  197DOPC  H18S24438   1.946   7.596   5.772 -1.2034 -0.0042 -0.7426
  197DOPC  H18T24439   2.000   7.435   5.743  1.6463  2.6409  1.3407
  197DOPC   C3324440   1.855   6.704   4.643  0.6366  0.5028  0.1284
  197DOPC   H3X24441   1.788   6.617   4.660  2.6665 -1.1465  0.1364
  197DOPC   H3Y24442   1.794   6.794   4.623  0.6431  0.8221  1.4765
  197DOPC   C3424443   1.931   6.710   4.771 -0.9580 -0.3415  0.1351
  197DOPC   H4X24444   2.005   6.793   4.761 -2.2767  0.7715 -0.8488
  197DOPC   H4Y24445   1.987   6.614   4.773  0.1167  0.2820  1.1683
  197DOPC   C3524446   1.831   6.728   4.887 -0.0010  0.5220 -0.5342
  197DOPC   H5X24447   1.750   6.653   4.871  0.2133  0.4792 -1.4578
  197DOPC   H5Y24448   1.776   6.823   4.877  0.4077  0.8530  0.2690
  197DOPC   C3624449   1.900   6.712   5.023  0.0521  0.5606 -0.0511
  197DOPC   H6X24450   1.941   6.610   5.038  0.3903  0.5027 -1.2673
  197DOPC   H6Y24451   1.984   6.783   5.033 -0.9976  1.8134  0.2589
  197DOPC   C3724452   1.812   6.776   5.126  0.3903  0.0580 -0.1572
  197DOPC   H7X24453   1.806   6.884   5.102 -0.5345 -0.4770 -2.6454
  197DOPC   H7Y24454   1.708   6.737   5.121  1.1030 -1.8295 -1.7518
  197DOPC   C3824455   1.864   6.759   5.270 -0.3512 -0.1599 -0.6091
  197DOPC   H8X24456   1.790   6.811   5.334  0.0617 -0.5361  0.1917
  197DOPC   H8Y24457   1.954   6.821   5.291  0.4061 -1.2170 -0.6530
  197DOPC   C3924458   1.889   6.613   5.306  0.3443 -0.3448 -0.7600
  197DOPC   H9X24459   1.977   6.566   5.262  1.2583  0.7400 -0.1351
  197DOPC  C31024460   1.801   6.540   5.380  0.1749 -0.1384  0.3079
  197DOPC  H10X24461   1.838   6.440   5.407  1.7781  0.2900 -0.2140
  197DOPC  C31124462   1.663   6.580   5.436 -0.2243  0.3496 -0.0717
  197DOPC  H11X24463   1.586   6.500   5.434  0.6285 -0.5063  0.3614
  197DOPC  H11Y24464   1.620   6.662   5.375  2.5016  0.5133 -1.9870
  197DOPC  C31224465   1.675   6.632   5.585  0.3013 -0.5314 -0.1447
  197DOPC  H12X24466   1.576   6.671   5.616  0.1296 -0.6889 -0.4933
  197DOPC  H12Y24467   1.741   6.722   5.583  0.4705 -0.6555 -0.2902
  197DOPC  C31324468   1.704   6.522   5.698 -0.5446  0.3658 -0.2448
  197DOPC  H13X24469   1.632   6.444   5.668 -0.5019  0.5158 -0.7402
  197DOPC  H13Y24470   1.811   6.497   5.684 -0.3504  0.8124  0.3387
  197DOPC  C31424471   1.672   6.572   5.837 -0.1150  0.2148 -0.0475
  197DOPC  H14X24472   1.753   6.645   5.857 -1.6396  2.1079 -0.4411
  197DOPC  H14Y24473   1.571   6.618   5.842 -0.7869 -0.8874 -2.1477
  197DOPC  C31524474   1.686   6.463   5.945  0.6808  0.0193  0.1942
  197DOPC  H15X24475   1.793   6.435   5.956  0.5680 -0.2786  0.5530
  197DOPC  H15Y24476   1.616   6.381   5.918 -0.2104  0.6461  0.5553
  197DOPC  C31624477   1.639   6.500   6.091  0.4878  0.0490 -0.3081
  197DOPC  H16X24478   1.677   6.413   6.149 -3.1901 -2.3663 -1.1727
  197DOPC  H16Y24479   1.676   6.596   6.133 -1.8453  0.6627  0.4750
  197DOPC  C31724480   1.485   6.496   6.098  0.1167 -0.2505 -0.5778
  197DOPC  H17X24481   1.439   6.560   6.020  0.4710 -0.6547 -1.1250
  197DOPC  H17Y24482   1.452   6.393   6.072  1.4064 -1.1782  1.2525
  197DOPC  C31824483   1.432   6.526   6.239 -0.4428 -0.5688 -0.7593
  197DOPC  H18X24484   1.443   6.636   6.251 -0.9491 -0.4583 -1.2184
  197DOPC  H18Y24485   1.327   6.491   6.243 -0.0913 -1.6852 -1.0691
  197DOPC  H18Z24486   1.511   6.487   6.306  1.2768  3.4498 -0.1561
  198DOPC     N24487   6.045   1.186   3.212  0.5195  0.1119  0.0075
  198DOPC   C1224488   5.952   1.230   3.325  0.0922 -0.3886 -0.1518
  198DOPC  H12A24489   6.007   1.212   3.416  1.8602 -1.4535 -1.3542
  198DOPC  H12B24490   5.861   1.171   3.331  1.4422 -2.4906  0.7843
  198DOPC   C1324491   6.180   1.249   3.224 -0.1943 -0.2286  0.0403
  198DOPC  H13A24492   6.249   1.197   3.159 -1.3763 -1.9619  0.1106
  198DOPC  H13B24493   6.174   1.352   3.192  0.4228 -0.7702 -2.0037
  198DOPC  H13C24494   6.224   1.256   3.322 -0.3323  5.0211 -0.0035
  198DOPC   C1424495   5.991   1.211   3.077  0.1791  0.4250  0.6350
  198DOPC  H14A24496   6.040   1.149   3.003 -0.7052  0.1679  0.2569
  198DOPC  H14B24497   5.888   1.180   3.072  0.5554 -0.9610  1.1563
  198DOPC  H14C24498   6.013   1.314   3.052  0.0619  0.1307 -0.8066
  198DOPC   C1524499   6.068   1.040   3.226  0.5280 -0.1377  0.0542
  198DOPC  H15A24500   6.101   1.009   3.324  0.8594  0.7579  0.2295
  198DOPC  H15B24501   6.143   1.007   3.156  0.1436 -0.8640 -0.0316
  198DOPC  H15C24502   5.978   0.983   3.206  0.3086 -0.0564  0.7927
  198DOPC   C1124503   5.919   1.382   3.335 -0.3102  0.2469  0.3467
  198DOPC  H11A24504   5.833   1.391   3.264  0.1373  1.7783 -0.0390
  198DOPC  H11B24505   5.868   1.400   3.432  0.7462 -0.1884  0.9950
  198DOPC     P24506   6.113   1.524   3.436 -0.0284 -0.0024  0.2416
  198DOPC   O1324507   6.045   1.620   3.528 -0.0688  0.2294 -0.5802
  198DOPC   O1424508   6.245   1.575   3.389 -0.2552 -0.1850 -0.3011
  198DOPC   O1224509   6.022   1.479   3.307 -0.7304 -0.4262 -0.1172
  198DOPC   O1124510   6.137   1.391   3.516  0.1118  0.3500 -0.1076
  198DOPC    C124511   6.085   1.366   3.650 -0.7522 -0.1581  0.4093
  198DOPC    HA24512   6.097   1.257   3.664  3.5071 -0.0763 -1.1800
  198DOPC    HB24513   5.977   1.391   3.653 -0.3457  1.8027  0.2331
  198DOPC    C224514   6.174   1.420   3.764  0.3306  0.5037  0.2066
  198DOPC    HS24515   6.193   1.526   3.736 -3.0040  0.8641 -1.1355
  198DOPC   O2124516   6.293   1.341   3.774 -0.0111  0.5882  0.0763
  198DOPC   C2124517   6.389   1.390   3.842  0.2676 -0.7966 -0.1506
  198DOPC   O2224518   6.397   1.502   3.891  0.0104 -0.5240 -0.1367
  198DOPC   C2224519   6.506   1.297   3.860 -0.5191  0.4746 -0.9710
  198DOPC   H2R24520   6.599   1.357   3.850  0.5000 -0.2953  2.6102
  198DOPC   H2S24521   6.513   1.226   3.775  0.3754  0.1756 -0.6610
  198DOPC    C324522   6.098   1.402   3.900  0.3393 -0.2010  0.4765
  198DOPC    HX24523   6.006   1.461   3.879  0.6420  0.0040 -0.2985
  198DOPC    HY24524   6.152   1.447   3.986 -0.3384 -0.2855  0.9573
  198DOPC   O3124525   6.065   1.264   3.929 -0.7142 -0.1300  0.4336
  198DOPC   C3124526   5.973   1.254   4.028  0.1476 -0.0569  0.1982
  198DOPC   O3224527   5.918   1.349   4.078 -0.7590  0.3111 -0.0444
  198DOPC   C3224528   5.965   1.112   4.064  0.5200 -0.2222  0.1941
  198DOPC   H2X24529   5.915   1.065   3.977  0.7462  0.7160 -0.4707
  198DOPC   H2Y24530   6.067   1.067   4.061  0.0390 -1.3344 -2.7699
  198DOPC   C2324531   6.497   1.227   3.993 -0.3837  0.1223 -0.1557
  198DOPC   H3R24532   6.469   1.298   4.074 -1.7309 -1.3351  0.7192
  198DOPC   H3S24533   6.588   1.168   4.017 -0.4693 -0.3178 -0.9016
  198DOPC   C2424534   6.389   1.118   3.992 -0.7277  0.3626 -1.0244
  198DOPC   H4R24535   6.399   1.047   3.907  1.7262 -0.0973 -0.4398
  198DOPC   H4S24536   6.283   1.141   3.967 -0.8040  1.1051 -0.0801
  198DOPC   C2524537   6.395   1.024   4.110  0.0517 -0.3868  0.0257
  198DOPC   H5R24538   6.484   0.959   4.095 -0.0386 -0.7848  1.1329
  198DOPC   H5S24539   6.305   0.959   4.105 -1.2774  1.4292 -0.9218
  198DOPC   C2624540   6.393   1.083   4.251  0.5312 -0.3543 -0.4565
  198DOPC   H6R24541   6.314   1.160   4.242 -0.4729 -1.4504 -1.5147
  198DOPC   H6S24542   6.490   1.136   4.261 -0.1014  1.0427 -1.4028
  198DOPC   C2724543   6.356   0.990   4.366  0.3615  0.0271  0.3852
  198DOPC   H7R24544   6.434   0.911   4.372 -0.1850 -0.4137  2.7058
  198DOPC   H7S24545   6.257   0.948   4.334 -0.5549  0.1713  2.8690
  198DOPC   C2824546   6.334   1.079   4.489 -0.0450  0.0171  0.5063
  198DOPC   H8R24547   6.310   1.015   4.576 -1.9667  0.4044  0.3049
  198DOPC   H8S24548   6.259   1.160   4.476  0.7686  0.6980 -0.1090
  198DOPC   C2924549   6.461   1.150   4.533 -0.0848 -0.0134 -0.4243
  198DOPC   H9R24550   6.467   1.249   4.484  2.6543 -0.5256 -1.2636
  198DOPC  C21024551   6.556   1.130   4.623  0.2952 -0.3287 -0.2551
  198DOPC  H10R24552   6.635   1.205   4.639  0.4130  0.0758 -2.3749
  198DOPC  C21124553   6.562   1.007   4.708  0.4516  0.4246  0.1981
  198DOPC  H11R24554   6.657   0.952   4.691  0.9524  1.4379 -0.4024
  198DOPC  H11S24555   6.488   0.931   4.677 -1.6378  2.1200  0.7584
  198DOPC  C21224556   6.541   1.017   4.859 -0.4201  0.2208 -0.2679
  198DOPC  H12R24557   6.449   1.077   4.874  0.0822  0.6214  1.4028
  198DOPC  H12S24558   6.631   1.066   4.903 -1.3190 -1.9030  4.4603
  198DOPC  C21324559   6.547   0.882   4.932  0.1536  0.6573 -0.0650
  198DOPC  H13R24560   6.654   0.858   4.949 -0.1268 -0.5793  0.0153
  198DOPC  H13S24561   6.512   0.800   4.866  0.8556 -0.4099  0.8488
  198DOPC  C21424562   6.491   0.876   5.076  0.2910 -0.0612 -1.0099
  198DOPC  H14R24563   6.518   0.779   5.124 -3.1687 -0.9933 -0.6880
  198DOPC  H14S24564   6.380   0.869   5.073  0.0961  2.3829 -1.1686
  198DOPC  C21524565   6.527   0.999   5.166 -0.1513  0.2479  0.4978
  198DOPC  H15R24566   6.494   1.095   5.121  0.0379  0.8215  1.5444
  198DOPC  H15S24567   6.636   1.003   5.187 -0.0970  0.5803  0.1597
  198DOPC  C21624568   6.475   0.977   5.307  0.5506 -0.5574  1.0079
  198DOPC  H16R24569   6.365   0.968   5.311  0.5060 -0.7882 -0.4007
  198DOPC  H16S24570   6.504   1.069   5.363  1.0761 -0.7251  1.0243
  198DOPC  C21724571   6.528   0.854   5.373  1.1495 -0.5891 -0.0911
  198DOPC  H17R24572   6.638   0.861   5.357  0.9788 -1.1209 -1.6400
  198DOPC  H17S24573   6.509   0.756   5.324 -1.4275 -0.8825  1.3057
  198DOPC  C21824574   6.503   0.840   5.525  0.3003  0.5539  0.2228
  198DOPC  H18R24575   6.396   0.811   5.537 -0.6449  3.7472  0.6718
  198DOPC  H18S24576   6.502   0.932   5.588 -2.5285 -1.7090  3.8853
  198DOPC  H18T24577   6.569   0.759   5.562 -2.6345 -2.1317 -0.0239
  198DOPC   C3324578   5.895   1.083   4.199  0.0723  0.8711  0.4147
  198DOPC   H3X24579   5.857   0.978   4.204  1.6527  0.3045  1.2208
  198DOPC   H3Y24580   5.800   1.140   4.206 -1.6570 -1.9607  2.6889
  198DOPC   C3424581   5.967   1.129   4.324 -0.2133 -0.4707 -0.4575
  198DOPC   H4X24582   5.984   1.238   4.332  1.8364 -0.7912  0.1149
  198DOPC   H4Y24583   6.073   1.098   4.315  0.1943  0.8937 -0.4940
  198DOPC   C3524584   5.911   1.081   4.460 -0.8010 -0.1040  0.0708
  198DOPC   H5X24585   5.891   0.973   4.467  1.1319 -0.4242  1.6089
  198DOPC   H5Y24586   5.815   1.132   4.484 -1.4629 -1.6146  0.7209
  198DOPC   C3624587   6.008   1.113   4.574  0.3681  0.6035 -0.4264
  198DOPC   H6X24588   6.093   1.042   4.565 -0.7180 -0.5737 -1.6051
  198DOPC   H6Y24589   6.041   1.219   4.562 -0.5610  0.9018 -0.4105
  198DOPC   C3724590   5.950   1.096   4.712 -0.4398  0.6019 -0.2612
  198DOPC   H7X24591   5.874   1.175   4.730 -0.7108  0.4268 -0.6127
  198DOPC   H7Y24592   5.890   1.003   4.710 -0.0040  0.3273 -1.6524
  198DOPC   C3824593   6.051   1.095   4.824 -0.0206  0.4481 -0.1702
  198DOPC   H8X24594   5.994   1.108   4.918 -2.9279 -2.1624 -1.3543
  198DOPC   H8Y24595   6.119   1.181   4.809  1.6342 -0.8489 -0.3101
  198DOPC   C3924596   6.132   0.964   4.841 -0.5665  0.5477 -0.6318
  198DOPC   H9X24597   6.212   0.940   4.770  1.6024 -0.6213  2.0084
  198DOPC  C31024598   6.129   0.871   4.942 -0.3419 -0.0159 -0.7403
  198DOPC  H10X24599   6.197   0.785   4.945 -0.3939 -0.0608 -0.8316
  198DOPC  C31124600   6.031   0.870   5.060  0.1896  0.4602  0.4389
  198DOPC  H11X24601   6.003   0.764   5.080 -1.5156  0.9065  0.5592
  198DOPC  H11Y24602   5.939   0.930   5.043 -2.1312 -2.6272  1.0682
  198DOPC  C31224603   6.101   0.937   5.180  1.1810 -0.2557 -1.2883
  198DOPC  H12X24604   6.133   1.041   5.157  0.9594  0.0418 -0.2915
  198DOPC  H12Y24605   6.196   0.881   5.200 -0.5419 -3.0433 -0.2315
  198DOPC  C31324606   6.025   0.942   5.309  0.8563 -0.4657  0.6108
  198DOPC  H13X24607   5.927   0.986   5.280  0.7804 -0.6153  0.6399
  198DOPC  H13Y24608   6.009   0.837   5.340 -0.6563 -0.4632 -0.0679
  198DOPC  C31424609   6.110   1.019   5.414 -0.0577 -0.6738 -0.1705
  198DOPC  H14X24610   6.198   0.958   5.444  0.5664  0.2627 -0.0663
  198DOPC  H14Y24611   6.153   1.111   5.368  0.5322 -1.1665 -0.6189
  198DOPC  C31524612   6.040   1.056   5.544  0.5131  0.3524 -0.7246
  198DOPC  H15X24613   5.984   0.961   5.560  1.7229 -0.3875 -0.7408
  198DOPC  H15Y24614   5.966   1.138   5.530 -1.6891 -1.3286  0.5050
  198DOPC  C31624615   6.142   1.078   5.668  0.6507 -0.0941 -0.0728
  198DOPC  H16X24616   6.086   1.099   5.762 -0.4557 -2.7960 -0.0397
  198DOPC  H16Y24617   6.199   0.984   5.686  0.6217  0.0834  1.0281
  198DOPC  C31724618   6.243   1.184   5.640 -0.7542  1.1380  0.0150
  198DOPC  H17X24619   6.311   1.144   5.562 -0.2669  0.5680  0.7264
  198DOPC  H17Y24620   6.183   1.269   5.599 -3.2444 -0.2480  0.5702
  198DOPC  C31824621   6.327   1.225   5.758  0.3096  0.0770 -0.2908
  198DOPC  H18X24622   6.261   1.273   5.834  0.9043  2.0386 -0.9504
  198DOPC  H18Y24623   6.367   1.135   5.809 -0.6801  0.8326  1.9096
  198DOPC  H18Z24624   6.411   1.293   5.729 -0.6565  1.5703  0.2742
  199DOPC     N24625   6.170   2.066   3.463 -0.1388 -0.6488  0.0192
  199DOPC   C1224626   6.271   2.139   3.548 -0.8883 -0.0442 -0.7479
  199DOPC  H12A24627   6.280   2.245   3.532  0.8733  0.3274  2.0177
  199DOPC  H12B24628   6.372   2.102   3.533 -0.0960 -0.2964  3.7984
  199DOPC   C1324629   6.231   2.053   3.329  0.5092 -0.1688  0.0863
  199DOPC  H13A24630   6.241   2.145   3.272 -1.1291 -0.6005 -0.9837
  199DOPC  H13B24631   6.330   2.018   3.354 -0.2632 -1.0088  2.1296
  199DOPC  H13C24632   6.185   1.971   3.276 -0.8683  0.1350  0.7628
  199DOPC   C1424633   6.032   2.128   3.446 -0.2290  0.1657  0.1261
  199DOPC  H14A24634   6.032   2.236   3.458 -1.2330  0.2573 -0.5940
  199DOPC  H14B24635   5.994   2.106   3.347  0.1831  1.0801 -0.2537
  199DOPC  H14C24636   5.968   2.084   3.520  1.6439  2.9015  3.7325
  199DOPC   C1524637   6.156   1.917   3.506 -0.7335 -0.6437 -0.0053
  199DOPC  H15A24638   6.090   1.914   3.592  1.5221  1.2009  1.9176
  199DOPC  H15B24639   6.240   1.855   3.532  0.4747  0.1814 -1.8017
  199DOPC  H15C24640   6.103   1.867   3.426  0.5339 -0.3039 -1.0995
  199DOPC   C1124641   6.262   2.117   3.707  0.8758 -0.0919  0.1825
  199DOPC  H11A24642   6.291   2.013   3.731 -0.5303 -1.1307 -2.2211
  199DOPC  H11B24643   6.329   2.192   3.753  1.6912 -0.6178 -0.1305
  199DOPC     P24644   6.024   2.080   3.826  0.1754 -0.1006 -0.1318
  199DOPC   O1324645   5.958   1.993   3.726 -0.0304 -0.7711 -0.2094
  199DOPC   O1424646   5.945   2.175   3.905  0.0253  0.2461 -0.0665
  199DOPC   O1224647   6.129   2.167   3.748 -0.0650  0.3549  0.3450
  199DOPC   O1124648   6.114   1.995   3.925  0.4301 -0.0101 -0.5205
  199DOPC    C124649   6.189   2.059   4.025 -0.7888  0.2366  0.0951
  199DOPC    HA24650   6.194   2.169   4.013  1.4317  0.1678 -0.0239
  199DOPC    HB24651   6.291   2.022   4.001 -1.1811 -1.8023  1.2409
  199DOPC    C224652   6.139   2.025   4.167  0.0433 -0.2697  0.5252
  199DOPC    HS24653   6.220   2.065   4.232  1.7132 -1.4464 -0.7536
  199DOPC   O2124654   6.119   1.884   4.181 -0.1123  0.0051  0.7049
  199DOPC   C2124655   6.223   1.817   4.219  1.1642 -0.7560  0.0198
  199DOPC   O2224656   6.324   1.865   4.270  0.0351  0.1083  0.2512
  199DOPC   C2224657   6.195   1.668   4.209 -0.1855 -0.3755 -0.1357
  199DOPC   H2R24658   6.282   1.614   4.166  0.0622 -0.6841  0.7370
  199DOPC   H2S24659   6.104   1.640   4.153 -0.2128 -0.0503 -0.2574
  199DOPC    C324660   6.008   2.109   4.200 -0.9457 -0.0975 -0.2218
  199DOPC    HX24661   5.928   2.076   4.130 -0.7796  1.1597 -1.0471
  199DOPC    HY24662   6.009   2.219   4.184 -0.7249 -0.1914 -0.8829
  199DOPC   O3124663   5.976   2.086   4.334 -0.0660  0.4021 -0.4220
  199DOPC   C3124664   5.970   2.183   4.429 -0.5166  0.4645 -0.1630
  199DOPC   O3224665   6.006   2.299   4.409 -0.9838 -0.3270 -0.1429
  199DOPC   C3224666   5.930   2.125   4.559 -0.2111 -0.8127  0.5783
  199DOPC   H2X24667   5.978   2.202   4.623 -1.2860  0.0161  0.4220
  199DOPC   H2Y24668   5.823   2.136   4.585  0.0555  1.2377  0.9770
  199DOPC   C2324669   6.183   1.606   4.354 -0.2177 -0.8833  0.2826
  199DOPC   H3R24670   6.117   1.518   4.337 -0.8366 -0.0294 -2.0343
  199DOPC   H3S24671   6.123   1.672   4.419 -1.3451 -0.8251 -0.7932
  199DOPC   C2424672   6.320   1.570   4.407 -0.1227 -1.0898 -0.0329
  199DOPC   H4R24673   6.373   1.665   4.430  1.0123 -1.6109 -0.4345
  199DOPC   H4S24674   6.384   1.517   4.333  0.7828  0.2083 -0.2193
  199DOPC   C2524675   6.305   1.483   4.538  0.5625 -1.0194  1.1984
  199DOPC   H5R24676   6.409   1.451   4.562  1.2908  0.1002 -0.2527
  199DOPC   H5S24677   6.251   1.389   4.513 -0.3116 -0.2787  0.2380
  199DOPC   C2624678   6.264   1.561   4.664  0.1035 -0.2524  0.7593
  199DOPC   H6R24679   6.172   1.619   4.644  0.8678  0.3837 -1.1734
  199DOPC   H6S24680   6.346   1.628   4.698  0.6076 -0.9140  0.8843
  199DOPC   C2724681   6.253   1.464   4.786  0.0604  0.1203 -0.8606
  199DOPC   H7R24682   6.335   1.390   4.776 -0.3313 -0.7485  1.6412
  199DOPC   H7S24683   6.157   1.408   4.774 -0.0318  0.3241 -1.0911
  199DOPC   C2824684   6.251   1.535   4.924 -0.6696  0.3268  0.7765
  199DOPC   H8R24685   6.162   1.602   4.927 -1.4793 -0.6482 -0.6251
  199DOPC   H8S24686   6.345   1.591   4.942 -0.7877 -0.3186  4.0863
  199DOPC   C2924687   6.227   1.423   5.023 -1.8594  0.1121 -0.7663
  199DOPC   H9R24688   6.279   1.327   5.008 -2.3899 -0.3968  0.5270
  199DOPC  C21024689   6.134   1.426   5.124 -0.3546 -0.0306  0.4487
  199DOPC  H10R24690   6.138   1.328   5.174  2.8155 -0.1474  0.1380
  199DOPC  C21124691   6.029   1.522   5.162  0.1908 -0.0066  0.0384
  199DOPC  H11R24692   6.029   1.622   5.114 -1.8892  1.0843  2.1442
  199DOPC  H11S24693   6.038   1.548   5.269 -2.0932 -1.5040  0.6557
  199DOPC  C21224694   5.883   1.462   5.143 -0.0376 -0.8980 -0.3349
  199DOPC  H12R24695   5.820   1.546   5.179  0.0762  0.1867 -2.4994
  199DOPC  H12S24696   5.856   1.376   5.209 -1.1086 -1.3423 -1.3170
  199DOPC  C21324697   5.836   1.426   5.001  0.2789  0.2825  0.7030
  199DOPC  H13R24698   5.735   1.382   5.011  0.5177 -0.8120 -1.3045
  199DOPC  H13S24699   5.911   1.347   4.977 -0.8994 -1.0998  1.4094
  199DOPC  C21424700   5.825   1.537   4.890 -0.2406  0.2374 -0.0395
  199DOPC  H14R24701   5.925   1.584   4.896  0.2858 -0.9754  1.1241
  199DOPC  H14S24702   5.748   1.613   4.914 -0.7946 -1.2565  3.5283
  199DOPC  C21524703   5.801   1.480   4.749  0.1223 -0.0369 -0.1793
  199DOPC  H15R24704   5.710   1.416   4.737 -0.5089  1.2207 -2.7443
  199DOPC  H15S24705   5.886   1.412   4.729 -0.0587 -0.9960  2.0405
  199DOPC  C21624706   5.798   1.589   4.642 -0.1930  0.7082  0.4899
  199DOPC  H16R24707   5.873   1.668   4.665 -2.0345  3.4847 -2.1665
  199DOPC  H16S24708   5.702   1.645   4.638 -0.6261 -0.0662 -3.0613
  199DOPC  C21724709   5.808   1.524   4.505 -0.2402  0.6096 -0.2649
  199DOPC  H17R24710   5.714   1.467   4.493  0.6134 -1.6180  2.4051
  199DOPC  H17S24711   5.882   1.441   4.507 -2.1578 -1.1710  0.3296
  199DOPC  C21824712   5.833   1.630   4.402  0.3759 -0.2582 -0.2074
  199DOPC  H18R24713   5.843   1.597   4.297 -2.2136  1.6437 -1.1644
  199DOPC  H18S24714   5.929   1.679   4.431 -0.3255  1.5204 -0.7398
  199DOPC  H18T24715   5.750   1.703   4.414 -1.3905 -2.3147  0.7578
  199DOPC   C3324716   5.988   1.991   4.583 -0.9347  0.7505 -0.7311
  199DOPC   H3X24717   6.089   1.979   4.539 -0.0079 -1.7968  1.7529
  199DOPC   H3Y24718   5.922   1.913   4.540 -0.6557 -0.4774  0.9489
  199DOPC   C3424719   6.019   1.957   4.733 -0.2719  0.3627 -0.9469
  199DOPC   H4X24720   6.092   2.021   4.787 -0.5091 -0.4923  0.4407
  199DOPC   H4Y24721   6.048   1.850   4.740 -0.6695  0.3343  1.0727
  199DOPC   C3524722   5.890   1.973   4.817 -0.6396 -0.2064 -0.5651
  199DOPC   H5X24723   5.817   1.894   4.789 -0.8402 -0.7965  1.4775
  199DOPC   H5Y24724   5.837   2.068   4.795 -0.3359 -0.0228 -0.5102
  199DOPC   C3624725   5.918   1.974   4.972 -0.5301 -0.3817  0.5873
  199DOPC   H6X24726   5.967   1.879   5.003 -0.4725 -0.8541 -0.8796
  199DOPC   H6Y24727   5.979   2.060   5.007  0.1745 -0.9825  0.8836
  199DOPC   C3724728   5.785   1.991   5.044  0.2709 -0.8248 -0.0427
  199DOPC   H7X24729   5.714   2.060   4.994  0.9206 -0.4748 -0.4868
  199DOPC   H7Y24730   5.730   1.895   5.033 -0.2753 -0.2622 -3.0803
  199DOPC   C3824731   5.802   2.029   5.192  0.4939  0.3190 -0.7704
  199DOPC   H8X24732   5.833   2.136   5.201 -2.3047  1.1122  1.0537
  199DOPC   H8Y24733   5.879   1.966   5.241  0.8398 -0.7551 -2.6486
  199DOPC   C3924734   5.667   2.020   5.256 -0.5721  0.0970 -0.4770
  199DOPC   H9X24735   5.585   2.074   5.206 -0.7313  0.5302  0.2373
  199DOPC  C31024736   5.631   1.930   5.346 -0.3221  0.3275 -0.8717
  199DOPC  H10X24737   5.528   1.934   5.385  0.0717  2.7685  0.1154
  199DOPC  C31124738   5.722   1.817   5.401  0.2388 -0.7541  0.3257
  199DOPC  H11X24739   5.809   1.791   5.336 -0.5035 -1.5346 -0.3802
  199DOPC  H11Y24740   5.660   1.726   5.396 -1.3570  0.3151  0.0056
  199DOPC  C31224741   5.775   1.842   5.544 -0.5608  0.4445  0.1823
  199DOPC  H12X24742   5.828   1.940   5.553 -0.1507  0.2668 -0.2289
  199DOPC  H12Y24743   5.856   1.769   5.565 -0.6890 -0.5097 -2.2388
  199DOPC  C31324744   5.663   1.838   5.648 -0.1595  0.0968 -0.6113
  199DOPC  H13X24745   5.576   1.906   5.637 -1.1056 -0.5356  2.1880
  199DOPC  H13Y24746   5.622   1.735   5.653 -1.3021  0.5555 -0.1787
  199DOPC  C31424747   5.719   1.877   5.788  0.5875  0.8786 -0.8115
  199DOPC  H14X24748   5.796   1.799   5.806 -0.1891  0.1408 -0.6316
  199DOPC  H14Y24749   5.755   1.982   5.782 -0.2028  1.2697  0.9614
  199DOPC  C31524750   5.604   1.868   5.885  0.3186 -0.1744  0.2938
  199DOPC  H15X24751   5.597   1.763   5.923 -0.4326 -0.7281 -1.3096
  199DOPC  H15Y24752   5.501   1.888   5.849 -0.1410 -1.1033  1.0374
  199DOPC  C31624753   5.627   1.957   6.014 -0.2814  0.4543  0.0639
  199DOPC  H16X24754   5.736   1.974   6.023 -0.2933  1.0944 -0.8505
  199DOPC  H16Y24755   5.594   2.061   5.996 -0.6718 -0.2064 -4.1896
  199DOPC  C31724756   5.556   1.898   6.137  0.0775 -0.1498  0.5593
  199DOPC  H17X24757   5.448   1.914   6.116  0.3099 -0.1796 -0.7459
  199DOPC  H17Y24758   5.571   1.788   6.134 -0.3710 -0.1840 -1.6279
  199DOPC  C31824759   5.585   1.952   6.270  0.0351 -0.5382 -0.4014
  199DOPC  H18X24760   5.515   1.928   6.353 -0.5470  0.2663 -0.6390
  199DOPC  H18Y24761   5.685   1.927   6.309  0.9581  0.7907 -1.7881
  199DOPC  H18Z24762   5.585   2.063   6.258  0.1683 -0.7196 -2.3316
  200DOPC     N24763   1.126   2.213   3.755  0.6293  0.8076 -0.2315
  200DOPC   C1224764   1.065   2.237   3.893 -0.6410 -0.1843  1.0411
  200DOPC  H12A24765   1.052   2.141   3.939 -2.3258 -0.2932  0.4171
  200DOPC  H12B24766   0.967   2.282   3.878  0.0495  0.5566 -1.9846
  200DOPC   C1324767   1.091   2.324   3.662  0.5326 -0.1504  0.0746
  200DOPC  H13A24768   1.141   2.417   3.687  1.2649 -0.0869 -1.4729
  200DOPC  H13B24769   1.111   2.301   3.559  0.9264 -1.8169  0.4975
  200DOPC  H13C24770   0.985   2.345   3.666  0.6031  0.2075  0.1262
  200DOPC   C1424771   1.060   2.101   3.687  0.0268  0.4002  0.1383
  200DOPC  H14A24772   1.100   2.094   3.587  2.3836 -1.6722  1.1112
  200DOPC  H14B24773   1.079   2.008   3.739  1.0812  0.7703  0.4164
  200DOPC  H14C24774   0.952   2.110   3.684 -0.0037  1.2096  2.4690
  200DOPC   C1524775   1.268   2.185   3.754 -0.3830 -0.6286 -0.2180
  200DOPC  H15A24776   1.295   2.103   3.818  0.8458 -1.4394 -1.7102
  200DOPC  H15B24777   1.325   2.272   3.784 -1.1980  0.7408 -2.4167
  200DOPC  H15C24778   1.313   2.163   3.659  0.8108 -1.4808  0.5139
  200DOPC   C1124779   1.147   2.323   3.989  0.4492 -0.9514  0.0095
  200DOPC  H11A24780   1.103   2.311   4.091  1.8445  0.7879  0.8707
  200DOPC  H11B24781   1.245   2.274   4.008  0.9406 -0.0013 -0.0547
  200DOPC     P24782   1.027   2.543   3.946  0.2426  0.1010  0.2197
  200DOPC   O1324783   0.909   2.453   3.944  0.1909  0.2365 -0.1948
  200DOPC   O1424784   1.038   2.642   3.837 -0.2278  0.2101  0.8142
  200DOPC   O1224785   1.157   2.458   3.945 -0.1939  0.0579  0.0169
  200DOPC   O1124786   1.030   2.614   4.088  0.2595 -0.3318  0.3095
  200DOPC    C124787   1.150   2.670   4.151 -0.1391 -0.6275  1.0243
  200DOPC    HA24788   1.125   2.775   4.175 -2.5932 -1.1452  0.9994
  200DOPC    HB24789   1.234   2.668   4.077 -1.0072  0.6396 -0.0430
  200DOPC    C224790   1.190   2.592   4.276 -0.0068  0.2372 -0.3515
  200DOPC    HS24791   1.203   2.488   4.238 -1.0937  0.4421 -1.3562
  200DOPC   O2124792   1.083   2.606   4.375  0.1398  0.3372  0.1480
  200DOPC   C2124793   0.996   2.507   4.378 -0.8261  0.3232  0.2453
  200DOPC   O2224794   0.995   2.407   4.310 -0.3920  0.3714  0.2847
  200DOPC   C2224795   0.880   2.543   4.465 -0.1843 -0.2351 -0.5108
  200DOPC   H2R24796   0.800   2.470   4.446  0.0067 -0.5764 -0.0177
  200DOPC   H2S24797   0.835   2.639   4.430  3.4189  0.6634 -3.3543
  200DOPC    C324798   1.320   2.651   4.348 -0.2716 -0.5171  0.3068
  200DOPC    HX24799   1.301   2.760   4.356 -1.3601 -0.8170  2.3785
  200DOPC    HY24800   1.409   2.643   4.282 -1.4287  2.7010 -1.8935
  200DOPC   O3124801   1.338   2.583   4.472 -0.1764  0.3770 -0.4304
  200DOPC   C3124802   1.304   2.650   4.583 -0.3482 -0.6157  0.4929
  200DOPC   O3224803   1.275   2.768   4.592 -0.7469 -0.2105  0.1386
  200DOPC   C3224804   1.323   2.546   4.693  0.1877 -0.4632 -0.3933
  200DOPC   H2X24805   1.266   2.453   4.674  1.7874 -1.2536 -1.6550
  200DOPC   H2Y24806   1.433   2.531   4.698  0.2927  0.2383 -0.4203
  200DOPC   C2324807   0.913   2.570   4.618  0.4670  0.5103 -0.2544
  200DOPC   H3R24808   0.827   2.627   4.659  0.8485  0.5323  0.5366
  200DOPC   H3S24809   1.002   2.635   4.626  3.0750 -2.9181  1.5649
  200DOPC   C2424810   0.930   2.442   4.705 -0.3720 -0.1850 -0.2256
  200DOPC   H4R24811   1.028   2.397   4.680 -0.3251  0.3706 -1.1181
  200DOPC   H4S24812   0.850   2.369   4.677 -0.6622  0.0759 -0.0841
  200DOPC   C2524813   0.912   2.468   4.856 -0.0402 -0.2909  0.1296
  200DOPC   H5R24814   0.819   2.525   4.877 -0.6074 -1.2712  0.3363
  200DOPC   H5S24815   1.000   2.530   4.883  0.0187  0.4215 -1.5510
  200DOPC   C2624816   0.910   2.334   4.944 -0.6565  0.1295 -0.2725
  200DOPC   H6R24817   0.987   2.262   4.909  0.6547  1.3105  0.0780
  200DOPC   H6S24818   0.809   2.289   4.934 -1.0487  1.0850 -0.7050
  200DOPC   C2724819   0.937   2.349   5.092 -0.6357  0.0252 -0.8093
  200DOPC   H7R24820   0.873   2.427   5.139  0.1698 -0.5883  1.4221
  200DOPC   H7S24821   1.042   2.380   5.112  0.1534 -2.6348 -0.4142
  200DOPC   C2824822   0.898   2.217   5.166  0.2933  0.1276 -0.5724
  200DOPC   H8R24823   0.953   2.217   5.263  0.6525  1.9150 -0.7368
  200DOPC   H8S24824   0.951   2.140   5.107  1.1344 -1.0905  1.6346
  200DOPC   C2924825   0.749   2.197   5.179 -0.0674  0.1750  0.6391
  200DOPC   H9R24826   0.692   2.238   5.095 -0.1965 -1.1500  0.0433
  200DOPC  C21024827   0.694   2.128   5.282  0.4831 -0.1909 -0.1817
  200DOPC  H10R24828   0.589   2.099   5.273  0.9078 -2.0735  0.4188
  200DOPC  C21124829   0.747   2.077   5.408 -0.1697  0.7852 -0.1780
  200DOPC  H11R24830   0.854   2.106   5.421  1.5445 -3.6424 -2.1909
  200DOPC  H11S24831   0.742   1.966   5.403  0.3861  0.7478 -0.0213
  200DOPC  C21224832   0.683   2.139   5.526 -0.3546 -0.2854 -0.1664
  200DOPC  H12R24833   0.574   2.121   5.521 -0.1351 -1.3392 -1.9958
  200DOPC  H12S24834   0.694   2.249   5.516  1.0641 -0.4639 -0.8627
  200DOPC  C21324835   0.742   2.080   5.652  0.3019 -0.0638 -0.7301
  200DOPC  H13R24836   0.853   2.075   5.659  0.1637 -2.1503  0.7282
  200DOPC  H13S24837   0.701   1.979   5.674  0.9794  0.3729  3.3159
  200DOPC  C21424838   0.699   2.161   5.775 -0.2479  0.0119  0.7668
  200DOPC  H14R24839   0.590   2.183   5.771 -0.4758 -1.2032 -0.7862
  200DOPC  H14S24840   0.744   2.263   5.771  1.1420 -0.6216 -0.6299
  200DOPC  C21524841   0.743   2.090   5.904 -0.6876  0.0366 -0.1870
  200DOPC  H15R24842   0.853   2.082   5.917 -0.5039  0.5958 -1.2624
  200DOPC  H15S24843   0.704   1.986   5.895 -0.4126 -0.0005 -1.0344
  200DOPC  C21624844   0.691   2.161   6.031  0.4887 -0.5626  0.3365
  200DOPC  H16R24845   0.741   2.259   6.046  0.2936 -0.3183 -0.5419
  200DOPC  H16S24846   0.705   2.096   6.120  1.3858 -0.5353  0.2314
  200DOPC  C21724847   0.538   2.198   6.019  0.5691  0.5109  0.6837
  200DOPC  H17R24848   0.480   2.107   5.994  1.0352  0.2203  0.6429
  200DOPC  H17S24849   0.507   2.265   5.936 -1.2049  0.8038  1.5508
  200DOPC  C21824850   0.471   2.262   6.141 -0.2174 -0.4217 -0.6762
  200DOPC  H18R24851   0.493   2.210   6.237  3.8953  1.0152 -0.6371
  200DOPC  H18S24852   0.362   2.265   6.118 -0.8070 -0.0865  1.8000
  200DOPC  H18T24853   0.510   2.366   6.149 -0.4397 -0.3727 -0.1705
  200DOPC   C3324854   1.276   2.604   4.835 -0.1769 -0.1573  0.1122
  200DOPC   H3X24855   1.166   2.617   4.825 -0.0495  0.3067 -0.7252
  200DOPC   H3Y24856   1.315   2.706   4.855  0.1615  0.0519 -1.4599
  200DOPC   C3424857   1.297   2.509   4.957 -0.5376 -0.3475  0.7296
  200DOPC   H4X24858   1.402   2.474   4.959 -0.2764  0.4387  1.5418
  200DOPC   H4Y24859   1.227   2.424   4.950  1.5716 -2.2637  1.8361
  200DOPC   C3524860   1.278   2.585   5.095  0.3507  0.1513  0.3881
  200DOPC   H5X24861   1.181   2.640   5.091  0.7443  0.8401  0.2371
  200DOPC   H5Y24862   1.362   2.658   5.094 -0.2388  0.8396  0.4999
  200DOPC   C3624863   1.271   2.496   5.219  0.0176  0.4688 -1.0617
  200DOPC   H6X24864   1.195   2.415   5.229 -0.4194  0.8826 -0.9774
  200DOPC   H6Y24865   1.362   2.434   5.231 -1.8057 -1.9835  1.4161
  200DOPC   C3724866   1.258   2.584   5.352 -0.4194 -0.4211  0.2253
  200DOPC   H7X24867   1.344   2.653   5.366 -0.9004  0.3067 -0.3724
  200DOPC   H7Y24868   1.168   2.647   5.337  0.0648  0.4650  0.9312
  200DOPC   C3824869   1.249   2.501   5.490 -0.5078 -0.8681 -0.6827
  200DOPC   H8X24870   1.256   2.569   5.578 -3.2153 -0.7935 -0.4456
  200DOPC   H8Y24871   1.334   2.430   5.487 -0.3782 -0.7436  0.0268
  200DOPC   C3924872   1.118   2.430   5.488  0.4013  0.2324 -0.2680
  200DOPC   H9X24873   1.099   2.373   5.395  0.2298 -0.3145  0.0948
  200DOPC  C31024874   1.028   2.432   5.589  0.6248  0.0251 -0.2664
  200DOPC  H10X24875   0.936   2.374   5.571  0.0439  0.8326  0.0739
  200DOPC  C31124876   1.032   2.508   5.719  0.4565 -0.3367 -0.3522
  200DOPC  H11X24877   0.937   2.504   5.776  1.1121  0.2215  0.8208
  200DOPC  H11Y24878   1.046   2.617   5.702  0.0691 -0.5687 -2.3723
  200DOPC  C31224879   1.145   2.467   5.813 -0.4340  0.3594 -0.8833
  200DOPC  H12X24880   1.242   2.469   5.760 -0.3353  0.6759 -0.6974
  200DOPC  H12Y24881   1.137   2.365   5.856  2.1518  0.3068 -0.3862
  200DOPC  C31324882   1.168   2.564   5.928  0.0331 -0.5261 -0.1376
  200DOPC  H13X24883   1.179   2.668   5.890  0.7246 -1.3567 -2.3485
  200DOPC  H13Y24884   1.076   2.565   5.990 -0.1268  0.6418 -0.3672
  200DOPC  C31424885   1.300   2.524   6.012  0.2022 -1.1242  0.7871
  200DOPC  H14X24886   1.297   2.423   6.059 -0.4182 -2.9981 -2.9650
  200DOPC  H14Y24887   1.388   2.515   5.944 -2.9266  0.6504 -4.0025
  200DOPC  C31524888   1.338   2.640   6.111  0.0505 -0.5437  0.1703
  200DOPC  H15X24889   1.263   2.641   6.193 -2.0596  0.5483 -1.6530
  200DOPC  H15Y24890   1.332   2.733   6.051 -0.1269 -0.3811  0.4423
  200DOPC  C31624891   1.485   2.621   6.155  0.7140 -0.5531 -0.4996
  200DOPC  H16X24892   1.494   2.518   6.196 -1.3263 -1.4176 -2.0330
  200DOPC  H16Y24893   1.547   2.643   6.065 -1.3042  1.1957 -1.5497
  200DOPC  C31724894   1.535   2.726   6.251 -0.0499 -0.2584  0.5729
  200DOPC  H17X24895   1.646   2.717   6.253 -0.1785 -2.5175  0.8169
  200DOPC  H17Y24896   1.506   2.826   6.214  0.1145 -0.2197  0.5452
  200DOPC  C31824897   1.475   2.710   6.390 -0.5575 -0.7638  0.0174
  200DOPC  H18X24898   1.533   2.771   6.463 -0.1955 -1.0382 -0.0377
  200DOPC  H18Y24899   1.371   2.749   6.389  0.3439  2.1052 -3.3836
  200DOPC  H18Z24900   1.478   2.604   6.421  0.8355  0.0392  2.9581
  201SOD    SOD24901   4.201   5.188   8.773  0.2300  0.1396 -0.1254
  202SOD    SOD24902   4.096   5.826   2.591  0.4333  0.1887  0.1386
  203SOD    SOD24903   1.906   0.373   8.727 -0.8072  0.2069 -0.3423
  204SOD    SOD24904   0.550   5.071   1.757  0.0586 -0.0461  0.3599
  205SOD    SOD24905   4.113   5.862  11.951 -0.6886  0.6894  0.1444
  206SOD    SOD24906   4.415   1.812   1.726 -0.4854 -0.0347  0.0810
  207SOD    SOD24907   1.190   4.069   4.763 -0.3322 -0.3091  0.0575
  208SOD    SOD24908   2.105   1.103   9.102 -0.2161  0.1682 -0.1177
  209SOD    SOD24909   5.558   1.828   3.515 -0.2083  0.0202  0.1397
  210SOD    SOD24910   6.230   0.543  11.137 -0.4494 -0.6065  0.0225
  211SOD    SOD24911   2.632   6.038   9.060  0.1812  0.2171  0.2641
  212SOD    SOD24912   6.190   4.189   9.333 -0.0570 -0.0125  0.0376
  213SOD    SOD24913   4.517   3.711   1.096 -0.2466 -0.6141  0.6139
  214SOD    SOD24914   1.490   4.452  10.088  0.1902 -0.0691  0.4643
  215SOD    SOD24915   2.227   4.998  10.105 -0.5803  0.1751  0.0812
  216SOD    SOD24916   0.539   0.980  10.740  0.6405  0.1370 -0.2786
  217SOD    SOD24917   5.173   4.024   3.588 -0.0523 -0.3006 -0.0820
  218SOD    SOD24918   4.244   0.223  10.114  0.0232 -0.4760  0.0653
  219SOD    SOD24919   0.285   0.620  11.487 -0.1911 -0.7750  0.4368
  220SOD    SOD24920   6.536   1.143   1.512  0.4939 -0.0909 -0.4683
  221SOD    SOD24921   1.797   3.217   4.753  0.0302 -0.3403  0.1568
  222SOD    SOD24922   5.792   2.932  10.274  0.4582  0.1226 -0.2625
  223SOD    SOD24923   3.190   0.951   1.837 -0.2611  0.2747  0.5594
  224SOD    SOD24924   0.243   4.709   3.011 -0.3851  0.4364  0.0567
  225SOD    SOD24925   3.138   4.011   1.660  0.1174  0.5164  0.3592
  226SOD    SOD24926   3.543   1.136  11.674 -0.1252  0.4205  0.2180
  227CLA    CLA24927   5.368   1.107   2.357 -0.5660  0.4414 -0.0806
  228CLA    CLA24928   0.561   3.114   1.845  0.2089  0.0095 -0.1150
  229CLA    CLA24929   4.213   3.664   1.533  0.0797  0.1146  0.0961
  230CLA    CLA24930   5.514   2.778  11.274 -0.1644  0.0840  0.0158
  231CLA    CLA24931   3.964   6.363   9.474  0.4047  0.1357  0.1825
  232CLA    CLA24932   1.570   3.753   9.955 -0.1885 -0.1166  0.1241
  233CLA    CLA24933   1.048   2.636  10.053  0.0587  0.3267 -0.1080
  234CLA    CLA24934   6.270   4.206  11.298  0.4385 -0.2640 -0.1733
  235CLA    CLA24935   6.171   3.378   3.599  0.3861 -0.2370 -0.0920
  236CLA    CLA24936   3.865   5.122  11.524  0.3602 -0.0466 -0.1526
  237CLA    CLA24937   6.594   5.295   9.688  0.1924 -0.4083  0.3602
  238CLA    CLA24938   0.856   0.168   2.096 -0.3142 -0.6102  0.0407
  239CLA    CLA24939   3.418   1.027   2.838 -0.2318 -0.0998  0.0810
  240CLA    CLA24940   5.542   4.002  10.557 -0.4175 -0.0204 -0.1588
  241CLA    CLA24941   6.562   4.778   2.796 -0.5487  0.1892  0.2705
  242CLA    CLA24942   4.581   5.189   9.743 -0.2353  0.3971  0.1223
  243CLA    CLA24943   2.967   5.120   3.128  0.3344 -0.2454 -0.2937
  244CLA    CLA24944   5.142   4.695   0.739 -0.1769 -0.1435  0.1234
  245CLA    CLA24945   2.804   3.680   1.473 -0.3861 -0.2593  0.1375
  246CLA    CLA24946   1.914   2.084   9.799  0.5449  0.2059  0.1280
  247CLA    CLA24947   0.265   4.181   2.340 -0.3360  0.2956  0.1184
  248CLA    CLA24948   2.520   1.672   1.349  0.2282 -0.3551 -0.1416
  249CLA    CLA24949   0.368   1.673   2.779  0.1627 -0.0452 -0.4086
  250CLA    CLA24950   1.387   2.697  10.979 -0.2815  0.0126  0.0760
  251CLA    CLA24951   2.535   3.536  10.787 -0.0848  0.0986  0.4821
  252CLA    CLA24952   6.128   4.622   2.195 -0.0626 -0.2176  0.0118
  253TIP3   OH224953   5.713   5.549   8.722  0.3815 -0.1849  0.6088
  253TIP3    H124954   5.714   5.637   8.685  1.0614  0.7354  2.6585
  253TIP3    H224955   5.801   5.538   8.759  0.4265 -1.8943  0.0576
  254TIP3   OH224956   0.851   0.748  12.189  0.1996 -0.0177  0.2848
  254TIP3    H124957   0.761   0.770  12.166  0.1381 -2.9441 -3.1637
  254TIP3    H224958   0.902   0.822  12.158 -0.8402  0.6489  0.1020
  255TIP3   OH224959   0.345   0.429  11.581 -0.5632 -0.4286 -0.0935
  255TIP3    H124960   0.333   0.367  11.509 -0.8212  0.3089 -0.7103
  255TIP3    H224961   0.416   0.393  11.633  1.1382  0.0956 -1.9391
  256TIP3   OH224962   0.690   4.275  11.702  0.2917  0.3747 -0.0928
  256TIP3    H124963   0.726   4.287  11.791 -1.9481 -0.1328  0.9460
  256TIP3    H224964   0.673   4.181  11.696  2.8702 -0.0741 -2.1414
  257TIP3   OH224965   1.630   4.446  11.541  0.0715  0.8814 -0.0964
  257TIP3    H124966   1.566   4.390  11.585  1.2477  0.6977  1.4363
  257TIP3    H224967   1.578   4.495  11.477 -1.3653 -0.2514  0.1516
  258TIP3   OH224968   2.952   2.167   8.677 -0.1470 -0.5620  0.6205
  258TIP3    H124969   3.029   2.212   8.644 -0.3290  0.1777  1.1736
  258TIP3    H224970   2.940   2.092   8.618 -1.5086  1.6295 -2.0950
  259TIP3   OH224971   0.988   5.045   9.911 -0.0571 -0.3184  0.4808
  259TIP3    H124972   0.895   5.026   9.925 -0.1200  1.0773  2.2056
  259TIP3    H224973   0.991   5.137   9.885  0.7774 -0.6775 -0.8221
  260TIP3   OH224974   1.898   2.534  11.302  0.3247 -0.2594 -0.6806
  260TIP3    H124975   1.942   2.608  11.260  1.3687 -0.8835 -0.7183
  260TIP3    H224976   1.873   2.566  11.388 -1.8346  1.0426 -1.7018
  261TIP3   OH224977   4.374   1.174   8.678 -0.1636  0.0079  0.0560
  261TIP3    H124978   4.356   1.081   8.692  0.8153 -0.4822 -1.6332
  261TIP3    H224979   4.315   1.199   8.606 -0.4197  0.7142  0.4962
  262TIP3   OH224980   1.584   0.200  11.642 -0.4239  0.0236 -0.8581
  262TIP3    H124981   1.637   0.145  11.700 -1.2294  0.8095  0.7049
  262TIP3    H224982   1.541   0.138  11.583  1.8482 -0.6498 -1.8802
  263TIP3   OH224983   1.134   0.414  10.620 -0.2524  0.2500 -0.3107
  263TIP3    H124984   1.039   0.418  10.625 -0.2410 -0.6077  0.8403
  263TIP3    H224985   1.161   0.505  10.608 -1.1644  0.6214  0.3576
  264TIP3   OH224986   1.797   2.769  10.609  0.0051 -0.2193  0.7392
  264TIP3    H124987   1.750   2.762  10.693  0.1115  0.2222  0.8375
  264TIP3    H224988   1.745   2.716  10.548 -0.7960  0.5050  0.7737
  265TIP3   OH224989   3.828   0.223  12.030  0.2792 -0.6198 -0.2601
  265TIP3    H124990   3.738   0.221  12.064 -0.1911  0.6911 -1.3274
  265TIP3    H224991   3.855   0.315  12.039  1.2155 -0.8447 -0.6774
  266TIP3   OH224992   6.147   2.929  11.013  0.8418  0.0351 -0.2484
  266TIP3    H124993   6.165   2.868  11.084 -0.5483 -1.1971 -0.9151
  266TIP3    H224994   6.062   2.968  11.036  1.6969  1.7554  0.1599
  267TIP3   OH224995   0.044   1.313  10.817 -0.1124  0.3951  0.2205
  267TIP3    H124996   0.049   1.382  10.751  1.6863  0.9842  0.9231
  267TIP3    H224997   0.105   1.340  10.885 -0.1850 -1.3626  1.0405
  268TIP3   OH224998   4.186   4.437   9.415 -0.0707  0.2039 -0.5699
  268TIP3    H124999   4.171   4.387   9.335 -0.8140  0.0048 -0.3121
  268TIP3    H225000   4.204   4.526   9.384  0.0051  0.0526 -0.9699
  269TIP3   OH225001   0.706   1.298  10.015  0.0247  0.3868 -0.4917
  269TIP3    H125002   0.648   1.291  10.091  0.2418  1.4476 -0.2136
  269TIP3    H225003   0.793   1.275  10.049  0.0671  0.5474 -0.4902
  270TIP3   OH225004   0.792   0.991  10.143 -0.4336 -0.3615  0.3600
  270TIP3    H125005   0.745   0.947  10.072  0.3394  0.9960 -1.0617
  270TIP3    H225006   0.743   0.969  10.222 -3.3125  0.7424 -0.9910
  271TIP3   OH225007   3.072   0.956   9.887  0.7564  0.1382 -0.3200
  271TIP3    H125008   3.041   1.045   9.873  0.2435 -0.0193 -0.2183
  271TIP3    H225009   3.145   0.945   9.827  0.4520  0.4340 -0.7424
  272TIP3   OH225010   5.668   5.245  10.279 -0.3018  0.8078  0.3540
  272TIP3    H125011   5.681   5.340  10.273  0.9235  0.6176 -0.5321
  272TIP3    H225012   5.595   5.227  10.221 -1.7138  1.3951  1.8897
  273TIP3   OH225013   2.891   3.751  11.006 -0.7382  0.0817 -0.4046
  273TIP3    H125014   2.842   3.801  10.940 -2.3783 -0.6512  0.1800
  273TIP3    H225015   2.829   3.742  11.079  1.0133  0.8400  1.2420
  274TIP3   OH225016   4.089   3.597  10.119  1.1009  0.1701  0.1226
  274TIP3    H125017   4.153   3.662  10.151  0.4089  0.1565  1.6367
  274TIP3    H225018   4.012   3.649  10.096  1.1047  0.0376 -0.1879
  275TIP3   OH225019   4.415   0.672   8.981 -0.3557 -0.6868  0.8497
  275TIP3    H125020   4.324   0.688   9.007 -0.3582  0.0198  0.4295
  275TIP3    H225021   4.412   0.662   8.886  0.0053 -0.6475  0.8321
  276TIP3   OH225022   1.370   4.680   9.764 -0.6753 -0.1050  0.6099
  276TIP3    H125023   1.367   4.641   9.676 -1.9644 -0.0423  0.6105
  276TIP3    H225024   1.305   4.750   9.761 -0.3031  0.2824  1.4403
  277TIP3   OH225025   1.567   4.583  10.644 -0.2443 -0.5275 -0.0165
  277TIP3    H125026   1.522   4.667  10.651 -1.4291 -1.1372 -0.0687
  277TIP3    H225027   1.496   4.518  10.643  0.6838 -1.6839  2.2176
  278TIP3   OH225028   2.037   4.893  11.643  0.5131  0.3917  0.0882
  278TIP3    H125029   2.101   4.857  11.582  0.3426 -1.6694  1.0636
  278TIP3    H225030   1.953   4.858  11.614  0.2716  0.3800  0.7767
  279TIP3   OH225031   0.663   2.126  11.281  0.0189 -0.3049 -0.2546
  279TIP3    H125032   0.715   2.060  11.327  1.6562  0.6716 -0.6386
  279TIP3    H225033   0.684   2.113  11.189 -1.2443 -0.5572 -0.5253
  280TIP3   OH225034   0.918   5.369  11.817  0.3478 -0.6546 -0.5356
  280TIP3    H125035   0.863   5.298  11.786  0.6074 -0.6728 -0.9666
  280TIP3    H225036   1.007   5.333  11.814  0.3582 -0.7274  0.4370
  281TIP3   OH225037   0.038   5.124  12.075 -0.7411 -0.1069 -0.1821
  281TIP3    H125038  -0.049   5.104  12.109 -0.7015  0.2685  0.1609
  281TIP3    H225039   0.040   5.220  12.070 -0.5217 -0.1349 -0.6630
  282TIP3   OH225040   2.849   3.885  10.560 -0.4862  0.1418  0.9568
  282TIP3    H125041   2.851   3.817  10.627 -2.8279 -1.9956 -0.9262
  282TIP3    H225042   2.939   3.887  10.526 -0.5561 -3.0883  0.2107
  283TIP3   OH225043   5.917   4.064  11.707  0.3575 -0.0019 -0.0123
  283TIP3    H125044   5.992   4.013  11.738  0.2008  1.1046  2.4095
  283TIP3    H225045   5.947   4.103  11.625  2.8498  1.1758  1.3353
  284TIP3   OH225046   6.111   2.477   3.313 -0.4749  0.3421 -0.6566
  284TIP3    H125047   6.130   2.546   3.377 -0.4443 -1.1322  0.9920
  284TIP3    H225048   6.193   2.464   3.266  0.3102 -0.3727  0.8475
  285TIP3   OH225049   4.250   6.015   2.533 -0.3225 -0.4238  0.5765
  285TIP3    H125050   4.312   5.999   2.462 -1.0677 -1.7198  0.1950
  285TIP3    H225051   4.271   6.104   2.563 -1.3649  1.0474 -2.6133
  286TIP3   OH225052   5.768   2.524   4.123  0.1484  0.8596 -0.1514
  286TIP3    H125053   5.711   2.599   4.138 -1.6739 -0.2381 -1.1557
  286TIP3    H225054   5.739   2.458   4.186 -0.8786 -0.2712 -1.7007
  287TIP3   OH225055   0.674   3.985   1.166 -0.0202  0.0661  0.4590
  287TIP3    H125056   0.631   4.038   1.098 -1.2008  1.5903  2.2854
  287TIP3    H225057   0.728   3.923   1.117 -0.6423  1.2206 -1.8581
  288TIP3   OH225058   3.271   3.084   2.527 -0.0411  0.4873 -0.0765
  288TIP3    H125059   3.257   2.991   2.514  2.1047  0.2423 -1.1803
  288TIP3    H225060   3.271   3.096   2.622 -0.0595 -0.6895  0.0795
  289TIP3   OH225061   4.471   3.051   1.183  0.3697 -0.2985 -0.0301
  289TIP3    H125062   4.428   3.098   1.255  0.5870 -1.4025  0.8612
  289TIP3    H225063   4.454   3.105   1.106 -1.1554  0.1626  0.5758
  290TIP3   OH225064   1.434   2.952   3.415 -0.6974  0.0690  0.2205
  290TIP3    H125065   1.411   2.973   3.324  1.5787  1.7862 -0.0511
  290TIP3    H225066   1.354   2.915   3.452 -2.3213  1.2585 -1.8907
  291TIP3   OH225067   5.812   5.560   3.091 -0.2434  0.5177 -0.2769
  291TIP3    H125068   5.840   5.471   3.111 -2.4813 -0.0721  0.5810
  291TIP3    H225069   5.890   5.614   3.103  0.5025 -0.9495  2.0960
  292TIP3   OH225070   2.457   4.976   4.140  0.2978  0.1493  0.0223
  292TIP3    H125071   2.499   4.904   4.092 -1.3815 -1.4039  0.7403
  292TIP3    H225072   2.508   4.985   4.220  0.5915 -0.1669 -0.1292
  293TIP3   OH225073   6.103   6.617   2.207 -0.3200  0.3984 -0.3552
  293TIP3    H125074   6.076   6.571   2.286  0.1264  0.3682 -0.2206
  293TIP3    H225075   6.188   6.580   2.184 -0.3178  0.5994 -0.6925
  294TIP3   OH225076   6.703   3.394   1.830  0.2232  0.5436  0.2291
  294TIP3    H125077   6.618   3.355   1.809 -0.8921  1.7248  2.2388
  294TIP3    H225078   6.760   3.319   1.845 -0.6810 -0.2884 -0.3299
  295TIP3   OH225079   6.549   3.981   1.365 -0.0451 -0.0345  0.4196
  295TIP3    H125080   6.490   4.052   1.339  0.1957 -0.7345 -2.4223
  295TIP3    H225081   6.493   3.903   1.364  0.4244 -0.3695  0.0349
  296TIP3   OH225082   3.465   2.890   3.636 -0.0463  0.1970 -0.5373
  296TIP3    H125083   3.388   2.914   3.584  0.2484  0.7362 -0.7197
  296TIP3    H225084   3.539   2.925   3.588  0.4789 -1.8236 -1.2815
  297TIP3   OH225085   2.264   6.467   2.778  0.1020  0.5453 -0.2046
  297TIP3    H125086   2.207   6.542   2.797  0.7336  1.5147 -1.8657
  297TIP3    H225087   2.244   6.444   2.688 -0.0061 -1.2654  0.2492
  298TIP3   OH225088   3.305   0.212   0.426  0.6180  0.5588 -0.1311
  298TIP3    H125089   3.263   0.140   0.378  0.3933  1.2471 -0.9823
  298TIP3    H225090   3.359   0.168   0.492 -1.2864 -0.3808  0.9011
  299TIP3   OH225091   4.943   4.166   2.054 -0.6550  0.5170  0.2290
  299TIP3    H125092   5.025   4.125   2.084 -1.0702 -0.0493  0.6011
  299TIP3    H225093   4.908   4.105   1.989 -0.0905  1.4279 -0.9623
  300TIP3   OH225094   3.527   5.327   3.402  0.4488  0.0280  0.4354
  300TIP3    H125095   3.554   5.318   3.311 -2.6185  0.0429 -0.5665
  300TIP3    H225096   3.531   5.421   3.419  2.0147 -0.0573  0.7082
  301TIP3   OH225097   4.795   5.316   1.314  0.8653  0.4541 -0.1470
  301TIP3    H125098   4.837   5.353   1.392  1.0162  1.1110 -0.5294
  301TIP3    H225099   4.701   5.324   1.331  0.8886 -0.5577  0.4974
  302TIP3   OH225100   4.653   3.894   1.702 -0.4612 -0.2440  0.2021
  302TIP3    H125101   4.590   3.907   1.773 -0.4186  0.5781  0.0996
  302TIP3    H225102   4.601   3.853   1.632 -1.1738  1.3634 -0.2705
  303TIP3   OH225103   5.637   4.181   4.632  0.2274  0.0341  0.1007
  303TIP3    H125104   5.574   4.109   4.635  1.2399 -1.0680 -2.3842
  303TIP3    H225105   5.703   4.158   4.697 -1.5171  0.9186  2.3284
  304TIP3   OH225106   3.505   1.758   2.849 -0.4149  0.0648 -0.2016
  304TIP3    H125107   3.543   1.742   2.762 -2.5327 -0.9386 -1.0275
  304TIP3    H225108   3.524   1.678   2.897 -0.5425 -0.0017 -0.2602
  305TIP3   OH225109   4.693   6.597   2.410 -0.1297  0.3861  0.5915
  305TIP3    H125110   4.708   6.545   2.488 -0.6489 -0.2601  0.2704
  305TIP3    H225111   4.763   6.662   2.410  0.5741 -0.3592  0.9578
  306TIP3   OH225112   0.422   3.732   4.265  0.0811  0.1820 -0.0322
  306TIP3    H125113   0.495   3.670   4.263  0.1574  0.2610  0.2298
  306TIP3    H225114   0.346   3.681   4.237  0.4160  0.3570 -1.3193
  307TIP3   OH225115   3.076   4.662   1.441  0.1114 -0.5993 -0.3088
  307TIP3    H125116   2.998   4.607   1.440 -1.4565  1.5029 -0.8063
  307TIP3    H225117   3.078   4.698   1.530 -0.8587  1.1218 -0.9442
  308TIP3   OH225118   5.815   1.407   1.475 -0.0609  0.4762 -0.1168
  308TIP3    H125119   5.772   1.450   1.401 -0.2701  0.1785 -0.1707
  308TIP3    H225120   5.746   1.353   1.514  0.5232 -0.9021 -0.8912
  309TIP3   OH225121   4.163   2.097   3.511 -0.5068 -0.5272  0.6497
  309TIP3    H125122   4.089   2.158   3.506 -0.1061 -0.0306  0.7270
  309TIP3    H225123   4.224   2.138   3.572 -0.1522 -0.9209  0.5648
  310TIP3   OH225124   3.835   1.903   1.934 -0.0488  0.5238 -0.4373
  310TIP3    H125125   3.761   1.912   1.993  0.8423  0.0501  0.8060
  310TIP3    H225126   3.880   1.988   1.939  0.6769  0.0989  0.5051
  311TIP3   OH225127   6.296   5.080   2.383  0.4213  1.0010 -0.3232
  311TIP3    H125128   6.304   5.042   2.470  1.2746  1.4595 -0.1827
  311TIP3    H225129   6.357   5.028   2.329  1.2858  1.8676 -0.2200
  312TIP3   OH225130   4.570   5.045   1.166 -0.9160 -0.5219 -0.4556
  312TIP3    H125131   4.635   5.079   1.228  0.6149 -2.5185 -0.8766
  312TIP3    H225132   4.591   5.090   1.083 -1.4368  0.3725 -0.1170
  313TIP3   OH225133   4.963   0.243   3.267 -0.2134 -0.3843 -0.1833
  313TIP3    H125134   4.926   0.249   3.179  0.7940 -0.1619 -0.6048
  313TIP3    H225135   5.026   0.171   3.263  3.7076  2.6935 -1.1964
  314TIP3   OH225136   4.563   6.102   2.685 -0.3938 -0.4937 -0.4391
  314TIP3    H125137   4.521   6.016   2.688 -0.6169 -0.3757 -0.1464
  314TIP3    H225138   4.605   6.112   2.770 -1.0968  0.0475 -0.1415
  315TIP3   OH225139   1.074   3.921   1.993  0.0284 -0.1503 -0.1780
  315TIP3    H125140   1.089   3.827   1.980  0.3022 -0.5306  2.3237
  315TIP3    H225141   0.979   3.931   1.990  0.0366 -0.2564 -1.6309
  316TIP3   OH225142   0.254   3.462   0.852 -0.3626  0.3470 -0.6274
  316TIP3    H125143   0.277   3.467   0.945 -1.0593  1.1710 -0.4837
  316TIP3    H225144   0.210   3.545   0.835  0.3450  0.4856 -1.8608
  317TIP3   OH225145   2.668   1.240   1.723 -0.3429  0.5780 -0.4136
  317TIP3    H125146   2.607   1.267   1.792  0.0280  3.0607 -0.9647
  317TIP3    H225147   2.720   1.171   1.763 -0.5875  1.4663  1.5916
  318TIP3   OH225148   6.087   6.062   1.816 -0.2344  0.0348  0.0275
  318TIP3    H125149   6.066   5.969   1.824 -0.0869 -0.0194 -0.1857
  318TIP3    H225150   6.039   6.104   1.887 -2.0210  0.0646 -1.1285
  319TIP3   OH225151   2.231   0.649   2.971  0.4817 -0.0030  0.2862
  319TIP3    H125152   2.303   0.585   2.972  0.9248  0.3097 -2.7651
  319TIP3    H225153   2.163   0.607   2.919 -0.4507  0.8566  0.7707
  320TIP3   OH225154   4.409   0.816   3.862  0.2139  0.0180  0.2987
  320TIP3    H125155   4.385   0.884   3.924 -0.2375 -0.6765  0.9038
  320TIP3    H225156   4.346   0.745   3.878 -2.6522  1.3143 -3.7372
  321TIP3   OH225157   3.573   1.130   1.496 -0.7782  0.1322 -0.0826
  321TIP3    H125158   3.489   1.091   1.475 -1.3237  0.1131  1.9324
  321TIP3    H225159   3.632   1.056   1.510 -1.1917  0.0339  1.3190
  322TIP3   OH225160   6.454   4.997   3.199 -0.1086 -0.1715 -1.0151
  322TIP3    H125161   6.505   4.923   3.232 -0.3087 -0.0274 -0.3566
  322TIP3    H225162   6.431   5.046   3.278 -2.7659 -1.1723 -1.0845
  323TIP3   OH225163   4.575   1.859   8.829  0.8379 -0.8825 -0.2161
  323TIP3    H125164   4.588   1.824   8.741  1.7151 -0.9230 -0.0814
  323TIP3    H225165   4.663   1.862   8.867  0.8687  1.6517 -0.2992
  324TIP3   OH225166   3.448   0.683   9.522 -0.3867  0.0699  0.4388
  324TIP3    H125167   3.433   0.666   9.429 -1.5516  1.8705  0.2620
  324TIP3    H225168   3.378   0.635   9.567 -0.8802  0.6275  0.2654
  325TIP3   OH225169   6.377   1.042  10.606  0.3905 -0.2532 -0.0799
  325TIP3    H125170   6.405   1.107  10.671  0.0372  0.2927 -0.4761
  325TIP3    H225171   6.417   1.071  10.524 -1.3079  0.5350 -0.6597
  326TIP3   OH225172   1.544   4.152   9.194 -0.1919  0.3521 -0.1484
  326TIP3    H125173   1.594   4.146   9.113  4.4048  0.1943  2.4079
  326TIP3    H225174   1.518   4.062   9.214  0.8327  0.0359 -0.2202
  327TIP3   OH225175   2.727   6.504  10.728  0.5140  0.3374 -0.6335
  327TIP3    H125176   2.632   6.510  10.725  0.2734 -2.5869 -1.2775
  327TIP3    H225177   2.752   6.546  10.810 -1.5673 -1.0613  0.7821
  328TIP3   OH225178   6.065   2.726   9.926 -0.4838  0.0325  0.4709
  328TIP3    H125179   6.086   2.674   9.848  1.5768 -0.0482  1.0139
  328TIP3    H225180   6.096   2.673   9.999 -1.6220  0.4841  1.3046
  329TIP3   OH225181   3.690   0.467  11.997  0.2887  0.2617 -0.8798
  329TIP3    H125182   3.742   0.494  12.073  2.0798  0.5104 -2.1329
  329TIP3    H225183   3.740   0.497  11.922 -1.7412  0.5852 -2.1919
  330TIP3   OH225184   4.317   0.702  11.572  0.0144  0.7070 -0.0267
  330TIP3    H125185   4.286   0.615  11.546  0.3783  0.5444  0.0624
  330TIP3    H225186   4.242   0.744  11.613 -0.4727  0.8343 -1.0262
  331TIP3   OH225187   1.364   4.274   9.969 -0.0658 -0.3095 -1.0171
  331TIP3    H125188   1.374   4.290   9.875  1.1289 -0.0857 -0.8653
  331TIP3    H225189   1.401   4.187   9.982 -1.1941 -0.7995 -0.8956
  332TIP3   OH225190   0.912   5.881  10.927  0.4393  0.0659 -0.5974
  332TIP3    H125191   0.953   5.805  10.884  1.3770 -0.0080  0.3704
  332TIP3    H225192   0.819   5.860  10.929  0.7263 -1.2468 -0.0117
  333TIP3   OH225193   0.455   1.402   9.580 -0.4360 -0.0224  0.0967
  333TIP3    H125194   0.527   1.435   9.527  0.3365  0.7013  1.5249
  333TIP3    H225195   0.497   1.362   9.656 -1.4989 -0.9073  0.2518
  334TIP3   OH225196   4.138   1.353   9.386 -0.3229 -0.2711  0.6070
  334TIP3    H125197   4.151   1.275   9.441  0.0336 -0.5838  0.0853
  334TIP3    H225198   4.172   1.328   9.301 -0.6300  0.3075  0.3111
  335TIP3   OH225199   4.034   4.844  11.482 -0.4983 -0.2719 -0.2401
  335TIP3    H125200   3.981   4.799  11.416 -0.3134  0.6816 -1.0503
  335TIP3    H225201   3.991   4.928  11.496 -0.0347 -0.0982  0.2071
  336TIP3   OH225202   4.076   3.412  12.354 -0.5538  0.1039 -0.2929
  336TIP3    H125203   4.066   3.448  12.441 -0.1367 -0.7825  0.1341
  336TIP3    H225204   4.023   3.332  12.355 -2.3340  1.1830 -1.5556
  337TIP3   OH225205   2.258   6.120  11.571 -0.2261  0.4249  0.0003
  337TIP3    H125206   2.195   6.085  11.508 -0.4574 -0.7825  0.8822
  337TIP3    H225207   2.219   6.102  11.657  0.6827  0.9114  0.5297
  338TIP3   OH225208   0.254   5.731  12.335  0.1497  0.4833  0.1389
  338TIP3    H125209   0.231   5.784  12.411  0.3380  0.2393  0.3643
  338TIP3    H225210   0.170   5.701  12.300 -0.1032  2.4536 -1.0915
  339TIP3   OH225211   0.003   2.571  11.909 -0.1802  0.4244  0.5629
  339TIP3    H125212  -0.063   2.590  11.976 -0.8408 -1.5988  0.5637
  339TIP3    H225213   0.033   2.482  11.930  2.4041  1.1877  0.4109
  340TIP3   OH225214   5.717   1.180  11.530  0.1099 -0.3066 -0.5369
  340TIP3    H125215   5.681   1.255  11.578  2.2314  1.5231 -1.6294
  340TIP3    H225216   5.742   1.118  11.599 -1.7186 -0.0946  0.3925
  341TIP3   OH225217   1.455   2.937  11.193  0.0218 -1.1277  0.3710
  341TIP3    H125218   1.422   2.889  11.269  0.2569 -0.3146  0.9973
  341TIP3    H225219   1.471   2.869  11.127 -1.2160 -1.7305  0.6598
  342TIP3   OH225220   0.479   6.403  11.358  0.4178  0.2129  0.0818
  342TIP3    H125221   0.454   6.424  11.268 -0.7685  0.8668  0.5352
  342TIP3    H225222   0.571   6.376  11.352  0.5927  1.0104 -1.1991
  343TIP3   OH225223   2.028   2.368  11.108  0.0831 -0.0965 -0.3708
  343TIP3    H125224   1.999   2.419  11.184 -1.4927 -2.0586  0.4099
  343TIP3    H225225   1.983   2.408  11.034 -1.9377 -0.8893  0.3633
  344TIP3   OH225226   1.467   2.682  11.579 -0.3635  0.0028  0.3110
  344TIP3    H125227   1.559   2.697  11.558 -0.8439  1.5226 -0.8917
  344TIP3    H225228   1.419   2.745  11.526 -2.0862 -0.3380  1.3593
  345TIP3   OH225229   0.778   6.105   9.058  0.0194  0.7601 -0.1463
  345TIP3    H125230   0.765   6.157   8.979 -0.4677  0.6581 -0.1415
  345TIP3    H225231   0.714   6.034   9.050  0.4476  0.3541  0.0060
  346TIP3   OH225232   6.059   1.656  12.086 -0.4329  0.4169  0.2042
  346TIP3    H125233   5.971   1.684  12.059 -0.9864 -1.7761 -0.4661
  346TIP3    H225234   6.094   1.732  12.133 -2.7021  1.3522  0.5620
  347TIP3   OH225235   1.019   6.648   9.813 -0.0253  0.3871  0.5824
  347TIP3    H125236   1.032   6.595   9.892 -0.4311 -1.1357 -0.3191
  347TIP3    H225237   1.060   6.597   9.744 -0.0369  1.5004 -0.2640
  348TIP3   OH225238   4.702   6.525   9.019 -0.2037  0.0032 -0.0742
  348TIP3    H125239   4.640   6.598   9.019  1.1736  1.2590  1.3312
  348TIP3    H225240   4.651   6.451   9.052 -1.0279  0.9651  0.9055
  349TIP3   OH225241   6.640   1.256  11.566 -0.9302 -0.1672 -0.3897
  349TIP3    H125242   6.672   1.343  11.542 -2.5714  0.6874  0.3166
  349TIP3    H225243   6.700   1.226  11.634  0.4430 -0.1997 -1.5784
  350TIP3   OH225244   2.181   4.682   9.826 -0.0485  0.6047 -0.2479
  350TIP3    H125245   2.175   4.683   9.730  0.4163 -3.1828 -0.4572
  350TIP3    H225246   2.102   4.636   9.855  1.4733 -1.4778  0.8494
  351TIP3   OH225247   2.396   5.220  11.440 -0.4773  0.3359 -0.2631
  351TIP3    H125248   2.374   5.285  11.373  0.7002  0.9866 -0.0516
  351TIP3    H225249   2.490   5.206  11.430  0.2317  2.0788  2.5926
  352TIP3   OH225250   1.234   5.265   9.707  0.3685 -0.1907  0.2371
  352TIP3    H125251   1.292   5.255   9.631  1.2717  0.5694  0.8042
  352TIP3    H225252   1.145   5.258   9.671  0.7947 -2.3988 -0.5067
  353TIP3   OH225253   6.435   1.597   9.971 -0.2254  0.4302 -0.3271
  353TIP3    H125254   6.364   1.599  10.034 -1.2493 -0.6989 -1.3822
  353TIP3    H225255   6.406   1.655   9.900  0.2661  0.5804 -0.4116
  354TIP3   OH225256   1.051   2.907  10.760  0.3884  0.4149 -0.0898
  354TIP3    H125257   0.957   2.917  10.746 -0.0121 -0.2811  1.7825
  354TIP3    H225258   1.072   2.821  10.722 -0.2198 -0.4378  1.3942
  355TIP3   OH225259   3.278   5.081  10.025  0.0532  0.1886 -0.0907
  355TIP3    H125260   3.296   4.987  10.022  1.7466  0.3479  2.1245
  355TIP3    H225261   3.354   5.121   9.983 -0.7481  0.6081 -1.1966
  356TIP3   OH225262   5.111   1.200  10.805 -0.9740  0.4216  0.5691
  356TIP3    H125263   5.078   1.266  10.744 -0.2257 -0.0910 -0.4263
  356TIP3    H225264   5.084   1.116  10.767 -1.2713  0.1297  1.4230
  357TIP3   OH225265   5.139   4.691  11.288  0.4204  0.2202  0.4152
  357TIP3    H125266   5.097   4.776  11.298 -1.0153 -0.5290  0.9697
  357TIP3    H225267   5.080   4.629  11.330  0.4297 -1.3472 -1.7105
  358TIP3   OH225268   3.712   6.601   9.951 -0.0713  0.3352  0.1616
  358TIP3    H125269   3.787   6.586  10.008  0.3779 -0.4332 -0.6076
  358TIP3    H225270   3.750   6.614   9.864 -0.7692  1.0864 -0.0477
  359TIP3   OH225271   6.159   4.784  10.543  0.5752  0.0396 -0.6187
  359TIP3    H125272   6.072   4.799  10.506 -0.1608 -0.7033  0.7326
  359TIP3    H225273   6.204   4.730  10.478  0.1618  0.7165 -1.4893
  360TIP3   OH225274   1.362   2.277   9.471 -0.3800  0.5902 -0.1556
  360TIP3    H125275   1.353   2.284   9.376 -0.9607  0.6102 -0.0968
  360TIP3    H225276   1.456   2.287   9.486 -0.2044 -0.0407 -0.7785
  361TIP3   OH225277   6.000   0.222  11.410 -0.4009  0.0106  0.0201
  361TIP3    H125278   5.907   0.233  11.430 -0.6977 -0.7847 -0.8131
  361TIP3    H225279   6.001   0.171  11.329  0.7825 -2.1857  1.3192
  362TIP3   OH225280   0.208   3.185  11.681  0.1680 -0.5219 -0.1665
  362TIP3    H125281   0.213   3.259  11.742 -1.7997 -0.8066  0.4138
  362TIP3    H225282   0.121   3.149  11.694  0.6156 -2.1760 -1.3642
  363TIP3   OH225283   5.503   2.457  10.640  0.3111 -0.5525  0.6934
  363TIP3    H125284   5.454   2.432  10.719 -0.5481 -0.3321  0.2412
  363TIP3    H225285   5.548   2.376  10.615  1.3086 -0.4082  1.8904
  364TIP3   OH225286   0.289   0.255  10.682 -0.1526  0.1487 -0.3497
  364TIP3    H125287   0.281   0.166  10.649 -0.5193 -0.5553  1.5001
  364TIP3    H225288   0.315   0.244  10.774  1.2332  1.9856 -0.4730
  365TIP3   OH225289   5.126   2.622  12.140 -0.2592 -0.6172 -0.2074
  365TIP3    H125290   5.177   2.585  12.068 -1.6772 -2.3133 -0.4115
  365TIP3    H225291   5.077   2.548  12.175 -0.8657  0.5061  1.4469
  366TIP3   OH225292   4.714   4.394  11.730  0.5664  0.1059 -0.2136
  366TIP3    H125293   4.621   4.403  11.752 -0.0456 -0.3293 -2.3690
  366TIP3    H225294   4.732   4.301  11.740  0.3538 -0.0508 -1.2650
  367TIP3   OH225295   1.238   1.983  11.705  0.2007 -0.3619 -0.0760
  367TIP3    H125296   1.232   2.048  11.776 -1.2714 -0.4095 -0.1158
  367TIP3    H225297   1.206   2.031  11.628  0.7632 -0.6298 -0.4731
  368TIP3   OH225298   1.293   3.213   9.903  0.0352 -0.1410 -0.5243
  368TIP3    H125299   1.198   3.213   9.913 -0.1872  1.9788 -1.8503
  368TIP3    H225300   1.315   3.305   9.892  2.1595 -0.6588 -0.9668
  369TIP3   OH225301   5.121   3.353  11.694  0.6225  0.0027  0.0180
  369TIP3    H125302   5.139   3.279  11.636  1.2664  0.2758 -0.1421
  369TIP3    H225303   5.193   3.414  11.677  0.7487  0.1409  1.0164
  370TIP3   OH225304   4.047   1.359  10.122  0.0039  0.6017  0.0616
  370TIP3    H125305   4.046   1.314  10.037 -1.1953 -0.4026  0.5877
  370TIP3    H225306   3.960   1.398  10.130  0.7554  2.4388 -0.0346
  371TIP3   OH225307   1.364   1.292  12.121  0.6334 -0.3695  0.4847
  371TIP3    H125308   1.330   1.208  12.152  0.4509 -0.2740  0.5433
  371TIP3    H225309   1.458   1.287  12.136  0.6346 -0.6078  0.3859
  372TIP3   OH225310   2.755   5.143  12.080 -0.0815 -0.3673 -0.1291
  372TIP3    H125311   2.703   5.220  12.104  0.8725  0.6531 -1.2033
  372TIP3    H225312   2.842   5.160  12.118 -0.1686 -1.4986  0.6432
  373TIP3   OH225313   0.084   0.608  11.373 -0.3705  0.1154 -0.4145
  373TIP3    H125314   0.009   0.589  11.430 -0.2966 -2.6916 -1.1463
  373TIP3    H225315   0.049   0.602  11.284  0.0656  2.0751 -0.7732
  374TIP3   OH225316   5.315   0.051  10.615  0.1304  0.2200  0.1996
  374TIP3    H125317   5.395   0.059  10.667  1.6488 -0.9838 -1.8080
  374TIP3    H225318   5.330  -0.025  10.559 -1.2192  1.6622 -2.2905
  375TIP3   OH225319   1.821   3.183  10.789  0.6216  0.1846 -0.3327
  375TIP3    H125320   1.777   3.173  10.705  0.7399 -0.8797 -0.2757
  375TIP3    H225321   1.768   3.131  10.850  1.0368  0.2263  0.0679
  376TIP3   OH225322   2.657   6.023   8.462 -0.1674  0.6165 -0.0599
  376TIP3    H125323   2.739   5.982   8.434  0.7108  1.6530  0.8936
  376TIP3    H225324   2.639   6.089   8.396  1.2983  2.2898  1.1310
  377TIP3   OH225325   0.638   4.834  12.062 -0.1820  0.1268  1.0376
  377TIP3    H125326   0.566   4.859  12.120  0.0654  1.5347  0.7843
  377TIP3    H225327   0.630   4.739  12.054 -1.0720  0.0670  2.2373
  378TIP3   OH225328   5.415   5.560   9.746  0.4139  0.3031  0.5320
  378TIP3    H125329   5.422   5.637   9.803 -0.6057  0.5584  0.3241
  378TIP3    H225330   5.375   5.494   9.802 -1.4079  0.8171 -0.1035
  379TIP3   OH225331   6.572   5.478  10.221  0.4737  0.0734  0.3885
  379TIP3    H125332   6.522   5.410  10.268 -0.1370 -0.9877 -1.6607
  379TIP3    H225333   6.644   5.430  10.181 -0.1410  0.5378 -1.3475
  380TIP3   OH225334   1.835   0.510   8.550  0.0867  0.2941  0.1816
  380TIP3    H125335   1.847   0.496   8.456  0.0796  2.8313 -0.2596
  380TIP3    H225336   1.753   0.558   8.557  0.0063  0.0122  1.5272
  381TIP3   OH225337   2.559   3.375  12.144 -0.4539 -0.6581  0.4122
  381TIP3    H125338   2.629   3.356  12.082  0.3072  0.8452  0.7535
  381TIP3    H225339   2.544   3.293  12.191  0.9377 -1.0580  0.1865
  382TIP3   OH225340   2.615   6.456  11.741  0.5492  0.3490 -0.2097
  382TIP3    H125341   2.588   6.518  11.809  1.1794  0.8870 -0.4391
  382TIP3    H225342   2.705   6.432  11.766 -0.1621 -1.6123  0.7013
  383TIP3   OH225343   6.146   1.877   9.397  0.0676  0.3796  0.3918
  383TIP3    H125344   6.058   1.908   9.379  0.4320  1.7787  0.8918
  383TIP3    H225345   6.155   1.797   9.344 -1.4407  0.2703  0.2591
  384TIP3   OH225346   1.531   1.313   9.927  0.3974 -0.0487 -0.4210
  384TIP3    H125347   1.492   1.324  10.014 -1.0443  0.5794 -1.1161
  384TIP3    H225348   1.503   1.226   9.899  0.9606 -0.3002 -0.2387
  385TIP3   OH225349   3.842   4.909  11.773  0.4456  0.6082  0.2203
  385TIP3    H125350   3.855   4.967  11.698 -2.7661  0.1741 -0.7996
  385TIP3    H225351   3.831   4.822  11.735 -0.3572  0.2314  1.2606
  386TIP3   OH225352   6.251   2.127   9.366  0.0892 -0.3036 -0.0948
  386TIP3    H125353   6.211   2.041   9.378  1.0364 -0.7455 -0.0344
  386TIP3    H225354   6.290   2.123   9.278  0.4133 -0.0521  0.0364
  387TIP3   OH225355   0.808   3.447  11.908 -0.3574  0.0121 -0.1024
  387TIP3    H125356   0.730   3.453  11.851 -0.2840 -4.5093 -1.0206
  387TIP3    H225357   0.785   3.499  11.985 -3.2100  0.9826 -1.4532
  388TIP3   OH225358   3.180   0.356  10.958  0.6752 -0.4242 -0.3086
  388TIP3    H125359   3.155   0.392  10.873  2.4833  0.7334 -0.4150
  388TIP3    H225360   3.100   0.357  11.009  0.1315  1.5359 -1.1184
  389TIP3   OH225361   0.614   6.060  10.718  0.0369  0.0126  0.6157
  389TIP3    H125362   0.659   6.110  10.786 -0.6947 -0.2148  1.2794
  389TIP3    H225363   0.549   6.121  10.684 -0.1557 -0.1450  0.7003
  390TIP3   OH225364   3.593   6.256  11.711  0.0750 -0.2584  0.1799
  390TIP3    H125365   3.637   6.333  11.748 -0.5764 -0.5354  1.6359
  390TIP3    H225366   3.638   6.181  11.752 -0.3251 -0.5955  0.0117
  391TIP3   OH225367   5.191   6.352   9.752 -0.4016  0.7533  0.2001
  391TIP3    H125368   5.098   6.359   9.731 -0.4269 -0.7693 -0.3282
  391TIP3    H225369   5.234   6.336   9.668  0.1981  0.4310  0.5578
  392TIP3   OH225370   3.769   5.627  11.303  0.2184 -0.2332  0.4186
  392TIP3    H125371   3.836   5.655  11.240 -0.4393  1.6556  0.4856
  392TIP3    H225372   3.817   5.582  11.372  1.4741  1.2916  0.5815
  393TIP3   OH225373   6.442   3.269  10.153  0.1926 -0.2299 -0.4287
  393TIP3    H125374   6.407   3.189  10.114 -1.3599  0.1534  0.0819
  393TIP3    H225375   6.432   3.255  10.248  1.8791 -0.2750 -0.2393
  394TIP3   OH225376   4.372   4.585  11.601 -0.3656 -0.3519 -0.0787
  394TIP3    H125377   4.334   4.546  11.522  0.9247 -1.3348 -0.2522
  394TIP3    H225378   4.391   4.510  11.658  1.2042  0.0808  0.0159
  395TIP3   OH225379   2.995   4.938  10.644 -0.1609 -0.1309  0.1135
  395TIP3    H125380   2.923   5.001  10.644  0.8669  1.1645 -1.8838
  395TIP3    H225381   2.996   4.902  10.555  1.0748 -0.7972  0.3642
  396TIP3   OH225382   2.162   1.065  11.744 -0.3001 -0.0916  0.1719
  396TIP3    H125383   2.194   1.144  11.701  1.5902  0.1799  1.9106
  396TIP3    H225384   2.097   1.097  11.807 -1.8414 -0.3157 -1.2355
  397TIP3   OH225385   3.198   2.061  11.026  0.0289  0.0117  0.3808
  397TIP3    H125386   3.221   1.996  11.093 -0.4875  1.0280  1.5808
  397TIP3    H225387   3.224   2.020  10.944 -1.4732 -2.2900  0.9479
  398TIP3   OH225388   3.592   6.437  12.199 -0.5289  0.3022  0.0438
  398TIP3    H125389   3.538   6.513  12.176 -0.4326  1.1234  2.3223
  398TIP3    H225390   3.682   6.467  12.190 -0.4755  0.1053 -0.0956
  399TIP3   OH225391   4.753   3.298  10.123  0.4277  0.4665  0.1280
  399TIP3    H125392   4.674   3.338  10.158  1.1928  2.0719  0.1103
  399TIP3    H225393   4.791   3.366  10.067  1.8359 -0.2462  0.1841
  400TIP3   OH225394   1.795   2.279  10.817  0.2954  0.1353 -0.1930
  400TIP3    H125395   1.864   2.238  10.764  0.6584 -0.8045  0.9717
  400TIP3    H225396   1.838   2.352  10.860  0.2330  0.3424 -0.4822
  401TIP3   OH225397   0.249   4.285  10.357  0.2114  0.1926 -0.2501
  401TIP3    H125398   0.321   4.250  10.410 -0.9318 -1.0368  0.5502
  401TIP3    H225399   0.277   4.374  10.335  0.8598  0.6757  2.1980
  402TIP3   OH225400   5.750   6.312  12.106  0.2074 -0.0061  0.1422
  402TIP3    H125401   5.721   6.345  12.191 -0.0519 -0.5243  0.2641
  402TIP3    H225402   5.770   6.390  12.055  1.7918  0.3013  1.1599
  403TIP3   OH225403   0.293   2.901  10.622 -0.3550 -0.5110  0.4466
  403TIP3    H125404   0.348   2.837  10.667  1.4604  0.4592 -0.2591
  403TIP3    H225405   0.288   2.975  10.683  2.8150  1.1547 -1.0793
  404TIP3   OH225406   1.022   0.743  10.729  0.4769 -0.2125 -0.0016
  404TIP3    H125407   1.000   0.817  10.786 -2.2888  0.2847 -1.5093
  404TIP3    H225408   0.962   0.674  10.755  1.6456 -1.2443  0.0412
  405TIP3   OH225409   6.685   3.168  11.862 -0.3511 -0.1571  0.3331
  405TIP3    H125410   6.607   3.172  11.917 -1.5893 -0.4185 -1.3146
  405TIP3    H225411   6.707   3.075  11.859 -0.6203 -0.2107 -0.0453
  406TIP3   OH225412   5.901   3.196  10.670 -0.0448 -0.0784 -0.5957
  406TIP3    H125413   5.896   3.112  10.715  1.5336  0.1796  0.1012
  406TIP3    H225414   5.887   3.174  10.577 -0.9558 -0.9166 -0.2827
  407TIP3   OH225415   0.442   5.964  11.420  0.5556 -0.1726  0.1916
  407TIP3    H125416   0.438   5.946  11.326 -4.0117 -1.0999  0.3218
  407TIP3    H225417   0.442   5.878  11.461 -1.2723  0.1393  0.9468
  408TIP3   OH225418   5.730   0.637  11.702 -0.0150 -0.4652  0.0227
  408TIP3    H125419   5.789   0.692  11.651  1.1328 -1.1010  0.6340
  408TIP3    H225420   5.756   0.547  11.681  0.3862 -0.7480  1.5641
  409TIP3   OH225421   6.311   5.356  10.771 -0.3436  0.4819 -0.2216
  409TIP3    H125422   6.367   5.280  10.757  0.5178  1.0454  0.0398
  409TIP3    H225423   6.361   5.430  10.735 -0.7379  1.0580  0.3713
  410TIP3   OH225424   4.683   0.446   9.155 -0.7165 -0.3182 -0.4411
  410TIP3    H125425   4.708   0.488   9.073  1.0365 -1.2249 -0.4240
  410TIP3    H225426   4.734   0.491   9.222 -0.4454 -1.0427 -0.1508
  411TIP3   OH225427   6.473   4.883  10.578  0.3408 -0.7889 -0.3024
  411TIP3    H125428   6.395   4.902  10.528 -0.0053 -1.3302  0.0273
  411TIP3    H225429   6.514   4.809  10.533  1.0002 -0.1182 -0.8318
  412TIP3   OH225430   3.524   2.902  11.827  0.2028 -0.3246 -0.0184
  412TIP3    H125431   3.443   2.932  11.867  0.0537 -0.8291  0.0651
  412TIP3    H225432   3.580   2.879  11.901  0.4649  0.1426 -0.0739
  413TIP3   OH225433   4.138   3.732  12.135 -0.0700 -0.3178 -0.0305
  413TIP3    H125434   4.154   3.761  12.225  0.6067 -1.0039  0.0798
  413TIP3    H225435   4.091   3.649  12.144 -0.9003  0.1021 -0.3343
  414TIP3   OH225436   6.563   0.233   9.100 -0.5971 -0.1476 -0.0288
  414TIP3    H125437   6.637   0.291   9.081 -0.7474 -0.3307 -1.2951
  414TIP3    H225438   6.526   0.213   9.014 -0.0460 -2.8218  0.2845
  415TIP3   OH225439   5.022   1.995  11.003 -0.2076 -0.5002 -0.1479
  415TIP3    H125440   4.946   1.972  11.056  0.3176  1.7441  1.7298
  415TIP3    H225441   5.096   1.954  11.048  0.1113  0.5173  0.2934
  416TIP3   OH225442   3.961   3.088  10.095 -0.6490  0.2440  0.1854
  416TIP3    H125443   3.977   3.012  10.039  1.8415 -1.6452  3.1292
  416TIP3    H225444   4.007   3.159  10.051 -0.5225 -0.6474 -1.1985
  417TIP3   OH225445   1.793   2.436   9.277  0.6433  0.2147 -0.3076
  417TIP3    H125446   1.862   2.379   9.241  0.7069  0.1843 -0.1397
  417TIP3    H225447   1.731   2.446   9.205 -0.1754 -1.3478  0.1432
  418TIP3   OH225448   2.468   5.660  10.524 -0.5330  0.0821 -0.3526
  418TIP3    H125449   2.476   5.756  10.518 -0.6654  0.0381 -1.4740
  418TIP3    H225450   2.376   5.643  10.505 -0.2437 -0.3413 -1.4501
  419TIP3   OH225451   5.987   6.307  11.426 -0.9231  0.0916 -0.0679
  419TIP3    H125452   6.034   6.225  11.418  0.0729  0.4639  1.3795
  419TIP3    H225453   6.013   6.359  11.350  1.7273  0.5854  1.0816
  420TIP3   OH225454   5.100   4.853   8.993 -0.1451  0.2187  0.1060
  420TIP3    H125455   5.080   4.941   9.022 -1.1119  0.1100 -0.1860
  420TIP3    H225456   5.021   4.824   8.948 -0.0328 -0.9902  0.6489
  421TIP3   OH225457   3.108   4.434   9.901 -0.0124  0.3376 -0.4364
  421TIP3    H125458   3.188   4.465   9.858 -0.0770  3.5750  1.4581
  421TIP3    H225459   3.049   4.509   9.899 -2.2571 -1.3124  0.0683
  422TIP3   OH225460   1.067   1.647   9.601 -0.3098 -0.0610 -0.1545
  422TIP3    H125461   0.981   1.606   9.606 -2.5161  4.0130 -0.1310
  422TIP3    H225462   1.071   1.704   9.677  2.2736  0.1783 -0.3908
  423TIP3   OH225463   1.550   3.835  11.588 -0.2993  0.7800  0.7097
  423TIP3    H125464   1.576   3.758  11.639 -0.1628  1.3753  1.5527
  423TIP3    H225465   1.545   3.803  11.498  0.0574 -0.1430  1.0066
  424TIP3   OH225466   5.209   6.647  11.970  0.2190 -0.0180  0.0885
  424TIP3    H125467   5.216   6.690  11.885  1.6130 -0.0727  0.1576
  424TIP3    H225468   5.265   6.570  11.963 -1.3627 -1.2446  0.3394
  425TIP3   OH225469   6.447   4.527   9.886 -0.2135  0.3764  0.0506
  425TIP3    H125470   6.454   4.619   9.861 -0.1544  0.3393 -0.0692
  425TIP3    H225471   6.364   4.521   9.933 -0.8140  0.2414 -1.0168
  426TIP3   OH225472   6.572   3.476  11.766 -0.4484  0.1418  0.2172
  426TIP3    H125473   6.580   3.457  11.860  0.1504 -1.4044 -0.1270
  426TIP3    H225474   6.517   3.406  11.732  1.9478 -1.1877 -1.1221
  427TIP3   OH225475   4.975   0.350   9.457  0.9964  0.4840 -0.3449
  427TIP3    H125476   4.996   0.422   9.399  1.3197  1.3204  0.7788
  427TIP3    H225477   4.880   0.339   9.449  1.3162 -1.1615 -2.9726
  428TIP3   OH225478   5.509   3.068  12.060 -0.1827 -0.1110  0.0862
  428TIP3    H125479   5.448   3.089  11.988  0.7188  1.2845 -0.3019
  428TIP3    H225480   5.468   3.106  12.137  0.3044  1.0614 -0.2188
  429TIP3   OH225481   3.431   4.716  10.985 -0.5084 -0.3125  0.6030
  429TIP3    H125482   3.476   4.800  10.977  0.7485 -0.7401  2.6026
  429TIP3    H225483   3.491   4.653  10.944 -0.4088 -0.5351  1.0854
  430TIP3   OH225484   1.860   1.803   9.558  0.0996 -0.4321 -0.4616
  430TIP3    H125485   1.914   1.724   9.563 -0.0614 -0.7703 -2.8276
  430TIP3    H225486   1.908   1.868   9.609  1.9507 -1.1545 -1.1722
  431TIP3   OH225487   1.967   3.190   9.557 -0.8327 -0.2679  0.0020
  431TIP3    H125488   1.953   3.185   9.652 -1.6313  1.0064 -0.0296
  431TIP3    H225489   1.890   3.148   9.519  0.2351 -2.2395 -0.1022
  432TIP3   OH225490   4.870   2.633   9.613  0.1497  0.0928 -0.1293
  432TIP3    H125491   4.776   2.620   9.628  0.1943  1.3768  1.5156
  432TIP3    H225492   4.892   2.572   9.543 -1.2981 -2.4156  1.4776
  433TIP3   OH225493   2.551   0.090  10.044 -0.0237 -0.5594  0.8188
  433TIP3    H125494   2.624   0.085  10.106  0.2873 -0.6656  0.4449
  433TIP3    H225495   2.550   0.004  10.002 -1.0425 -0.9534  1.5773
  434TIP3   OH225496   1.851   0.084  11.544  0.1111 -0.4664  0.2204
  434TIP3    H125497   1.773   0.034  11.569 -0.4527  1.3807  2.5028
  434TIP3    H225498   1.834   0.110  11.453 -1.2473 -1.3338  0.1934
  435TIP3   OH225499   0.014   2.750  11.180 -0.4570 -0.1702  0.2290
  435TIP3    H125500   0.061   2.832  11.196  0.0576 -0.4378  0.1345
  435TIP3    H225501  -0.079   2.774  11.184 -0.3353  0.1906  1.3891
  436TIP3   OH225502   4.806   5.962  11.666 -0.0574  0.8036  0.2077
  436TIP3    H125503   4.861   6.009  11.728  0.0141  0.5590  0.3296
  436TIP3    H225504   4.810   6.014  11.586  0.4606  0.7210  0.1736
  437TIP3   OH225505   5.188   3.688  11.768 -0.0672  0.0869 -0.1503
  437TIP3    H125506   5.270   3.694  11.719  1.0312 -1.2725  1.4056
  437TIP3    H225507   5.170   3.594  11.774  0.1056  0.1415  2.3585
  438TIP3   OH225508   0.121   5.897  10.403 -0.0495  0.3361 -0.1326
  438TIP3    H125509   0.178   5.823  10.381  1.4007  1.0671  0.9522
  438TIP3    H225510   0.032   5.866  10.386  0.1688 -2.8896  3.3153
  439TIP3   OH225511   6.373   2.677  10.898 -0.3360  0.2363 -1.0023
  439TIP3    H125512   6.434   2.748  10.915 -1.6276  0.9498  1.2156
  439TIP3    H225513   6.297   2.720  10.859 -0.9439  0.0410 -0.0675
  440TIP3   OH225514   3.301   4.777   9.998 -0.5301 -0.0689 -0.2957
  440TIP3    H125515   3.273   4.751   9.910  0.7374  0.1487 -0.7858
  440TIP3    H225516   3.396   4.768   9.996 -0.5501 -1.0384  1.3778
  441TIP3   OH225517   3.826   4.600  11.998  0.1118  0.2352  0.5832
  441TIP3    H125518   3.741   4.640  12.017 -0.6901 -1.6019  1.1012
  441TIP3    H225519   3.807   4.540  11.926  1.1752  0.4207  0.1379
  442TIP3   OH225520   3.735   4.362  11.841  0.4056 -0.3075 -0.1053
  442TIP3    H125521   3.658   4.368  11.785 -0.8125  1.7615  1.6276
  442TIP3    H225522   3.746   4.269  11.858 -2.3137 -0.6062  0.3567
  443TIP3   OH225523   0.711   6.019   9.411  1.1556 -0.5228  0.1567
  443TIP3    H125524   0.689   6.112   9.418 -0.8214 -0.8143 -1.3527
  443TIP3    H225525   0.792   6.017   9.359  0.6844  0.3476 -0.6422
  444TIP3   OH225526   0.632   5.004  11.825 -0.2779 -0.1909  0.3698
  444TIP3    H125527   0.542   5.031  11.810  0.3868  1.3918 -1.1382
  444TIP3    H225528   0.633   4.970  11.915 -2.6178 -1.5556 -0.0507
  445TIP3   OH225529   5.746   0.649  11.175  0.1302 -0.0837  0.7144
  445TIP3    H125530   5.832   0.609  11.161 -0.6233 -0.9128 -2.0788
  445TIP3    H225531   5.691   0.614  11.105 -2.5965  0.2374  2.5322
  446TIP3   OH225532   5.446   5.816   8.895  0.0204 -0.2071 -0.2907
  446TIP3    H125533   5.468   5.909   8.905  0.6848 -0.5235  1.6914
  446TIP3    H225534   5.389   5.797   8.969 -0.0165 -1.4021 -0.6139
  447TIP3   OH225535   6.695   3.489  12.176 -0.7836 -0.5517  0.0622
  447TIP3    H125536   6.687   3.447  12.262 -1.8746 -1.3875 -0.4329
  447TIP3    H225537   6.611   3.474  12.133  0.4866 -2.1896 -2.0645
  448TIP3   OH225538   6.118   1.354   9.902 -0.1667 -0.7570  0.3649
  448TIP3    H125539   6.181   1.296   9.862  0.3861 -1.0226  1.5792
  448TIP3    H225540   6.155   1.376   9.987 -2.1569 -1.7510  1.5714
  449TIP3   OH225541   2.242   3.506   9.881 -0.3632  0.0760  0.1823
  449TIP3    H125542   2.226   3.464   9.966 -1.4467  0.8379  0.3690
  449TIP3    H225543   2.257   3.598   9.902 -0.8114  0.3028 -0.4698
  450TIP3   OH225544   4.216   1.366   8.840 -0.3430 -0.3452  0.4095
  450TIP3    H125545   4.198   1.277   8.871  0.7560 -1.0292 -0.8471
  450TIP3    H225546   4.304   1.385   8.872  0.2038 -0.4789 -0.9809
  451TIP3   OH225547   4.846   5.299  12.138 -0.3744  0.1960 -0.4694
  451TIP3    H125548   4.844   5.379  12.085 -1.0206  0.0635 -0.6658
  451TIP3    H225549   4.930   5.302  12.183  0.3483  0.1575 -1.7456
  452TIP3   OH225550   1.491   0.376  10.543 -0.2053  0.3323  0.4310
  452TIP3    H125551   1.447   0.354  10.625  0.2788  0.9196  0.8589
  452TIP3    H225552   1.442   0.329  10.476 -0.7518  0.0328  1.0322
  453TIP3   OH225553   5.625   0.448   9.591 -0.0757 -0.2630  0.0839
  453TIP3    H125554   5.621   0.544   9.594 -0.7065 -0.1712 -1.9273
  453TIP3    H225555   5.541   0.419   9.626 -0.1987 -0.0440 -0.0274
  454TIP3   OH225556   1.160   4.437   9.756  0.2040 -0.0003 -0.4263
  454TIP3    H125557   1.246   4.396   9.746  0.1480 -0.2068 -0.1000
  454TIP3    H225558   1.098   4.365   9.748  0.1426 -0.1202  0.9169
  455TIP3   OH225559   6.468   1.860   8.778  0.0015  0.7348  0.4130
  455TIP3    H125560   6.517   1.916   8.838  0.8878 -0.2532  0.6326
  455TIP3    H225561   6.510   1.872   8.693 -2.0323  3.1093 -0.3791
  456TIP3   OH225562   6.468   3.557   9.474  0.2477 -0.0682  0.0647
  456TIP3    H125563   6.415   3.533   9.549 -0.7326  1.8596  0.0579
  456TIP3    H225564   6.414   3.618   9.424  1.3713 -0.2911 -1.5174
  457TIP3   OH225565   6.437   0.635  11.239 -0.2499  0.1890  0.5273
  457TIP3    H125566   6.447   0.640  11.335 -0.1983 -0.6761  0.5732
  457TIP3    H225567   6.428   0.726  11.212 -1.3080  0.3818  1.4654
  458TIP3   OH225568   3.168   1.366  11.968 -0.1680 -0.7651  0.8754
  458TIP3    H125569   3.097   1.415  12.008 -0.0505 -1.0364  1.4344
  458TIP3    H225570   3.215   1.327  12.043 -0.6371 -2.2531  0.4292
  459TIP3   OH225571   0.843   5.082   8.889 -0.1402  0.4367  0.5890
  459TIP3    H125572   0.912   5.025   8.854 -1.5108 -1.5276  0.9137
  459TIP3    H225573   0.823   5.143   8.817  0.7593 -0.0563 -0.1030
  460TIP3   OH225574   3.363   3.013  10.688  0.2351 -0.1065 -0.3697
  460TIP3    H125575   3.331   2.937  10.736  1.0828 -0.6681 -0.6720
  460TIP3    H225576   3.314   3.010  10.605  0.9206 -0.8625 -0.7608
  461TIP3   OH225577   5.875   1.518  11.588  0.1749  1.1203 -0.4374
  461TIP3    H125578   5.874   1.613  11.581 -1.3774  1.1909  0.2527
  461TIP3    H225579   5.782   1.493  11.592  0.5636 -0.3274  0.5152
  462TIP3   OH225580   0.614   1.761   9.358  0.0035 -0.4275 -0.2357
  462TIP3    H125581   0.567   1.814   9.423 -1.0643 -1.6746  0.0479
  462TIP3    H225582   0.550   1.747   9.288 -0.0064 -1.9605  0.0489
  463TIP3   OH225583   5.839   5.930   9.153 -0.4270  0.3976  0.3134
  463TIP3    H125584   5.840   5.865   9.083  2.5455 -1.0254  1.5086
  463TIP3    H225585   5.886   6.005   9.116  0.7032 -0.1666  0.5371
  464TIP3   OH225586   1.213   5.475  11.929 -0.1595 -0.1451  0.1302
  464TIP3    H125587   1.277   5.513  11.868  1.0728  1.2782  2.1969
  464TIP3    H225588   1.192   5.547  11.989 -1.4894 -1.4353  1.2621
  465TIP3   OH225589   5.425   1.153   9.612 -0.3439  0.5653  0.0440
  465TIP3    H125590   5.431   1.079   9.672  0.5565  0.1375 -0.5636
  465TIP3    H225591   5.338   1.189   9.628 -0.2247  0.2834  1.3967
  466TIP3   OH225592   6.340   6.437   9.744 -0.0831  0.1878  0.1737
  466TIP3    H125593   6.434   6.442   9.724 -0.0455  0.7920  0.4819
  466TIP3    H225594   6.336   6.402   9.833 -0.2255 -1.7627 -0.5622
  467TIP3   OH225595   3.604   3.735  10.113 -0.3685 -0.0131 -0.4822
  467TIP3    H125596   3.540   3.792  10.157  1.3954  1.8273 -0.1510
  467TIP3    H225597   3.578   3.737  10.021 -2.0022 -1.0378 -0.0848
  468TIP3   OH225598   5.401   4.297  11.576 -0.3758 -0.3011  0.5950
  468TIP3    H125599   5.432   4.354  11.647 -1.0451 -0.2376  0.8507
  468TIP3    H225600   5.449   4.326  11.499  0.8030 -0.7557  1.1310
  469TIP3   OH225601   0.852   2.325  10.734 -0.1630  0.2507 -0.0548
  469TIP3    H125602   0.910   2.258  10.697 -2.3226 -2.4843  1.1360
  469TIP3    H225603   0.853   2.396  10.670  0.6648 -1.8057 -2.4901
  470TIP3   OH225604   1.038   4.701   9.736  0.2292  0.4964  0.1403
  470TIP3    H125605   1.090   4.620   9.740  0.6937  0.8083  0.6065
  470TIP3    H225606   1.079   4.759   9.801 -1.8099  0.1313  1.8860
  471TIP3   OH225607   2.587   6.252   8.225  0.3547  0.3049 -0.3112
  471TIP3    H125608   2.521   6.203   8.176 -0.6595  1.8143 -0.5053
  471TIP3    H225609   2.626   6.311   8.161  0.1724  1.1337  0.3201
  472TIP3   OH225610   6.299   0.738  11.010  0.1317  0.1292 -0.3132
  472TIP3    H125611   6.253   0.799  10.952 -0.4056  1.3279  1.3104
  472TIP3    H225612   6.390   0.766  11.005 -0.1467  1.2669  0.6140
  473TIP3   OH225613   2.354   6.455  10.290  0.4328 -0.4101  0.2099
  473TIP3    H125614   2.445   6.467  10.260  0.1549  0.6512 -0.2627
  473TIP3    H225615   2.352   6.366  10.324  1.3221 -0.9100 -0.9702
  474TIP3   OH225616   1.920   4.458   9.391  0.4353 -0.6328 -0.0058
  474TIP3    H125617   1.959   4.384   9.344 -0.0106 -0.6259 -0.3933
  474TIP3    H225618   1.874   4.508   9.323 -1.4091 -1.3800  0.6222
  475TIP3   OH225619   2.076   0.458  10.977 -0.0017  0.5915 -0.0573
  475TIP3    H125620   2.083   0.543  10.935  0.6467  1.2968  1.4036
  475TIP3    H225621   2.132   0.400  10.925 -1.2876  0.7488 -1.7062
  476TIP3   OH225622   6.390   1.063  11.652 -0.5468 -0.2542  0.5443
  476TIP3    H125623   6.324   1.076  11.720  0.1064  0.4562  1.0624
  476TIP3    H225624   6.454   1.133  11.666 -0.5946  0.1577 -1.0544
  477TIP3   OH225625   5.850   4.305  10.263  0.7539  0.0855 -0.2711
  477TIP3    H125626   5.828   4.226  10.312 -0.0770  0.4546 -0.0363
  477TIP3    H225627   5.924   4.279  10.208  1.4236 -0.4567  0.8456
  478TIP3   OH225628   2.369   2.452  10.610 -0.1338 -0.7977  0.0877
  478TIP3    H125629   2.410   2.373  10.574  2.2607  0.3157  0.1642
  478TIP3    H225630   2.346   2.429  10.700  1.9450 -1.0288  0.6211
  479TIP3   OH225631   4.611   0.822   9.056 -0.0302 -0.1087  0.0558
  479TIP3    H125632   4.609   0.870   8.973  0.6939  0.5328  0.4007
  479TIP3    H225633   4.542   0.756   9.047 -0.9658  0.9051 -0.4733
  480TIP3   OH225634   6.422   2.776   9.936 -0.2682  0.1536 -0.0186
  480TIP3    H125635   6.465   2.729  10.008 -1.8949  0.1054  0.9620
  480TIP3    H225636   6.335   2.738   9.931 -0.7145  1.2429 -0.9867
  481TIP3   OH225637   6.398   6.363  11.405 -0.4330  0.4567  0.5403
  481TIP3    H125638   6.377   6.294  11.468  0.7245  0.7442  1.2707
  481TIP3    H225639   6.358   6.333  11.323  0.9368 -1.6483  0.5674
  482TIP3   OH225640   3.841   0.363   8.906  0.0605  0.1016 -0.4233
  482TIP3    H125641   3.844   0.269   8.886  1.0590 -0.1260  0.6580
  482TIP3    H225642   3.776   0.370   8.976  0.6132  0.0777  0.1016
  483TIP3   OH225643   4.687   0.003   9.721  0.1010  0.3951  0.8721
  483TIP3    H125644   4.667  -0.081   9.680 -0.0655  0.7359  0.2491
  483TIP3    H225645   4.727  -0.021   9.805 -0.3846 -0.2991  0.9155
  484TIP3   OH225646   3.510   1.462  10.354  0.1039  0.3163  0.2616
  484TIP3    H125647   3.601   1.436  10.370  0.0480  0.4610  0.8636
  484TIP3    H225648   3.518   1.540  10.299  0.3454  0.2647  0.2194
  485TIP3   OH225649   6.090   5.956  10.925  0.1772 -0.0077 -0.4967
  485TIP3    H125650   6.145   5.935  11.000  1.2822  0.3575 -1.1736
  485TIP3    H225651   6.022   5.889  10.925  0.6844 -0.5366  0.3107
  486TIP3   OH225652   1.748   6.334  11.907  0.0381 -0.3704  0.4492
  486TIP3    H125653   1.692   6.299  11.977  0.2959  0.9593  1.3692
  486TIP3    H225654   1.812   6.265  11.890 -0.4740 -0.9998  1.0157
  487TIP3   OH225655   4.576   2.726  10.518 -0.2204  0.3482 -0.6256
  487TIP3    H125656   4.631   2.772  10.583  1.6176 -0.5155 -1.4974
  487TIP3    H225657   4.518   2.794  10.484 -0.1437  1.1699  0.7838
  488TIP3   OH225658   5.359   2.127  10.029 -0.0198  0.0709 -0.1243
  488TIP3    H125659   5.444   2.084  10.019 -0.4655 -0.2805 -3.7663
  488TIP3    H225660   5.350   2.182   9.952 -3.4374 -0.5171 -0.3189
  489TIP3   OH225661   3.917   2.272   9.955 -0.1917  0.3526  0.0419
  489TIP3    H125662   4.002   2.288   9.997  0.6689 -1.4625 -0.9001
  489TIP3    H225663   3.866   2.227  10.022 -0.0834  0.5972  0.2938
  490TIP3   OH225664   1.611   2.370  10.988 -0.2231  0.0415 -0.0091
  490TIP3    H125665   1.686   2.347  10.934 -1.9673  0.3132 -2.7600
  490TIP3    H225666   1.557   2.291  10.988 -0.2370  0.0209  1.4842
  491TIP3   OH225667   4.936   0.979  10.393 -0.8173 -0.4480  0.7423
  491TIP3    H125668   5.006   1.042  10.407 -1.7316  0.5033  1.1593
  491TIP3    H225669   4.917   0.984  10.299  0.8697 -2.0492  0.2497
  492TIP3   OH225670   3.561   0.277  10.222  0.0988  0.0518  0.4047
  492TIP3    H125671   3.560   0.184  10.197 -3.6676  0.0277  0.0182
  492TIP3    H225672   3.563   0.276  10.318  1.6672 -0.3185  0.3924
  493TIP3   OH225673   2.496   6.635  10.795  0.2121  0.1153  0.6478
  493TIP3    H125674   2.475   6.577  10.868 -1.5214 -0.3620 -0.1645
  493TIP3    H225675   2.419   6.691  10.786  1.1632  1.4175  0.3370
  494TIP3   OH225676   5.409   4.750  10.299 -0.0549  0.7383 -1.0678
  494TIP3    H125677   5.399   4.655  10.307 -0.0618  0.6478 -2.0549
  494TIP3    H225678   5.477   4.772  10.363 -0.2611  0.1129 -0.6249
  495TIP3   OH225679   4.382   0.958   8.379 -0.7479 -0.2618 -0.1198
  495TIP3    H125680   4.328   0.974   8.302  1.0934  0.3228 -1.3411
  495TIP3    H225681   4.322   0.971   8.453 -2.4450 -0.4051 -1.4024
  496TIP3   OH225682   4.776   5.308   9.967 -0.5051  0.4798  0.0163
  496TIP3    H125683   4.740   5.395   9.987 -0.8060  0.8778 -2.0805
  496TIP3    H225684   4.714   5.270   9.905  0.4537 -0.5883 -0.3120
  497TIP3   OH225685   2.106   0.688  10.823  0.3428 -0.1184  0.2132
  497TIP3    H125686   2.025   0.734  10.799 -0.0926 -0.9968 -0.0141
  497TIP3    H225687   2.163   0.698  10.747  1.1984  2.0843  1.0313
  498TIP3   OH225688   2.846   5.031   9.947 -0.1355 -0.2329 -0.3014
  498TIP3    H125689   2.767   5.062   9.991  0.2856  0.9366 -0.3217
  498TIP3    H225690   2.898   4.990  10.016 -0.4820 -0.4416 -0.1639
  499TIP3   OH225691   3.190   2.871   8.889 -0.4218 -0.4114  0.1048
  499TIP3    H125692   3.252   2.907   8.953  0.2114 -1.2786 -0.0048
  499TIP3    H225693   3.199   2.928   8.813  0.7957 -0.9674 -0.1778
  500TIP3   OH225694   5.508   4.473  11.749 -0.4628 -0.2361  0.2756
  500TIP3    H125695   5.492   4.537  11.819 -1.4097 -0.9517  0.7307
  500TIP3    H225696   5.601   4.451  11.758 -0.1531  0.9271  0.2138
  501TIP3   OH225697   1.787   4.753  11.531  0.0351 -0.3280  0.3782
  501TIP3    H125698   1.794   4.721  11.441 -0.8509 -1.6333  0.7480
  501TIP3    H225699   1.695   4.738  11.554 -0.2214  1.7449  0.8827
  502TIP3   OH225700   6.129   0.347   9.111 -0.2633 -0.7751 -0.2562
  502TIP3    H125701   6.200   0.398   9.149 -0.5155 -0.5980 -0.0233
  502TIP3    H225702   6.109   0.390   9.028  2.0444 -2.6225 -1.9446
  503TIP3   OH225703   1.856   1.183  11.358  0.2549 -0.8793 -0.5560
  503TIP3    H125704   1.819   1.107  11.401  1.4062  0.4319  3.0790
  503TIP3    H225705   1.781   1.230  11.322 -1.3756 -0.2585  3.2253
  504TIP3   OH225706   3.789   6.200  11.385  0.1125  0.0256  0.0215
  504TIP3    H125707   3.700   6.173  11.410 -0.1529 -0.1162 -1.0233
  504TIP3    H225708   3.845   6.127  11.413 -0.2402 -0.3493 -0.2309
  505TIP3   OH225709   4.957   1.654  11.009  0.1413  0.4763 -0.4042
  505TIP3    H125710   4.873   1.676  10.969 -0.2412 -2.4270 -1.4579
  505TIP3    H225711   5.022   1.683  10.945 -0.3774 -2.0313 -2.2543
  506TIP3   OH225712   2.451   4.217   9.966  0.2651 -0.1577 -0.4235
  506TIP3    H125713   2.381   4.265   9.922  1.2373  0.5947 -1.1838
  506TIP3    H225714   2.452   4.253  10.055 -0.1161  0.0401 -0.4992
  507TIP3   OH225715   3.840   5.672   9.145 -0.3436  0.3548  0.3479
  507TIP3    H125716   3.877   5.585   9.153 -1.9718 -0.3603  0.5532
  507TIP3    H225717   3.871   5.704   9.061  1.0543 -0.0076  0.6968
  508TIP3   OH225718   2.019   4.952   8.940 -0.1677 -0.2460  0.1323
  508TIP3    H125719   1.947   4.979   8.883 -0.4835 -0.3381  0.4902
  508TIP3    H225720   2.076   4.901   8.882 -0.4566 -0.2902 -0.1173
  509TIP3   OH225721   2.998   1.339   9.329  0.2673 -0.7317  0.2237
  509TIP3    H125722   3.041   1.291   9.259  0.0733 -0.3958 -0.1295
  509TIP3    H225723   3.061   1.407   9.354 -0.3884  0.3462 -0.9178
  510TIP3   OH225724   4.825   2.144  10.586  0.0677 -0.3316 -0.2560
  510TIP3    H125725   4.771   2.103  10.519 -0.9235 -0.5082  0.6368
  510TIP3    H225726   4.766   2.204  10.632  0.7802 -0.0748  0.3454
  511TIP3   OH225727   2.626   6.528  10.245 -0.5594  0.0589  0.1984
  511TIP3    H125728   2.683   6.605  10.237 -0.6938  0.2571  1.0321
  511TIP3    H225729   2.686   6.456  10.266 -0.2411 -0.4057 -2.0526
  512TIP3   OH225730   6.620   1.985   8.954  0.2715 -0.2483 -0.3149
  512TIP3    H125731   6.602   2.063   9.008  0.1214 -1.6226  1.7242
  512TIP3    H225732   6.715   1.985   8.943  0.1660  0.9003 -1.4565
  513TIP3   OH225733   0.354   5.571  10.639 -0.1234 -0.2990  0.1760
  513TIP3    H125734   0.447   5.554  10.654  0.5282  0.4208 -2.4473
  513TIP3    H225735   0.317   5.485  10.617  0.0220 -0.5009  0.7142
  514TIP3   OH225736   6.619   6.121   8.841  0.3991 -0.5642 -0.0594
  514TIP3    H125737   6.634   6.077   8.925 -1.0884 -0.6156  0.2025
  514TIP3    H225738   6.663   6.066   8.777 -0.0335 -1.5507  0.4694
  515TIP3   OH225739   2.966   1.432  10.001 -0.1385  0.0993  0.6774
  515TIP3    H125740   2.898   1.365  10.015  0.6446 -1.0280 -0.6691
  515TIP3    H225741   2.946   1.500  10.066 -2.1049 -0.5403  0.8082
  516TIP3   OH225742   5.949   4.411  11.190 -0.0422  0.6767  0.3489
  516TIP3    H125743   5.978   4.322  11.169 -2.0364  0.5339 -2.1753
  516TIP3    H225744   6.013   4.468  11.147 -0.5554  0.4104 -0.7900
  517TIP3   OH225745   6.303   3.430   9.870  0.1916  0.1598 -0.0511
  517TIP3    H125746   6.294   3.444   9.776  0.8869  2.1405  0.1215
  517TIP3    H225747   6.374   3.367   9.878  1.3295  1.2847 -0.8548
  518TIP3   OH225748   2.286   2.826  11.806  0.3077 -0.0575  0.4261
  518TIP3    H125749   2.240   2.756  11.854  0.6338  0.0334  0.8803
  518TIP3    H225750   2.240   2.906  11.830  0.4298 -0.0204  0.5409
  519TIP3   OH225751   3.388   6.499  11.674 -0.3282 -0.1237 -0.1178
  519TIP3    H125752   3.343   6.512  11.591  2.5912  2.0224 -1.5604
  519TIP3    H225753   3.473   6.463  11.650  0.3427 -0.1356  2.0227
  520TIP3   OH225754   0.522   1.280  11.284  0.1876 -0.5536  0.4711
  520TIP3    H125755   0.468   1.201  11.285  1.2133 -1.3557  3.3660
  520TIP3    H225756   0.604   1.253  11.327  0.7972  1.9321  1.0273
  521TIP3   OH225757   6.382   1.484  11.121 -0.8005  0.5762 -0.0074
  521TIP3    H125758   6.311   1.439  11.167 -0.3313  0.0910  0.2590
  521TIP3    H225759   6.462   1.444  11.157 -0.4243  0.0626 -1.3692
  522TIP3   OH225760   5.584   6.449  10.423 -0.2736 -0.5106  0.2965
  522TIP3    H125761   5.516   6.505  10.460 -0.9260  0.1797 -1.7725
  522TIP3    H225762   5.552   6.360  10.438 -0.7657 -0.2477  0.8819
  523TIP3   OH225763   6.465   1.282  10.407  0.0909 -0.5716 -0.1009
  523TIP3    H125764   6.540   1.341  10.416 -0.3434 -0.0403  0.1477
  523TIP3    H225765   6.503   1.196  10.393  0.7590 -0.0112 -2.0850
  524TIP3   OH225766   6.364   1.734  11.468  0.0169  0.3217 -0.2459
  524TIP3    H125767   6.372   1.814  11.520  0.9896  0.8620 -1.1767
  524TIP3    H225768   6.322   1.671  11.526 -1.5625  1.7509  0.2429
  525TIP3   OH225769   5.375   1.289   9.926 -0.3610 -0.0244  0.7845
  525TIP3    H125770   5.337   1.202   9.932  1.3670 -0.8583  0.3877
  525TIP3    H225771   5.445   1.289   9.992 -0.7043  1.2659  1.1708
  526TIP3   OH225772   2.936   4.340  10.359 -0.3417  0.2540  0.1452
  526TIP3    H125773   2.952   4.262  10.306 -1.4527 -0.0140  0.1830
  526TIP3    H225774   2.922   4.308  10.448  0.5591  0.6246  0.4357
  527TIP3   OH225775   6.684   3.896  11.843 -0.1489 -0.2871 -0.3520
  527TIP3    H125776   6.733   3.845  11.907 -0.9016  1.3946  1.6705
  527TIP3    H225777   6.625   3.832  11.803  0.0462 -1.3262  0.9239
  528TIP3   OH225778   5.670   1.531  11.336 -0.1960  0.0471 -0.1965
  528TIP3    H125779   5.641   1.592  11.267 -1.2535  0.9823  1.0287
  528TIP3    H225780   5.759   1.507  11.310 -0.4021  0.7117 -1.6581
  529TIP3   OH225781   0.994   0.697  10.274  0.4585 -0.1691 -0.3504
  529TIP3    H125782   1.032   0.740  10.197 -1.5845  0.1768 -1.2351
  529TIP3    H225783   0.999   0.604  10.253 -0.7463 -0.0537 -1.2940
  530TIP3   OH225784   2.891   2.869  11.424  0.0121  0.2747  0.3140
  530TIP3    H125785   2.927   2.873  11.512  0.4290 -0.0294  0.1575
  530TIP3    H225786   2.944   2.931  11.373 -0.2666  0.4956  0.2914
  531TIP3   OH225787   1.678   0.002  11.838  0.1443  0.4624 -0.0646
  531TIP3    H125788   1.612  -0.024  11.774  0.3854 -0.9204  0.2068
  531TIP3    H225789   1.754  -0.053  11.817 -0.2492 -1.1194  2.2814
  532TIP3   OH225790   4.819   4.652  11.733 -0.1991  0.3060 -0.3738
  532TIP3    H125791   4.791   4.560  11.726 -3.1722  1.1162 -0.5681
  532TIP3    H225792   4.795   4.678  11.821 -0.6942  1.2682 -0.7820
  533TIP3   OH225793   0.087   6.579  11.576  0.2027 -0.5587 -0.1042
  533TIP3    H125794   0.168   6.595  11.529 -0.0560  0.8224 -0.1343
  533TIP3    H225795   0.083   6.484  11.586  0.2976 -0.9181 -2.7835
  534TIP3   OH225796   2.384   4.856  10.177  0.1292  0.1996  0.0286
  534TIP3    H125797   2.474   4.865  10.207 -0.4291 -0.3706  1.9687
  534TIP3    H225798   2.367   4.762  10.178 -0.8571  0.3689  0.8722
  535TIP3   OH225799   5.142   6.113   9.868  0.0275 -0.4062 -0.4457
  535TIP3    H125800   5.213   6.049   9.864  0.2247 -0.1479 -1.2172
  535TIP3    H225801   5.176   6.190   9.823 -0.3410  0.1251  0.1575
  536TIP3   OH225802   6.457   0.788  10.664 -0.5695 -0.4793  0.0886
  536TIP3    H125803   6.379   0.782  10.719  0.5862 -0.4654  1.7766
  536TIP3    H225804   6.459   0.879  10.635 -1.6183 -0.6794 -0.6571
  537TIP3   OH225805   1.768   0.498  10.507  0.4298  0.3064  0.2889
  537TIP3    H125806   1.700   0.432  10.493  0.0311  0.7473  0.1172
  537TIP3    H225807   1.805   0.477  10.592 -0.6602  0.7013  0.8733
  538TIP3   OH225808   5.353   1.957  12.265  0.5642 -0.2447  0.0889
  538TIP3    H125809   5.424   2.002  12.312  0.2378 -0.0420  0.3916
  538TIP3    H225810   5.315   1.899  12.331 -0.2035  0.3899  0.2112
  539TIP3   OH225811   5.418   2.373   9.736 -0.2747  0.5612  0.6090
  539TIP3    H125812   5.507   2.350   9.708 -0.4534  2.1189 -1.4851
  539TIP3    H225813   5.361   2.324   9.677 -0.7932  0.2772  1.3387
  540TIP3   OH225814   3.274   2.461   9.799 -0.2424  0.0941  0.3754
  540TIP3    H125815   3.188   2.451   9.758 -0.1139 -0.3448  0.2062
  540TIP3    H225816   3.336   2.450   9.728 -0.0456  0.4691  0.4880
  541TIP3   OH225817   6.224   1.674  10.102  0.8047  0.1349  0.0846
  541TIP3    H125818   6.173   1.599  10.132  2.5550 -1.0444  0.2700
  541TIP3    H225819   6.201   1.745  10.162  1.9564 -1.3369  2.3906
  542TIP3   OH225820   2.309   1.865   9.431 -0.1977  0.1474 -0.1177
  542TIP3    H125821   2.258   1.901   9.504 -0.4786 -2.2230  0.9612
  542TIP3    H225822   2.244   1.848   9.363 -0.1907  0.8199 -0.3033
  543TIP3   OH225823   6.047   1.599   9.773  0.4061  0.2203 -0.1319
  543TIP3    H125824   5.997   1.580   9.693  0.7600 -2.7368  0.2388
  543TIP3    H225825   6.069   1.513   9.808  1.9313  1.4476  2.1432
  544TIP3   OH225826   2.422   4.457  11.916 -0.1976 -0.2831  0.2077
  544TIP3    H125827   2.455   4.534  11.961  0.3804 -0.9237  0.8920
  544TIP3    H225828   2.410   4.391  11.984 -2.4019 -0.2626 -0.0747
  545TIP3   OH225829   2.619   1.944   9.026  0.3491  0.3758 -0.5414
  545TIP3    H125830   2.710   1.973   9.027  0.0878  1.2913  0.8431
  545TIP3    H225831   2.570   2.019   9.062 -0.3907 -1.6125  3.1393
  546TIP3   OH225832   6.340   5.726   8.386 -0.0745 -0.5949  0.2167
  546TIP3    H125833   6.245   5.733   8.374  0.1396 -0.8308 -1.9855
  546TIP3    H225834   6.360   5.636   8.362  0.7698 -0.4470  0.3511
  547TIP3   OH225835   2.561   4.212   9.693  0.3812  0.0098 -0.2933
  547TIP3    H125836   2.593   4.122   9.688  2.0880  0.5321  0.5410
  547TIP3    H225837   2.545   4.227   9.787  1.1212  0.8980 -0.2986
  548TIP3   OH225838   3.478   2.032  11.766 -0.1885  0.0640 -0.2113
  548TIP3    H125839   3.494   2.126  11.757  0.6529  0.3397  2.9229
  548TIP3    H225840   3.383   2.023  11.764 -0.5357  1.5772  2.7385
  549TIP3   OH225841   1.052   3.313  11.922  0.0530 -0.0652 -0.1499
  549TIP3    H125842   0.983   3.377  11.937  0.8908  0.6738  0.6577
  549TIP3    H225843   1.121   3.362  11.878  0.0364 -0.8240 -1.0691
  550TIP3   OH225844   6.299   2.646  12.079  0.9010 -0.0665  0.0888
  550TIP3    H125845   6.232   2.583  12.105  1.1425 -0.6669 -0.6948
  550TIP3    H225846   6.261   2.732  12.100 -0.4882 -0.3431 -1.1136
  551TIP3   OH225847   5.546   5.459   8.514 -0.3229  0.0292  0.5074
  551TIP3    H125848   5.571   5.380   8.466 -0.3542  2.1425 -3.2893
  551TIP3    H225849   5.619   5.475   8.573  1.0122 -1.2682 -0.7237
  552TIP3   OH225850   5.340   6.648  10.156 -0.4017  0.5727  0.1053
  552TIP3    H125851   5.427   6.647  10.115 -0.0148 -0.2905  0.9061
  552TIP3    H225852   5.341   6.726  10.212 -0.8438  1.6196 -1.2898
  553TIP3   OH225853   1.917   5.787   9.612  0.1094 -0.2508  0.8397
  553TIP3    H125854   1.894   5.808   9.521 -0.4361  1.2044  1.2921
  553TIP3    H225855   1.856   5.838   9.665  2.2175  1.1232  2.0717
  554TIP3   OH225856   6.433   3.945   9.708 -0.5092 -0.3586 -0.3619
  554TIP3    H125857   6.423   4.007   9.781  0.3563 -1.1561  0.4580
  554TIP3    H225858   6.522   3.913   9.716 -0.7719 -1.3028 -1.1097
  555TIP3   OH225859   1.326   0.653   9.177 -0.4288 -0.7053 -0.1825
  555TIP3    H125860   1.251   0.626   9.125  0.0950 -1.3171 -0.6371
  555TIP3    H225861   1.397   0.596   9.148 -0.1086 -1.0376  1.1816
  556TIP3   OH225862   4.404   3.514  10.401  0.2622 -0.5975 -0.4633
  556TIP3    H125863   4.321   3.470  10.416 -0.4857 -0.0081 -2.5854
  556TIP3    H225864   4.391   3.602  10.437  0.3022 -0.7857  0.0208
  557TIP3   OH225865   0.128   6.030   9.917 -0.4167 -0.0982  0.6441
  557TIP3    H125866   0.094   5.989   9.837  1.6384 -0.3238 -0.1917
  557TIP3    H225867   0.114   5.964   9.985 -1.1817 -0.3638  0.2408
  558TIP3   OH225868   4.430   6.097  10.561  0.3615  0.6313 -0.3766
  558TIP3    H125869   4.469   6.177  10.525  1.6730  0.2466  0.1218
  558TIP3    H225870   4.490   6.071  10.632 -1.0118  0.2032  0.6702
  559TIP3   OH225871   0.808   3.312  11.635  0.2221  0.5966 -0.6517
  559TIP3    H125872   0.845   3.361  11.709  1.0944 -1.1659  0.1265
  559TIP3    H225873   0.845   3.356  11.558 -0.4879  2.2901 -0.0657
  560TIP3   OH225874   1.993   0.552  12.245  0.4563 -0.1426 -0.5764
  560TIP3    H125875   1.919   0.498  12.219  0.4576  0.4919 -1.9797
  560TIP3    H225876   2.031   0.507  12.320  0.3184 -1.9664 -1.5532
  561TIP3   OH225877   5.930   5.657  10.360 -0.3067  0.0725  0.2358
  561TIP3    H125878   5.996   5.595  10.329 -1.4142  0.2019 -2.6679
  561TIP3    H225879   5.951   5.739  10.316 -1.9699  0.2958 -0.2122
  562TIP3   OH225880   3.949   6.706  11.545  0.2753 -0.2934  0.7733
  562TIP3    H125881   3.858   6.679  11.536  0.6072 -1.1235 -0.2782
  562TIP3    H225882   3.988   6.642  11.604  0.3025 -0.2490  0.8038
  563TIP3   OH225883   4.836   2.047   9.309 -0.3241  0.4247  0.4512
  563TIP3    H125884   4.856   2.037   9.216  0.4010  0.3817  0.6059
  563TIP3    H225885   4.842   2.141   9.325 -0.7507  0.4626  0.3888
  564TIP3   OH225886   3.154   6.399  12.337 -0.2666 -0.9521  0.3733
  564TIP3    H125887   3.236   6.435  12.370  0.4036 -0.5283 -1.6326
  564TIP3    H225888   3.180   6.336  12.269 -1.5883 -0.4523 -0.6535
  565TIP3   OH225889   4.403   4.986  11.696  0.3636 -0.1219 -0.0079
  565TIP3    H125890   4.328   4.948  11.740  0.5822 -1.2384 -0.5739
  565TIP3    H225891   4.474   4.924  11.711  0.7920  0.1794 -0.7385
  566TIP3   OH225892   3.137   5.941  10.297  0.3975  0.2448 -0.1951
  566TIP3    H125893   3.196   5.959  10.370  2.8738 -2.5327 -1.3083
  566TIP3    H225894   3.153   6.013  10.236  0.8283  0.7964  0.5450
  567TIP3   OH225895   3.738   3.628   9.403 -0.0741 -0.0623 -0.2692
  567TIP3    H125896   3.717   3.570   9.330  0.0210 -1.5873  0.8770
  567TIP3    H225897   3.830   3.612   9.422  0.2923  1.3993 -0.7301
  568TIP3   OH225898   4.097   3.091  11.652  0.1488 -0.0992  0.1133
  568TIP3    H125899   4.097   3.176  11.697  0.3715 -0.7589  1.3819
  568TIP3    H225900   4.010   3.086  11.612 -0.2908  0.2302  1.0071
  569TIP3   OH225901   0.133   5.661  11.984  0.3743  0.0331  0.0349
  569TIP3    H125902   0.175   5.676  12.069 -1.9387  0.5787  1.1742
  569TIP3    H225903   0.198   5.687  11.919  1.1694  2.5549  1.7090
  570TIP3   OH225904   3.488   0.791  10.781  0.3330  0.3176  0.5321
  570TIP3    H125905   3.409   0.793  10.835 -0.1857 -1.9447 -0.0096
  570TIP3    H225906   3.455   0.778  10.692  1.2892 -0.9319  0.3340
  571TIP3   OH225907   6.091   5.068   8.796  0.2704 -0.0985  0.3376
  571TIP3    H125908   6.008   5.037   8.833 -0.3003  0.4965 -0.4155
  571TIP3    H225909   6.157   5.009   8.833 -0.6905 -1.8300 -0.5554
  572TIP3   OH225910   6.380   1.059   9.271 -0.6303 -0.0515  0.2452
  572TIP3    H125911   6.317   1.082   9.340  0.5436  1.0147  1.0015
  572TIP3    H225912   6.448   1.009   9.317  0.8658  1.8257  0.1876
  573TIP3   OH225913   2.476   0.520  10.701 -0.2511  0.2688  0.2086
  573TIP3    H125914   2.489   0.478  10.616 -3.1527 -2.3414  0.8679
  573TIP3    H225915   2.563   0.550  10.726  0.8067  0.8126 -3.4314
  574TIP3   OH225916   0.718   0.826  11.777  0.2322  0.2218  0.1284
  574TIP3    H125917   0.690   0.810  11.687 -1.2966 -0.2561  0.6510
  574TIP3    H225918   0.795   0.771  11.789 -0.1738 -0.5172 -0.5851
  575TIP3   OH225919   4.115   1.832  11.716  0.4956  0.8081  0.1906
  575TIP3    H125920   4.098   1.782  11.796 -1.3546  1.4492  0.2407
  575TIP3    H225921   4.060   1.791  11.650 -0.4946  2.2964  0.0550
  576TIP3   OH225922   0.757   4.393  11.368 -0.0343  0.3226  0.1863
  576TIP3    H125923   0.758   4.308  11.324 -0.1693  1.1218 -1.4571
  576TIP3    H225924   0.825   4.387  11.434 -0.1971 -1.1384  0.2496
  577TIP3   OH225925   3.203   1.969   9.513  0.2545  0.2074  0.1976
  577TIP3    H125926   3.239   1.960   9.601 -0.1958  0.3198  0.3963
  577TIP3    H225927   3.132   1.904   9.510 -1.2989  1.8001  0.7485
  578TIP3   OH225928   1.913   3.786  10.539  0.6286  0.1009 -0.3001
  578TIP3    H125929   1.819   3.791  10.558  0.5285  0.6807 -0.9255
  578TIP3    H225930   1.948   3.872  10.561  1.6560 -1.0102  3.0414
  579TIP3   OH225931   4.450   0.615  10.011 -0.0568  0.4043  0.3563
  579TIP3    H125932   4.405   0.698   9.996  0.1402  0.7910  1.7658
  579TIP3    H225933   4.512   0.633  10.081  0.2492 -0.8429  0.4396
  580TIP3   OH225934   5.539   0.580  11.479  0.0075 -0.2511  0.5209
  580TIP3    H125935   5.596   0.610  11.550  0.4340  2.9959 -0.9805
  580TIP3    H225936   5.452   0.614  11.502  0.1317  0.7510 -0.4129
  581TIP3   OH225937   6.340   4.344   9.712 -0.0975 -0.4336  0.2838
  581TIP3    H125938   6.312   4.274   9.771 -1.1586 -0.4487 -0.2197
  581TIP3    H225939   6.408   4.391   9.761  2.6211 -3.3848 -0.3240
  582TIP3   OH225940   0.576   3.583  10.418  0.1181 -0.1142 -0.0763
  582TIP3    H125941   0.580   3.489  10.432  0.4107  0.1050  1.4497
  582TIP3    H225942   0.613   3.596  10.331 -1.8794 -1.5878 -1.2227
  583TIP3   OH225943   6.581   0.289  10.954  0.3295  0.2897  0.4061
  583TIP3    H125944   6.616   0.323  10.872  0.8470 -2.4361 -0.6133
  583TIP3    H225945   6.657   0.278  11.010  0.1321  1.0417  0.8258
  584TIP3   OH225946   4.597   3.336  12.262  0.3663  0.3606  0.7132
  584TIP3    H125947   4.666   3.293  12.312 -0.6437 -0.3498  1.5441
  584TIP3    H225948   4.622   3.428  12.260  1.6459  0.0229  0.4525
  585TIP3   OH225949   2.512   0.262   8.976  0.0979  0.1888  0.1670
  585TIP3    H125950   2.589   0.209   8.954  0.6436  0.7885  0.6224
  585TIP3    H225951   2.475   0.219   9.053  0.9474  0.8570  0.9686
  586TIP3   OH225952   6.679   5.317  10.472  0.2336 -0.1665 -0.1088
  586TIP3    H125953   6.631   5.353  10.547  0.0480  0.8730 -0.6967
  586TIP3    H225954   6.700   5.394  10.419  1.3318 -0.7687 -0.5665
  587TIP3   OH225955   1.447   1.973  10.815 -0.5361 -0.0143  0.2764
  587TIP3    H125956   1.448   1.996  10.908  1.3524 -0.8209  0.5044
  587TIP3    H225957   1.501   2.040  10.773  1.4790 -1.4989  0.3307
  588TIP3   OH225958   1.725   0.290  11.286 -0.3902 -0.1179 -0.2635
  588TIP3    H125959   1.670   0.363  11.317 -1.1972 -0.4932 -0.7907
  588TIP3    H225960   1.803   0.333  11.252 -0.7453  0.4950 -0.3351
  589TIP3   OH225961   0.095   4.762  10.283 -0.0129  0.6230 -0.1755
  589TIP3    H125962   0.126   4.836  10.335 -0.9885  1.8226 -1.2229
  589TIP3    H225963   0.003   4.752  10.308  0.0058  0.0052 -0.3327
  590TIP3   OH225964   5.059   0.811  10.141  0.4758  0.0314  0.3014
  590TIP3    H125965   5.098   0.898  10.151 -0.8025  0.7918 -0.9821
  590TIP3    H225966   5.128   0.751  10.169  1.9614  1.3811 -0.2982
  591TIP3   OH225967   2.821   1.117  10.639  0.4667 -0.0249  0.6053
  591TIP3    H125968   2.896   1.166  10.670 -0.4254  0.4654  2.0916
  591TIP3    H225969   2.756   1.126  10.709 -1.0830 -0.1792 -0.7561
  592TIP3   OH225970   6.584   6.518  10.234  0.0621  0.6619 -0.1043
  592TIP3    H125971   6.581   6.518  10.330 -0.5876  0.4190 -0.1180
  592TIP3    H225972   6.676   6.530  10.213  0.2360  0.5463  0.5548
  593TIP3   OH225973   4.205   2.059  11.379  0.3635  0.2561 -0.4577
  593TIP3    H125974   4.195   2.145  11.419 -0.8098 -0.1482  0.1612
  593TIP3    H225975   4.245   2.005  11.448  0.2873  0.0821 -0.5488
  594TIP3   OH225976   0.438   2.116  10.559 -0.0998 -0.0683 -0.0689
  594TIP3    H125977   0.389   2.157  10.630  0.4023 -0.0624  0.2850
  594TIP3    H225978   0.515   2.078  10.602 -0.4366 -1.1967 -0.4198
  595TIP3   OH225979   0.362   4.448  12.031  0.1723 -0.1934 -0.4366
  595TIP3    H125980   0.420   4.373  12.023  1.6203  0.8730 -0.2633
  595TIP3    H225981   0.404   4.503  12.097  0.0392  1.5670 -1.7658
  596TIP3   OH225982   2.122   2.968  11.344 -0.2542 -0.0105  0.4194
  596TIP3    H125983   2.111   2.889  11.291 -0.0261  0.2776 -0.0593
  596TIP3    H225984   2.072   3.035  11.298 -0.1327  0.2215  0.6235
  597TIP3   OH225985   0.371   6.441   9.343  0.3487  0.3767  0.1950
  597TIP3    H125986   0.382   6.469   9.252  0.5017  0.5688  0.2719
  597TIP3    H225987   0.313   6.506   9.381 -0.5532 -0.2749 -0.0333
  598TIP3   OH225988   5.392   3.287  10.932 -0.1889 -0.0527 -0.0931
  598TIP3    H125989   5.321   3.350  10.948  0.5402  0.5251  1.0294
  598TIP3    H225990   5.468   3.325  10.977  0.4775 -1.3366 -0.0863
  599TIP3   OH225991   1.106   5.963   9.444  0.3195 -0.3834 -0.7848
  599TIP3    H125992   1.041   5.997   9.382 -0.5675  1.3831  0.9875
  599TIP3    H225993   1.058   5.900   9.498  0.1265  0.6740  0.3129
  600TIP3   OH225994   0.334   5.461  10.257 -0.4577 -0.0430  0.0932
  600TIP3    H125995   0.284   5.382  10.280  1.3600 -0.7771  1.9225
  600TIP3    H225996   0.342   5.458  10.162 -1.2175 -1.5796  0.0522
  601TIP3   OH225997   1.556   5.268  10.908  0.6885  0.4207  0.5891
  601TIP3    H125998   1.574   5.190  10.855  1.1001 -0.4231  1.9416
  601TIP3    H225999   1.613   5.335  10.871 -0.2957  0.3703 -1.1557
  602TIP3   OH226000   0.726   4.539  11.836 -0.3136 -0.1529 -0.7197
  602TIP3    H126001   0.661   4.603  11.809 -0.2131 -0.3857 -1.5233
  602TIP3    H226002   0.703   4.459  11.789 -0.7839 -0.8910  0.7000
  603TIP3   OH226003   4.509   6.151   9.970  0.0225  0.5617  0.2870
  603TIP3    H126004   4.414   6.166   9.977 -0.2448 -0.4192 -0.8832
  603TIP3    H226005   4.542   6.167  10.058 -0.8706  3.2439  0.2192
  604TIP3   OH226006   4.083   3.314  11.829 -0.0582 -0.0471  0.2121
  604TIP3    H126007   4.078   3.253  11.902  0.7237 -0.3723 -0.0015
  604TIP3    H226008   3.993   3.347  11.820 -0.6597 -1.6487 -0.0813
  605TIP3   OH226009   3.709   2.357  12.040 -0.7352 -0.3043  0.6634
  605TIP3    H126010   3.644   2.417  12.005 -1.8352 -0.5187  2.2544
  605TIP3    H226011   3.660   2.297  12.096  0.7622 -0.7423  1.5834
  606TIP3   OH226012   6.266   6.657  11.746  0.2931 -0.5613 -0.0049
  606TIP3    H126013   6.321   6.579  11.736 -1.0447 -1.7860  1.7647
  606TIP3    H226014   6.176   6.624  11.739 -0.2964  0.7879  0.9733
  607TIP3   OH226015   4.121   1.266  10.602  0.3524 -0.2545 -0.3973
  607TIP3    H126016   4.065   1.234  10.673  0.6378 -0.5962 -0.3215
  607TIP3    H226017   4.126   1.360  10.616  0.8655 -0.3894  0.3687
  608TIP3   OH226018   5.371   1.605  11.708  0.3943  0.1856  0.2829
  608TIP3    H126019   5.331   1.672  11.652  2.1731 -1.6200 -3.4529
  608TIP3    H226020   5.297   1.554  11.740 -0.6884 -0.1060 -2.4161
  609TIP3   OH226021   2.453   3.862  11.139 -0.0319 -0.3736  0.4423
  609TIP3    H126022   2.458   3.884  11.046  1.1726  1.3844  0.8746
  609TIP3    H226023   2.508   3.928  11.183 -2.2026  0.1830  2.5997
  610TIP3   OH226024   0.490   1.294   8.984  0.5124  0.0300  0.0419
  610TIP3    H126025   0.469   1.282   9.077  0.7158  1.1699  0.2412
  610TIP3    H226026   0.522   1.208   8.955  0.9489 -0.1881  1.1508
  611TIP3   OH226027   3.191   3.633  10.343  0.2891  0.3381  0.0263
  611TIP3    H126028   3.174   3.633  10.438  0.1211  0.1221 -0.0019
  611TIP3    H226029   3.142   3.709  10.310  1.4945  1.2644  0.3075
  612TIP3   OH226030   4.666   5.889  11.943 -0.7622  0.0023  0.6485
  612TIP3    H126031   4.725   5.884  11.868 -1.1372 -1.9622  0.4332
  612TIP3    H226032   4.597   5.826  11.923 -2.4183  1.5144  1.3559
  613TIP3   OH226033   3.235   6.458  10.586 -0.5447  0.1478 -0.3891
  613TIP3    H126034   3.288   6.468  10.507 -0.9993  1.3840 -0.5605
  613TIP3    H226035   3.193   6.372  10.576 -0.9553  0.4752 -1.7263
  614TIP3   OH226036   4.360   1.937  11.189 -0.0817 -0.6809 -0.3809
  614TIP3    H126037   4.308   1.957  11.267  1.4549  0.7250  0.3420
  614TIP3    H226038   4.412   1.861  11.213 -1.0168 -1.4588 -0.7508
  615TIP3   OH226039   3.865   2.678   9.348  0.5344  1.0376  0.1719
  615TIP3    H126040   3.950   2.722   9.360  0.7683  0.4813  0.6244
  615TIP3    H226041   3.884   2.586   9.364  0.2545  0.6024 -1.7503
  616TIP3   OH226042   1.050   6.518  11.564 -0.6552  0.0404  0.1508
  616TIP3    H126043   1.141   6.540  11.585 -0.4211 -0.9959  0.2574
  616TIP3    H226044   1.034   6.435  11.610 -1.6865  0.2613  0.2166
  617TIP3   OH226045   5.326   3.509  11.594 -0.0967 -0.1035  0.2142
  617TIP3    H126046   5.342   3.601  11.576 -1.6265  0.8353  3.0341
  617TIP3    H226047   5.388   3.462  11.538  1.0506  2.6171 -0.9545
  618TIP3   OH226048   6.565   4.091  11.444  0.5018  0.0597  0.3315
  618TIP3    H126049   6.629   4.143  11.396  1.7672 -2.2840 -0.7014
  618TIP3    H226050   6.486   4.096  11.391  0.5640  0.9928  0.3113
  619TIP3   OH226051   5.051   0.890   8.972  0.2255  0.4217 -0.6253
  619TIP3    H126052   5.018   0.805   9.003 -0.3826  0.8209 -0.1549
  619TIP3    H226053   5.127   0.907   9.028 -1.2638  1.4630  1.2170
  620TIP3   OH226054   4.535   5.326  10.281 -0.1841 -0.4646 -0.2654
  620TIP3    H126055   4.497   5.405  10.244 -1.4522 -1.0005 -0.1389
  620TIP3    H226056   4.621   5.354  10.313 -0.1622  0.5997 -1.1980
  621TIP3   OH226057   0.948   2.715   9.182  0.0221 -0.2426  0.0794
  621TIP3    H126058   0.998   2.684   9.258 -0.6413 -0.6053  0.3746
  621TIP3    H226059   0.999   2.789   9.148  0.2072  0.0625  1.0044
  622TIP3   OH226060   2.480   3.111   9.763 -0.5138 -0.1690  0.1658
  622TIP3    H126061   2.388   3.115   9.791 -0.6735 -2.3488  0.0967
  622TIP3    H226062   2.476   3.117   9.668 -0.3206  2.4666  0.2482
  623TIP3   OH226063   1.759   4.671  11.262 -0.8790 -0.3850 -0.3027
  623TIP3    H126064   1.668   4.641  11.249 -1.1164  0.0698  0.2782
  623TIP3    H226065   1.805   4.641  11.184 -1.5760 -0.4611 -0.6959
  624TIP3   OH226066   6.339   3.939   9.980  0.3812  0.0913 -0.0635
  624TIP3    H126067   6.428   3.922  10.013  0.4047 -2.7656 -1.2534
  624TIP3    H226068   6.297   3.853   9.981 -1.4448  0.8823 -2.1292
  625TIP3   OH226069   0.167   1.422  11.052  0.0129  0.1695 -0.2596
  625TIP3    H126070   0.233   1.408  11.120  0.7405 -0.1327 -1.0075
  625TIP3    H226071   0.170   1.517  11.036  1.6391 -0.0725 -1.6061
  626TIP3   OH226072   0.376   4.772  11.935 -0.1557 -0.1270 -0.1791
  626TIP3    H126073   0.350   4.718  12.010  1.3728  1.4941  1.6297
  626TIP3    H226074   0.322   4.851  11.942  0.3737  0.2656 -0.4549
  627TIP3   OH226075   4.383   1.148  11.654 -0.4898 -0.3286  0.0946
  627TIP3    H126076   4.448   1.082  11.676  1.2813  0.8731 -1.1762
  627TIP3    H226077   4.401   1.170  11.563 -1.0823  1.7689  0.4122
  628TIP3   OH226078   5.596   0.256  10.402  0.8345 -0.2026  0.4793
  628TIP3    H126079   5.547   0.200  10.462  0.9767 -1.0216 -0.1521
  628TIP3    H226080   5.681   0.267  10.445  0.6248 -0.0133  0.8592
  629TIP3   OH226081   3.998   2.792  11.358 -0.2636  0.1994  0.0808
  629TIP3    H126082   3.945   2.860  11.318  0.8306  0.6661 -0.6313
  629TIP3    H226083   4.084   2.800  11.316 -0.1661 -1.7876 -0.2192
  630TIP3   OH226084   6.682   6.511  10.506 -0.1652 -0.0735 -0.0064
  630TIP3    H126085   6.640   6.540  10.587 -0.6265 -1.7395  0.3925
  630TIP3    H226086   6.672   6.416  10.507  0.9579 -0.2339 -1.4072
  631TIP3   OH226087   1.063   6.443  10.041  0.6067  0.1189  0.2785
  631TIP3    H126088   0.978   6.398  10.034  0.4851  0.3337  0.3882
  631TIP3    H226089   1.127   6.373  10.026  0.3891  0.3607 -2.1352
  632TIP3   OH226090   1.704   3.804  12.071  0.0866  0.3827 -0.5010
  632TIP3    H126091   1.775   3.819  12.008  2.2650 -1.7139  1.2550
  632TIP3    H226092   1.669   3.718  12.047 -0.1619  0.3016  0.1524
  633TIP3   OH226093   0.351   5.968  10.176 -0.1279 -0.0493  0.0387
  633TIP3    H126094   0.341   5.909  10.251  0.8347 -1.6902 -1.0392
  633TIP3    H226095   0.316   5.918  10.102  2.3434 -0.0552 -1.2321
  634TIP3   OH226096   6.370   1.882   8.401 -0.4837  0.2164 -0.4665
  634TIP3    H126097   6.311   1.848   8.468 -0.8090  1.0425 -0.3199
  634TIP3    H226098   6.444   1.918   8.449 -0.5436  0.4807 -0.5695
  635TIP3   OH226099   6.109   6.600   8.981  0.0565 -0.1950 -0.1660
  635TIP3    H126100   6.043   6.640   8.924  0.9002  0.5779 -0.6453
  635TIP3    H226101   6.158   6.675   9.016  0.1655 -0.7167  0.8113
  636TIP3   OH226102   1.401   0.977   8.788 -0.3688 -0.0163 -0.3520
  636TIP3    H126103   1.403   0.895   8.738  0.3812 -0.0293 -0.3206
  636TIP3    H226104   1.371   1.043   8.726  0.7104 -0.0027 -0.8853
  637TIP3   OH226105   2.688   0.170  12.075  0.4356 -0.6743 -0.3475
  637TIP3    H126106   2.595   0.151  12.060 -0.0474  1.8370 -1.1030
  637TIP3    H226107   2.693   0.266  12.074  3.0078 -0.7353 -0.0560
  638TIP3   OH226108   2.863   4.377  11.643 -0.2142 -0.3034  0.0856
  638TIP3    H126109   2.792   4.441  11.638 -0.0222 -0.0427  0.6696
  638TIP3    H226110   2.824   4.296  11.609 -0.1393  0.3625 -1.7076
  639TIP3   OH226111   2.334   4.190  12.452 -0.4489  0.1000  0.2468
  639TIP3    H126112   2.239   4.191  12.440 -0.3575 -0.9860 -0.6746
  639TIP3    H226113   2.365   4.269  12.408 -0.7335 -0.6684 -1.4039
  640TIP3   OH226114   4.431   3.494   9.605 -0.3071  0.0889 -0.4253
  640TIP3    H126115   4.376   3.554   9.555  0.0415 -1.2678 -2.5651
  640TIP3    H226116   4.465   3.432   9.540  1.5725 -0.7545  1.2429
  641TIP3   OH226117   5.410   4.552  10.811  0.2859 -0.3450 -0.4559
  641TIP3    H126118   5.437   4.513  10.728 -0.9090 -0.2488 -0.9124
  641TIP3    H226119   5.322   4.518  10.826  0.9197 -1.3289  1.4038
  642TIP3   OH226120   1.618   2.952  10.309 -0.6916 -0.6936 -0.7814
  642TIP3    H126121   1.672   2.956  10.388 -0.6166  1.6891 -0.8784
  642TIP3    H226122   1.538   2.999  10.332 -1.5174 -1.6612 -1.5563
  643TIP3   OH226123   1.597   5.607  10.555  0.2345  0.5105  1.0181
  643TIP3    H126124   1.668   5.556  10.595  0.4315  1.4922  1.9664
  643TIP3    H226125   1.634   5.639  10.472 -0.2648 -1.7522 -0.1840
  644TIP3   OH226126   3.279   5.203  11.209  0.6172 -0.1215  0.1091
  644TIP3    H126127   3.344   5.137  11.234  1.2453  0.2698 -0.4652
  644TIP3    H226128   3.278   5.200  11.113 -0.2973 -0.1948  0.1110
  645TIP3   OH226129   0.435   5.491  12.260  0.0787  0.4627 -0.5294
  645TIP3    H126130   0.383   5.548  12.317  1.2242  0.7972  0.2185
  645TIP3    H226131   0.486   5.551  12.206  0.6630  0.1565 -0.3307
  646TIP3   OH226132   6.376   6.539  10.632 -0.2290 -0.1209 -0.4283
  646TIP3    H126133   6.383   6.579  10.718  0.1788 -1.4012  0.1596
  646TIP3    H226134   6.372   6.445  10.649 -0.9885 -0.3639 -1.7614
  647TIP3   OH226135   4.241   0.940  10.940 -0.1739 -0.5501  0.1071
  647TIP3    H126136   4.333   0.960  10.924 -0.4221  0.2553 -0.3836
  647TIP3    H226137   4.239   0.846  10.957  0.7889 -0.4983  0.5324
  648TIP3   OH226138   6.027   3.597  10.145 -1.0952  0.1210  0.1239
  648TIP3    H126139   6.050   3.590  10.238 -0.1353  0.6323 -0.0661
  648TIP3    H226140   6.047   3.511  10.109 -1.3692 -0.0461  0.3626
  649TIP3   OH226141   0.004   2.978  11.593  1.1119 -0.0738  0.0384
  649TIP3    H126142   0.031   2.886  11.595 -1.4018 -0.9078  0.6467
  649TIP3    H226143   0.031   3.009  11.507  0.7089 -1.8794 -0.7970
  650TIP3   OH226144   2.887   2.676  11.083  0.2114  0.4005 -0.1608
  650TIP3    H126145   2.795   2.681  11.058  0.1377 -0.0762  0.0136
  650TIP3    H226146   2.924   2.760  11.055  0.1536 -0.1331 -1.9535
  651TIP3   OH226147   3.059   5.479  10.184 -0.0551  0.3120 -0.2367
  651TIP3    H126148   3.031   5.418  10.116  0.2478 -0.3250  0.1989
  651TIP3    H226149   3.061   5.564  10.141  2.0844 -0.3470 -1.6151
  652TIP3   OH226150   0.888   5.574  10.711 -0.1332 -0.0259  0.2658
  652TIP3    H126151   0.899   5.490  10.667 -4.0742 -0.5495 -0.0586
  652TIP3    H226152   0.835   5.627  10.651  1.3063  2.3600  0.9309
  653TIP3   OH226153   1.311   6.504  10.772  0.4131  0.1202 -0.1627
  653TIP3    H126154   1.384   6.486  10.712  0.7902  0.2124  0.2629
  653TIP3    H226155   1.333   6.456  10.852 -0.5382 -0.7586 -0.4073
  654TIP3   OH226156   6.306   1.690   9.196  0.7914 -0.1228 -0.1110
  654TIP3    H126157   6.260   1.734   9.125  0.5017  0.6417  0.5263
  654TIP3    H226158   6.356   1.760   9.239 -0.4923 -0.1885  1.5741
  655TIP3   OH226159   1.273   5.117  11.926  0.2753 -0.2592  0.7122
  655TIP3    H126160   1.216   5.172  11.979 -0.2869 -0.5011  0.3825
  655TIP3    H226161   1.346   5.173  11.901 -1.0301  0.8303 -0.8777
  656TIP3   OH226162   2.805   6.404   9.969 -0.1353  0.1298  0.2617
  656TIP3    H126163   2.780   6.426   9.879 -0.0231 -2.0302 -0.3665
  656TIP3    H226164   2.890   6.446   9.982 -0.4248  0.9501 -0.4170
  657TIP3   OH226165   0.785   0.059  11.032  0.3410 -0.8661  0.1363
  657TIP3    H126166   0.756   0.012  10.954  0.0704  0.7614 -0.8122
  657TIP3    H226167   0.875   0.086  11.012 -0.6472  2.0375 -0.9461
  658TIP3   OH226168   0.543   4.247  11.969  0.0223  0.3776  0.0760
  658TIP3    H126169   0.634   4.273  11.986  0.3819 -0.1294 -0.9868
  658TIP3    H226170   0.540   4.154  11.991 -0.1643  0.3225 -0.1849
  659TIP3   OH226171   5.179   5.824   9.750 -0.0441  0.0211  0.1244
  659TIP3    H126172   5.173   5.874   9.668  0.0968 -1.0349 -0.5435
  659TIP3    H226173   5.248   5.868   9.799 -0.9273  1.3911  0.2054
  660TIP3   OH226174   4.289   2.244  10.530  0.1098 -0.5069 -0.1335
  660TIP3    H126175   4.197   2.249  10.556  0.6105  1.1391  1.5565
  660TIP3    H226176   4.328   2.324  10.564  1.9822 -0.6883 -1.7000
  661TIP3   OH226177   2.909   3.914  12.159 -1.1415 -0.0206  0.3505
  661TIP3    H126178   2.829   3.881  12.200 -1.2342 -0.2716 -0.0300
  661TIP3    H226179   2.939   3.842  12.104 -0.5051 -0.0268  0.6960
  662TIP3   OH226180   2.443   1.265  11.795  0.9308  0.4909 -0.1417
  662TIP3    H126181   2.473   1.348  11.757  1.6681  0.0745 -0.4795
  662TIP3    H226182   2.519   1.207  11.791  0.9122  0.2807  1.5504
  663TIP3   OH226183   0.632   3.685  10.146  0.0304  0.5320  0.6148
  663TIP3    H126184   0.599   3.749  10.210 -1.2173 -0.3587  0.9050
  663TIP3    H226185   0.699   3.733  10.097  0.1498  1.6176  1.7690
  664TIP3   OH226186   2.204   5.054  12.116  0.1200 -0.2622  0.0271
  664TIP3    H126187   2.140   5.011  12.059  0.3719 -1.0517  0.3177
  664TIP3    H226188   2.161   5.135  12.144  0.3378  0.6108 -1.9903
  665TIP3   OH226189   3.954   2.008  10.097 -0.2566 -0.0718 -0.1760
  665TIP3    H126190   3.938   1.998  10.003 -0.0970 -1.2968 -0.0885
  665TIP3    H226191   4.050   2.007  10.105 -0.1215  3.0636 -0.2750
  666TIP3   OH226192   3.050   6.423  10.236 -0.6812 -0.2044  0.2547
  666TIP3    H126193   2.965   6.380  10.245 -1.2979  1.2890  2.5052
  666TIP3    H226194   3.040   6.505  10.283  0.9491  1.7189 -2.4751
  667TIP3   OH226195   3.491   1.538   9.194  0.0021  0.2655 -0.0620
  667TIP3    H126196   3.526   1.564   9.109  1.1522 -2.1329 -0.3938
  667TIP3    H226197   3.528   1.601   9.256 -0.3235  1.6389 -1.2096
  668TIP3   OH226198   5.568   5.769  11.300  0.0063  0.2422  0.1326
  668TIP3    H126199   5.540   5.833  11.365  0.6597 -0.4307  1.1034
  668TIP3    H226200   5.660   5.752  11.321 -0.2310 -1.2203  0.0843
  669TIP3   OH226201   4.610   4.751  11.576  0.2309  0.3186 -0.1055
  669TIP3    H126202   4.682   4.716  11.629  1.4204 -0.7498 -2.2734
  669TIP3    H226203   4.534   4.699  11.601  0.2670  1.1366  1.8799
  670TIP3   OH226204   3.016   6.664  10.350  0.2365 -0.1797 -0.5262
  670TIP3    H126205   2.982   6.669  10.439 -1.3472  1.0402 -1.1492
  670TIP3    H226206   3.101   6.706  10.355  0.9715 -1.6983  0.7262
  671TIP3   OH226207   2.856   4.255  11.023 -0.2262 -0.0793 -1.0048
  671TIP3    H126208   2.917   4.224  11.090  0.4376 -0.6256 -1.8494
  671TIP3    H226209   2.911   4.298  10.958 -0.8821  0.5912 -1.1326
  672TIP3   OH226210   1.457   1.234  11.066  0.7254  0.5548 -0.2968
  672TIP3    H126211   1.517   1.180  11.015  2.2552  1.7764  0.1306
  672TIP3    H226212   1.421   1.296  11.003 -0.2407 -0.2802 -0.5847
  673TIP3   OH226213   1.105   5.707  10.049  0.5806 -0.2766  0.2037
  673TIP3    H126214   1.077   5.670  10.133  1.5818  0.6820  0.9767
  673TIP3    H226215   1.031   5.761  10.021  0.3197 -0.4432  0.5615
  674TIP3   OH226216   4.903   0.035  11.877  0.0463 -0.5060  0.0878
  674TIP3    H126217   4.820   0.044  11.924  0.5675 -0.2946  1.0123
  674TIP3    H226218   4.938   0.124  11.872  0.4367 -0.6514  0.1378
  675TIP3   OH226219   4.258   3.797  10.194  0.4321 -0.6742 -0.3794
  675TIP3    H126220   4.344   3.793  10.150  0.1531  1.6125 -1.2649
  675TIP3    H226221   4.260   3.879  10.242 -1.7840  0.1921 -1.6389
  676TIP3   OH226222   6.171   3.364  10.603  0.2841  0.2688 -0.2750
  676TIP3    H126223   6.227   3.307  10.655 -1.1363 -1.9842 -1.0163
  676TIP3    H226224   6.085   3.358  10.646 -0.3282  0.3113 -1.4478
  677TIP3   OH226225   6.043   1.382  12.133  0.5128  0.1164 -0.1077
  677TIP3    H126226   6.044   1.477  12.140 -0.2269  0.0586  1.3050
  677TIP3    H226227   6.132   1.355  12.157  1.2551  0.4982 -2.2572
  678TIP3   OH226228   5.883   6.626  10.001 -0.0016  0.1524  0.3327
  678TIP3    H126229   5.954   6.591  10.055 -0.4068  0.1247  0.8559
  678TIP3    H226230   5.917   6.710   9.970  0.8020 -0.4795 -0.5659
  679TIP3   OH226231   4.582   2.125  11.481 -0.2637 -0.2090 -0.4117
  679TIP3    H126232   4.507   2.079  11.518  0.7267 -2.3855 -0.9395
  679TIP3    H226233   4.551   2.215  11.467 -2.2290 -0.6275  0.8734
  680TIP3   OH226234   5.536   4.894  12.112 -0.6241 -0.2484  0.0609
  680TIP3    H126235   5.517   4.966  12.052 -0.0742 -1.2894 -1.4198
  680TIP3    H226236   5.450   4.864  12.142 -1.0556 -0.9832 -1.7857
  681TIP3   OH226237   5.441   0.062   8.410 -0.8514 -0.8445 -0.4718
  681TIP3    H126238   5.536   0.070   8.417 -1.0498  0.5197  1.7604
  681TIP3    H226239   5.417  -0.003   8.476 -1.5878  0.2423  0.3745
  682TIP3   OH226240   6.528   4.121  12.122  0.3880 -0.5873 -0.1714
  682TIP3    H126241   6.602   4.078  12.080  1.9808  1.7717  0.0222
  682TIP3    H226242   6.471   4.049  12.151  0.9505 -2.3902 -3.1464
  683TIP3   OH226243   4.588   3.390  11.664 -0.0032  0.1204 -0.2732
  683TIP3    H126244   4.573   3.414  11.755 -1.2664 -0.4196 -0.3198
  683TIP3    H226245   4.624   3.302  11.667 -0.4080 -0.0456 -0.3143
  684TIP3   OH226246   0.588   0.031   9.017 -0.1523 -0.2402 -0.3116
  684TIP3    H126247   0.628   0.087   9.084 -0.3743  1.0002 -1.1879
  684TIP3    H226248   0.635  -0.052   9.025  1.7682  0.7689 -0.4771
  685TIP3   OH226249   0.244   3.756   9.963  0.2547 -0.1263 -0.2610
  685TIP3    H126250   0.246   3.721   9.874 -0.6597 -1.5436  0.2240
  685TIP3    H226251   0.158   3.730   9.996  1.0479 -0.7471  1.4371
  686TIP3   OH226252   5.536   5.480  11.881  0.4776 -0.0184  0.7041
  686TIP3    H126253   5.630   5.485  11.895  0.6583 -0.8742 -0.1479
  686TIP3    H226254   5.514   5.561  11.834  0.2923  1.5780  3.3276
  687TIP3   OH226255   5.749   0.858  10.665 -0.0090  0.0956 -0.1446
  687TIP3    H126256   5.739   0.948  10.696  0.1863 -0.3261  1.1957
  687TIP3    H226257   5.680   0.809  10.710  1.0354 -0.7597  0.5778
  688TIP3   OH226258   3.172   4.565  11.387  0.2353  1.1295 -0.1128
  688TIP3    H126259   3.257   4.573  11.344  0.5689  0.7191  0.4537
  688TIP3    H226260   3.154   4.651  11.423  0.4788  1.1800 -0.1129
  689TIP3   OH226261   3.883   0.639   8.856 -0.7906 -0.3431  0.0987
  689TIP3    H126262   3.805   0.628   8.911  1.4777  0.9629  3.9813
  689TIP3    H226263   3.931   0.556   8.865 -0.3892 -0.1121  0.1167
  690TIP3   OH226264   3.314   0.929  10.561 -0.5677  0.7376  0.5367
  690TIP3    H126265   3.224   0.952  10.536 -0.6815 -0.1099  0.1288
  690TIP3    H226266   3.315   0.936  10.656 -1.6486 -1.1844  0.7385
  691TIP3   OH226267   4.017   2.998  10.358 -0.2683 -0.0662  0.2389
  691TIP3    H126268   3.961   3.048  10.417  0.6752  1.3267  0.0029
  691TIP3    H226269   3.994   3.030  10.270 -0.6859 -1.1224 -0.0485
  692TIP3   OH226270   5.057   5.134   9.046 -0.1926 -0.0208  0.2574
  692TIP3    H126271   4.962   5.126   9.056 -0.2233 -0.3162 -0.2636
  692TIP3    H226272   5.069   5.175   8.960  0.1396  0.4590  0.5254
  693TIP3   OH226273   4.329   4.242  10.682  0.0143 -0.1558  0.6453
  693TIP3    H126274   4.339   4.307  10.612 -1.9471 -1.4235 -0.9333
  693TIP3    H226275   4.274   4.286  10.747  1.0643  0.7101  0.9764
  694TIP3   OH226276   2.228   0.827  11.053  0.0691  0.5305  0.0579
  694TIP3    H126277   2.199   0.791  10.970 -1.9425 -1.1619  1.3989
  694TIP3    H226278   2.161   0.891  11.077  0.0199  0.1732  0.9034
  695TIP3   OH226279   5.590   2.686  12.469 -0.2406 -0.1929 -0.1147
  695TIP3    H126280   5.565   2.771  12.431 -1.6656  0.0621  1.2828
  695TIP3    H226281   5.564   2.693  12.561  1.5912 -1.3839  0.5600
  696TIP3   OH226282   5.638   2.267  11.573  0.0134 -0.1552  0.3826
  696TIP3    H126283   5.617   2.358  11.548  1.0863  0.1654  0.5957
  696TIP3    H226284   5.725   2.273  11.612  1.0244 -1.5865 -1.5193
  697TIP3   OH226285   5.388   3.150  12.336  0.1956 -0.0346 -0.0118
  697TIP3    H126286   5.378   3.198  12.418 -0.3908  0.8472 -0.5872
  697TIP3    H226287   5.345   3.205  12.270  1.3962 -0.3015 -1.0658
  698TIP3   OH226288   4.682   2.094  10.964 -0.1762 -0.3864 -0.3941
  698TIP3    H126289   4.638   2.111  10.881  1.0953  1.3443 -0.7681
  698TIP3    H226290   4.739   2.170  10.977 -1.0361 -0.1082  2.5370
  699TIP3   OH226291   3.574   4.830  10.061 -0.6363  0.1213  0.1228
  699TIP3    H126292   3.598   4.892   9.992  0.4896  0.0127  0.3974
  699TIP3    H226293   3.589   4.878  10.142  0.8487 -0.6794  0.3572
  700TIP3   OH226294   4.406   4.932  10.892  0.1124  0.5618 -0.5033
  700TIP3    H126295   4.472   4.976  10.946  1.0536  0.6416 -1.6799
  700TIP3    H226296   4.327   4.984  10.903  0.3122  0.6466  0.6900
  701TIP3   OH226297   1.241   0.893  12.400 -0.4221 -0.0854  0.6265
  701TIP3    H126298   1.153   0.911  12.433 -1.3271  3.5890 -2.9316
  701TIP3    H226299   1.228   0.831  12.328  0.1371 -0.6719  1.0180
  702TIP3   OH226300   1.846   5.575   9.086 -0.1260 -0.6669  0.1822
  702TIP3    H126301   1.796   5.574   9.168 -2.3824 -0.1600 -1.1134
  702TIP3    H226302   1.824   5.493   9.043  0.3694 -0.5526 -0.3093
  703TIP3   OH226303   2.793   2.899   9.288  0.5015  0.4734  0.5624
  703TIP3    H126304   2.831   2.976   9.246 -0.5079  0.6275 -0.1181
  703TIP3    H226305   2.746   2.855   9.217 -0.2580  0.0969  1.2916
  704TIP3   OH226306   2.399   5.011  10.806 -0.5353  0.5768 -0.3440
  704TIP3    H126307   2.381   5.093  10.852 -0.8531 -0.5940  1.7288
  704TIP3    H226308   2.491   4.992  10.825 -0.7866 -0.1402  0.1901
  705TIP3   OH226309   3.852   1.014  10.065  0.1723 -0.7772 -0.4228
  705TIP3    H126310   3.788   0.977  10.005 -0.7577  1.0777 -0.6206
  705TIP3    H226311   3.805   1.083  10.112  2.0571  0.8340 -0.7762
  706TIP3   OH226312   6.698   6.151  11.915 -0.1451 -0.5867 -0.4999
  706TIP3    H126313   6.706   6.057  11.931  0.4895 -0.3847  0.4476
  706TIP3    H226314   6.725   6.192  11.997  1.4092  0.4762 -1.4817
  707TIP3   OH226315   3.078   1.020  11.413  0.1274  0.2041  0.0864
  707TIP3    H126316   3.110   0.992  11.328  1.7760 -2.3058  1.4259
  707TIP3    H226317   3.018   0.951  11.441  2.6468 -1.1758  2.5700
  708TIP3   OH226318   0.739   5.048  11.049  0.5799  0.1786 -0.0711
  708TIP3    H126319   0.827   5.058  11.013  1.1097 -0.6662  0.9358
  708TIP3    H226320   0.753   5.043  11.144 -0.4503 -1.0125  0.0333
  709TIP3   OH226321   0.817   1.056  11.882  0.2392 -0.4312  0.3889
  709TIP3    H126322   0.768   0.986  11.839 -1.8707  1.6563 -0.8263
  709TIP3    H226323   0.867   1.097  11.812 -1.6601  1.7333  0.1992
  710TIP3   OH226324   4.022   3.814  11.747 -0.1207  0.1409 -0.4184
  710TIP3    H126325   4.094   3.752  11.743  0.7232  1.1211 -0.9060
  710TIP3    H226326   3.950   3.765  11.787  1.0253 -0.6592  0.7374
  711TIP3   OH226327   5.857   5.958   8.816 -0.3000  0.2407 -0.5582
  711TIP3    H126328   5.902   5.895   8.872 -0.3875  1.1215  0.5330
  711TIP3    H226329   5.909   6.038   8.824 -1.3339  0.8945 -0.3115
  712TIP3   OH226330   6.475   0.177   8.844  0.4073  0.3202 -0.3939
  712TIP3    H126331   6.477   0.204   8.752  1.4716  0.3679 -0.3714
  712TIP3    H226332   6.482   0.082   8.842 -0.8441  0.2132 -0.3897
  713TIP3   OH226333   3.042   3.333   9.576  0.1584  0.0111  0.1140
  713TIP3    H126334   3.108   3.389   9.536  0.9097  0.6970  2.2063
  713TIP3    H226335   2.959   3.376   9.555  0.6632  1.4396  0.8783
  714TIP3   OH226336   1.100   3.027   9.868 -0.1596 -0.0989 -0.2095
  714TIP3    H126337   1.163   3.001   9.935 -0.0063  1.0562  0.1245
  714TIP3    H226338   1.151   3.031   9.787 -0.2007 -0.8620 -0.2791
  715TIP3   OH226339   2.989   4.983   8.907  0.0119  0.3422  0.2342
  715TIP3    H126340   2.939   4.944   8.834 -0.7141 -1.8226  1.7762
  715TIP3    H226341   2.968   5.076   8.903 -0.8538  0.1250 -1.6537
  716TIP3   OH226342   3.453   2.316  10.300 -0.9679 -0.0391  0.1617
  716TIP3    H126343   3.465   2.334  10.207 -1.6625  1.6987  0.3724
  716TIP3    H226344   3.537   2.337  10.340 -1.1453  0.7533  0.1257
  717TIP3   OH226345   1.224   5.689   9.664 -0.4788 -0.0323  0.2740
  717TIP3    H126346   1.239   5.629   9.737 -1.3664 -1.4373 -0.6461
  717TIP3    H226347   1.132   5.675   9.640  0.5251 -2.1171 -3.1918
  718TIP3   OH226348   3.243   5.436  10.379  0.0689  0.0549  0.2789
  718TIP3    H126349   3.307   5.377  10.339  1.4546  1.4510  0.3003
  718TIP3    H226350   3.177   5.451  10.312 -0.0366 -1.1168  0.1160
  719TIP3   OH226351   4.993   5.470   9.943  0.2913  0.0499  0.4972
  719TIP3    H126352   4.931   5.398   9.931 -0.0279  0.3298  0.4501
  719TIP3    H226353   4.964   5.537   9.881  1.2680 -0.2235 -0.2947
  720TIP3   OH226354   1.729   4.845  12.153  0.0911  0.4851  0.0827
  720TIP3    H126355   1.654   4.903  12.146  0.9327  1.4757 -1.1293
  720TIP3    H226356   1.718   4.801  12.237 -0.5563  2.4383  1.0724
  721TIP3   OH226357   6.418   3.086  11.811  0.4764  0.3187  0.4048
  721TIP3    H126358   6.430   2.993  11.831  1.4017  0.4655  0.5800
  721TIP3    H226359   6.435   3.093  11.717 -1.0534  0.0879  0.0869
  722TIP3   OH226360   0.250   5.815  11.771  0.1925 -0.2340 -0.4876
  722TIP3    H126361   0.345   5.803  11.770  0.3622  0.4855 -3.8425
  722TIP3    H226362   0.238   5.906  11.796  0.4031 -0.2412 -0.3581
  723TIP3   OH226363   2.700   1.878  11.554  0.4302 -0.3452  0.2894
  723TIP3    H126364   2.714   1.868  11.648  0.6638  2.1484  0.5891
  723TIP3    H226365   2.745   1.960  11.532 -1.2382  0.1274 -1.6096
  724TIP3   OH226366   1.527   1.369  11.829 -0.0509 -0.1014  0.4660
  724TIP3    H126367   1.438   1.339  11.847  0.5415 -1.7338  0.9527
  724TIP3    H226368   1.561   1.394  11.915 -0.3088  1.3785  0.1563
  725TIP3   OH226369   6.173   4.548  10.738  0.6098  0.7488 -0.1253
  725TIP3    H126370   6.114   4.622  10.726  0.0535  0.2719 -0.3916
  725TIP3    H226371   6.163   4.496  10.657  0.4313 -0.0062  0.3701
  726TIP3   OH226372   1.077   0.777  11.285 -0.6244  0.3043 -0.1259
  726TIP3    H126373   1.099   0.759  11.376 -0.2893  0.1538 -0.2370
  726TIP3    H226374   1.071   0.691  11.243 -0.0227  0.3997 -0.4201
  727TIP3   OH226375   5.190   6.106   9.081  0.2264  0.1501  0.1709
  727TIP3    H126376   5.278   6.133   9.056 -1.3844  3.2800 -2.9641
  727TIP3    H226377   5.180   6.019   9.042  0.5312  1.6721 -3.7685
  728TIP3   OH226378   1.514   6.578  12.115 -0.0674 -0.0486 -0.1473
  728TIP3    H126379   1.531   6.487  12.138 -0.3995  0.2688  1.4742
  728TIP3    H226380   1.597   6.611  12.082  0.6617 -0.3425  1.3500
  729TIP3   OH226381   3.894   4.734   9.934  0.0383 -0.2952  0.2402
  729TIP3    H126382   3.975   4.727   9.984  0.8717 -1.6004 -1.2134
  729TIP3    H226383   3.880   4.829   9.924  1.0441 -0.0466  1.0068
  730TIP3   OH226384   1.985   6.157  10.269  0.1359  0.2379  0.4853
  730TIP3    H126385   2.066   6.130  10.228  1.1259 -0.5119  2.7753
  730TIP3    H226386   1.934   6.077  10.280 -1.2367  0.7715 -1.4502
  731TIP3   OH226387   4.353   5.365   8.777  0.8310  0.2526 -0.7822
  731TIP3    H126388   4.344   5.460   8.765 -0.0385  0.3176  0.2112
  731TIP3    H226389   4.442   5.354   8.811  1.2491  0.6147 -1.7276
  732TIP3   OH226390   6.454   0.697  10.412  0.4791  0.0366 -0.2236
  732TIP3    H126391   6.511   0.621  10.422  2.0181  0.9968 -1.2129
  732TIP3    H226392   6.468   0.748  10.492 -0.3576 -0.5802  0.3244
  733TIP3   OH226393   1.503   2.900  12.205  0.5676 -0.1398  0.6402
  733TIP3    H126394   1.449   2.972  12.238  1.3376  1.1942 -0.8328
  733TIP3    H226395   1.586   2.942  12.181  1.0775 -1.5457 -0.1839
  734TIP3   OH226396   5.246   1.857   9.986 -0.4478 -0.3974 -0.1244
  734TIP3    H126397   5.262   1.811   9.903  1.0098 -1.1958  0.5504
  734TIP3    H226398   5.314   1.925   9.989 -1.0477  0.2061  0.0229
  735TIP3   OH226399   4.493   4.166   9.924 -0.2302  0.3943  0.2374
  735TIP3    H126400   4.500   4.072   9.939 -1.4078  0.0550 -1.0272
  735TIP3    H226401   4.582   4.198   9.931  0.1710 -0.7889  0.8758
  736TIP3   OH226402   4.759   4.605  10.715  0.1494  0.5576  0.3382
  736TIP3    H126403   4.740   4.609  10.809 -1.7317  0.2029  0.0198
  736TIP3    H226404   4.851   4.579  10.710  0.2131  0.3104  2.0822
  737TIP3   OH226405   1.772   4.982   8.809 -0.0695  0.4583 -0.2197
  737TIP3    H126406   1.745   4.905   8.758  0.3534 -0.3760  0.7687
  737TIP3    H226407   1.713   4.982   8.885 -0.1984  1.2367 -0.3170
  738TIP3   OH226408   2.133   4.050  11.519  0.1062  0.3312 -0.4754
  738TIP3    H126409   2.045   4.024  11.492  0.2112  2.0738 -2.7968
  738TIP3    H226410   2.172   4.087  11.440  2.9317 -0.3305  0.5095
  739TIP3   OH226411   3.914   5.443  10.847  0.1426 -0.3805  0.6258
  739TIP3    H126412   3.937   5.467  10.757 -0.7453  1.6811  0.8896
  739TIP3    H226413   3.862   5.517  10.879  2.0702 -0.1110  3.4980
  740TIP3   OH226414   2.297   0.321   8.839 -0.2512 -0.1893 -0.5064
  740TIP3    H126415   2.382   0.289   8.869  0.0589 -1.4379 -2.5718
  740TIP3    H226416   2.236   0.250   8.859 -0.6511  0.2948  0.0472
  741TIP3   OH226417   2.079   4.489  11.448 -0.4997  0.0224  0.2726
  741TIP3    H126418   2.062   4.456  11.360 -1.3495  1.3528 -0.0966
  741TIP3    H226419   2.100   4.582  11.435 -0.3768  0.1751  1.4450
  742TIP3   OH226420   3.957   4.209  10.961 -0.7004  0.2185  0.0325
  742TIP3    H126421   4.009   4.270  10.908 -1.2657 -0.2070 -1.0611
  742TIP3    H226422   4.012   4.189  11.036 -0.5715  2.2128  0.5251
  743TIP3   OH226423   3.260   4.225   9.717 -0.0429 -0.5348  0.4231
  743TIP3    H126424   3.279   4.206   9.808  1.4371  2.1294  0.7746
  743TIP3    H226425   3.346   4.229   9.674 -0.2556  2.8272  0.0286
  744TIP3   OH226426   1.101   0.550  11.868 -0.2586 -0.4252 -0.6023
  744TIP3    H126427   1.150   0.619  11.912  1.3027 -1.6518 -0.3206
  744TIP3    H226428   1.051   0.507  11.938 -1.0023  0.2116 -0.7309
  745TIP3   OH226429   2.222   0.426  11.809  0.3987  0.5335 -0.2617
  745TIP3    H126430   2.177   0.507  11.788 -1.0495 -0.6706 -2.1853
  745TIP3    H226431   2.291   0.419  11.743 -0.6541 -0.6133 -1.3043
  746TIP3   OH226432   4.134   5.171  10.757  0.1933 -0.4251  0.1690
  746TIP3    H126433   4.147   5.227  10.680  2.1437 -0.5732  0.3538
  746TIP3    H226434   4.099   5.090  10.720  1.9764 -0.8376 -0.7363
  747TIP3   OH226435   5.188   4.402  10.902 -0.0124  0.0125  0.2848
  747TIP3    H126436   5.113   4.352  10.934  0.9287 -1.7186 -0.1241
  747TIP3    H226437   5.264   4.361  10.944  1.1101 -1.2509 -2.7578
  748TIP3   OH226438   2.461   5.600  11.084 -0.1414  0.6600 -0.3854
  748TIP3    H126439   2.536   5.624  11.139 -0.0208  1.8879 -1.0486
  748TIP3    H226440   2.402   5.675  11.090  0.4661  1.4336 -2.9216
  749TIP3   OH226441   3.135   4.416  11.607 -0.1737  0.3929  0.2511
  749TIP3    H126442   3.049   4.376  11.596  0.6523 -1.5873  0.5047
  749TIP3    H226443   3.142   4.479  11.535 -1.9179  0.8255  0.4051
  750TIP3   OH226444   4.570   0.345  11.563  0.2343  0.1916 -0.5860
  750TIP3    H126445   4.628   0.269  11.554  1.3558  0.8729  0.5345
  750TIP3    H226446   4.606   0.409  11.502  1.5781  1.1220  1.1102
  751TIP3   OH226447   0.720   4.000  10.765  0.6742 -0.0242 -0.0016
  751TIP3    H126448   0.807   3.964  10.782 -1.1586 -4.5818  1.2432
  751TIP3    H226449   0.696   4.044  10.846  1.3764  0.4367 -0.0281
  752TIP3   OH226450   2.005   2.648  10.278 -0.0768  0.8157 -0.1808
  752TIP3    H126451   2.083   2.673  10.327  1.0858  1.6638 -2.3126
  752TIP3    H226452   2.038   2.624  10.191 -2.0671 -0.1068 -0.7438
  753TIP3   OH226453   1.952   5.619  10.373  0.2755  0.9548  0.1992
  753TIP3    H126454   1.990   5.595  10.289  0.7351  0.6969  0.4746
  753TIP3    H226455   1.882   5.681  10.351  0.3542  0.8461 -0.3715
  754TIP3   OH226456   2.763   4.295   9.941  0.0478  0.1114  0.3926
  754TIP3    H126457   2.844   4.245   9.935  0.6263  0.9540  0.9584
  754TIP3    H226458   2.738   4.313   9.851 -0.8065 -2.1472  0.1089
  755TIP3   OH226459   5.242   6.432  11.783  0.0067 -0.4167 -0.0317
  755TIP3    H126460   5.272   6.489  11.712  0.7008 -0.8883 -0.1239
  755TIP3    H226461   5.315   6.373  11.800 -0.3935 -0.7389  0.6365
  756TIP3   OH226462   2.529   5.958   9.539 -0.9445 -0.0056 -0.1668
  756TIP3    H126463   2.505   5.883   9.485 -1.4679 -0.4229  0.6098
  756TIP3    H226464   2.445   5.997   9.564 -0.8011 -0.6256  1.4176
  757TIP3   OH226465   0.589   6.480  10.643 -0.5596 -0.4440  0.1299
  757TIP3    H126466   0.607   6.398  10.690  1.9442 -0.8725 -1.3759
  757TIP3    H226467   0.571   6.453  10.553 -1.0901  0.6011 -0.0977
  758TIP3   OH226468   4.979   4.302  11.040 -0.4579  0.5844 -0.0699
  758TIP3    H126469   4.933   4.223  11.070 -0.5074  0.3224 -0.8009
  758TIP3    H226470   4.981   4.359  11.116 -1.1600  0.2087  0.2451
  759TIP3   OH226471   4.244   2.841  11.230 -0.0495 -0.2319 -0.0011
  759TIP3    H126472   4.275   2.886  11.151  1.4745  0.0184  0.6969
  759TIP3    H226473   4.244   2.909  11.298  1.3427 -1.0287  0.8420
  760TIP3   OH226474   1.817   5.140  10.776  0.4353 -0.1742 -0.2578
  760TIP3    H126475   1.800   5.052  10.743 -1.2531  0.1049 -0.2078
  760TIP3    H226476   1.839   5.127  10.868 -0.3997 -0.5025 -0.1004
  761TIP3   OH226477   2.622   3.548  10.483 -0.2958  0.1060 -0.6667
  761TIP3    H126478   2.587   3.587  10.563 -0.6389  1.6915 -1.5485
  761TIP3    H226479   2.717   3.553  10.492 -0.2669 -1.8567  0.6168
  762TIP3   OH226480   1.207   6.289   8.896 -0.4918 -0.0074  0.4521
  762TIP3    H126481   1.302   6.279   8.904 -0.4568  0.6257  0.8654
  762TIP3    H226482   1.174   6.286   8.986 -0.8374  0.0776  0.3305
  763TIP3   OH226483   4.196   2.493  10.327  0.0892  0.3192 -0.0184
  763TIP3    H126484   4.190   2.587  10.311  0.2791  0.3391  0.0239
  763TIP3    H226485   4.241   2.486  10.411 -0.0539  0.1933  0.0488
  764TIP3   OH226486   0.064   1.756   9.168  0.6791 -0.1259 -0.2589
  764TIP3    H126487   0.141   1.802   9.136 -0.0330  1.0202 -0.3819
  764TIP3    H226488   0.007   1.748   9.092 -0.0215  0.5215  0.1801
  765TIP3   OH226489   3.144   4.634  10.960  0.1219 -0.5310  0.3059
  765TIP3    H126490   3.061   4.615  11.003 -0.7304  0.3000 -0.9196
  765TIP3    H226491   3.193   4.687  11.024 -0.7516 -0.0760  0.6126
  766TIP3   OH226492   2.182   2.311   9.879  0.1405 -0.4089 -0.2834
  766TIP3    H126493   2.258   2.255   9.863 -0.1815 -0.3629 -2.2834
  766TIP3    H226494   2.106   2.255   9.860 -0.2753  0.0400  0.0094
  767TIP3   OH226495   6.124   1.034   8.960 -0.0213  0.3568  0.6226
  767TIP3    H126496   6.164   1.118   8.980 -2.7285  1.9017  0.1068
  767TIP3    H226497   6.048   1.056   8.905  0.2220 -2.6057 -1.1466
  768TIP3   OH226498   1.619   4.877  10.488  0.5955  0.1877 -0.3864
  768TIP3    H126499   1.611   4.966  10.452 -1.2595  0.0616 -0.3651
  768TIP3    H226500   1.539   4.864  10.538  1.1488 -1.2732  0.1793
  769TIP3   OH226501   0.991   0.333   9.767  0.5032 -0.2759 -0.0458
  769TIP3    H126502   1.086   0.323   9.759  0.7453  0.0231  2.0307
  769TIP3    H226503   0.980   0.401   9.833 -1.1781 -0.5494 -0.0172
  770TIP3   OH226504   0.824   1.845  10.196 -0.6112 -0.2310 -0.0194
  770TIP3    H126505   0.761   1.898  10.147 -0.6763 -0.7210 -0.4720
  770TIP3    H226506   0.908   1.859  10.152 -0.7826 -1.1524 -0.6658
  771TIP3   OH226507   2.287   1.912  10.078  0.0024  0.8409 -0.3110
  771TIP3    H126508   2.209   1.893  10.027  1.6630 -0.4881 -2.5776
  771TIP3    H226509   2.269   1.996  10.120 -2.8196  0.2979 -0.2406
  772TIP3   OH226510   2.744   1.258   9.414  0.4760  0.5834 -0.4998
  772TIP3    H126511   2.711   1.348   9.414  2.0539  1.2198 -1.6994
  772TIP3    H226512   2.833   1.265   9.379  0.8465 -1.3897 -0.1104
  773TIP3   OH226513   2.867   6.402  12.472 -0.3795  0.5048 -0.2253
  773TIP3    H126514   2.874   6.318  12.518 -0.4752 -0.9021 -2.5926
  773TIP3    H226515   2.938   6.401  12.408 -1.4016  1.4548 -1.4358
  774TIP3   OH226516   1.934   0.431  10.721 -0.2669  0.2542  0.0520
  774TIP3    H126517   1.914   0.444  10.814  1.3928  0.1443  0.4570
  774TIP3    H226518   2.029   0.443  10.715 -0.2240 -0.6145 -1.4905
  775TIP3   OH226519   6.253   2.364   8.321  0.2142  0.1178 -0.1151
  775TIP3    H126520   6.308   2.289   8.301  0.7479  0.0188  1.5620
  775TIP3    H226521   6.194   2.333   8.389 -0.2329  0.9422 -0.1132
  776TIP3   OH226522   6.212   2.558   9.729 -0.2955  0.1857 -0.3618
  776TIP3    H126523   6.306   2.578   9.725 -0.0868 -0.6783 -0.0646
  776TIP3    H226524   6.201   2.485   9.668 -0.8870  0.6446 -0.8183
  777TIP3   OH226525   5.629   3.732   9.816  0.2469  0.0544  0.0659
  777TIP3    H126526   5.536   3.746   9.804  0.0092 -0.9371  0.6226
  777TIP3    H226527   5.636   3.644   9.853  1.2431  0.8652  1.9948
  778TIP3   OH226528   3.814   4.594  11.579  0.0809 -0.2207 -0.1341
  778TIP3    H126529   3.832   4.587  11.485  0.3871 -1.5406 -0.0077
  778TIP3    H226530   3.887   4.549  11.621  0.9606  1.9977  0.8684
  779TIP3   OH226531   6.528   4.060  10.572  0.1051  0.1712 -0.2186
  779TIP3    H126532   6.485   4.135  10.611  0.3175  0.0839  0.1886
  779TIP3    H226533   6.457   4.010  10.531 -0.0662  0.4654 -0.2781
  780TIP3   OH226534   4.654   6.523   9.541 -0.1702  0.4514 -0.2094
  780TIP3    H126535   4.628   6.581   9.470 -0.8479  1.0708  0.5338
  780TIP3    H226536   4.645   6.435   9.504  0.4426  0.7935 -1.2003
  781TIP3   OH226537   4.672   0.803   9.957  0.4716  0.4150 -0.5804
  781TIP3    H126538   4.690   0.872   9.893 -0.7602  1.3039 -0.0059
  781TIP3    H226539   4.655   0.850  10.039  0.0595 -0.5853 -0.0739
  782TIP3   OH226540   1.768   5.085  10.280 -0.5568  0.4320  0.3166
  782TIP3    H126541   1.745   5.170  10.316 -2.0436  0.0142  0.4387
  782TIP3    H226542   1.844   5.057  10.331 -1.1895  0.8734  1.5465
  783TIP3   OH226543   3.756   4.180  11.168 -0.1552  0.9057  0.8032
  783TIP3    H126544   3.848   4.165  11.190 -0.2137  0.6554  0.8835
  783TIP3    H226545   3.744   4.136  11.084 -0.5468 -0.2877  1.4548
  784TIP3   OH226546   4.940   5.101  11.969  0.0898 -0.0414 -0.3099
  784TIP3    H126547   4.910   5.142  12.050 -0.6636 -1.9075  0.4168
  784TIP3    H226548   4.922   5.165  11.901  0.2253  1.3444  0.9261
  785TIP3   OH226549   3.681   4.305  10.689 -0.2813 -0.0339  0.1638
  785TIP3    H126550   3.599   4.255  10.685 -0.1312 -0.4532  1.6191
  785TIP3    H226551   3.743   4.255  10.637 -0.9511  0.3292 -1.0225
  786TIP3   OH226552   2.956   5.119  10.983 -0.6994 -0.0408 -0.3134
  786TIP3    H126553   3.034   5.113  10.928 -0.4978  0.4637 -0.0883
  786TIP3    H226554   2.915   5.033  10.976 -1.1239  0.2683 -1.8958
  787TIP3   OH226555   4.046   6.079  12.060 -0.0484 -0.0129 -0.3873
  787TIP3    H126556   4.085   6.165  12.043 -0.0316  0.1411  0.4209
  787TIP3    H226557   3.952   6.097  12.068 -0.1522 -0.2064 -1.1151
  788TIP3   OH226558   0.481   4.187  11.481 -1.0014 -0.0083 -0.0586
  788TIP3    H126559   0.469   4.235  11.399  2.8608 -2.2200 -2.2076
  788TIP3    H226560   0.540   4.242  11.532 -1.4322  0.2329  0.1887
  789TIP3   OH226561   5.666   0.537  11.967 -0.3156  0.3875 -0.4112
  789TIP3    H126562   5.583   0.578  11.992 -0.0211  0.1580  1.0939
  789TIP3    H226563   5.703   0.596  11.902 -0.1282  2.3146  1.3281
  790TIP3   OH226564   0.051   2.901  11.873  0.8721  0.0046 -0.3090
  790TIP3    H126565  -0.007   2.874  11.803  0.0915  0.4498  0.1503
  790TIP3    H226566   0.072   2.820  11.920 -1.4505  0.0929  1.0648
  791TIP3   OH226567   5.380   1.089   8.221  0.2960  0.0513  0.1356
  791TIP3    H126568   5.300   1.106   8.171  0.9986 -0.6158 -1.2811
  791TIP3    H226569   5.376   0.997   8.244  0.5540  0.0622  0.2377
  792TIP3   OH226570   2.454   2.755   9.849 -0.2365 -0.6400 -0.3327
  792TIP3    H126571   2.404   2.815   9.904  0.3377  1.1353 -1.6718
  792TIP3    H226572   2.433   2.780   9.759  0.7046 -1.8744 -0.9378
  793TIP3   OH226573   6.145   5.058   9.754  0.4351  0.5115 -0.4637
  793TIP3    H126574   6.197   5.136   9.777 -0.0249  0.4600  0.8633
  793TIP3    H226575   6.121   5.071   9.663  0.6169  1.7935 -0.3466
  794TIP3   OH226576   4.041   2.311  10.636  0.1137  0.0379  0.0271
  794TIP3    H126577   4.049   2.376  10.706 -1.2415 -0.8193  1.0293
  794TIP3    H226578   3.953   2.324  10.601 -0.5396 -1.8192  0.8672
  795TIP3   OH226579   1.806   5.088  11.646  0.0168 -0.1809  0.2994
  795TIP3    H126580   1.883   5.124  11.689  0.1931 -0.8779  0.5701
  795TIP3    H226581   1.801   4.997  11.676  1.2899 -1.3582 -2.6627
  796TIP3   OH226582   5.111   1.175   9.143 -0.1359 -0.1542  0.5329
  796TIP3    H126583   5.110   1.089   9.184  0.8221  0.3340  1.6454
  796TIP3    H226584   5.019   1.198   9.132 -0.3969 -1.0783  0.7428
  797TIP3   OH226585   6.661   1.124   8.677  0.0022  0.4202 -0.2361
  797TIP3    H126586   6.677   1.155   8.588 -0.9436 -0.2305 -0.6481
  797TIP3    H226587   6.565   1.118   8.683  0.0788 -0.0867  0.6418
  798TIP3   OH226588   0.856   1.423  11.993 -0.7704 -0.0721  0.5565
  798TIP3    H126589   0.945   1.433  12.029 -0.8740  0.3828  0.6973
  798TIP3    H226590   0.818   1.352  12.043 -0.8754  0.4850  1.2879
  799TIP3   OH226591   3.158   5.152   9.778  0.2302 -0.0524 -0.1556
  799TIP3    H126592   3.153   5.125   9.870  1.8371 -1.0563 -0.3309
  799TIP3    H226593   3.251   5.148   9.757 -0.2541 -1.3856 -2.2778
  800TIP3   OH226594   1.481   2.502  10.755  0.1440  0.0618 -0.4449
  800TIP3    H126595   1.507   2.421  10.800 -0.8409  0.0738  0.1743
  800TIP3    H226596   1.475   2.567  10.826  2.1726  1.0283 -1.0850
  801TIP3   OH226597   2.165   0.657  11.516 -0.3585 -0.2719  0.3649
  801TIP3    H126598   2.111   0.578  11.526 -2.7477  0.8631 -2.2247
  801TIP3    H226599   2.128   0.719  11.579  0.4136 -0.6427  1.2041
  802TIP3   OH226600   2.656   4.061  11.252 -0.1298 -0.7883 -0.4016
  802TIP3    H126601   2.677   4.143  11.207 -0.8696 -0.9949 -1.1440
  802TIP3    H226602   2.685   4.076  11.342 -1.6349  0.8955 -0.1254
  803TIP3   OH226603   4.259   5.095  12.237 -0.2527  0.0825 -0.2483
  803TIP3    H126604   4.348   5.072  12.263 -0.4456  0.5007  0.7972
  803TIP3    H226605   4.256   5.190  12.241 -0.2052  0.2039 -2.1291
  804TIP3   OH226606   5.729   0.828  10.036 -0.1034  0.4583  0.3598
  804TIP3    H126607   5.756   0.868  10.119 -1.7051 -0.7337  1.5091
  804TIP3    H226608   5.735   0.899   9.972 -4.4717  3.2815  2.5812
  805TIP3   OH226609   3.717   6.477   9.311 -0.0735 -0.5604  0.0605
  805TIP3    H126610   3.780   6.423   9.359  1.1680  0.3670 -0.4884
  805TIP3    H226611   3.738   6.462   9.219 -0.9842 -0.6109 -0.1490
  806TIP3   OH226612   3.209   2.186  10.701  0.7052  0.3825 -0.0347
  806TIP3    H126613   3.235   2.103  10.740 -1.3080 -0.0646  0.4893
  806TIP3    H226614   3.166   2.161  10.619  1.9436  1.0841 -0.9218
  807TIP3   OH226615   2.734   4.609  11.496  0.5374 -0.0199 -0.0592
  807TIP3    H126616   2.760   4.693  11.533  1.7382 -1.0618  1.6083
  807TIP3    H226617   2.642   4.620  11.472  0.9317  2.0307 -0.7707
  808TIP3   OH226618   1.129   1.878  10.862 -0.2203  1.0371  0.0275
  808TIP3    H126619   1.144   1.879  10.957 -0.1055 -0.3604  0.0564
  808TIP3    H226620   1.217   1.883  10.824 -0.0056 -1.0517  0.0864
  809TIP3   OH226621   0.917   4.904  12.099  0.3603 -0.1687 -0.2904
  809TIP3    H126622   0.824   4.911  12.076  0.4451  1.3623 -0.2439
  809TIP3    H226623   0.919   4.837  12.167 -0.5780 -0.8875 -0.9231
  810TIP3   OH226624   0.628   5.427   9.390 -0.3274  0.2336 -0.1916
  810TIP3    H126625   0.597   5.407   9.478 -1.2658  1.7049 -0.1559
  810TIP3    H226626   0.558   5.397   9.333 -0.1303  0.1333 -0.3819
  811TIP3   OH226627   4.425   1.615   9.251  0.2235  0.1589 -0.2415
  811TIP3    H126628   4.342   1.617   9.203  0.7738  1.1444 -1.2033
  811TIP3    H226629   4.492   1.607   9.183  0.9846  0.7146  0.4191
  812TIP3   OH226630   5.319   0.988  10.574  0.6360 -0.6281  0.1189
  812TIP3    H126631   5.271   0.959  10.652 -0.1922 -1.1398 -0.5553
  812TIP3    H226632   5.352   0.907  10.535 -1.1025 -0.6753 -1.4091
  813TIP3   OH226633   4.543   2.114  12.101  0.4426 -0.5225  0.3474
  813TIP3    H126634   4.607   2.043  12.097  0.6127 -0.3494 -0.0182
  813TIP3    H226635   4.583   2.186  12.052 -0.7988 -1.0392 -1.5579
  814TIP3   OH226636   1.323   0.392   9.987  0.1340  0.4485  0.1923
  814TIP3    H126637   1.402   0.375   9.936 -0.0539  0.3492 -0.0722
  814TIP3    H226638   1.282   0.306   9.996 -0.0277  0.5247  0.1856
  815TIP3   OH226639   0.182   3.387   9.301  0.1582  0.2757  0.0125
  815TIP3    H126640   0.210   3.472   9.336  0.3256  0.4704 -0.5782
  815TIP3    H226641   0.087   3.389   9.305  0.1367  0.7155 -0.4907
  816TIP3   OH226642   0.774   6.585  12.271 -0.6586 -0.3519 -0.0204
  816TIP3    H126643   0.719   6.573  12.349 -1.4433 -0.9958 -0.6497
  816TIP3    H226644   0.826   6.505  12.265 -0.5458 -0.2732 -0.1183
  817TIP3   OH226645   4.956   2.573  11.181  0.1417  0.3652  0.1237
  817TIP3    H126646   5.028   2.597  11.240 -0.8560  0.9088  1.1457
  817TIP3    H226647   4.894   2.645  11.189 -1.9202 -1.4324  1.5662
  818TIP3   OH226648   4.050   0.672  11.706  0.0898  0.3180  0.2974
  818TIP3    H126649   3.973   0.641  11.754  0.4875 -0.7927  0.2630
  818TIP3    H226650   4.087   0.592  11.668 -0.7672  1.2236 -2.7124
  819TIP3   OH226651   5.571   2.787  12.105 -0.7225  0.1220  0.5662
  819TIP3    H126652   5.501   2.790  12.171 -0.8561  0.1126  0.4279
  819TIP3    H226653   5.561   2.870  12.057 -0.1840  0.4457  1.0040
  820TIP3   OH226654   2.654   4.932   9.742  0.0936  0.3781  0.3069
  820TIP3    H126655   2.569   4.975   9.756  0.4171  0.8576  0.8767
  820TIP3    H226656   2.710   4.967   9.811  0.5547 -0.4926  0.3928
  821TIP3   OH226657   0.084   5.666  10.669 -0.2319  0.2316 -0.5233
  821TIP3    H126658   0.060   5.756  10.694 -3.4334 -0.2291 -1.4287
  821TIP3    H226659   0.176   5.672  10.644 -0.0099  2.9975  0.5978
  822TIP3   OH226660   6.127   0.284  11.639 -0.1814 -0.1381  0.0385
  822TIP3    H126661   6.069   0.240  11.577  0.9162  0.5469 -1.5411
  822TIP3    H226662   6.081   0.280  11.723 -2.1611 -0.2668 -1.0053
  823TIP3   OH226663   3.048   6.167  11.505 -0.1112  0.4003 -0.0811
  823TIP3    H126664   2.960   6.148  11.472 -1.1406  0.7189  2.2880
  823TIP3    H226665   3.054   6.262  11.504  1.4353  0.3905 -3.0274
  824TIP3   OH226666   2.280   5.741  11.546 -0.0734  0.2439 -0.5075
  824TIP3    H126667   2.263   5.670  11.608 -0.9620  0.2009 -0.7880
  824TIP3    H226668   2.373   5.735  11.528 -0.0703 -0.6326 -0.2576
  825TIP3   OH226669   6.413   2.155   9.582 -0.0892 -0.6246 -0.7773
  825TIP3    H126670   6.354   2.133   9.510 -1.2110 -0.8855  0.1890
  825TIP3    H226671   6.389   2.245   9.605 -0.1783 -0.7586 -0.3310
  826TIP3   OH226672   1.733   1.519   9.914  0.6575  0.3901  0.5388
  826TIP3    H126673   1.714   1.430   9.884 -0.3709  0.2759  1.4247
  826TIP3    H226674   1.674   1.575   9.863  0.3818  0.4134  0.8756
  827TIP3   OH226675   6.257   2.078  10.531 -0.0768 -0.3319 -0.4515
  827TIP3    H126676   6.286   2.136  10.461 -0.2993 -0.0574 -0.3181
  827TIP3    H226677   6.323   2.009  10.534  0.7117  0.4293  0.0368
  828TIP3   OH226678   0.488   5.907  11.157 -0.4568  0.7947 -0.1355
  828TIP3    H126679   0.536   5.825  11.142 -1.2432 -0.1948  2.2988
  828TIP3    H226680   0.535   5.972  11.104  0.0649 -1.2121 -2.3186
  829TIP3   OH226681   0.558   1.536  10.016  0.0261  0.7368  0.2335
  829TIP3    H126682   0.614   1.462   9.992  0.3423  0.4667  1.6854
  829TIP3    H226683   0.473   1.516   9.977 -0.0562 -0.7160  1.0825
  830TIP3   OH226684   5.352   5.632   9.477  0.2944  0.6518 -0.5349
  830TIP3    H126685   5.362   5.599   9.567  0.6518  0.7456 -0.5404
  830TIP3    H226686   5.375   5.558   9.422  0.6034  0.7587 -0.5488
  831TIP3   OH226687   1.659   0.534  11.432 -0.1294 -0.3320 -0.0379
  831TIP3    H126688   1.717   0.596  11.387 -1.2427 -1.0044 -2.6027
  831TIP3    H226689   1.701   0.519  11.517  1.0997  2.5358 -0.0072
  832TIP3   OH226690   2.939   0.724   9.801 -0.2713 -0.3069 -0.0574
  832TIP3    H126691   2.973   0.808   9.832 -0.7681  0.6099 -1.8713
  832TIP3    H226692   2.927   0.736   9.707 -2.8404 -1.5452  0.0336
  833TIP3   OH226693   1.050   3.610  10.726 -0.5056 -0.6238 -0.2293
  833TIP3    H126694   0.970   3.598  10.674 -2.2176 -0.0573  2.1280
  833TIP3    H226695   1.062   3.526  10.771  1.6422 -1.5272 -2.2915
  834TIP3   OH226696   1.939   4.314   9.913 -0.4625  0.2786  0.2767
  834TIP3    H126697   1.945   4.220   9.897 -1.8535  0.5159 -2.4105
  834TIP3    H226698   2.016   4.351   9.870 -1.9557  0.5753 -2.3881
  835TIP3   OH226699   5.330   3.073  11.835 -0.3389 -0.1081  0.0886
  835TIP3    H126700   5.314   3.124  11.755 -0.9720 -2.2391 -1.2120
  835TIP3    H226701   5.242   3.046  11.864  0.0044 -0.7626  0.5412
  836TIP3   OH226702   4.702   3.590  12.250 -0.2341  0.4105 -0.0541
  836TIP3    H126703   4.764   3.590  12.177 -1.7396 -0.9377 -1.3960
  836TIP3    H226704   4.744   3.645  12.316  0.7570  2.5442 -2.2808
  837TIP3   OH226705   2.157   3.343  10.646 -0.4565  0.0544  0.3793
  837TIP3    H126706   2.177   3.436  10.633 -0.3960  0.0897  0.7042
  837TIP3    H226707   2.063   3.340  10.661 -0.2880  0.2061  1.5514
  838TIP3   OH226708   0.630   2.245   9.116 -0.3159  0.1791 -0.2277
  838TIP3    H126709   0.590   2.166   9.153  1.6797 -0.6282  0.3492
  838TIP3    H226710   0.576   2.317   9.150 -1.5659 -0.8581  0.0737
  839TIP3   OH226711   5.096   0.494  11.692 -0.3114 -0.3546  0.8194
  839TIP3    H126712   5.187   0.484  11.662  0.1254  0.4188  1.8079
  839TIP3    H226713   5.047   0.514  11.612  0.8146  1.7050  0.5594
  840TIP3   OH226714   1.142   3.725  10.369  0.5232 -0.4157  0.3047
  840TIP3    H126715   1.068   3.771  10.409  0.0877 -0.9164  0.0986
  840TIP3    H226716   1.107   3.639  10.346  0.7745 -0.1828 -1.0814
  841TIP3   OH226717   2.503   1.918   9.898 -0.0406  0.0402  0.2389
  841TIP3    H126718   2.424   1.891   9.946 -1.0359  0.6696 -0.9925
  841TIP3    H226719   2.575   1.882   9.949 -1.1643 -1.8063  0.6279
  842TIP3   OH226720   0.202   1.673  11.797 -0.1635 -0.2530 -0.8899
  842TIP3    H126721   0.248   1.590  11.812 -0.3219 -0.1034  0.5794
  842TIP3    H226722   0.111   1.654  11.820  0.1049  0.7509  1.2319
  843TIP3   OH226723   5.704   3.924  12.059  0.4973  0.3648 -0.1748
  843TIP3    H126724   5.655   3.968  12.129  1.3547  1.1328 -0.0403
  843TIP3    H226725   5.701   3.985  11.986  1.1612  0.3729 -0.1991
  844TIP3   OH226726   0.732   2.627  10.256  1.0927  0.4174 -0.2199
  844TIP3    H126727   0.672   2.694  10.291  0.0345 -0.6437  0.0926
  844TIP3    H226728   0.801   2.676  10.212  0.8693  1.7350  0.8360
  845TIP3   OH226729   3.886   0.333   9.697 -0.4228  0.2055 -0.5406
  845TIP3    H126730   3.932   0.249   9.698  0.2141  0.5500 -0.0467
  845TIP3    H226731   3.851   0.342   9.786  0.7788  1.1317 -0.1323
  846TIP3   OH226732   2.434   4.922  11.436  0.1075 -0.1055  0.2220
  846TIP3    H126733   2.445   5.016  11.454  1.8668 -0.1121 -0.5542
  846TIP3    H226734   2.439   4.880  11.521  1.8344  0.3399  0.3680
  847TIP3   OH226735   0.091   0.053  10.831  1.1064 -0.8787 -0.5947
  847TIP3    H126736   0.048  -0.026  10.863  0.4122 -0.2828 -0.0115
  847TIP3    H226737   0.050   0.070  10.746  0.0232 -0.2127  0.0386
  848TIP3   OH226738   1.154   5.912   9.804 -0.3894 -1.2455 -0.0176
  848TIP3    H126739   1.162   5.844   9.738 -0.1056 -0.8033 -0.4458
  848TIP3    H226740   1.060   5.918   9.820 -0.8624  0.8589 -2.7757
  849TIP3   OH226741   2.548   0.793   8.283 -0.9565 -0.6070 -0.4995
  849TIP3    H126742   2.541   0.713   8.336 -0.3272  0.8217  1.9236
  849TIP3    H226743   2.477   0.849   8.316  0.0376  0.6898 -0.4980
  850TIP3   OH226744   0.399   2.316  11.560  0.3613  0.5971 -0.1922
  850TIP3    H126745   0.409   2.224  11.584  3.2795  0.8459 -0.0536
  850TIP3    H226746   0.395   2.316  11.465 -2.3266  0.2218 -0.1521
  851TIP3   OH226747   4.776   0.733  11.486 -0.1461 -0.1881  0.4320
  851TIP3    H126748   4.745   0.823  11.477  1.4413  0.3402 -0.0388
  851TIP3    H226749   4.747   0.707  11.574 -1.9634  0.2109 -0.0184
  852TIP3   OH226750   6.316   1.031  12.131  0.0120 -0.1097 -0.3273
  852TIP3    H126751   6.395   0.979  12.145  0.1604  0.5796  1.9058
  852TIP3    H226752   6.249   0.988  12.184 -0.1803  1.1695  0.5406
  853TIP3   OH226753   2.938   5.724  11.631 -0.5159  0.3505  0.0388
  853TIP3    H126754   2.907   5.758  11.547  0.4638  0.9270 -0.1053
  853TIP3    H226755   2.900   5.783  11.696  0.4461  1.2135 -0.1542
  854TIP3   OH226756   6.236   3.420   9.604  0.8678  0.3761 -0.6224
  854TIP3    H126757   6.256   3.415   9.510 -1.6512  0.2440 -1.2323
  854TIP3    H226758   6.171   3.351   9.617  2.1931 -0.5648  1.5798
  855TIP3   OH226759   3.440   0.879   8.291  0.1833 -0.5315 -0.2394
  855TIP3    H126760   3.447   0.810   8.225 -0.9272 -0.2491 -0.6751
  855TIP3    H226761   3.352   0.869   8.327  0.6322 -0.4235  0.9239
  856TIP3   OH226762   4.143   4.328   9.192  0.3432 -0.2855 -0.7786
  856TIP3    H126763   4.218   4.298   9.139 -0.3838  1.1004 -2.7270
  856TIP3    H226764   4.075   4.349   9.127 -1.7007 -1.3153  0.9201
  857TIP3   OH226765   2.879   1.578  10.455 -0.0553 -0.0107 -0.2371
  857TIP3    H126766   2.798   1.621  10.427  0.5751  2.1606  0.9859
  857TIP3    H226767   2.941   1.651  10.468  0.7055 -1.1087  3.2492
  858TIP3   OH226768   6.666   2.583   9.757 -0.1286 -0.0307  0.3101
  858TIP3    H126769   6.696   2.586   9.848 -1.5295  0.7176  0.7721
  858TIP3    H226770   6.733   2.632   9.709  0.4568 -0.1472  0.9826
  859TIP3   OH226771   2.005   5.365   9.332 -0.6366  0.0105 -0.1385
  859TIP3    H126772   1.924   5.403   9.298 -0.1093  0.6195 -0.7599
  859TIP3    H226773   2.010   5.279   9.291 -1.1734 -0.1964  0.2273
  860TIP3   OH226774   2.811   1.584   9.764 -0.2961 -0.5560 -0.3388
  860TIP3    H126775   2.867   1.506   9.757  0.8305  0.2997 -1.3186
  860TIP3    H226776   2.742   1.558   9.825  1.1623 -1.6781  0.9419
  861TIP3   OH226777   0.472   5.012  11.038 -0.0112 -0.3272 -0.2935
  861TIP3    H126778   0.565   5.005  11.057  0.0575  0.9356 -0.0722
  861TIP3    H226779   0.462   4.969  10.953  0.3703 -2.3930  0.6347
  862TIP3   OH226780   4.847   0.558  12.200 -0.1237 -0.0371 -0.9181
  862TIP3    H126781   4.895   0.530  12.279  0.5472  0.6570 -1.0631
  862TIP3    H226782   4.916   0.578  12.137 -0.5322  1.9285 -0.8196
  863TIP3   OH226783   1.125   3.052  10.543  0.0174 -0.3146 -0.0584
  863TIP3    H126784   1.046   3.052  10.490 -0.1335 -2.5394  0.0758
  863TIP3    H226785   1.103   3.001  10.621  1.5725 -0.9688 -0.0044
  864TIP3   OH226786   1.159   3.983   9.551  0.3614 -0.2407 -0.4484
  864TIP3    H126787   1.221   4.027   9.492  0.7530  0.0051  0.1334
  864TIP3    H226788   1.202   3.986   9.637 -0.0193 -0.9598 -0.2301
  865TIP3   OH226789   5.434   6.124   8.695  0.4961  0.1137 -0.0930
  865TIP3    H126790   5.427   6.203   8.640  0.3846  0.1083 -0.0857
  865TIP3    H226791   5.344   6.094   8.706  0.4423  0.5308  0.6967
  866TIP3   OH226792   2.205   2.679  10.440  0.0634 -0.4032 -0.1577
  866TIP3    H126793   2.282   2.634  10.473 -0.4257 -0.4666  0.9479
  866TIP3    H226794   2.168   2.723  10.517 -0.9276 -0.2773 -0.6852
  867TIP3   OH226795   1.489   6.441   8.747  0.0273 -0.3177 -0.3649
  867TIP3    H126796   1.415   6.502   8.738  1.5368  1.4206 -1.7534
  867TIP3    H226797   1.563   6.497   8.770  1.2639 -1.7635 -0.7001
  868TIP3   OH226798   4.012   5.348  12.337 -0.1825 -0.2096 -0.4998
  868TIP3    H126799   4.010   5.404  12.414 -1.4414 -1.7307  0.6482
  868TIP3    H226800   4.104   5.348  12.309 -0.0005  1.6141  0.0292
  869TIP3   OH226801   4.325   5.670   8.731  0.0857 -0.1250  0.0082
  869TIP3    H126802   4.346   5.721   8.653  0.7026  0.3803  0.4898
  869TIP3    H226803   4.246   5.710   8.766 -0.6511 -0.8560 -0.7881
  870TIP3   OH226804   2.664   6.575   9.336 -0.3273  0.1517 -0.0056
  870TIP3    H126805   2.708   6.536   9.261  1.6562 -1.1039  1.7193
  870TIP3    H226806   2.734   6.601   9.395 -1.7665  2.4892  0.8090
  871TIP3   OH226807   3.193   5.258  10.627 -0.0895 -0.5868 -0.1920
  871TIP3    H126808   3.278   5.266  10.670 -0.5231  0.4963  0.5134
  871TIP3    H226809   3.197   5.319  10.553 -0.7512  0.6311  0.7309
  872TIP3   OH226810   6.537   0.032  10.068  0.7415  0.3835 -0.3176
  872TIP3    H126811   6.529  -0.043  10.128  1.7604 -0.0876 -0.7338
  872TIP3    H226812   6.629   0.030  10.041  0.6022  1.3659 -0.8975
  873TIP3   OH226813   2.462   0.614   9.697  0.2336  0.0753 -0.2189
  873TIP3    H126814   2.421   0.563   9.767  0.0118 -0.9450 -1.0595
  873TIP3    H226815   2.398   0.683   9.678 -0.8541 -1.1061 -1.0582
  874TIP3   OH226816   1.971   5.809   9.018  0.0838  0.2014 -0.2703
  874TIP3    H126817   1.938   5.721   9.035 -0.2778 -0.2549 -2.8279
  874TIP3    H226818   2.008   5.838   9.101  0.9773 -2.7078  0.4698
  875TIP3   OH226819   1.126   6.293  12.062 -0.3505  0.0090 -0.3260
  875TIP3    H126820   1.119   6.381  12.024  0.2761  0.9484  1.5808
  875TIP3    H226821   1.068   6.296  12.139  0.9011 -0.6998  0.6726
  876TIP3   OH226822   3.229   1.074  12.048 -0.9416  0.1539 -0.3763
  876TIP3    H126823   3.264   0.985  12.042  0.2184  0.5786 -0.1495
  876TIP3    H226824   3.303   1.127  12.077 -1.6520  1.1800 -0.3845
  877TIP3   OH226825   6.088   4.394  10.531 -0.1008 -0.2045 -0.4167
  877TIP3    H126826   6.069   4.300  10.540  0.2461 -0.3056 -0.7017
  877TIP3    H226827   6.062   4.415  10.441  0.6083 -0.2247 -0.6361
  878TIP3   OH226828   3.906   1.961  11.005  0.0875  0.0642  0.1680
  878TIP3    H126829   3.983   2.000  10.962 -0.4738 -0.2709 -1.2063
  878TIP3    H226830   3.833   1.983  10.947 -1.1041  1.5043  2.1293
  879TIP3   OH226831   3.886   0.397   8.589  0.1294 -0.1125 -0.0065
  879TIP3    H126832   3.946   0.439   8.651 -0.1519 -0.5280  0.5543
  879TIP3    H226833   3.862   0.315   8.631 -0.0705 -0.4004 -0.6698
  880TIP3   OH226834   5.613   0.571   9.221  0.3117  0.1050 -0.2118
  880TIP3    H126835   5.657   0.544   9.140 -0.3691 -0.6685 -0.3314
  880TIP3    H226836   5.537   0.514   9.228 -2.0772  2.8761 -1.2759
  881TIP3   OH226837   1.927   6.464   9.313 -0.4413 -0.2249  0.0946
  881TIP3    H126838   1.868   6.425   9.249 -0.4789 -1.2395  0.7251
  881TIP3    H226839   1.948   6.551   9.277  0.1073 -1.0278 -1.6432
  882TIP3   OH226840   1.147   1.325  10.044 -0.5596 -0.0445  0.6783
  882TIP3    H126841   1.101   1.364   9.969 -1.5198 -1.3825  0.5388
  882TIP3    H226842   1.091   1.344  10.119 -1.1341 -1.2628  0.5825
  883TIP3   OH226843   0.396   2.049   9.368  0.2153  0.0619 -0.3033
  883TIP3    H126844   0.308   2.083   9.384  0.4962  0.6785 -0.0354
  883TIP3    H226845   0.401   2.039   9.273  0.3045  1.2868 -0.4440
  884TIP3   OH226846   6.582   6.454   9.640  0.0091  0.4586 -0.1414
  884TIP3    H126847   6.656   6.393   9.648 -1.5179 -1.4321  0.3445
  884TIP3    H226848   6.620   6.533   9.601  2.3162 -0.3377  0.3178
  885TIP3   OH226849   1.680   2.630   9.973 -0.7937 -0.0365  0.2390
  885TIP3    H126850   1.746   2.671  10.028  0.2328 -0.9205 -0.2833
  885TIP3    H226851   1.718   2.545   9.949 -1.1470  0.3641 -1.9254
  886TIP3   OH226852   1.175   2.753   9.472  0.3126 -0.9254 -0.7942
  886TIP3    H126853   1.224   2.799   9.541  0.2188 -1.6075 -0.2638
  886TIP3    H226854   1.191   2.805   9.393 -0.9504  0.8384  0.0491
  887TIP3   OH226855   2.346   1.389   9.747  0.0152  0.9572 -0.1455
  887TIP3    H126856   2.385   1.474   9.731 -0.2094  1.2121  0.6174
  887TIP3    H226857   2.412   1.326   9.717 -0.4301  1.3680 -2.1667
  888TIP3   OH226858   5.758   3.522  11.947  0.7681  0.4584  0.0542
  888TIP3    H126859   5.787   3.530  11.857  0.6215 -0.4878 -0.0857
  888TIP3    H226860   5.673   3.566  11.949  0.9985  0.9196 -0.1427
  889TIP3   OH226861   5.817   1.437   8.155  0.1928  0.6058  0.4998
  889TIP3    H126862   5.903   1.396   8.153 -0.1008 -0.0428  0.7260
  889TIP3    H226863   5.759   1.368   8.188 -0.4786  0.9018 -0.0313
  890TIP3   OH226864   3.841   5.207  12.174 -0.1894 -0.2685 -0.2554
  890TIP3    H126865   3.900   5.257  12.231  0.6704 -0.0028 -1.3578
  890TIP3    H226866   3.856   5.116  12.200  0.0158 -0.1332  0.1164
  891TIP3   OH226867   0.566   0.155  10.596  0.5927 -0.3721 -0.6313
  891TIP3    H126868   0.567   0.128  10.504 -0.9505  0.2912 -0.8735
  891TIP3    H226869   0.488   0.114  10.632  1.1346 -0.5479  0.3792
  892TIP3   OH226870   0.702   3.300  10.752 -0.1730  0.6310 -0.1882
  892TIP3    H126871   0.693   3.294  10.847  2.3186  1.6839  0.1960
  892TIP3    H226872   0.789   3.264  10.734 -1.6362 -2.1722 -2.4809
  893TIP3   OH226873   0.524   6.387   9.080 -0.1512  0.1264  0.3185
  893TIP3    H126874   0.574   6.423   9.153  1.9299 -1.2032 -0.3763
  893TIP3    H226875   0.568   6.421   9.002 -2.1938  1.3270 -0.3997
  894TIP3   OH226876   3.423   4.516   9.424  0.1851  0.4711  0.7380
  894TIP3    H126877   3.420   4.421   9.418  2.4574  0.1334  3.1281
  894TIP3    H226878   3.492   4.542   9.362 -1.2884  0.7969 -0.8714
  895TIP3   OH226879   5.002   6.061  11.457  0.1991  0.4525 -0.5212
  895TIP3    H126880   5.021   6.148  11.492  0.6516  0.6118 -1.1495
  895TIP3    H226881   5.088   6.021  11.444  0.0048 -1.1006  2.2105
  896TIP3   OH226882   0.166   1.687  10.141 -0.3739  0.2286 -0.0956
  896TIP3    H126883   0.190   1.608  10.091 -2.3719  0.2329 -1.1671
  896TIP3    H226884   0.159   1.755  10.075 -1.1279  0.7079  0.4684
  897TIP3   OH226885   2.317   0.015  11.188 -0.3161  0.1402 -0.3998
  897TIP3    H126886   2.238  -0.016  11.234 -0.2248 -1.1644 -1.0539
  897TIP3    H226887   2.285   0.085  11.132 -0.7493  0.5588  0.3426
  898TIP3   OH226888   2.634   4.871  10.840  0.4628 -0.6143  0.1066
  898TIP3    H126889   2.689   4.864  10.918 -1.2691 -0.6984  1.4015
  898TIP3    H226890   2.693   4.901  10.771  1.9398  0.1265  1.6106
  899TIP3   OH226891   2.555   0.691  10.437  0.3123 -0.0533  0.6845
  899TIP3    H126892   2.578   0.761  10.376 -0.9341  0.1780  0.4523
  899TIP3    H226893   2.563   0.731  10.523  1.8745 -0.3195  0.6908
  900TIP3   OH226894   6.661   3.703  10.807 -0.1547  0.6040 -0.1857
  900TIP3    H126895   6.581   3.682  10.854  0.4755 -0.4473  0.4621
  900TIP3    H226896   6.728   3.645  10.846  0.3976 -0.3375 -2.3744
  901TIP3   OH226897   3.475   2.768  11.572  0.1469  0.5051 -0.1901
  901TIP3    H126898   3.540   2.814  11.519  3.2100 -1.1551  1.8677
  901TIP3    H226899   3.475   2.814  11.656 -0.2997 -0.3691  0.3048
  902TIP3   OH226900   4.850   1.689   8.738 -0.3192  0.3634  0.4366
  902TIP3    H126901   4.821   1.745   8.809  1.2438  0.7153  0.8105
  902TIP3    H226902   4.812   1.728   8.659 -1.7656  0.1693  1.0083
  903TIP3   OH226903   1.968   1.533   9.554  0.4100  0.2134  0.7114
  903TIP3    H126904   1.892   1.502   9.505  0.7804  1.1620 -0.5004
  903TIP3    H226905   2.024   1.455   9.562 -0.5632 -0.4391  1.4413
  904TIP3   OH226906   6.301   1.745  11.174  0.0422 -0.4991 -0.2106
  904TIP3    H126907   6.316   1.658  11.137 -2.9217 -1.3168  0.2308
  904TIP3    H226908   6.330   1.738  11.264  1.6910 -0.3585 -0.7012
  905TIP3   OH226909   2.057   5.420  11.928 -0.1893  0.2355 -0.1551
  905TIP3    H126910   1.975   5.460  11.900 -0.6706 -0.1346  0.6571
  905TIP3    H226911   2.058   5.432  12.023  0.4488 -0.2142 -0.0962
  906TIP3   OH226912   5.321   4.350   9.941  0.2333  0.1325  0.8040
  906TIP3    H126913   5.365   4.376  10.022  1.5937  0.0846  0.1031
  906TIP3    H226914   5.231   4.381   9.952  0.4744  0.4069  2.1952
  907TIP3   OH226915   6.393   3.670   9.726  0.6137  0.2065  0.2295
  907TIP3    H126916   6.386   3.755   9.683 -0.6091 -0.7395 -1.5394
  907TIP3    H226917   6.392   3.691   9.820 -1.2293  2.0573 -0.1302
  908TIP3   OH226918   4.097   3.290  11.275 -0.1809  0.1418 -0.0057
  908TIP3    H126919   4.084   3.314  11.183 -1.7271  2.1013  0.6543
  908TIP3    H226920   4.178   3.334  11.300 -0.1072  0.1528 -0.2573
  909TIP3   OH226921   5.997   1.175  10.451 -0.1493 -0.2315  0.3079
  909TIP3    H126922   5.908   1.205  10.437 -0.2874 -0.3535  0.9018
  909TIP3    H226923   6.023   1.136  10.368  0.7746  3.3291 -1.2458
  910TIP3   OH226924   4.177   6.302  11.963 -0.0751  0.6069  0.6708
  910TIP3    H126925   4.138   6.390  11.972 -0.1205  0.5307  1.2888
  910TIP3    H226926   4.159   6.277  11.873 -0.2364  1.1557  0.5454
  911TIP3   OH226927   1.266   5.711  10.587  0.3510  0.6056 -0.3649
  911TIP3    H126928   1.222   5.775  10.531 -0.1340  0.7215  0.1462
  911TIP3    H226929   1.278   5.635  10.531  0.1525  0.8324 -0.7213
  912TIP3   OH226930   1.782   5.327  10.003  0.6532 -0.6002  0.0694
  912TIP3    H126931   1.737   5.243  10.001 -1.2675  0.3207  1.4407
  912TIP3    H226932   1.775   5.357  10.094  0.8353  1.2577 -0.4791
  913TIP3   OH226933   5.124   4.399  11.779  0.4183 -0.3917 -0.6826
  913TIP3    H126934   5.153   4.311  11.754  3.0793 -0.5317  2.2593
  913TIP3    H226935   5.165   4.457  11.716  1.4263 -1.0864 -0.6954
  914TIP3   OH226936   5.824   0.673   9.600 -0.6181 -0.1211  0.3281
  914TIP3    H126937   5.852   0.617   9.672 -0.8526 -0.6383  0.0197
  914TIP3    H226938   5.846   0.623   9.521 -0.8305  0.2219  0.0506
  915TIP3   OH226939   5.745   5.485  10.853 -0.4836 -0.2216  0.0051
  915TIP3    H126940   5.831   5.444  10.863 -0.5407  0.1775  2.9897
  915TIP3    H226941   5.712   5.452  10.770  2.1984 -1.0248 -0.8282
  916TIP3   OH226942   3.852   5.702   9.425  0.4350  0.0169  0.6075
  916TIP3    H126943   3.920   5.657   9.474  0.5190  0.1023  0.5701
  916TIP3    H226944   3.872   5.683   9.333 -1.2418 -2.3721  0.6409
  917TIP3   OH226945   1.080   2.327   9.138  0.0658  0.2704  0.8318
  917TIP3    H126946   1.132   2.393   9.185  1.6431 -0.4311  0.1593
  917TIP3    H226947   1.085   2.249   9.193  0.7506 -0.1423  0.2106
  918TIP3   OH226948   1.326   0.047  11.699 -0.2075  0.0567  0.0570
  918TIP3    H126949   1.326   0.128  11.751  1.5993  0.7298 -0.8918
  918TIP3    H226950   1.325  -0.023  11.764 -1.6486  0.8083  0.9036
  919TIP3   OH226951   4.775   3.881  10.799 -0.1631  0.1742 -0.4310
  919TIP3    H126952   4.766   3.815  10.729  1.2061  0.9234 -1.3564
  919TIP3    H226953   4.844   3.847  10.855  0.3755  0.6892 -0.7740
  920TIP3   OH226954   4.404   2.314  12.224 -0.1583 -0.1444 -0.8672
  920TIP3    H126955   4.473   2.252  12.200  1.1299  0.7492  0.3161
  920TIP3    H226956   4.323   2.272  12.195  0.6132 -2.5159  0.1143
  921TIP3   OH226957   2.609   4.946  11.242  0.1694  0.3673 -0.4700
  921TIP3    H126958   2.701   4.932  11.262  0.2651  0.2795 -0.9525
  921TIP3    H226959   2.561   4.898  11.310  0.4693  1.1880  0.3301
  922TIP3   OH226960   5.472   6.247  10.764 -0.6820  0.0910  0.3000
  922TIP3    H126961   5.498   6.255  10.672 -0.7636  0.6504  0.3215
  922TIP3    H226962   5.387   6.204  10.762  0.0811 -1.4559  0.2078
  923TIP3   OH226963   4.146   5.501  12.050  0.1758  0.3212  0.5645
  923TIP3    H126964   4.168   5.585  12.009  0.3783  0.5736  1.1779
  923TIP3    H226965   4.152   5.438  11.978 -2.6825  1.1745 -0.5991
  924TIP3   OH226966   6.160   0.823  10.396  0.2578  0.4053  0.3261
  924TIP3    H126967   6.244   0.778  10.390  0.4805  0.9447 -0.8426
  924TIP3    H226968   6.102   0.772  10.339 -0.7058 -0.9657  2.4215
  925TIP3   OH226969   6.150   4.894  10.778  0.1142  0.3359  0.0432
  925TIP3    H126970   6.077   4.832  10.780  1.0870 -0.9715 -1.5528
  925TIP3    H226971   6.197   4.871  10.697  3.0348  0.2422  1.6539
  926TIP3   OH226972   6.188   6.172   9.739 -0.4516  0.3344 -0.1936
  926TIP3    H126973   6.142   6.217   9.810  0.5533  0.2806  0.5097
  926TIP3    H226974   6.181   6.231   9.664 -0.2712  1.0591  0.3504
  927TIP3   OH226975   2.319   6.369   9.076 -0.5287 -0.0381  0.0088
  927TIP3    H126976   2.263   6.291   9.079  0.5985 -0.8735  0.1527
  927TIP3    H226977   2.343   6.384   9.168 -0.6881  0.4417 -0.0274
  928TIP3   OH226978   2.756   5.596  12.186 -0.1209 -0.2710 -0.0774
  928TIP3    H126979   2.765   5.687  12.158  0.9677 -0.0436  0.9381
  928TIP3    H226980   2.685   5.562  12.132 -0.1632  1.0091 -0.8886
  929TIP3   OH226981   4.292   0.076  11.792  0.2888 -0.2738  0.5263
  929TIP3    H126982   4.355   0.139  11.827 -0.0138 -0.0287  0.6292
  929TIP3    H226983   4.280   0.104  11.701  2.1072 -1.7074 -0.2183
  930TIP3   OH226984   4.341   0.119   9.729  0.9580 -0.1357  0.2944
  930TIP3    H126985   4.342   0.040   9.674 -3.2122  0.1690 -0.5975
  930TIP3    H226986   4.423   0.164   9.709  0.8452 -1.3520 -3.7660
  931TIP3   OH226987   3.247   0.531   9.683  0.5111 -0.4245 -0.0033
  931TIP3    H126988   3.181   0.480   9.635 -0.8477  0.4681  0.8456
  931TIP3    H226989   3.253   0.487   9.768  3.7632 -2.7179 -1.2170
  932TIP3   OH226990   5.718   3.460   9.820  0.2839 -0.6648 -0.2117
  932TIP3    H126991   5.733   3.408   9.899  0.3147 -0.6066 -0.1802
  932TIP3    H226992   5.701   3.395   9.752 -0.6226 -0.6937  0.0223
  933TIP3   OH226993   0.732   2.398   8.569 -0.2033  0.0460 -0.1604
  933TIP3    H126994   0.703   2.401   8.660  1.3185 -0.9241  0.3817
  933TIP3    H226995   0.741   2.305   8.549  0.8656  0.2777 -0.8324
  934TIP3   OH226996   2.745   1.246  10.066 -0.0178 -0.5211  0.1377
  934TIP3    H126997   2.750   1.236  10.161  1.9943  0.5744  0.2053
  934TIP3    H226998   2.746   1.157  10.032  1.1003 -0.9009  1.1115
  935TIP3   OH226999   2.151   2.973  10.051  0.1134  0.3844  0.3727
  935TIP3    H127000   2.222   2.936  10.102 -1.4460  1.2867  3.4115
  935TIP3    H227001   2.072   2.934  10.088 -1.1465  0.8198 -1.6577
  936TIP3   OH227002   4.771   2.638  10.803  0.2428  0.4511 -0.4791
  936TIP3    H127003   4.678   2.631  10.822  0.1887  0.1856 -0.8208
  936TIP3    H227004   4.781   2.724  10.762 -0.0422  0.0276 -1.4658
  937TIP3   OH227005   3.112   4.432   9.557 -0.4310  0.2573  0.6772
  937TIP3    H127006   3.137   4.363   9.495  0.0038  0.4150  0.6756
  937TIP3    H227007   3.156   4.409   9.638  3.1573  2.6473 -0.3444
  938TIP3   OH227008   2.396   4.770  11.668 -0.1267 -0.1510 -0.0897
  938TIP3    H127009   2.417   4.704  11.602  1.0695  0.8339 -0.7370
  938TIP3    H227010   2.318   4.736  11.712 -0.2994 -1.3606 -1.2657
  939TIP3   OH227011   5.070   1.514  11.610  0.0612  0.1102  0.1869
  939TIP3    H127012   5.108   1.600  11.593 -1.9769  0.6672 -2.2265
  939TIP3    H227013   4.976   1.527  11.597 -0.3256 -2.4443 -0.0430
  940TIP3   OH227014   1.379   6.021   9.539 -0.1379 -0.0393 -0.3672
  940TIP3    H127015   1.396   6.014   9.632  1.0017 -0.5197 -0.5888
  940TIP3    H227016   1.291   5.986   9.527  0.1647 -1.1019  0.3743
  941TIP3   OH227017   6.013   5.978  11.520 -0.1795  0.7687  0.0457
  941TIP3    H127018   6.071   5.931  11.461  0.0211  2.1079 -0.8638
  941TIP3    H227019   6.064   5.988  11.601  0.6387  1.4075 -0.5401
  942TIP3   OH227020   1.077   2.423  11.932 -0.5954 -0.7450 -0.3842
  942TIP3    H127021   1.157   2.381  11.962 -1.5284 -0.9467  2.0222
  942TIP3    H227022   1.016   2.350  11.917 -0.5323 -0.5586 -1.7263
  943TIP3   OH227023   4.756   4.475  10.234 -0.0582 -0.0956 -0.5562
  943TIP3    H127024   4.680   4.526  10.260  0.5864  0.6928 -0.1628
  943TIP3    H227025   4.765   4.408  10.301  0.2540  0.5179  0.0288
  944TIP3   OH227026   3.041   2.876  10.951 -0.1278  0.1381 -0.6437
  944TIP3    H127027   3.016   2.907  10.864  2.0289 -0.0239 -1.3786
  944TIP3    H227028   3.135   2.862  10.945 -0.0730 -0.7227  1.4791
  945TIP3   OH227029   5.255   2.171   9.529 -0.2512 -0.0970  0.2167
  945TIP3    H127030   5.322   2.104   9.517 -1.9891 -1.8486 -0.3051
  945TIP3    H227031   5.260   2.225   9.450 -1.6572 -2.3574 -1.5620
  946TIP3   OH227032   4.222   3.662   9.746 -0.2502 -0.1706 -0.4700
  946TIP3    H127033   4.259   3.654   9.658 -2.3062  0.2959 -1.4483
  946TIP3    H227034   4.139   3.709   9.733 -0.8747 -0.5686  1.6450
  947TIP3   OH227035   6.330   5.639  10.411 -0.6281  0.1512  0.3324
  947TIP3    H127036   6.313   5.659  10.319 -1.4838 -1.2434  0.1632
  947TIP3    H227037   6.277   5.702  10.459 -1.1043  0.1189 -0.1422
  948TIP3   OH227038   4.346   4.049  12.188  0.5306  0.4575 -0.1166
  948TIP3    H127039   4.298   3.991  12.128 -0.1774 -0.2693  1.1038
  948TIP3    H227040   4.303   4.134  12.178  1.2784  0.6938 -1.5844
  949TIP3   OH227041   0.055   5.282  10.119  0.6903  0.1195  0.3187
  949TIP3    H127042   0.055   5.186  10.126  1.7421  0.1452  0.9474
  949TIP3    H227043   0.116   5.301  10.048  0.6748  0.3295  0.3613
  950TIP3   OH227044   4.055   0.481  11.159 -0.0498 -0.8199 -0.0794
  950TIP3    H127045   4.008   0.402  11.186 -0.7895 -1.0719 -1.9927
  950TIP3    H227046   4.131   0.449  11.112  0.9416 -0.3800  1.1672
  951TIP3   OH227047   0.728   0.853  10.696  0.4897  0.2976  0.2706
  951TIP3    H127048   0.747   0.832  10.604 -0.2234  0.1206  0.1619
  951TIP3    H227049   0.755   0.776  10.745  0.9202  0.4123  0.2182
  952TIP3   OH227050   1.932   3.516  10.598  0.2686  0.6736 -0.3552
  952TIP3    H127051   1.887   3.518  10.683  0.2206  0.1075 -0.3622
  952TIP3    H227052   1.940   3.608  10.573  0.1054  0.8351  0.1721
  953TIP3   OH227053   1.746   4.766   9.828 -0.3559 -0.6737 -0.1441
  953TIP3    H127054   1.695   4.779   9.747 -1.5202 -0.3909  0.6077
  953TIP3    H227055   1.775   4.854   9.853  0.9328 -0.8877 -0.8186
  954TIP3   OH227056   2.460   4.443  10.527 -0.1351  0.0898 -0.4912
  954TIP3    H127057   2.421   4.426  10.613  0.0904 -0.6169 -0.5214
  954TIP3    H227058   2.544   4.396  10.529  0.7400  1.6062 -0.4188
  955TIP3   OH227059   2.598   3.938  10.600 -0.1454  0.0707 -0.2500
  955TIP3    H127060   2.683   3.901  10.577  0.3063  1.5666 -1.1804
  955TIP3    H227061   2.590   4.015  10.543 -0.0688  2.6528  2.8928
  956TIP3   OH227062   2.110   4.464  11.172  0.9037 -0.2551  0.0068
  956TIP3    H127063   2.052   4.533  11.140  1.5163  0.2248 -0.1096
  956TIP3    H227064   2.190   4.474  11.120  1.3143 -0.5044  0.5741
  957TIP3   OH227065   4.361   0.553  11.051 -0.0597  0.2253 -0.2411
  957TIP3    H127066   4.449   0.526  11.024 -0.3339  0.4529 -1.3922
  957TIP3    H227067   4.304   0.526  10.979 -0.6786  1.7389 -0.3441
  958TIP3   OH227068   1.283   2.839  11.838  0.0083  0.0177 -0.3679
  958TIP3    H127069   1.210   2.795  11.882 -0.9370  0.8975 -1.0263
  958TIP3    H227070   1.287   2.926  11.878  1.5336 -0.4446  0.5624
  959TIP3   OH227071   1.933   6.128   9.343  0.4971 -0.3537  0.4585
  959TIP3    H127072   1.975   6.173   9.416 -0.2763 -0.7914  1.1912
  959TIP3    H227073   1.862   6.186   9.316  0.8106 -0.1695  0.0109
  960TIP3   OH227074   2.426   3.460  11.908 -0.2544 -0.0696  0.3247
  960TIP3    H127075   2.473   3.483  11.988  1.6511 -0.2698 -0.6962
  960TIP3    H227076   2.420   3.543  11.860 -1.0831 -0.0237  0.4897
  961TIP3   OH227077   3.416   0.632   8.915  0.7335  0.0358 -0.4260
  961TIP3    H127078   3.416   0.549   8.867  0.4278 -0.8973  1.0976
  961TIP3    H227079   3.345   0.622   8.979  0.8446  1.3877 -0.0580
  962TIP3   OH227080   4.812   2.335  11.058  0.2278 -0.0864  0.2622
  962TIP3    H127081   4.740   2.339  11.120 -0.7188  0.3600 -0.8206
  962TIP3    H227082   4.878   2.396  11.093 -0.4225  0.4004  0.6644
  963TIP3   OH227083   6.385   5.010  10.208 -0.3394 -0.1188  0.2948
  963TIP3    H127084   6.376   5.063  10.287  3.2433  0.5389  0.4355
  963TIP3    H227085   6.468   4.964  10.219 -0.8962 -1.8971 -2.0628
  964TIP3   OH227086   5.040   2.906  10.583  0.1385 -0.1083 -0.1749
  964TIP3    H127087   5.046   2.862  10.498  0.7300 -1.1405  0.3845
  964TIP3    H227088   5.101   2.859  10.639 -1.6232 -0.6829  1.3570
  965TIP3   OH227089   0.480   0.203   9.645  0.2923 -0.4297 -0.2713
  965TIP3    H127090   0.544   0.166   9.585  1.6335 -0.9738  1.4292
  965TIP3    H227091   0.509   0.293   9.659 -1.3302  0.4714 -2.1452
  966TIP3   OH227092   2.683   5.991   9.778 -0.2025  0.4180  0.2105
  966TIP3    H127093   2.626   5.987   9.701  0.2361  0.1297 -0.1061
  966TIP3    H227094   2.649   5.923   9.837  1.1637 -1.3276 -0.9301
  967TIP3   OH227095   0.597   1.142   9.391 -0.2093  0.1714  0.1206
  967TIP3    H127096   0.566   1.207   9.329  1.1323  1.4809  0.7599
  967TIP3    H227097   0.618   1.192   9.470  3.5751 -0.4865 -0.2626
  968TIP3   OH227098   4.949   2.598   9.254 -0.4250 -0.0071  0.0873
  968TIP3    H127099   4.879   2.664   9.256  0.4014  0.9261 -0.6726
  968TIP3    H227100   5.030   2.648   9.265  0.1612 -1.0329  0.6168
  969TIP3   OH227101   6.119   5.084  11.382 -0.0499  0.1906  0.4250
  969TIP3    H127102   6.201   5.109  11.424 -0.2455 -0.5060  1.2628
  969TIP3    H227103   6.113   4.989  11.397  0.4928 -0.3600 -2.2895
  970TIP3   OH227104   6.453   0.140  11.687  0.1541  0.0329 -0.4773
  970TIP3    H127105   6.384   0.081  11.719  0.2922 -0.2832 -0.7486
  970TIP3    H227106   6.486   0.096  11.608  1.0843 -0.1298 -0.0103
  971TIP3   OH227107   4.230   6.419  10.786  0.0920 -0.0478  0.3999
  971TIP3    H127108   4.245   6.504  10.829 -2.0852 -0.3726  1.9986
  971TIP3    H227109   4.231   6.356  10.858 -0.8768 -1.0294 -0.4171
  972TIP3   OH227110   6.361   0.048  12.198 -0.3037 -0.0783  0.2232
  972TIP3    H127111   6.284   0.100  12.220 -1.7141 -1.0677 -1.9927
  972TIP3    H227112   6.412   0.106  12.141 -0.2773 -0.0311  0.2945
  973TIP3   OH227113   5.627   1.448   8.963  0.4134 -0.2331  0.3920
  973TIP3    H127114   5.664   1.370   8.919 -0.3182 -0.5752  0.3761
  973TIP3    H227115   5.541   1.459   8.923  0.9527  1.2855 -0.4388
  974TIP3   OH227116   6.271   3.318  11.379 -0.4103 -0.1141 -0.3713
  974TIP3    H127117   6.217   3.252  11.336 -0.2137 -0.3505 -0.2547
  974TIP3    H227118   6.333   3.268  11.433 -0.3324  0.1648 -0.1973
  975TIP3   OH227119   1.762   5.535   9.385 -0.1961 -0.3921  0.3927
  975TIP3    H127120   1.730   5.588   9.458  1.2468 -1.7309  2.0806
  975TIP3    H227121   1.695   5.466   9.375 -0.0216 -0.6495  0.9745
  976TIP3   OH227122   6.257   1.154  11.867  0.3919 -0.5182 -0.0290
  976TIP3    H127123   6.258   1.130  11.960  0.7533  0.2969  0.1864
  976TIP3    H227124   6.165   1.174  11.849  0.5218  0.6402  0.5128
  977TIP3   OH227125   1.416   1.136   9.124 -0.6373 -0.2599  0.1551
  977TIP3    H127126   1.391   1.227   9.136 -1.5511 -0.3377 -1.0039
  977TIP3    H227127   1.363   1.105   9.051  0.9181 -1.2219 -0.6453
  978TIP3   OH227128   2.193   5.626  10.510  0.7198  0.1167 -0.6070
  978TIP3    H127129   2.187   5.676  10.592  1.1801 -3.0101  1.5012
  978TIP3    H227130   2.105   5.629  10.473  0.3024  0.9219  0.3962
  979TIP3   OH227131   6.223   0.226  10.678  0.1458  0.0860  0.1917
  979TIP3    H127132   6.210   0.146  10.626  1.6959  0.1644 -0.3637
  979TIP3    H227133   6.172   0.293  10.633 -0.0685 -0.2903 -0.1248
  980TIP3   OH227134   6.344   5.185   9.346 -0.4249  0.1047  0.0124
  980TIP3    H127135   6.411   5.139   9.397  0.2532 -0.6348 -1.5004
  980TIP3    H227136   6.324   5.127   9.273 -2.2560  0.6078  0.0529
  981TIP3   OH227137   0.445   0.600  11.314 -0.0396 -0.4417  0.0069
  981TIP3    H127138   0.487   0.514  11.312  1.8054  0.4119  0.4438
  981TIP3    H227139   0.468   0.640  11.231  1.3157  0.5999  0.8464
  982TIP3   OH227140   2.408   4.044  11.593  0.0456  0.4002 -0.3058
  982TIP3    H127141   2.390   4.046  11.687 -0.3986  1.0528 -0.3978
  982TIP3    H227142   2.328   4.008  11.555  1.6380 -3.9196 -0.1468
  983TIP3   OH227143   4.120   0.504   9.685 -0.4260 -0.0422 -0.1714
  983TIP3    H127144   4.045   0.444   9.688 -0.3773 -0.0748  0.7559
  983TIP3    H227145   4.092   0.579   9.738  1.3235 -1.4001  2.8791
  984TIP3   OH227146   0.660   0.384  10.740  0.6155 -0.4109  0.2698
  984TIP3    H127147   0.633   0.309  10.688  1.8857  0.1331 -1.2664
  984TIP3    H227148   0.598   0.453  10.717  1.6240  0.0568 -1.1983
  985TIP3   OH227149   0.506   1.542  10.335 -0.4308  0.0249 -0.0697
  985TIP3    H127150   0.538   1.516  10.248  0.6066  0.8574  0.0386
  985TIP3    H227151   0.513   1.637  10.335  1.3874 -0.0482  1.5765
  986TIP3   OH227152   3.912   6.021   9.424 -0.3555  0.3247  0.2804
  986TIP3    H127153   3.897   5.978   9.508 -0.2878 -0.6135 -0.1763
  986TIP3    H227154   3.899   6.114   9.442 -2.2093 -0.0177  0.9288
  987TIP3   OH227155   5.087   6.305  11.148  0.2391 -0.1407 -0.4980
  987TIP3    H127156   5.100   6.282  11.056  1.3365  0.2083 -0.4423
  987TIP3    H227157   5.173   6.293  11.188  0.6124  2.8556 -0.2065
  988TIP3   OH227158   6.223   2.812  11.657 -0.0942  0.2698 -0.2306
  988TIP3    H127159   6.182   2.895  11.633 -0.1502  0.2736 -0.1222
  988TIP3    H227160   6.161   2.745  11.629 -0.7728  0.3146  1.0781
  989TIP3   OH227161   0.674   5.708  10.127 -0.3942 -0.0880  0.2678
  989TIP3    H127162   0.706   5.771  10.192  3.2087 -1.7829  0.3949
  989TIP3    H227163   0.682   5.623  10.170  0.2118 -1.0793 -1.6737
  990TIP3   OH227164   4.048   6.004   8.575  0.3225  0.1256 -0.0301
  990TIP3    H127165   4.055   6.096   8.601  1.4022 -0.4420  1.8451
  990TIP3    H227166   3.978   6.003   8.510 -0.2572  2.1557  0.4912
  991TIP3   OH227167   0.920   5.498  11.575 -0.4560 -0.1506 -0.0569
  991TIP3    H127168   0.945   5.441  11.647 -1.9859 -1.0171 -0.1796
  991TIP3    H227169   0.824   5.498  11.575 -0.5635  2.6826  0.1392
  992TIP3   OH227170   0.376   3.659  11.034  0.5590  0.6463 -0.3374
  992TIP3    H127171   0.445   3.675  10.970  0.4201  2.2512 -0.1449
  992TIP3    H227172   0.422   3.659  11.118  0.6168 -0.5374 -0.3606
  993TIP3   OH227173   6.603   4.511  10.598  0.2618  0.3321  0.1777
  993TIP3    H127174   6.668   4.548  10.658 -0.9092 -1.1514  2.5279
  993TIP3    H227175   6.626   4.418  10.593 -0.9482  0.0231  0.0856
  994TIP3   OH227176   6.174   6.189  12.051 -0.6350  0.3691  0.0977
  994TIP3    H127177   6.267   6.206  12.040 -0.6846  0.2405 -0.6009
  994TIP3    H227178   6.135   6.217  11.968 -1.0540 -0.7087 -0.0855
  995TIP3   OH227179   2.753   2.676  10.728  0.3377  0.0280 -0.1425
  995TIP3    H127180   2.827   2.616  10.742 -0.5991 -0.9285  0.9876
  995TIP3    H227181   2.738   2.715  10.814 -1.1758 -0.6731 -0.0449
  996TIP3   OH227182   0.279   0.287   9.473 -0.0635  0.2916  0.1619
  996TIP3    H127183   0.346   0.264   9.537 -0.6505 -0.7624  0.4051
  996TIP3    H227184   0.329   0.318   9.397  0.6570  0.6695  0.7657
  997TIP3   OH227185   4.627   4.818  10.003 -0.0368 -0.0103  0.1506
  997TIP3    H127186   4.627   4.743   9.945  1.6319  1.3143 -1.6717
  997TIP3    H227187   4.624   4.781  10.091 -2.7672 -2.0754 -0.6791
  998TIP3   OH227188   2.347   5.643  10.787  0.3825 -0.4471 -0.0586
  998TIP3    H127189   2.374   5.723  10.833 -2.0692  0.5413 -0.1689
  998TIP3    H227190   2.422   5.621  10.732  2.2391  0.0863  2.0979
  999TIP3   OH227191   6.697   6.296  10.014 -0.2530  0.1530  0.8023
  999TIP3    H127192   6.698   6.258  10.102  0.1664 -0.2591  0.6246
  999TIP3    H227193   6.767   6.250   9.967 -1.8577 -1.1604 -0.3956
 1000TIP3   OH227194   0.175   2.699   9.657 -0.4508 -0.3425  0.0390
 1000TIP3    H127195   0.265   2.680   9.680 -0.7988 -0.9355  0.9402
 1000TIP3    H227196   0.180   2.780   9.605  0.6033 -0.4791 -0.0858
 1001TIP3   OH227197   2.952   0.503   9.214  0.0658 -0.1029 -0.4119
 1001TIP3    H127198   2.953   0.554   9.296 -1.6664 -0.3678 -0.1694
 1001TIP3    H227199   2.859   0.484   9.200  0.1978  0.7450 -2.9625
 1002TIP3   OH227200   3.752   5.826   9.894  0.3314  0.7000 -0.1198
 1002TIP3    H127201   3.685   5.803   9.830  1.8071 -0.8156 -1.2041
 1002TIP3    H227202   3.737   5.767   9.967 -1.9690  3.0793  1.5043
 1003TIP3   OH227203   3.863   3.659  10.476 -0.4724  0.4953  0.2053
 1003TIP3    H127204   3.878   3.633  10.567  0.4300  1.6968  0.4264
 1003TIP3    H227205   3.796   3.727  10.482  0.2246  1.2200  0.0992
 1004TIP3   OH227206   1.229   5.505   9.869  0.1583  0.1537  0.1459
 1004TIP3    H127207   1.225   5.570   9.939 -0.1225 -0.2640  0.5176
 1004TIP3    H227208   1.143   5.509   9.827  0.8782  1.6358 -1.3056
 1005TIP3   OH227209   6.041   5.180  11.983  1.1310 -0.0724 -0.2578
 1005TIP3    H127210   5.963   5.207  12.032  1.1598  0.6487 -0.5972
 1005TIP3    H227211   6.056   5.089  12.009  0.6418  0.0366  0.4140
 1006TIP3   OH227212   0.246   1.200  12.068  0.2702  0.4325  0.0317
 1006TIP3    H127213   0.339   1.177  12.075  0.5055  0.9116 -1.2431
 1006TIP3    H227214   0.200   1.128  12.111  1.1615 -0.4656 -0.4698
 1007TIP3   OH227215   6.405   6.072  11.465  0.1442  0.2311 -0.1764
 1007TIP3    H127216   6.344   6.067  11.392  0.3883  1.2854 -0.4660
 1007TIP3    H227217   6.366   6.017  11.533 -0.5999  0.0692 -0.7271
 1008TIP3   OH227218   6.157   0.580  11.956 -0.2053 -0.3864  0.2707
 1008TIP3    H127219   6.120   0.507  12.006 -0.5666 -0.0662  0.4842
 1008TIP3    H227220   6.132   0.658  12.007 -2.1991  0.1089 -1.3576
 1009TIP3   OH227221   6.167   4.380  11.799  0.0102  0.0462  0.5203
 1009TIP3    H127222   6.168   4.343  11.711 -0.6419  1.1273  0.0381
 1009TIP3    H227223   6.255   4.366  11.833  0.8962  1.4049 -1.0930
 1010TIP3   OH227224   0.452   5.040   9.506  0.2092  0.2610 -0.2510
 1010TIP3    H127225   0.413   5.012   9.588 -1.3598  0.5636 -0.8578
 1010TIP3    H227226   0.533   5.084   9.532 -0.4084  0.6337  1.1520
 1011TIP3   OH227227   5.907   3.577  10.722  0.4535 -0.5103 -1.1785
 1011TIP3    H127228   5.851   3.647  10.755  1.5521 -0.4334  0.7059
 1011TIP3    H227229   5.860   3.497  10.745  1.1834 -0.4575  0.6916
 1012TIP3   OH227230   0.912   0.466   9.513 -0.0865  0.0539 -0.3192
 1012TIP3    H127231   0.990   0.508   9.478 -0.4269  2.0439  1.1400
 1012TIP3    H227232   0.945   0.409   9.583  0.0334  1.8304  1.1418
 1013TIP3   OH227233   6.081   6.127   9.057 -0.5351 -0.3023 -0.3040
 1013TIP3    H127234   6.045   6.203   9.011 -0.3536 -0.1624 -0.2139
 1013TIP3    H227235   6.120   6.163   9.136  0.8002 -0.3039 -0.9304
 1014TIP3   OH227236   2.739   0.581   9.567  0.2913  0.1808 -0.1018
 1014TIP3    H127237   2.652   0.609   9.594  0.5171  1.7786 -0.9249
 1014TIP3    H227238   2.729   0.488   9.545 -0.8093 -0.0840  1.3737
 1015TIP3   OH227239   0.323   6.238  10.975 -0.4242  0.1533 -0.4455
 1015TIP3    H127240   0.348   6.327  10.999  0.9927 -0.6942  1.4437
 1015TIP3    H227241   0.339   6.186  11.054 -0.7349 -1.8742 -1.6395
 1016TIP3   OH227242   6.233   0.421   8.671 -0.1846 -0.1054 -0.2314
 1016TIP3    H127243   6.323   0.394   8.691  0.9713  2.9722 -0.6909
 1016TIP3    H227244   6.235   0.446   8.579 -1.4184  0.3268 -0.1646
 1017TIP3   OH227245   5.313   2.777  11.663  0.4302  0.2108 -0.3028
 1017TIP3    H127246   5.396   2.825  11.661  1.1764 -1.0247  0.1722
 1017TIP3    H227247   5.249   2.839  11.628  1.3560  1.5521  0.2909
 1018TIP3   OH227248   6.412   0.625  11.882 -0.1055 -0.2718 -0.0119
 1018TIP3    H127249   6.453   0.553  11.835 -0.7284 -0.1652 -0.7368
 1018TIP3    H227250   6.322   0.595  11.896 -0.4876  0.5226 -0.6837
 1019TIP3   OH227251   3.987   3.603  11.071 -0.0982 -0.8096 -0.4702
 1019TIP3    H127252   3.939   3.601  10.988 -0.5777  0.2814 -0.2284
 1019TIP3    H227253   4.024   3.515  11.079 -0.7235 -1.1756 -1.4422
 1020TIP3   OH227254   1.668   0.364  10.844  0.3013 -0.3070  0.0843
 1020TIP3    H127255   1.635   0.291  10.791  0.7879 -0.1987 -0.3731
 1020TIP3    H227256   1.704   0.425  10.781 -0.3747  0.4838  0.4440
 1021TIP3   OH227257   2.963   4.182  12.114 -0.8539 -0.0354 -0.5115
 1021TIP3    H127258   2.876   4.223  12.113 -1.1472 -0.6571 -1.1843
 1021TIP3    H227259   2.946   4.088  12.120 -0.1901 -0.0980  0.6777
 1022TIP3   OH227260   1.949   3.526   9.803  0.4660 -0.1330 -0.0540
 1022TIP3    H127261   2.042   3.508   9.814  0.7068  0.5706 -0.8532
 1022TIP3    H227262   1.909   3.496   9.885  1.6259  1.1767  1.0513
 1023TIP3   OH227263   5.545   5.394  11.507 -0.7547 -0.1675  0.0997
 1023TIP3    H127264   5.577   5.306  11.491 -0.6820  0.1787 -1.9311
 1023TIP3    H227265   5.622   5.443  11.535 -0.5901 -0.5164  0.2667
 1024TIP3   OH227266   5.258   6.595  11.481 -0.1111  0.0876  0.1460
 1024TIP3    H127267   5.235   6.652  11.554  0.0797  3.3018 -2.1017
 1024TIP3    H227268   5.347   6.566  11.499  0.8070  2.7055  0.2135
 1025TIP3   OH227269   0.542   1.934  11.598 -0.4917 -0.1134 -0.4275
 1025TIP3    H127270   0.601   1.896  11.533 -1.5869  0.3729 -1.7544
 1025TIP3    H227271   0.469   1.969  11.547 -0.6449  1.7055  0.9254
 1026TIP3   OH227272   1.731   1.044   9.995  0.6038  0.3379 -0.3330
 1026TIP3    H127273   1.781   1.080  10.068 -1.1761  0.1780  1.0301
 1026TIP3    H227274   1.716   1.119   9.937  1.6585  0.5519 -0.3616
 1027TIP3   OH227275   2.417   1.975  10.818  0.1281  0.3528 -0.7434
 1027TIP3    H127276   2.475   1.917  10.867  1.5725  1.6563 -0.8507
 1027TIP3    H227277   2.458   1.984  10.732  0.5873  2.4131 -0.3689
 1028TIP3   OH227278   0.816   4.262  11.974 -0.0387 -0.1883  0.3156
 1028TIP3    H127279   0.890   4.203  11.980 -0.1662 -0.2822  1.0689
 1028TIP3    H227280   0.842   4.339  12.024 -0.3472 -0.1177  0.3725
 1029TIP3   OH227281   3.401   2.245   9.474  0.0931 -0.0310 -0.2158
 1029TIP3    H127282   3.473   2.183   9.469  0.9851  0.9997 -0.6377
 1029TIP3    H227283   3.341   2.218   9.404  1.1915  0.4368 -1.3752
 1030TIP3   OH227284   1.936   0.309   8.963 -0.0708 -0.7618  0.4647
 1030TIP3    H127285   1.989   0.372   9.011 -0.3985  0.8574 -1.1618
 1030TIP3    H227286   1.854   0.303   9.012 -0.3011  0.6414  0.2813
 1031TIP3   OH227287   1.655   2.356  10.231 -0.0205  0.2261 -0.5867
 1031TIP3    H127288   1.655   2.269  10.192 -0.4450 -0.0018 -0.0786
 1031TIP3    H227289   1.650   2.341  10.325  0.7013  0.7825 -0.4452
 1032TIP3   OH227290   5.415   3.048  11.400 -0.1885 -0.2291 -0.5104
 1032TIP3    H127291   5.456   2.966  11.372  0.9396  0.3153 -0.5268
 1032TIP3    H227292   5.398   3.096  11.319  0.0056 -0.0676 -0.4579
 1033TIP3   OH227293   5.936   2.451  10.635  0.1893  0.2737  0.0387
 1033TIP3    H127294   6.030   2.437  10.627  0.3451  1.2194  0.1118
 1033TIP3    H227295   5.918   2.443  10.729  0.4421  1.4762  0.2037
 1034TIP3   OH227296   1.005   5.346  11.306  0.5633 -0.5579  0.1683
 1034TIP3    H127297   0.973   5.322  11.393 -1.4545 -3.3278 -1.1647
 1034TIP3    H227298   1.029   5.262  11.266 -1.3197  0.2442 -2.9265
 1035TIP3   OH227299   3.630   4.525  10.845  0.4674  0.2788 -0.0713
 1035TIP3    H127300   3.684   4.577  10.786  1.5738 -0.7714 -0.0341
 1035TIP3    H227301   3.645   4.435  10.817  0.1940 -0.1558  1.1328
 1036TIP3   OH227302   1.709   5.643   9.998 -0.1742  0.4541 -0.5215
 1036TIP3    H127303   1.738   5.565   9.950 -2.2030 -1.3801  1.0657
 1036TIP3    H227304   1.630   5.671   9.953 -1.2303 -0.3730  0.7249
 1037TIP3   OH227305   1.049   1.411  11.198  0.5975 -1.0155 -0.0040
 1037TIP3    H127306   0.971   1.379  11.152 -0.0060  1.2619 -0.7105
 1037TIP3    H227307   1.113   1.341  11.189 -0.6218 -2.0039 -1.4395
 1038TIP3   OH227308   0.058   1.981  11.846 -0.0414 -0.2135  0.0118
 1038TIP3    H127309  -0.028   1.979  11.804  0.1402 -1.2444 -0.3487
 1038TIP3    H227310   0.074   1.890  11.872  0.8716 -0.0075  0.2142
 1039TIP3   OH227311   2.974   2.712   9.386  0.1279 -0.1567 -0.4041
 1039TIP3    H127312   3.055   2.719   9.335  2.0122  0.4645  2.4071
 1039TIP3    H227313   2.940   2.801   9.391 -0.1265 -0.2376 -0.6612
 1040TIP3   OH227314   3.802   6.231  11.959  0.3763 -0.2171 -0.3553
 1040TIP3    H127315   3.798   6.160  11.895 -1.2853 -1.1352  0.7121
 1040TIP3    H227316   3.713   6.239  11.992  0.9396  1.0605  0.9654
 1041TIP3   OH227317   4.950   3.695   9.735  0.2831  0.0571 -0.7104
 1041TIP3    H127318   4.901   3.692   9.653 -0.5385  2.3185 -0.3760
 1041TIP3    H227319   5.038   3.723   9.711  0.1173  0.4532 -0.8605
 1042TIP3   OH227320   2.213   0.435  12.413  0.4158 -0.2051  0.0291
 1042TIP3    H127321   2.284   0.467  12.357  1.5118 -2.6198 -0.0570
 1042TIP3    H227322   2.251   0.430  12.500  0.4988 -1.8360 -0.0792
 1043TIP3   OH227323   6.252   4.599   9.171  0.3830  0.5260 -0.3135
 1043TIP3    H127324   6.297   4.531   9.122 -0.6470 -0.0155 -0.5402
 1043TIP3    H227325   6.161   4.594   9.142  0.1188  1.4323  0.2947
 1044TIP3   OH227326   1.242   2.230  10.402 -0.0189 -0.0395 -0.1877
 1044TIP3    H127327   1.295   2.303  10.435 -0.7431  0.6426 -0.4767
 1044TIP3    H227328   1.189   2.269  10.332 -0.6618 -0.7646 -0.1205
 1045TIP3   OH227329   6.154   5.534  12.054  0.2257  0.6337  0.4163
 1045TIP3    H127330   6.236   5.577  12.080 -0.2190  2.5167 -1.1110
 1045TIP3    H227331   6.183   5.456  12.005  1.0432 -0.6023  2.7186
 1046TIP3   OH227332   2.933   5.988   9.842 -0.0245  0.3979  0.5585
 1046TIP3    H127333   2.847   5.984   9.802  0.6545 -1.6668 -0.8953
 1046TIP3    H227334   2.934   5.915   9.904  0.9591 -0.2041 -0.1343
 1047TIP3   OH227335   3.668   0.835  11.906 -0.0746  0.4143 -0.4078
 1047TIP3    H127336   3.738   0.861  11.966  1.2296 -0.2601 -1.5853
 1047TIP3    H227337   3.619   0.916  11.891  1.4425  1.3057 -0.8130
 1048TIP3   OH227338   6.447   6.180  12.040 -0.0861  0.2037  0.2146
 1048TIP3    H127339   6.485   6.207  12.124 -0.4756  1.1964  0.0902
 1048TIP3    H227340   6.516   6.196  11.976  0.5626 -1.4715  0.4407
 1049TIP3   OH227341   5.731   3.360  11.284  0.1465 -0.0405  0.4548
 1049TIP3    H127342   5.761   3.298  11.218  1.3678  0.2638  0.6996
 1049TIP3    H227343   5.805   3.369  11.345 -0.6765  0.2528  1.4528
 1050TIP3   OH227344   6.146   4.860  11.071  0.0446  0.4480 -0.4789
 1050TIP3    H127345   6.196   4.938  11.093 -2.4629  2.3345 -0.9717
 1050TIP3    H227346   6.111   4.877  10.984 -0.3717 -1.3692 -0.7228
 1051TIP3   OH227347   1.181   3.694   9.798 -0.2419 -0.2354  0.1507
 1051TIP3    H127348   1.205   3.705   9.706 -2.6480 -1.4009 -0.7014
 1051TIP3    H227349   1.260   3.718   9.846  1.4668 -0.6579 -2.2353
 1052TIP3   OH227350   1.493   4.111  10.880  0.0102 -0.1935 -0.2963
 1052TIP3    H127351   1.435   4.073  10.814 -1.3246 -1.3135  1.4332
 1052TIP3    H227352   1.526   4.036  10.929  1.4722  0.5710 -0.0361
 1053TIP3   OH227353   0.127   0.970  10.123  0.3240  0.5733 -0.3904
 1053TIP3    H127354   0.118   1.008  10.210 -1.1284  0.8086 -0.6264
 1053TIP3    H227355   0.197   1.021  10.082 -1.5741  3.1208 -0.7211
 1054TIP3   OH227356   1.639   1.638  10.592 -0.2691  0.1148 -0.0774
 1054TIP3    H127357   1.715   1.613  10.644 -1.3409  2.1877  2.7648
 1054TIP3    H227358   1.674   1.699  10.527  0.9059 -1.3575 -0.8720
 1055TIP3   OH227359   5.537   6.158  10.469 -0.0363 -0.3918  0.3708
 1055TIP3    H127360   5.606   6.154  10.402 -0.8157  3.1124 -0.8087
 1055TIP3    H227361   5.481   6.083  10.449  0.1087  0.1589 -2.5772
 1056TIP3   OH227362   4.232   3.024   9.772  1.2527 -0.1250  0.2873
 1056TIP3    H127363   4.327   3.008   9.771  1.7013  2.2003 -1.4294
 1056TIP3    H227364   4.204   3.011   9.682 -0.2183 -1.2707  0.8646
 1057TIP3   OH227365   1.497   3.029   9.942  0.1679  0.2920 -0.5861
 1057TIP3    H127366   1.444   2.952   9.961 -0.8890  0.9995 -0.6137
 1057TIP3    H227367   1.435   3.101   9.941  0.9670  0.9875 -1.7399
 1058TIP3   OH227368   4.414   2.639  11.386 -0.1208 -0.1951 -0.0584
 1058TIP3    H127369   4.498   2.672  11.419 -0.6861  0.3588  0.8974
 1058TIP3    H227370   4.401   2.685  11.303  0.3382  0.0129 -0.0173
 1059TIP3   OH227371   1.743   2.499   8.960  0.2130 -0.4097 -0.0058
 1059TIP3    H127372   1.674   2.543   8.911  0.0005  0.1520  0.7740
 1059TIP3    H227373   1.797   2.457   8.893 -1.7757 -2.2528 -0.5864
 1060TIP3   OH227374   1.951   6.589  10.747  0.1872 -0.5251 -0.3649
 1060TIP3    H127375   2.005   6.573  10.670  1.4782 -0.1298  0.4277
 1060TIP3    H227376   1.955   6.684  10.759 -0.4166 -0.5307 -0.0852
 1061TIP3   OH227377   4.459   0.117  10.510 -0.1630  0.7637 -0.1177
 1061TIP3    H127378   4.498   0.098  10.595 -0.8561  1.3266  0.3410
 1061TIP3    H227379   4.520   0.079  10.446  0.2002  0.0542  0.6339
 1062TIP3   OH227380   1.840   3.442  11.507 -0.4848 -0.1806  0.5041
 1062TIP3    H127381   1.909   3.380  11.533 -0.1996  0.0399  0.2820
 1062TIP3    H227382   1.822   3.420  11.415  0.0724  0.4833  0.2325
 1063TIP3   OH227383   6.275   1.733   9.784  0.1480 -0.1815  0.0987
 1063TIP3    H127384   6.270   1.809   9.842 -0.4485 -0.2388  0.1245
 1063TIP3    H227385   6.190   1.691   9.792 -0.7904  1.0013 -2.4360
 1064TIP3   OH227386   2.544   6.116  11.638 -0.3734 -0.4315  0.1302
 1064TIP3    H127387   2.451   6.122  11.615 -0.0087 -1.9415 -2.0466
 1064TIP3    H227388   2.552   6.032  11.683  0.0274 -0.6437 -0.3261
 1065TIP3   OH227389   4.942   3.481  11.102 -0.5611  0.2752 -0.1305
 1065TIP3    H127390   4.870   3.522  11.150 -0.3858 -1.3077  1.5967
 1065TIP3    H227391   4.900   3.434  11.031 -1.7667 -3.3464  2.7127
 1066TIP3   OH227392   3.312   1.942  11.421  0.4505 -0.2842  0.3112
 1066TIP3    H127393   3.234   1.909  11.376  0.8831 -1.1433  0.1790
 1066TIP3    H227394   3.378   1.950  11.352  0.1781  1.5222  0.2031
 1067TIP3   OH227395   0.425   0.722  11.635 -0.5548 -0.0768 -0.0186
 1067TIP3    H127396   0.499   0.665  11.653 -1.0376 -0.4724  0.7649
 1067TIP3    H227397   0.464   0.805  11.609  0.1550 -0.6064 -0.6764
 1068TIP3   OH227398   0.046   4.413  11.677  0.0169 -0.6778 -0.1631
 1068TIP3    H127399   0.060   4.412  11.583 -0.7939 -1.6652 -0.2938
 1068TIP3    H227400   0.002   4.330  11.696 -1.3266  0.2067  0.8425
 1069TIP3   OH227401   4.297   4.884  10.545  0.6593 -0.5412 -0.0791
 1069TIP3    H127402   4.323   4.958  10.491 -0.0296 -0.8282 -0.8173
 1069TIP3    H227403   4.361   4.883  10.617 -0.1360  1.6181  0.7346
 1070TIP3   OH227404   2.927   5.319  10.678 -0.0979 -0.1117  0.8237
 1070TIP3    H127405   2.945   5.287  10.589 -0.0507 -0.6825  1.0347
 1070TIP3    H227406   3.013   5.341  10.713 -0.1437  0.3960  0.6275
 1071TIP3   OH227407   3.926   4.900  10.806  0.8368  0.1993  0.1434
 1071TIP3    H127408   3.896   4.935  10.890  0.8041 -1.8958  1.0579
 1071TIP3    H227409   3.866   4.828  10.787  1.3187  0.1496 -1.3064
 1072TIP3   OH227410   2.410   2.228  11.077  0.6686  0.2035 -0.4945
 1072TIP3    H127411   2.445   2.247  11.164 -0.4414  0.3066 -0.0572
 1072TIP3    H227412   2.462   2.154  11.046  0.7358 -0.1666  0.4770
 1073TIP3   OH227413   0.014   0.689   8.135  0.2509 -0.1598 -0.2708
 1073TIP3    H127414   0.099   0.673   8.176 -0.8286 -0.6263  1.9855
 1073TIP3    H227415  -0.026   0.602   8.130 -0.6563  0.2230  0.1103
 1074TIP3   OH227416   3.027   1.411   9.751  0.0551  0.6765  0.5630
 1074TIP3    H127417   3.122   1.402   9.745 -0.0806 -0.2357 -0.5809
 1074TIP3    H227418   3.008   1.417   9.845  1.0839 -0.9133  0.8931
 1075TIP3   OH227419   4.801   5.067   9.087  0.4727  0.8077  0.5597
 1075TIP3    H127420   4.755   5.147   9.114 -3.0124 -0.0716 -2.0205
 1075TIP3    H227421   4.731   5.003   9.075  2.5662 -1.1775 -2.1601
 1076TIP3   OH227422   1.125   1.470  11.609 -0.3462 -0.3122  0.1407
 1076TIP3    H127423   1.139   1.561  11.636 -0.3826  0.0574 -1.0067
 1076TIP3    H227424   1.213   1.432  11.604 -0.3362 -0.3637  0.6882
 1077TIP3   OH227425   4.789   6.591  11.294  0.1844  0.2706  0.8078
 1077TIP3    H127426   4.861   6.568  11.353  1.1158 -0.4474 -0.5526
 1077TIP3    H227427   4.767   6.509  11.249 -2.1237  0.2579  1.8090
 1078TIP3   OH227428   6.072   2.503  11.514  0.1089 -0.1108  0.0184
 1078TIP3    H127429   6.017   2.481  11.590 -1.3744  3.5509  0.2116
 1078TIP3    H227430   6.018   2.479  11.438 -0.2014  0.1075  0.1673
 1079TIP3   OH227431   3.888   2.277  11.307  0.1230  0.3847  0.4296
 1079TIP3    H127432   3.808   2.294  11.357 -0.6326  1.0566 -0.9430
 1079TIP3    H227433   3.879   2.331  11.229  0.8772 -1.2336 -0.8324
 1080TIP3   OH227434   3.217   1.310  11.205  0.0396  0.1719 -0.1276
 1080TIP3    H127435   3.149   1.249  11.234 -0.5086  0.8464  0.0346
 1080TIP3    H227436   3.265   1.332  11.285 -1.1166  1.5975  0.1932
 1081TIP3   OH227437   3.372   5.084   9.212 -0.2304  0.5273  0.0965
 1081TIP3    H127438   3.301   5.035   9.171  0.2339  1.3011 -1.7560
 1081TIP3    H227439   3.378   5.165   9.161 -0.8419  2.4925  2.9210
 1082TIP3   OH227440   5.860   3.374  11.670  0.0886 -0.1876  0.4022
 1082TIP3    H127441   5.898   3.392  11.584 -0.0245 -0.8277  0.2077
 1082TIP3    H227442   5.796   3.443  11.684  0.9722  0.6237  0.5156
 1083TIP3   OH227443   2.911   4.473  11.323 -0.3573 -0.6665 -0.2498
 1083TIP3    H127444   2.850   4.519  11.381 -1.0665 -1.2923 -0.4775
 1083TIP3    H227445   2.996   4.513  11.341 -0.6738 -0.4011  0.7515
 1084TIP3   OH227446   2.514   1.066   8.371 -0.4593  0.2535 -0.0364
 1084TIP3    H127447   2.549   1.130   8.309 -1.0332 -0.9877 -1.6958
 1084TIP3    H227448   2.419   1.071   8.359 -0.5075 -1.0186 -0.3292
 1085TIP3   OH227449   3.783   5.021   9.771 -0.2805  0.2306  0.1590
 1085TIP3    H127450   3.739   5.039   9.688 -0.5686 -1.1534 -0.0089
 1085TIP3    H227451   3.873   4.998   9.746 -0.1487  0.5847  0.3000
 1086TIP3   OH227452   0.298   6.477   8.446 -0.5138 -0.4238 -0.0078
 1086TIP3    H127453   0.313   6.392   8.487  0.0498 -0.3507 -0.0561
 1086TIP3    H227454   0.356   6.478   8.369 -1.5569 -0.5603 -0.8116
 1087TIP3   OH227455   1.318   2.894   9.679  0.2427  0.4195 -0.0736
 1087TIP3    H127456   1.395   2.875   9.734  0.5001  3.1229  0.6776
 1087TIP3    H227457   1.341   2.975   9.633 -1.7158  0.6560 -0.7353
 1088TIP3   OH227458   3.263   1.411  12.229  0.1763  0.5700 -0.0613
 1088TIP3    H127459   3.276   1.505  12.219 -0.1793  0.7822  1.2923
 1088TIP3    H227460   3.336   1.382  12.283  0.0330  0.1590 -0.0828
 1089TIP3   OH227461   0.595   0.470  10.455 -0.4980  0.4848 -0.0520
 1089TIP3    H127462   0.592   0.483  10.360 -1.5231 -3.4771 -0.7458
 1089TIP3    H227463   0.509   0.433  10.476  0.4220 -0.5741  2.0601
 1090TIP3   OH227464   1.566   5.129  11.845 -0.3867  0.5308 -0.0939
 1090TIP3    H127465   1.600   5.218  11.834  0.2587  0.4104  0.7926
 1090TIP3    H227466   1.639   5.072  11.822 -0.8707  0.2154 -0.8920
 1091TIP3   OH227467   5.980   3.048  10.229 -0.1125  0.0337 -0.0825
 1091TIP3    H127468   6.050   2.982  10.230 -0.3904 -0.2592  0.9525
 1091TIP3    H227469   6.026   3.132  10.224  0.4108 -0.0816  1.9170
 1092TIP3   OH227470   1.822   6.355  10.697 -0.1287  0.0947  0.0665
 1092TIP3    H127471   1.856   6.437  10.732  0.4022 -0.2474  0.3486
 1092TIP3    H227472   1.849   6.355  10.605  0.5466 -0.1300  0.2648
 1093TIP3   OH227473   2.045   2.257  10.661 -0.1549 -0.2257 -0.2881
 1093TIP3    H127474   2.059   2.213  10.578 -1.6309 -0.0766 -0.6422
 1093TIP3    H227475   2.032   2.349  10.638 -0.9055 -0.2376  0.0686
 1094TIP3   OH227476   3.373   4.248  10.374 -0.4893  0.4327 -0.2709
 1094TIP3    H127477   3.301   4.268  10.315 -0.5532  0.3870 -0.2094
 1094TIP3    H227478   3.433   4.194  10.322 -0.6405  0.2284 -0.2345
 1095TIP3   OH227479   5.719   4.642  11.498 -0.2791  0.0364  0.0176
 1095TIP3    H127480   5.657   4.579  11.461 -1.5683  1.7121 -0.7860
 1095TIP3    H227481   5.666   4.698  11.555  0.8699  0.3232  0.8513
 1096TIP3   OH227482   0.196   4.117  11.969 -0.2414  0.4545  0.1485
 1096TIP3    H127483   0.265   4.126  11.903 -0.3664 -0.5398 -0.1359
 1096TIP3    H227484   0.115   4.136  11.922 -0.3938 -0.8888 -0.1663
 1097TIP3   OH227485   5.952   5.245  10.161  0.0194 -0.2375  0.1487
 1097TIP3    H127486   5.870   5.212  10.197 -0.4509 -0.2512 -0.8825
 1097TIP3    H227487   5.989   5.169  10.115  0.1189  0.0314 -0.2150
 1098TIP3   OH227488   6.287   4.520  12.067 -0.8875 -0.3112 -0.5621
 1098TIP3    H127489   6.225   4.459  12.108 -1.4050 -0.4272 -1.4927
 1098TIP3    H227490   6.358   4.464  12.036 -0.8149 -0.3065 -0.4009
 1099TIP3   OH227491   3.169   3.334  11.255  0.2233  0.2771 -0.2367
 1099TIP3    H127492   3.179   3.241  11.236  0.7782  0.1015  0.8404
 1099TIP3    H227493   3.223   3.378  11.190 -0.8415 -0.0833 -1.3997
 1100TIP3   OH227494   5.904   1.796  11.615  0.5060 -0.3982 -0.5121
 1100TIP3    H127495   5.962   1.793  11.538 -0.7690  1.1251 -1.5889
 1100TIP3    H227496   5.942   1.865  11.670 -0.5203  1.0260 -1.4981
 1101TIP3   OH227497   2.258   4.585   9.386  0.3902 -0.0012  0.6746
 1101TIP3    H127498   2.346   4.595   9.423  0.6965 -2.0050  0.5902
 1101TIP3    H227499   2.258   4.498   9.347 -1.9728 -0.5146  1.6159
 1102TIP3   OH227500   3.028   3.737  11.292  0.2979  0.5781 -0.1043
 1102TIP3    H127501   2.933   3.726  11.300  0.1368  1.6768 -0.3415
 1102TIP3    H227502   3.042   3.748  11.198  0.9936 -2.1831 -0.4091
 1103TIP3   OH227503   0.515   4.250   9.437 -0.3352 -0.2983 -0.4700
 1103TIP3    H127504   0.594   4.301   9.416 -0.2769 -0.4881 -0.7114
 1103TIP3    H227505   0.460   4.259   9.360 -0.6416  0.0027 -0.2208
 1104TIP3   OH227506   2.163   5.092  11.168 -0.6009  0.3642  0.4164
 1104TIP3    H127507   2.239   5.151  11.165 -0.6455  0.4566  0.8868
 1104TIP3    H227508   2.142   5.087  11.262 -0.0811 -1.0634  0.4768
 1105TIP3   OH227509   3.235   5.957   9.893 -0.4032  0.1610 -0.4169
 1105TIP3    H127510   3.212   5.944   9.985 -2.5752  3.1062 -0.3666
 1105TIP3    H227511   3.249   6.051   9.885  0.9446 -0.1614 -2.8874
 1106TIP3   OH227512   3.962   0.258  11.662 -0.1385  0.2198 -0.0785
 1106TIP3    H127513   3.867   0.258  11.656 -0.3008 -1.3511  1.7102
 1106TIP3    H227514   3.987   0.167  11.648  1.0843  0.5503 -0.1647
 1107TIP3   OH227515   2.712   5.913   8.696  0.6772  0.2785  0.1792
 1107TIP3    H127516   2.673   5.954   8.619 -1.8020 -0.8305  0.7163
 1107TIP3    H227517   2.754   5.834   8.663  2.4826  1.4364 -0.4076
 1108TIP3   OH227518   3.125   4.071  11.174  0.6976 -0.6203  0.0913
 1108TIP3    H127519   3.054   4.052  11.234  0.6094 -1.6600 -0.3250
 1108TIP3    H227520   3.138   4.166  11.181 -2.2165  0.0113 -1.4513
 1109TIP3   OH227521   2.751   6.156   9.488  0.3114  0.2902 -0.1266
 1109TIP3    H127522   2.668   6.189   9.522 -1.1587  0.2864 -3.2897
 1109TIP3    H227523   2.762   6.070   9.530 -1.1289  0.4193  0.5771
 1110TIP3   OH227524   1.946   0.329  11.879 -0.1793 -0.3027 -0.1920
 1110TIP3    H127525   2.013   0.383  11.920  0.5990 -1.1870 -0.2710
 1110TIP3    H227526   1.994   0.258  11.837 -1.0400  0.0223 -1.7815
 1111TIP3   OH227527   1.847   4.583  12.266  0.1569 -0.1437 -0.0246
 1111TIP3    H127528   1.802   4.522  12.209  0.7581 -0.2828 -0.3556
 1111TIP3    H227529   1.881   4.529  12.338 -1.0763  0.1093  0.7800
 1112TIP3   OH227530   3.474   2.536  10.948  0.0872 -0.1971 -0.0676
 1112TIP3    H127531   3.431   2.454  10.923 -1.8345  1.0507 -1.1770
 1112TIP3    H227532   3.468   2.538  11.043 -0.6109 -0.9646 -0.0758
 1113TIP3   OH227533   0.380   0.641   9.107  0.1879  0.2919 -0.4007
 1113TIP3    H127534   0.326   0.653   9.028 -0.6336  0.5443  0.1855
 1113TIP3    H227535   0.358   0.716   9.162  0.3953 -0.1334  0.2693
 1114TIP3   OH227536   2.655   4.637   9.791 -0.0599  0.1715 -0.1244
 1114TIP3    H127537   2.642   4.732   9.788 -3.1366 -0.1630  0.1916
 1114TIP3    H227538   2.610   4.604   9.714 -0.1739 -1.1269  0.4710
 1115TIP3   OH227539   2.785   4.559  10.043 -0.2265  0.1100  0.3650
 1115TIP3    H127540   2.751   4.610   9.970  0.9251 -0.2801 -0.4676
 1115TIP3    H227541   2.796   4.471  10.008 -1.2528 -0.5143  1.5006
 1116TIP3   OH227542   6.249   1.024   8.650  0.4964  0.8264  0.5171
 1116TIP3    H127543   6.297   1.096   8.609 -1.2317  2.7857  1.7225
 1116TIP3    H227544   6.298   1.007   8.731  0.9738  0.5382  0.1742
 1117TIP3   OH227545   2.377   2.203  11.538  0.3894  0.1020  0.2136
 1117TIP3    H127546   2.455   2.227  11.590 -0.0828  1.1287  0.4714
 1117TIP3    H227547   2.380   2.261  11.463  0.8227 -1.0805 -0.7184
 1118TIP3   OH227548   0.976   3.097  11.727  0.0218 -0.2396 -0.2555
 1118TIP3    H127549   0.909   3.166  11.722 -0.0671 -0.2611  0.6004
 1118TIP3    H227550   1.056   3.142  11.754  0.3665 -0.2199 -1.2460
 1119TIP3   OH227551   6.167   4.781   9.826  0.1149 -0.1383  0.5679
 1119TIP3    H127552   6.183   4.869   9.792  1.8249 -0.5236  0.2790
 1119TIP3    H227553   6.173   4.791   9.921  2.4739 -0.2874  0.4735
 1120TIP3   OH227554   3.388   1.254   8.910 -0.4030 -0.2255  0.6043
 1120TIP3    H127555   3.396   1.297   8.824  1.0679 -0.1870  0.7363
 1120TIP3    H227556   3.371   1.327   8.970 -0.7937 -0.1794  0.4459
 1121TIP3   OH227557   1.671   4.723  12.405  0.2276 -0.2816  0.3755
 1121TIP3    H127558   1.595   4.664  12.401  0.2623 -0.2733 -2.5235
 1121TIP3    H227559   1.745   4.668  12.379  0.6816  0.4384  0.1190
 1122TIP3   OH227560   6.554   0.614  11.507 -0.6124 -0.0837 -0.5043
 1122TIP3    H127561   6.531   0.685  11.567 -0.2011 -0.1720 -0.2395
 1122TIP3    H227562   6.531   0.534  11.554  2.8696 -0.3531  1.0282
 1123TIP3   OH227563   0.087   6.268   9.640  0.0842  0.2539  0.4846
 1123TIP3    H127564   0.132   6.261   9.556  1.2571 -0.2863  1.1339
 1123TIP3    H227565   0.024   6.196   9.641  0.7336 -0.3184  0.4557
 1124TIP3   OH227566   5.149   0.257   9.632 -0.2249 -0.0516 -0.0971
 1124TIP3    H127567   5.111   0.188   9.685  0.9754 -0.8926 -0.2955
 1124TIP3    H227568   5.075   0.294   9.583 -1.1482 -0.0179  1.2901
 1125TIP3   OH227569   1.278   6.418   9.286 -0.0709 -0.0961  0.2027
 1125TIP3    H127570   1.303   6.394   9.375  0.3227 -3.3579 -0.6584
 1125TIP3    H227571   1.357   6.457   9.248 -0.6132  2.5553  1.5454
 1126TIP3   OH227572   3.194   1.257  11.532  0.2413  0.0837  0.3382
 1126TIP3    H127573   3.157   1.178  11.492  1.7430 -0.6050  0.2191
 1126TIP3    H227574   3.289   1.245  11.524  0.5068  2.1825 -0.2004
 1127TIP3   OH227575   2.606   6.096  10.424 -0.3493 -0.2723  0.5228
 1127TIP3    H127576   2.660   6.047  10.485  0.4201 -1.5461 -1.1052
 1127TIP3    H227577   2.608   6.044  10.343 -2.7885  0.4129 -0.0564
 1128TIP3   OH227578   0.347   2.412   9.475 -0.1462 -0.0039 -0.4216
 1128TIP3    H127579   0.437   2.428   9.505 -0.4199 -0.5987  0.7849
 1128TIP3    H227580   0.358   2.379   9.386  1.1991 -3.7861  0.9107
 1129TIP3   OH227581   3.766   2.218  10.216  0.1812 -0.0117 -0.1724
 1129TIP3    H127582   3.797   2.305  10.239  1.6885 -0.1887 -1.3675
 1129TIP3    H227583   3.689   2.233  10.162  1.5975  0.7231 -2.1138
 1130TIP3   OH227584   1.684   0.707  10.040  0.1201 -0.1998  0.0134
 1130TIP3    H127585   1.704   0.627  10.088 -0.3694 -0.7200 -0.6260
 1130TIP3    H227586   1.685   0.776  10.106 -1.4198 -1.0202  0.9434
 1131TIP3   OH227587   4.800   2.917  10.731  0.4573  0.8904  0.0467
 1131TIP3    H127588   4.872   2.914  10.669 -0.0446 -0.1025 -0.5177
 1131TIP3    H227589   4.841   2.935  10.816  1.3702  0.2733 -0.2551
 1132TIP3   OH227590   0.496   2.098   9.625 -0.3608  0.0346  0.0688
 1132TIP3    H127591   0.453   2.091   9.540  0.8329  1.8740 -0.7620
 1132TIP3    H227592   0.425   2.095   9.688 -1.1987 -2.2699 -0.8950
 1133TIP3   OH227593   3.799   3.303   9.179  0.4001  0.4022  0.2943
 1133TIP3    H127594   3.863   3.281   9.112  2.1205  2.4742  1.1643
 1133TIP3    H227595   3.735   3.358   9.133 -0.7616 -1.5301 -0.5331
 1134TIP3   OH227596   4.509   1.411   9.436 -0.1693  0.0376 -0.2012
 1134TIP3    H127597   4.498   1.339   9.374 -2.0920 -0.9029  1.1485
 1134TIP3    H227598   4.456   1.482   9.399  0.9578  0.4701 -1.0386
 1135TIP3   OH227599   3.205   6.685   9.792 -0.2777  0.5584 -0.1237
 1135TIP3    H127600   3.180   6.593   9.782  0.7192  0.3280 -0.5910
 1135TIP3    H227601   3.212   6.718   9.702  0.6003  0.7469  0.0110
 1136TIP3   OH227602   0.367   4.097  11.124 -0.3402 -0.2300  0.3259
 1136TIP3    H127603   0.367   4.029  11.192 -3.4866 -0.9963 -0.3093
 1136TIP3    H227604   0.384   4.178  11.172  1.0340 -1.1450  1.4636
 1137TIP3   OH227605   6.245   4.590  11.549 -0.1909 -0.5818 -0.3973
 1137TIP3    H127606   6.213   4.638  11.625  2.4962  1.4116 -0.4111
 1137TIP3    H227607   6.239   4.652  11.477 -0.4514 -1.6534 -1.3326
 1138TIP3   OH227608   5.026   6.327  11.559  0.4733  0.6998  0.2945
 1138TIP3    H127609   5.026   6.423  11.553 -0.6135  0.6600 -0.6446
 1138TIP3    H227610   5.015   6.309  11.652 -1.1604  1.5130  0.2890
 1139TIP3   OH227611   3.818   3.031  11.285  0.0968 -0.2943  0.1969
 1139TIP3    H127612   3.809   3.052  11.378  0.5273 -0.4118  0.2660
 1139TIP3    H227613   3.827   3.117  11.242 -2.6022 -0.0462 -0.0443
 1140TIP3   OH227614   0.083   3.023  10.959 -0.8168  0.0589  0.0180
 1140TIP3    H127615   0.076   3.051  11.050  1.0098  2.0726 -0.3720
 1140TIP3    H227616   0.165   2.975  10.955 -1.0978 -0.3908 -0.4979
 1141TIP3   OH227617   4.455   1.295   8.322 -0.3853 -0.0635  0.3071
 1141TIP3    H127618   4.410   1.211   8.333  0.0781 -0.7761 -2.5334
 1141TIP3    H227619   4.544   1.278   8.353 -0.7270 -0.0816  1.3289
 1142TIP3   OH227620   0.343   6.666  10.627  0.0802 -0.2705 -0.0936
 1142TIP3    H127621   0.421   6.619  10.657  1.4828  1.1304 -1.3805
 1142TIP3    H227622   0.282   6.597  10.601  1.0263 -1.3943  0.5736
 1143TIP3   OH227623   0.101   1.741  11.073  0.3121 -0.7840 -0.2933
 1143TIP3    H127624   0.079   1.783  11.156  1.3437 -0.7602 -0.0095
 1143TIP3    H227625   0.023   1.691  11.049  0.1498 -1.1462  0.9176
 1144TIP3   OH227626   3.224   4.387  11.107  0.0357  0.6436  0.5862
 1144TIP3    H127627   3.239   4.474  11.145 -1.6505  1.4533 -0.4452
 1144TIP3    H227628   3.302   4.370  11.054  0.0145  1.9722  0.0735
 1145TIP3   OH227629   4.296   4.302  11.077 -0.1221 -0.1657  0.1038
 1145TIP3    H127630   4.380   4.338  11.049 -0.7741 -0.1935 -2.0727
 1145TIP3    H227631   4.278   4.345  11.161  1.8207  0.1662  0.4053
 1146TIP3   OH227632   3.769   2.193   9.699  0.2607  0.0631 -0.4429
 1146TIP3    H127633   3.821   2.226   9.772  1.1912 -1.6736 -0.2884
 1146TIP3    H227634   3.682   2.178   9.737  0.9782 -1.7321  0.6126
 1147TIP3   OH227635   2.708   4.306  12.150 -0.0138  0.5956 -0.1261
 1147TIP3    H127636   2.723   4.400  12.144 -0.4479  0.6791 -0.0067
 1147TIP3    H227637   2.616   4.299  12.177  0.3649  0.1653  1.1234
 1148TIP3   OH227638   0.213   6.224   8.746  0.1253 -0.0167  0.4510
 1148TIP3    H127639   0.129   6.210   8.703 -0.4454  0.3392  1.4050
 1148TIP3    H227640   0.229   6.143   8.794  0.3114 -0.0659  0.3073
 1149TIP3   OH227641   6.503   0.809  12.136 -0.1140  0.3434 -0.4010
 1149TIP3    H127642   6.575   0.768  12.184  0.1134 -1.0825 -1.8578
 1149TIP3    H227643   6.470   0.739  12.079 -2.9242  0.8313  0.4674
 1150TIP3   OH227644   3.235   3.821  11.761  0.4847  0.2264 -0.0742
 1150TIP3    H127645   3.161   3.840  11.704  0.5585  0.5142 -0.0715
 1150TIP3    H227646   3.292   3.897  11.754  0.6555  0.1192  0.1254
 1151TIP3   OH227647   0.261   2.043   9.771  0.5647  0.5127 -0.3437
 1151TIP3    H127648   0.209   1.964   9.788  2.6669 -1.2945 -1.8538
 1151TIP3    H227649   0.300   2.065   9.856 -0.0428 -0.0494  0.0895
 1152TIP3   OH227650   6.033   3.259   9.553 -0.4479  0.4852 -0.8251
 1152TIP3    H127651   5.966   3.195   9.531 -1.3379  0.6822  1.1956
 1152TIP3    H227652   5.990   3.344   9.541 -1.0379  0.6028  1.7001
 1153TIP3   OH227653   2.721   1.481  12.236  0.2274 -0.1251 -0.3030
 1153TIP3    H127654   2.724   1.406  12.296  0.1619  1.9814  2.6029
 1153TIP3    H227655   2.632   1.515  12.246  0.7543  1.2938 -0.1875
 1154TIP3   OH227656   2.415   0.367  11.630 -0.2800  0.1085  0.1573
 1154TIP3    H127657   2.503   0.403  11.623 -0.1297 -0.5201 -1.9160
 1154TIP3    H227658   2.413   0.296  11.566 -2.0791 -0.3509  0.6647
 1155TIP3   OH227659   5.575   6.461  10.913 -0.8333 -0.5573 -0.5278
 1155TIP3    H127660   5.562   6.377  10.868 -0.1481 -0.2024 -1.4105
 1155TIP3    H227661   5.503   6.516  10.881 -1.5426 -0.9219  0.3849
 1156TIP3   OH227662   5.384   0.642   9.010 -0.3382  0.3386  0.0040
 1156TIP3    H127663   5.349   0.730   9.025 -1.1487 -0.1231  0.9429
 1156TIP3    H227664   5.364   0.594   9.090  3.0849  0.1842  0.9266
 1157TIP3   OH227665   0.956   2.183  11.886  0.2794  0.2800 -0.2793
 1157TIP3    H127666   0.878   2.129  11.899 -0.2762  0.6430 -1.8799
 1157TIP3    H227667   1.028   2.130  11.920 -0.1506 -1.8214 -2.4093
 1158TIP3   OH227668   0.963   4.770   8.835  0.3846 -0.6442 -0.3094
 1158TIP3    H127669   0.899   4.755   8.904 -1.1284 -0.8237 -1.6938
 1158TIP3    H227670   1.043   4.795   8.881 -1.1675  1.5250  1.4201
 1159TIP3   OH227671   1.304   6.549   8.256 -0.6226  0.2589 -0.0522
 1159TIP3    H127672   1.345   6.481   8.202  1.2290  2.0252 -0.9482
 1159TIP3    H227673   1.212   6.522   8.260  0.2446 -3.0573  0.8345
 1160TIP3   OH227674   4.587   2.537   9.613 -0.2023  0.0707  0.2804
 1160TIP3    H127675   4.569   2.443   9.607 -2.1569  0.3739  0.6912
 1160TIP3    H227676   4.599   2.565   9.522  1.6577 -0.7600  0.2304
 1161TIP3   OH227677   0.708   1.347  10.460 -0.0128 -0.2937  0.2518
 1161TIP3    H127678   0.617   1.363  10.486  0.9483  0.4815  3.6546
 1161TIP3    H227679   0.746   1.435  10.454  0.9173 -0.6430  0.7891
 1162TIP3   OH227680   4.173   4.800  11.771  0.3361  0.1048 -0.2994
 1162TIP3    H127681   4.090   4.825  11.812  0.7750  0.5791  0.3211
 1162TIP3    H227682   4.150   4.777  11.681 -0.5029 -0.0203 -0.0580
 1163TIP3   OH227683   4.482   0.015  11.265  0.4201  0.3473  0.0861
 1163TIP3    H127684   4.489  -0.073  11.228 -2.7353 -0.3388  0.7447
 1163TIP3    H227685   4.477   0.000  11.360 -2.4139  0.8848  0.1117
 1164TIP3   OH227686   3.530   2.719  10.601 -0.4347 -0.0668 -0.8790
 1164TIP3    H127687   3.530   2.792  10.540  0.0842 -0.7817 -1.7465
 1164TIP3    H227688   3.544   2.760  10.687 -0.1995  0.8532 -1.3454
 1165TIP3   OH227689   3.562   3.873   9.095 -0.5936  0.3353  0.1995
 1165TIP3    H127690   3.489   3.840   9.149 -0.5721  0.9722  0.6210
 1165TIP3    H227691   3.575   3.804   9.029 -0.9040 -0.2591  0.7407
 1166TIP3   OH227692   1.346   3.746  10.548  0.9438 -0.1520  0.6099
 1166TIP3    H127693   1.266   3.734  10.497  1.0074  0.6605  0.3051
 1166TIP3    H227694   1.416   3.714  10.491  0.9922  0.5589  0.2569
 1167TIP3   OH227695   3.426   3.642  10.533  0.0637  0.2870  0.3176
 1167TIP3    H127696   3.415   3.728  10.574 -0.2027 -0.1043  1.0767
 1167TIP3    H227697   3.411   3.658  10.440 -1.2982  0.8229  0.6139
 1168TIP3   OH227698   5.219   0.080  11.671 -0.1613  0.2020 -0.1040
 1168TIP3    H127699   5.136   0.125  11.690 -0.6941 -0.5435 -0.6319
 1168TIP3    H227700   5.284   0.150  11.674 -0.4173  0.4624  2.6925
 1169TIP3   OH227701   2.195   4.563  10.823 -0.3830 -1.2249 -0.6491
 1169TIP3    H127702   2.248   4.576  10.902  0.8981 -1.5021 -1.4377
 1169TIP3    H227703   2.169   4.651  10.796  0.2412 -1.0262 -0.6202
 1170TIP3   OH227704   4.581   1.805  10.557 -0.6096  0.0510  0.0013
 1170TIP3    H127705   4.592   1.882  10.501  0.8245 -0.5177 -0.5458
 1170TIP3    H227706   4.669   1.770  10.567 -1.4935 -3.1469 -2.0918
 1171TIP3   OH227707   4.402   6.568  11.483  0.1703 -0.3610 -0.2001
 1171TIP3    H127708   4.440   6.480  11.473  0.4664 -0.5113  1.9206
 1171TIP3    H227709   4.456   6.610  11.550 -0.0804  1.4098 -1.0511
 1172TIP3   OH227710   2.376   4.354  11.651 -0.4385 -0.5489 -0.3195
 1172TIP3    H127711   2.373   4.372  11.745 -0.7222 -0.7128 -0.2963
 1172TIP3    H227712   2.305   4.292  11.636 -0.2630 -0.6824 -0.6093
 1173TIP3   OH227713   6.072   0.896  11.592 -0.2054  0.0647  0.2337
 1173TIP3    H127714   6.129   0.826  11.623 -2.6637 -1.7887  0.8268
 1173TIP3    H227715   6.121   0.936  11.520  2.1210 -0.9131  1.1684
 1174TIP3   OH227716   4.153   2.603  11.523 -0.7490  0.1797 -0.5413
 1174TIP3    H127717   4.085   2.662  11.490  0.0184  1.3399 -0.0766
 1174TIP3    H227718   4.228   2.617  11.466 -0.4323 -0.0680 -0.1956
 1175TIP3   OH227719   6.432   1.228  10.805 -0.2206  0.2530  0.2054
 1175TIP3    H127720   6.350   1.273  10.825  1.3820  3.7156 -0.3363
 1175TIP3    H227721   6.468   1.203  10.890 -0.9539  0.3991  0.5655
 1176TIP3   OH227722   3.193   1.596  10.729  0.5021  1.2255 -0.1899
 1176TIP3    H127723   3.106   1.556  10.731  0.5878  1.0472 -0.0012
 1176TIP3    H227724   3.230   1.578  10.816  2.1320 -1.8335 -1.3648
 1177TIP3   OH227725   3.701   5.648  10.625  0.3438  0.3630 -0.3024
 1177TIP3    H127726   3.666   5.578  10.569 -0.0905  1.1384 -1.0265
 1177TIP3    H227727   3.635   5.717  10.620  1.0234  1.0384 -0.0425
 1178TIP3   OH227728   5.596   4.892  11.699 -0.1654  0.8629  0.1458
 1178TIP3    H127729   5.518   4.932  11.738 -0.6411  0.2987 -0.2152
 1178TIP3    H227730   5.668   4.922  11.754 -0.6180  1.5168  0.3916
 1179TIP3   OH227731   2.740   3.943  11.777 -0.0351  0.3646  0.0298
 1179TIP3    H127732   2.739   3.905  11.865  1.1944 -1.6199 -0.7238
 1179TIP3    H227733   2.814   4.004  11.778  0.3843 -0.1301  0.2350
 1180TIP3   OH227734   0.604   1.288   9.778 -0.0975  0.4617 -0.3038
 1180TIP3    H127735   0.698   1.278   9.762 -0.4311 -0.1785 -2.0964
 1180TIP3    H227736   0.598   1.302   9.872  1.7119 -0.6280  0.0399
 1181TIP3   OH227737   6.311   5.296  11.042 -0.1751 -0.4408  0.0937
 1181TIP3    H127738   6.387   5.346  11.071 -1.5427  1.0509  1.2967
 1181TIP3    H227739   6.295   5.327  10.953 -1.2080  1.6067  0.9404
 1182TIP3   OH227740   3.249   6.490  10.058  0.6715 -0.8219 -0.4721
 1182TIP3    H127741   3.179   6.498  10.124  2.5786  1.2788  1.5098
 1182TIP3    H227742   3.216   6.539   9.983 -0.4819 -0.9614 -0.0861
 1183TIP3   OH227743   6.266   3.325   9.346  0.2040 -0.1857  0.2259
 1183TIP3    H127744   6.195   3.274   9.307 -1.8999  1.2828  1.9069
 1183TIP3    H227745   6.328   3.339   9.274 -1.1781 -1.5216 -1.3097
 1184TIP3   OH227746   5.149   4.025  10.920  0.1160  1.2873 -0.0236
 1184TIP3    H127747   5.222   4.027  10.982 -0.9299 -0.2874  1.3373
 1184TIP3    H227748   5.071   4.039  10.973 -0.7855  0.3205 -1.0306
 1185TIP3   OH227749   0.396   3.101  10.848 -0.0975 -0.3600 -0.0261
 1185TIP3    H127750   0.443   3.165  10.902  3.4616 -0.6590 -2.4030
 1185TIP3    H227751   0.406   3.018  10.895 -0.4595 -0.0065  0.6968
 1186TIP3   OH227752   3.407   0.946  11.774 -0.1951  0.3965  0.5794
 1186TIP3    H127753   3.317   0.980  11.781 -0.7022 -0.2813 -1.8672
 1186TIP3    H227754   3.397   0.851  11.772  0.4352  0.3348 -0.8811
 1187TIP3   OH227755   6.321   6.649   9.312  0.0857  0.0626 -0.4547
 1187TIP3    H127756   6.373   6.585   9.360  1.3622  0.7695 -0.8459
 1187TIP3    H227757   6.257   6.597   9.264  0.4116 -0.8339  0.0616
 1188TIP3   OH227758   2.968   3.033   8.959 -0.2269  0.3484  0.0067
 1188TIP3    H127759   2.996   3.049   9.049  1.4191 -1.5564 -0.0988
 1188TIP3    H227760   3.026   2.963   8.928 -2.6231 -1.0714 -1.5809
 1189TIP3   OH227761   1.643   2.200   9.412  0.3810  0.8082  0.7477
 1189TIP3    H127762   1.668   2.107   9.416 -0.9496  0.2846 -1.3420
 1189TIP3    H227763   1.709   2.240   9.355  0.4174  0.9411  0.8834
 1190TIP3   OH227764   1.440   5.985   9.267  0.1089  0.1093 -0.4623
 1190TIP3    H127765   1.437   5.984   9.363  1.8548 -0.1061 -0.3754
 1190TIP3    H227766   1.461   5.895   9.243 -2.3368 -0.3160 -1.1880
 1191TIP3   OH227767   5.847   4.663  11.845 -0.4061 -0.1630  0.0824
 1191TIP3    H127768   5.825   4.754  11.824 -0.0735  0.0980  0.8566
 1191TIP3    H227769   5.810   4.649  11.932  0.1128 -0.5737  0.2370
 1192TIP3   OH227770   4.634   0.733  11.195 -0.1667  0.5839 -0.0742
 1192TIP3    H127771   4.564   0.765  11.139 -1.1126  1.2178  1.4087
 1192TIP3    H227772   4.597   0.734  11.283  1.8898  1.5038  0.8384
 1193TIP3   OH227773   2.786   2.000  10.566  0.1263  0.1312  1.0105
 1193TIP3    H127774   2.873   1.994  10.605 -0.0502  2.0424  1.8147
 1193TIP3    H227775   2.770   2.094  10.557 -1.7011 -0.1846  0.5020
 1194TIP3   OH227776   5.038   3.459  10.653  0.1426  0.4148 -0.1992
 1194TIP3    H127777   5.130   3.479  10.672  0.9040 -1.5029 -1.5638
 1194TIP3    H227778   5.010   3.529  10.594  0.8244  0.8331 -0.0362
 1195TIP3   OH227779   3.049   0.327   9.583 -0.4526  0.1588  0.2296
 1195TIP3    H127780   3.004   0.323   9.668 -0.2344 -1.5845  0.3155
 1195TIP3    H227781   2.981   0.307   9.519 -0.8744  2.6130 -0.1659
 1196TIP3   OH227782   0.152   0.710   9.722  0.0968 -0.2434  0.4832
 1196TIP3    H127783   0.236   0.684   9.685 -0.1980 -0.6955  0.1228
 1196TIP3    H227784   0.152   0.674   9.810  0.5537  0.3265  0.7231
 1197TIP3   OH227785   5.150   2.423  11.822 -0.5081 -0.1086  0.0420
 1197TIP3    H127786   5.218   2.425  11.754  1.0523 -0.3776  1.5184
 1197TIP3    H227787   5.129   2.331  11.833  0.8258 -0.3054  1.3488
 1198TIP3   OH227788   5.132   4.670  11.681  0.5710  0.2876 -0.2632
 1198TIP3    H127789   5.223   4.693  11.659  1.2498 -0.3397  1.7082
 1198TIP3    H227790   5.100   4.744  11.732  0.6267 -0.3131  0.6619
 1199TIP3   OH227791   0.801   2.974  10.686  0.2132  0.0596  0.1598
 1199TIP3    H127792   0.711   2.978  10.719  0.4713  0.2438  0.8745
 1199TIP3    H227793   0.814   3.057  10.641 -0.1254 -0.1630 -0.3455
 1200TIP3   OH227794   2.076   3.145  12.213  0.0123  0.1090 -0.3150
 1200TIP3    H127795   2.021   3.212  12.254 -0.2412  0.7349 -1.6210
 1200TIP3    H227796   2.098   3.085  12.284  0.2390  1.5675  0.8864
 1201TIP3   OH227797   1.512   4.057  10.358 -0.5759  0.0906 -0.1325
 1201TIP3    H127798   1.549   4.142  10.380 -1.4787  1.4241 -3.1992
 1201TIP3    H227799   1.431   4.051  10.410  0.2152  0.4197  1.1635
 1202TIP3   OH227800   3.337   2.240  11.249 -0.1968 -0.3872  0.4446
 1202TIP3    H127801   3.308   2.177  11.183 -1.2943  1.7888 -1.2985
 1202TIP3    H227802   3.257   2.267  11.294 -0.3222  1.9912 -1.0087
 1203TIP3   OH227803   6.316   5.095  10.471 -0.5232  0.4167  0.5112
 1203TIP3    H127804   6.228   5.126  10.451 -1.0201 -0.5805  1.0352
 1203TIP3    H227805   6.321   5.098  10.567 -0.3947 -0.5630  0.5462
 1204TIP3   OH227806   5.092   5.073  10.987  0.3251  0.6438  0.2492
 1204TIP3    H127807   5.031   5.027  10.929  0.3584 -1.0401  1.4664
 1204TIP3    H227808   5.036   5.120  11.049  0.1576 -1.3247  1.6967
 1205TIP3   OH227809   5.383   0.374   9.706 -0.4812  0.7417 -0.1591
 1205TIP3    H127810   5.353   0.381   9.797 -1.4126 -0.3877 -0.3549
 1205TIP3    H227811   5.318   0.318   9.664  0.7699 -0.0016 -1.1477
 1206TIP3   OH227812   3.372   2.539  11.585  0.2101 -0.3681 -0.4247
 1206TIP3    H127813   3.405   2.628  11.590 -0.0391 -0.2716 -0.4782
 1206TIP3    H227814   3.413   2.502  11.506  1.1996 -0.6723  0.2173
 1207TIP3   OH227815   1.870   1.714  11.653 -0.0855 -0.4131  0.0450
 1207TIP3    H127816   1.904   1.774  11.720  0.8310  1.2713 -1.8476
 1207TIP3    H227817   1.943   1.701  11.593 -1.4935 -0.1523 -1.8019
 1208TIP3   OH227818   5.219   1.065  11.904  0.7512 -0.4401 -0.0933
 1208TIP3    H127819   5.281   1.111  11.847  1.2716 -1.0302 -0.0090
 1208TIP3    H227820   5.139   1.118  11.900  1.2321  0.2805 -0.2690
 1209TIP3   OH227821   4.824   6.316  11.139  0.1375  0.0460 -0.0997
 1209TIP3    H127822   4.912   6.289  11.164  0.2531 -1.6841 -2.1318
 1209TIP3    H227823   4.789   6.242  11.090 -2.0913  1.0909 -0.2189
 1210TIP3   OH227824   3.809   6.283  10.697  0.2998 -0.0934  1.0059
 1210TIP3    H127825   3.764   6.286  10.612  0.6599 -0.1072  0.8127
 1210TIP3    H227826   3.902   6.281  10.674  0.4614 -4.2031  1.1811
 1211TIP3   OH227827   0.787   2.360  11.391 -0.2475  0.0985  0.2655
 1211TIP3    H127828   0.737   2.389  11.467 -1.5330 -0.5873 -0.2824
 1211TIP3    H227829   0.737   2.286  11.356  0.7204 -0.0844 -0.7987
 1212TIP3   OH227830   6.435   1.135   8.984 -0.0675 -0.2494 -0.5945
 1212TIP3    H127831   6.446   1.056   8.931 -0.9596 -0.2337 -0.8284
 1212TIP3    H227832   6.423   1.102   9.073  0.9767 -0.2993 -0.4639
 1213TIP3   OH227833   3.554   2.515  11.885 -0.3098 -0.3755 -0.2874
 1213TIP3    H127834   3.623   2.552  11.830 -1.5992 -0.5512 -2.0890
 1213TIP3    H227835   3.499   2.465  11.825 -2.2940  0.1702  0.9758
 1214TIP3   OH227836   2.301   6.270   9.727  0.6074  0.0810  0.2399
 1214TIP3    H127837   2.254   6.351   9.707  0.8769  0.7362  2.1287
 1214TIP3    H227838   2.292   6.259   9.821  2.8185 -0.6739  0.4080
 1215TIP3   OH227839   2.121   4.949   9.900 -0.5947 -0.5569 -0.7134
 1215TIP3    H127840   2.139   4.857   9.883 -2.8845 -0.7222 -2.7514
 1215TIP3    H227841   2.037   4.966   9.857 -2.2330  1.5278  2.7864
 1216TIP3   OH227842   6.149   2.870  12.140  0.1658  0.4383  0.6170
 1216TIP3    H127843   6.193   2.949  12.107  0.9362  0.2472  1.1622
 1216TIP3    H227844   6.060   2.876  12.105  0.4545  1.1297 -0.0278
 1217TIP3   OH227845   3.374   6.619  12.410 -0.6891 -0.2707  0.0029
 1217TIP3    H127846   3.406   6.611  12.320 -0.5539 -0.8969  0.0990
 1217TIP3    H227847   3.374   6.713  12.428  0.8137 -0.2212 -0.1133
 1218TIP3   OH227848   5.296   2.510  11.607  0.0956  0.3831 -0.3812
 1218TIP3    H127849   5.310   2.521  11.513  0.5306  0.6763 -0.2819
 1218TIP3    H227850   5.319   2.594  11.645  0.7223  0.0132  0.0804
 1219TIP3   OH227851   3.904   1.029  11.910  0.2940  0.0302 -0.0435
 1219TIP3    H127852   3.988   1.067  11.882 -0.7048  2.6899  0.3356
 1219TIP3    H227853   3.913   1.017  12.004  0.3554  0.0319 -0.0489
 1220TIP3   OH227854   6.277   4.849   9.341  0.0198 -0.0656 -0.1699
 1220TIP3    H127855   6.293   4.762   9.305 -0.8606 -0.7697  1.0727
 1220TIP3    H227856   6.274   4.906   9.264 -0.8638 -1.3557 -1.1401
 1221TIP3   OH227857   6.569   0.822  10.961 -0.4018  0.3099  0.0086
 1221TIP3    H127858   6.580   0.839  11.055  1.1250  0.5667 -0.2012
 1221TIP3    H227859   6.574   0.909  10.921 -0.2709  0.1250 -0.3766
 1222TIP3   OH227860   2.549   2.476  11.007  0.3167 -0.2694 -0.0779
 1222TIP3    H127861   2.490   2.404  11.028  0.6160 -0.4608  0.1113
 1222TIP3    H227862   2.612   2.438  10.945  1.8255 -0.7991  1.7064
 1223TIP3   OH227863   1.358   3.833  11.829  0.2170 -0.0107 -0.6042
 1223TIP3    H127864   1.352   3.785  11.746 -1.5471 -0.4369 -0.2755
 1223TIP3    H227865   1.268   3.836  11.861  0.7679  0.7663  0.9627
 1224TIP3   OH227866   6.404   2.430   9.424  0.4034  0.0163 -0.2778
 1224TIP3    H127867   6.496   2.444   9.402  0.7209 -0.9030  0.3929
 1224TIP3    H227868   6.361   2.418   9.340  0.9572  0.1109 -0.5797
 1225TIP3   OH227869   5.361   4.604  11.160  0.2660 -0.1127  0.0930
 1225TIP3    H127870   5.291   4.663  11.189  0.5262 -0.3979  1.3555
 1225TIP3    H227871   5.415   4.658  11.101  1.8871  1.7562  3.0275
 1226TIP3   OH227872   0.688   0.174  10.131  0.3474 -0.1508 -0.2191
 1226TIP3    H127873   0.739   0.190  10.051  0.8641  0.8534  0.2815
 1226TIP3    H227874   0.624   0.245  10.132  0.7178  0.1814  0.5438
 1227TIP3   OH227875   4.888   0.318   8.861  0.0022  0.2162  0.2495
 1227TIP3    H127876   4.961   0.363   8.903 -0.1710  0.7742 -0.0366
 1227TIP3    H227877   4.889   0.230   8.899  1.8143 -0.3085 -0.9118
 1228TIP3   OH227878   4.889   2.369  11.582 -0.5060 -0.8343 -0.4270
 1228TIP3    H127879   4.916   2.303  11.517 -0.1652 -1.6177  0.4942
 1228TIP3    H227880   4.835   2.320  11.644 -2.1039  0.2253 -0.9198
 1229TIP3   OH227881   4.448   1.233  10.078  0.5393  0.1080 -0.1432
 1229TIP3    H127882   4.422   1.313  10.124 -0.7934 -0.3775 -0.0251
 1229TIP3    H227883   4.470   1.171  10.148  1.8570  0.4418 -0.2382
 1230TIP3   OH227884   6.176   1.900  10.270 -0.1273  0.3170  0.1859
 1230TIP3    H127885   6.151   1.977  10.218 -0.9016  1.5129  2.2033
 1230TIP3    H227886   6.249   1.931  10.324  1.2176 -1.1388 -0.7113
 1231TIP3   OH227887   3.213   4.786   9.735  0.0867 -0.1222  1.0488
 1231TIP3    H127888   3.128   4.827   9.722  0.1548 -0.6748 -2.0887
 1231TIP3    H227889   3.277   4.854   9.714  0.3105 -0.5316  0.3556
 1232TIP3   OH227890   3.261   1.148  10.072 -0.6578 -0.4641  0.2031
 1232TIP3    H127891   3.238   1.150  10.165 -1.4223  0.0535  0.0064
 1232TIP3    H227892   3.189   1.103  10.029 -0.1760 -0.9552 -0.1145
 1233TIP3   OH227893   5.070   1.316  11.802  0.0342 -0.5221 -0.3655
 1233TIP3    H127894   5.140   1.357  11.853  0.0371 -0.1187 -0.6825
 1233TIP3    H227895   5.060   1.373  11.726 -0.5399 -0.6553 -0.3970
 1234TIP3   OH227896   6.402   1.836  10.584  0.3025  0.2834  0.0294
 1234TIP3    H127897   6.430   1.777  10.514 -3.0387 -1.2840 -0.1968
 1234TIP3    H227898   6.471   1.830  10.650  1.5525 -1.4682 -1.3526
 1235TIP3   OH227899   3.594   4.137  10.287 -0.1982  0.3057  0.0873
 1235TIP3    H127900   3.667   4.154  10.347 -0.4731 -0.7593  0.7502
 1235TIP3    H227901   3.626   4.166  10.202  0.6850  0.6374  0.5172
 1236TIP3   OH227902   0.580   5.794   9.415 -0.2323 -0.6005  0.2516
 1236TIP3    H127903   0.593   5.889   9.419 -0.1208 -0.5899 -0.3192
 1236TIP3    H227904   0.662   5.760   9.379 -0.2335 -0.9265  0.5483
 1237TIP3   OH227905   5.068   1.693  10.206  0.3357 -0.1783  0.6195
 1237TIP3    H127906   5.124   1.766  10.180  0.7750 -1.1352 -1.2933
 1237TIP3    H227907   5.105   1.617  10.162 -1.7846 -1.0644  0.2358
 1238TIP3   OH227908   1.024   5.580  10.285  0.2186 -0.8290  0.5844
 1238TIP3    H127909   0.934   5.562  10.258 -0.2084  0.9279  0.7462
 1238TIP3    H227910   1.062   5.493  10.302 -0.7934 -1.7172 -1.4431
 1239TIP3   OH227911   2.096   6.410  12.311 -0.0306 -0.1408 -0.2333
 1239TIP3    H127912   2.032   6.480  12.325  0.3003 -0.2074  2.1167
 1239TIP3    H227913   2.178   6.445  12.348  1.0086 -0.5435 -2.0332
 1240TIP3   OH227914   5.521   2.441  11.947 -0.2265  0.2106  0.2173
 1240TIP3    H127915   5.476   2.522  11.921  0.4149  0.2841 -0.7349
 1240TIP3    H227916   5.489   2.422  12.035 -1.7369  0.5219 -0.2456
 1241TIP3   OH227917   3.800   0.441  10.380  0.8800  0.9992 -0.0659
 1241TIP3    H127918   3.798   0.380  10.306 -1.3589  1.4597 -0.4630
 1241TIP3    H227919   3.868   0.504  10.356  1.2282  0.2945 -1.0083
 1242TIP3   OH227920   4.503   6.376  10.809 -0.9509  0.1137 -0.2332
 1242TIP3    H127921   4.410   6.377  10.787 -0.8909  2.5536 -0.5756
 1242TIP3    H227922   4.541   6.447  10.758  1.1705 -0.9488 -0.2448
 1243TIP3   OH227923   2.400   4.427  12.258  0.0177  0.0983  0.2084
 1243TIP3    H127924   2.461   4.477  12.204 -0.2715  0.5150  0.2572
 1243TIP3    H227925   2.317   4.473  12.248 -0.6152 -1.2279 -0.9177
 1244TIP3   OH227926   5.654   5.813   8.691 -0.3117  0.1834 -0.4309
 1244TIP3    H127927   5.576   5.829   8.744  0.2593  0.1271  0.4479
 1244TIP3    H227928   5.723   5.862   8.734 -0.0988  1.2830 -1.9340
 1245TIP3   OH227929   2.228   4.054  10.606  0.0710  0.5263 -0.0322
 1245TIP3    H127930   2.134   4.041  10.611  0.3935 -2.0234  1.6378
 1245TIP3    H227931   2.245   4.128  10.665 -0.8926  1.1963 -0.5764
 1246TIP3   OH227932   0.984   1.470   9.855  0.0088  0.1226  0.2793
 1246TIP3    H127933   0.921   1.491   9.924  0.6754  2.2626  0.3395
 1246TIP3    H227934   0.931   1.452   9.778 -0.7100 -0.5453  0.9151
 1247TIP3   OH227935   0.598   2.558  11.210  0.2833 -0.0854  0.2767
 1247TIP3    H127936   0.535   2.492  11.181  0.2458 -0.2165  0.6504
 1247TIP3    H227937   0.681   2.511  11.215  0.4914  0.1747 -0.5714
 1248TIP3   OH227938   4.046   3.188  12.049  0.3457  0.0642  0.0636
 1248TIP3    H127939   3.965   3.210  12.095 -0.5276 -2.0543 -0.3849
 1248TIP3    H227940   4.109   3.168  12.119 -0.2665 -0.7901  0.3741
 1249TIP3   OH227941   5.034   0.672  10.655 -0.0671  0.3849 -0.0554
 1249TIP3    H127942   4.952   0.711  10.623 -0.0967  0.3830  0.0158
 1249TIP3    H227943   5.007   0.620  10.731 -0.6148 -2.8113 -2.2374
 1250TIP3   OH227944   5.200   5.856   9.416  0.5803 -0.0370  0.2818
 1250TIP3    H127945   5.261   5.893   9.352  0.0937 -0.0046 -0.1681
 1250TIP3    H227946   5.250   5.788   9.460  0.8724 -0.1627 -0.2408
 1251TIP3   OH227947   5.825   6.540  10.978  0.6957  0.0983  0.3081
 1251TIP3    H127948   5.807   6.569  11.067 -0.2168  0.8262 -0.0870
 1251TIP3    H227949   5.744   6.496  10.950  0.9501 -0.0742 -0.1747
 1252TIP3   OH227950   1.963   1.603  10.098  0.1498 -0.3918 -0.3159
 1252TIP3    H127951   1.995   1.551  10.025 -1.7794  0.9181 -2.2146
 1252TIP3    H227952   1.895   1.549  10.139 -0.9086  0.0498 -1.4450
 1253TIP3   OH227953   2.440   3.846  10.819  0.2741  0.0332  0.5984
 1253TIP3    H127954   2.454   3.752  10.820 -2.1104 -0.3873  0.0174
 1253TIP3    H227955   2.491   3.877  10.743  1.3442 -0.6974  0.9902
 1254TIP3   OH227956   5.251   5.017   9.455 -0.4006 -0.2774 -0.4707
 1254TIP3    H127957   5.290   5.056   9.377  1.9597  0.8738  1.1471
 1254TIP3    H227958   5.323   4.968   9.496 -1.0436  0.5403  1.8038
 1255TIP3   OH227959   0.507   3.004  11.106 -0.6821  0.2483 -0.3406
 1255TIP3    H127960   0.440   2.946  11.141 -0.2356 -0.8216 -1.2014
 1255TIP3    H227961   0.574   2.945  11.070 -0.4525  1.2762 -1.7082
 1256TIP3   OH227962   4.559   6.159  11.850 -0.7694  0.6104 -0.3118
 1256TIP3    H127963   4.624   6.213  11.895  0.2297 -0.7821  0.0104
 1256TIP3    H227964   4.590   6.069  11.863 -2.8072 -0.1124 -0.1152
 1257TIP3   OH227965   2.937   3.530  10.206  0.2082  0.5067  0.4102
 1257TIP3    H127966   2.858   3.478  10.221  0.2428  0.4129  0.2658
 1257TIP3    H227967   2.986   3.524  10.288 -0.1444  0.9289  0.6535
 1258TIP3   OH227968   5.526   0.937   9.443 -0.1420  0.3372  0.7610
 1258TIP3    H127969   5.534   0.935   9.347 -1.9123 -0.5950  0.5996
 1258TIP3    H227970   5.547   1.027   9.467  1.8425  0.2190 -0.3293
 1259TIP3   OH227971   4.139   4.663  10.476  0.2160  0.1678 -0.5313
 1259TIP3    H127972   4.087   4.701  10.406 -2.4336  0.8870  1.6386
 1259TIP3    H227973   4.199   4.732  10.502 -0.1487  0.6026 -0.8295
 1260TIP3   OH227974   0.550   0.936   9.234 -0.2563 -0.1199 -0.1179
 1260TIP3    H127975   0.577   0.989   9.309  1.9728  0.1496 -1.0098
 1260TIP3    H227976   0.510   0.858   9.272 -0.0533  0.4450  1.3169
 1261TIP3   OH227977   5.534   1.577  11.052 -0.3132  0.2300 -0.3557
 1261TIP3    H127978   5.514   1.671  11.053  0.9304  0.5182  0.7483
 1261TIP3    H227979   5.449   1.535  11.064 -0.7172  1.2851  0.8002
 1262TIP3   OH227980   0.884   3.918   9.645 -0.3563 -0.3018  0.1603
 1262TIP3    H127981   0.967   3.935   9.600 -0.1816 -0.8392  0.2743
 1262TIP3    H227982   0.818   3.954   9.587 -0.1103 -0.7206 -0.3904
 1263TIP3   OH227983   5.272   0.647   8.707  0.2734  0.2204  0.2242
 1263TIP3    H127984   5.224   0.653   8.625  2.6529 -0.6077 -1.3490
 1263TIP3    H227985   5.251   0.560   8.741 -1.3177  0.8580  0.9309
 1264TIP3   OH227986   1.139   1.190   9.700  0.2130  0.2978  0.2532
 1264TIP3    H127987   1.049   1.215   9.721 -0.3182 -0.2365 -1.2578
 1264TIP3    H227988   1.178   1.269   9.663 -0.0863  0.1414 -0.4073
 1265TIP3   OH227989   1.583   1.202   8.776 -0.2554 -0.1578 -0.7625
 1265TIP3    H127990   1.622   1.160   8.852  1.0593  2.2116 -0.0541
 1265TIP3    H227991   1.498   1.233   8.807 -0.8919 -1.5073 -1.0719
 1266TIP3   OH227992   4.322   6.414   9.086  0.1041  0.5987  0.2999
 1266TIP3    H127993   4.255   6.480   9.104  0.3728  1.0090 -0.1776
 1266TIP3    H227994   4.327   6.411   8.991  0.5912  0.3909  0.3310
 1267TIP3   OH227995   2.939   2.904  10.698  0.4632 -0.0344  0.0687
 1267TIP3    H127996   3.002   2.879  10.631 -1.2683 -0.8920 -1.3174
 1267TIP3    H227997   2.871   2.837  10.694 -1.8162  2.1247 -0.2953
 1268TIP3   OH227998   2.987   6.679   9.108  0.0669  0.0664  0.3782
 1268TIP3    H127999   3.030   6.672   9.023 -0.0317 -1.8281  0.4401
 1268TIP3    H228000   3.049   6.638   9.169 -0.5883 -0.1065  0.9393
 1269TIP3   OH228001   5.049   3.374  10.023  0.0246 -0.0974  0.1215
 1269TIP3    H128002   5.010   3.460  10.007  0.2807  0.1568  0.8153
 1269TIP3    H228003   5.076   3.377  10.115 -3.1104 -2.1320  1.2806
 1270TIP3   OH228004   4.420   4.354  11.737  0.1437  0.5713 -0.3960
 1270TIP3    H128005   4.400   4.265  11.709 -0.2154  0.7267 -0.6459
 1270TIP3    H228006   4.385   4.360  11.826  0.0958  0.4861 -0.4094
 1271TIP3   OH228007   3.613   1.568  10.765  0.0269  0.2470  0.3973
 1271TIP3    H128008   3.542   1.503  10.768 -0.0834  0.3048 -0.6694
 1271TIP3    H228009   3.623   1.596  10.856 -0.0766 -1.1014  0.8469
 1272TIP3   OH228010   6.261   3.156   9.054 -0.6591 -0.0143  0.1317
 1272TIP3    H128011   6.239   3.073   9.011  0.5857 -0.8270  0.9874
 1272TIP3    H228012   6.195   3.166   9.123  0.9532 -1.9792  2.1183
 1273TIP3   OH228013   3.079   0.981   9.341  0.1274  0.2783  0.3516
 1273TIP3    H128014   3.127   0.909   9.382  1.8884  1.5863  0.6780
 1273TIP3    H228015   3.021   1.013   9.411 -0.2301 -0.4095  0.3860
 1274TIP3   OH228016   0.393   2.428  10.529  0.3950 -0.3572  0.3705
 1274TIP3    H128017   0.418   2.508  10.575 -0.5572 -0.1157  0.4781
 1274TIP3    H228018   0.445   2.359  10.571  0.3509  0.0255  1.0641
 1275TIP3   OH228019   5.918   2.964  11.182 -0.0827  0.1694  0.2589
 1275TIP3    H128020   5.849   3.024  11.154  0.2853  1.0116  1.0889
 1275TIP3    H228021   5.896   2.880  11.141 -1.2567  0.5773  0.0262
 1276TIP3   OH228022   4.212   3.754  11.141 -0.3974  0.9417 -0.0737
 1276TIP3    H128023   4.213   3.786  11.232  1.0739 -1.7331  0.9684
 1276TIP3    H228024   4.128   3.710  11.132 -0.8188  1.7703 -0.2356
 1277TIP3   OH228025   4.124   0.365  12.082 -0.0948  0.2625  0.1488
 1277TIP3    H128026   4.098   0.346  11.992 -1.0630 -0.3746  0.5479
 1277TIP3    H228027   4.213   0.402  12.075 -0.2222  0.3523 -1.0638
 1278TIP3   OH228028   5.501   4.475  11.367 -0.0292  0.4712  0.3818
 1278TIP3    H128029   5.429   4.523  11.324 -0.4349 -1.2676 -0.9817
 1278TIP3    H228030   5.552   4.440  11.294  0.7478 -0.4354  1.3487
 1279TIP3   OH228031   3.386   4.256   9.976  0.4379 -0.1297 -0.9220
 1279TIP3    H128032   3.477   4.266  10.004  0.6487  0.8843 -1.8958
 1279TIP3    H228033   3.335   4.302  10.043  0.9227  2.1712 -2.0549
 1280TIP3   OH228034   1.488   3.014   9.095  0.1663  0.1837  0.1587
 1280TIP3    H128035   1.435   3.086   9.062 -2.1268 -1.8302 -0.8932
 1280TIP3    H228036   1.513   2.964   9.017  1.2982 -0.4365  0.8851
 1281TIP3   OH228037   6.475   6.403  12.451 -0.6626  0.5389 -0.1073
 1281TIP3    H128038   6.395   6.385  12.402 -0.6631  0.9073 -0.2427
 1281TIP3    H228039   6.468   6.347  12.529 -0.5785 -0.1817 -0.6004
 1282TIP3   OH228040   0.851   0.325  10.514  0.2694  0.2338 -0.0494
 1282TIP3    H128041   0.766   0.362  10.538  0.0979 -0.7655  1.0197
 1282TIP3    H228042   0.866   0.354  10.425 -0.2752  2.0613  0.4103
 1283TIP3   OH228043   1.810   5.192  12.246 -0.5035  0.0228  0.8455
 1283TIP3    H128044   1.812   5.121  12.310  0.0584  0.9011  1.8427
 1283TIP3    H228045   1.733   5.175  12.193 -0.1908 -1.5057  0.8454
 1284TIP3   OH228046   2.519   0.475  10.990  0.5234  0.1916  0.1653
 1284TIP3    H128047   2.562   0.391  11.001 -1.6173 -0.8161  1.5269
 1284TIP3    H228048   2.479   0.471  10.903 -0.2896 -0.5577  0.5697
 1285TIP3   OH228049   1.998   1.115  10.120 -0.5494 -0.2207 -0.5045
 1285TIP3    H128050   2.013   1.082  10.209 -2.9153 -2.4183 -0.8069
 1285TIP3    H228051   1.951   1.197  10.133  1.0263  0.5962  0.2483
 1286TIP3   OH228052   1.271   2.043   9.575  1.0542  0.4662  0.3928
 1286TIP3    H128053   1.296   2.126   9.533 -0.6496  0.6921 -0.2452
 1286TIP3    H228054   1.189   2.062   9.619 -0.4181 -1.3212 -1.3817
 1287TIP3   OH228055   5.708   0.520  10.928 -0.2948  0.0903 -0.0576
 1287TIP3    H128056   5.668   0.436  10.951  0.2760  0.2093  1.4645
 1287TIP3    H228057   5.801   0.499  10.916 -0.2966  0.3603 -0.5857
 1288TIP3   OH228058   2.692   1.368  11.179 -0.1672 -1.2795  0.4292
 1288TIP3    H128059   2.673   1.360  11.272 -0.6352  0.3035  0.5025
 1288TIP3    H228060   2.777   1.413  11.176 -0.0207 -1.5743  0.0894
 1289TIP3   OH228061   2.163   1.928   9.653 -0.5421 -0.3684 -0.4969
 1289TIP3    H128062   2.091   1.976   9.693  0.1775 -1.3039  2.1277
 1289TIP3    H228063   2.169   1.847   9.703  2.7267 -0.0378 -0.0773
 1290TIP3   OH228064   2.510   6.552  12.450 -0.4834  0.2214 -0.2168
 1290TIP3    H128065   2.582   6.610  12.425 -0.4015  0.2389  0.0512
 1290TIP3    H228066   2.546   6.500  12.522 -0.7188  0.1859 -0.1255
 1291TIP3   OH228067   0.679   6.350  11.667 -0.6180  0.4461 -0.4565
 1291TIP3    H128068   0.623   6.281  11.632  0.1211 -0.9319  0.9351
 1291TIP3    H228069   0.766   6.310  11.674  0.6772  2.5525 -2.6875
 1292TIP3   OH228070   3.661   0.708   9.040 -0.1007 -0.4979  0.0590
 1292TIP3    H128071   3.673   0.794   9.082  0.8604 -0.9275  0.7000
 1292TIP3    H228072   3.577   0.715   8.995 -1.2259 -0.0128  2.1209
 1293TIP3   OH228073   2.529   0.373  10.121 -0.3002 -0.0433 -0.0743
 1293TIP3    H128074   2.607   0.410  10.080 -0.8315  0.5627 -0.5773
 1293TIP3    H228075   2.533   0.280  10.102  0.3552 -0.0339  0.0075
 1294TIP3   OH228076   4.144   0.251  10.957 -0.1153 -0.1883  0.0436
 1294TIP3    H128077   4.067   0.218  10.911 -2.4676  2.6775  1.5557
 1294TIP3    H228078   4.170   0.180  11.015 -2.3646 -0.8871  0.2963
 1295TIP3   OH228079   2.748   1.798  12.110 -0.4997 -0.2851  0.3739
 1295TIP3    H128080   2.688   1.739  12.064 -1.2737  1.4000 -0.8886
 1295TIP3    H228081   2.691   1.858  12.158  0.1677  1.0293 -0.4291
 1296TIP3   OH228082   2.091   6.571  10.512  0.2714 -0.1851  0.3572
 1296TIP3    H128083   2.160   6.512  10.540  0.2100 -0.2574  0.3557
 1296TIP3    H228084   2.118   6.600  10.425 -0.0760 -0.7944  0.0486
 1297TIP3   OH228085   3.462   3.506   9.249  0.2481 -0.6722 -0.1357
 1297TIP3    H128086   3.445   3.412   9.236  0.8511 -0.7739 -0.2496
 1297TIP3    H228087   3.381   3.541   9.285 -0.5373 -0.9348 -1.5770
 1298TIP3   OH228088   3.516   5.725  11.284  0.0455  0.3601  0.1616
 1298TIP3    H128089   3.464   5.649  11.260 -0.6606  0.9113 -0.0869
 1298TIP3    H228090   3.600   5.689  11.313  0.4498 -0.4283 -1.8279
 1299TIP3   OH228091   5.620   1.928  10.723  0.4153  0.0756  0.6250
 1299TIP3    H128092   5.630   1.972  10.639 -1.4942  1.7615  1.1928
 1299TIP3    H228093   5.683   1.972  10.781  0.8839 -0.2710  0.3846
 1300TIP3   OH228094   1.748   2.070  11.629 -0.3276 -0.0370 -0.5438
 1300TIP3    H128095   1.726   2.163  11.626 -0.1962  0.0774  0.9539
 1300TIP3    H228096   1.793   2.052  11.546  0.3195  1.4175 -0.5292
 1301TIP3   OH228097   3.522   2.086  11.043  0.5371 -0.6113  0.0186
 1301TIP3    H128098   3.579   2.100  10.968 -0.0671 -2.1001 -0.7526
 1301TIP3    H228099   3.448   2.145  11.028  0.8777 -0.1931 -0.0380
 1302TIP3   OH228100   6.048   1.478  10.194 -0.6423  0.4863 -0.3453
 1302TIP3    H128101   6.061   1.544  10.262  0.9014 -0.5519  0.4303
 1302TIP3    H228102   5.958   1.449  10.206 -0.6423  0.9013  0.7420
 1303TIP3   OH228103   5.546   5.716  11.747 -0.0071 -0.3153 -0.1797
 1303TIP3    H128104   5.483   5.711  11.675  0.0326 -0.6616 -0.1911
 1303TIP3    H228105   5.554   5.810  11.765  1.3937 -0.0473 -1.8919
 1304TIP3   OH228106   2.409   4.854  12.157  0.2303  0.2856 -0.9590
 1304TIP3    H128107   2.400   4.890  12.246  0.0529 -0.4234 -0.6850
 1304TIP3    H228108   2.359   4.914  12.102  0.8007  1.0470 -0.6697
 1305TIP3   OH228109   1.433   2.267  11.708  1.1075  0.1598 -0.7017
 1305TIP3    H128110   1.426   2.257  11.613 -0.9948 -1.5880 -0.4535
 1305TIP3    H228111   1.414   2.359  11.724 -1.3163 -0.0491 -1.8619
 1306TIP3   OH228112   0.836   6.148  12.049 -0.3139 -0.2246 -0.0182
 1306TIP3    H128113   0.876   6.124  11.966  0.4392 -0.8230  0.4939
 1306TIP3    H228114   0.747   6.175  12.027  0.4814  1.5436 -1.2440
 1307TIP3   OH228115   2.854   1.914  10.924 -0.1087  0.3467 -0.0595
 1307TIP3    H128116   2.897   1.999  10.918 -2.0458  1.3439 -0.7411
 1307TIP3    H228117   2.792   1.924  10.997 -1.0641 -0.1134 -0.7944
 1308TIP3   OH228118   1.109   3.933  11.672 -0.1138 -0.6580 -0.5772
 1308TIP3    H128119   1.114   3.946  11.577  1.9051 -0.1240 -0.4381
 1308TIP3    H228120   1.058   3.852  11.682 -0.7380 -0.4903 -2.0766
 1309TIP3   OH228121   4.448   6.406  11.761  0.1740 -0.3817 -0.3161
 1309TIP3    H128122   4.466   6.317  11.791  0.2467 -0.0880  0.5517
 1309TIP3    H228123   4.354   6.406  11.742  0.1246 -0.5818 -0.0844
 1310TIP3   OH228124   5.247   2.215  10.605  0.1079  0.7516 -0.3981
 1310TIP3    H128125   5.182   2.155  10.640  0.2578  1.3799  1.0180
 1310TIP3    H228126   5.218   2.302  10.632  0.1177  1.3119 -2.0621
 1311TIP3   OH228127   0.462   3.726  11.732  0.2918 -0.0361 -0.5529
 1311TIP3    H128128   0.424   3.800  11.685  2.2217  1.5580  0.2737
 1311TIP3    H228129   0.412   3.722  11.814  0.1065  0.2728 -0.6507
 1312TIP3   OH228130   6.240   6.336  12.294 -0.4743  0.4955 -0.1271
 1312TIP3    H128131   6.184   6.268  12.258 -1.9732  0.8878  1.3203
 1312TIP3    H228132   6.247   6.402  12.225 -2.8340  1.0031  0.0610
 1313TIP3   OH228133   0.490   5.167   9.135 -0.2133  0.1675 -0.7929
 1313TIP3    H128134   0.429   5.229   9.175  0.5160  1.7573 -2.0184
 1313TIP3    H228135   0.457   5.154   9.046 -2.0894 -3.6839  0.2591
 1314TIP3   OH228136   5.769   2.589  10.468  0.1579  0.3343  0.0049
 1314TIP3    H128137   5.766   2.561  10.376  0.4755 -0.5253  0.2513
 1314TIP3    H228138   5.827   2.527  10.511 -0.3732  0.4310  0.8962
 1315TIP3   OH228139   3.823   3.163  10.453  0.0219 -0.1854 -0.0446
 1315TIP3    H128140   3.782   3.208  10.379 -0.1620  1.4852  1.0119
 1315TIP3    H228141   3.777   3.197  10.530  1.1770 -0.7693  0.9358
 1316TIP3   OH228142   2.556   6.481  12.156  0.0135 -0.1012  0.0950
 1316TIP3    H128143   2.519   6.490  12.244  0.8480  0.5221  0.3951
 1316TIP3    H228144   2.519   6.554  12.106 -0.3471 -0.3706 -0.0363
 1317TIP3   OH228145   0.549   5.907  10.457 -0.4612  0.5623  0.2726
 1317TIP3    H128146   0.503   5.823  10.449 -0.6030  0.6619  0.0235
 1317TIP3    H228147   0.558   5.921  10.551  0.0451  0.0053  0.3164
 1318TIP3   OH228148   4.329   0.580   9.324 -0.4959  1.0639  0.0984
 1318TIP3    H128149   4.422   0.602   9.324 -0.3420  0.6018  1.9497
 1318TIP3    H228150   4.323   0.499   9.374 -2.1823  2.9267  3.3358
 1319TIP3   OH228151   6.355   5.980  10.019 -0.4130  0.4571  0.1517
 1319TIP3    H128152   6.412   6.043  10.063 -0.2268  1.4814 -1.5106
 1319TIP3    H228153   6.411   5.939   9.953 -0.6870 -1.0647  0.8229
 1320TIP3   OH228154   1.140   4.132  10.529  0.2044  0.2665 -0.0705
 1320TIP3    H128155   1.118   4.075  10.455  0.8996  0.6524 -0.5744
 1320TIP3    H228156   1.144   4.073  10.604 -0.0355 -0.2000 -0.4210
 1321TIP3   OH228157   1.743   0.193   9.108 -0.0866  0.0169 -0.1984
 1321TIP3    H128158   1.648   0.204   9.109 -0.0113  0.6953 -0.0634
 1321TIP3    H228159   1.757   0.099   9.121 -0.7243 -0.0179  0.2424
 1322TIP3   OH228160   5.721   1.103  10.790 -0.2577  0.6247  0.3098
 1322TIP3    H128161   5.721   1.042  10.864 -1.1219  0.6946  0.3732
 1322TIP3    H228162   5.629   1.122  10.775 -0.0866  0.6340 -0.7728
 1323TIP3   OH228163   5.199   4.432  10.326  0.4312 -0.1846 -0.1251
 1323TIP3    H128164   5.134   4.366  10.305  2.4097 -1.5544 -2.6094
 1323TIP3    H228165   5.160   4.515  10.298 -0.8890 -0.7281  0.0759
 1324TIP3   OH228166   1.981   4.357  10.928  0.3943  0.5270 -0.0708
 1324TIP3    H128167   2.055   4.381  10.984 -0.8454 -0.5668  2.1801
 1324TIP3    H228168   2.021   4.312  10.854  2.0157  0.4118  0.8201
 1325TIP3   OH228169   6.015   2.719  10.816  0.0720 -0.0980  0.2068
 1325TIP3    H128170   6.016   2.624  10.806  1.1170 -0.0225 -0.6031
 1325TIP3    H228171   5.965   2.734  10.896 -0.9868 -1.2615 -0.1978
 1326TIP3   OH228172   5.803   5.108  10.493 -0.9103  0.2004  0.0708
 1326TIP3    H128173   5.867   5.175  10.516 -1.9212  1.7357 -1.3416
 1326TIP3    H228174   5.740   5.153  10.437 -1.6934 -1.9300 -0.8734
 1327TIP3   OH228175   0.760   0.903   8.786  0.2908 -0.2153 -0.1073
 1327TIP3    H128176   0.822   0.836   8.814  0.2313 -1.1099 -1.9225
 1327TIP3    H228177   0.688   0.853   8.747 -0.6911  0.8588  0.2814
 1328TIP3   OH228178   3.059   6.418   9.770 -0.4893  0.3812 -0.6277
 1328TIP3    H128179   2.992   6.393   9.705 -0.4343  0.8302 -0.8608
 1328TIP3    H228180   3.068   6.341   9.826  0.2310 -0.4146 -1.7945
 1329TIP3   OH228181   1.103   2.961  12.259  0.2279 -0.1071 -0.3970
 1329TIP3    H128182   1.084   2.879  12.304  0.1373 -0.4867 -1.1140
 1329TIP3    H228183   1.090   2.941  12.166  1.2535  0.4305 -0.6678
 1330TIP3   OH228184   6.476   0.774   9.120  0.1459  0.2061 -0.0194
 1330TIP3    H128185   6.539   0.845   9.129  0.2610  0.3252 -1.4800
 1330TIP3    H228186   6.390   0.816   9.130  0.2594  0.1160  1.5277
 1331TIP3   OH228187   0.105   2.439  10.835  0.1260  0.6190 -0.1342
 1331TIP3    H128188   0.067   2.496  10.768  1.7348  1.4583 -0.3816
 1331TIP3    H228189   0.030   2.399  10.878 -0.9855 -0.2445 -2.6664
 1332TIP3   OH228190   0.516   4.662  11.713  0.4505 -0.0335  0.2557
 1332TIP3    H128191   0.481   4.702  11.793  0.1184 -1.1061  0.6664
 1332TIP3    H228192   0.466   4.581  11.703  0.5879  0.0133 -0.9716
 1333TIP3   OH228193   1.583   4.296  10.464  0.1935 -0.1309  0.5293
 1333TIP3    H128194   1.663   4.349  10.460 -1.2277  2.1518  0.6959
 1333TIP3    H228195   1.517   4.348  10.418 -0.8814 -2.6790 -1.0138
 1334TIP3   OH228196   1.717   2.582  11.839 -0.0044 -0.1253  0.1402
 1334TIP3    H128197   1.672   2.632  11.908  1.6929  0.3209  0.9708
 1334TIP3    H228198   1.810   2.601  11.852  0.3427  0.6176 -2.8208
 1335TIP3   OH228199   3.553   0.212  11.217  0.4310  0.5704  0.6892
 1335TIP3    H128200   3.649   0.217  11.210  0.5611 -0.4144  1.4562
 1335TIP3    H228201   3.521   0.251  11.137  1.4849  1.0098  0.4617
 1336TIP3   OH228202   6.659   3.709  11.162 -0.0043 -0.0021  0.5949
 1336TIP3    H128203   6.618   3.745  11.241 -0.4943 -1.2617  0.9344
 1336TIP3    H228204   6.722   3.645  11.195 -0.4842 -0.8169 -0.0334
 1337TIP3   OH228205   6.120   5.102  10.936 -0.6760  0.1909  0.4380
 1337TIP3    H128206   6.145   5.035  10.873 -0.9318  0.9139 -0.4468
 1337TIP3    H228207   6.204   5.133  10.973 -0.2222  1.9117 -1.7995
 1338TIP3   OH228208   4.017   4.759   9.179  0.6884 -0.3057  0.5359
 1338TIP3    H128209   3.958   4.690   9.148  2.7654 -0.7991 -2.7398
 1338TIP3    H228210   4.087   4.762   9.114  1.8609  3.4219  1.7346
 1339TIP3   OH228211   6.390   4.345  10.508 -0.3213  0.1774 -0.2247
 1339TIP3    H128212   6.451   4.359  10.581  0.3075  1.1933 -0.9266
 1339TIP3    H228213   6.303   4.362  10.546 -0.0920 -0.2822  0.5255
 1340TIP3   OH228214   5.256   0.840  12.057  0.1631 -0.7219  0.5017
 1340TIP3    H128215   5.258   0.910  11.993 -0.6281 -1.3093 -0.1845
 1340TIP3    H228216   5.316   0.868  12.126 -0.8385  1.0605  0.7019
 1341TIP3   OH228217   0.838   1.279  10.688 -0.0090 -0.2065 -0.5580
 1341TIP3    H128218   0.799   1.280  10.600  2.1700 -0.1578 -1.5971
 1341TIP3    H228219   0.851   1.371  10.710 -1.3462 -0.1772  0.2531
 1342TIP3   OH228220   0.559   5.391  10.679 -0.2835 -0.1078 -0.0666
 1342TIP3    H128221   0.519   5.392  10.766  0.3601  0.1226  0.2287
 1342TIP3    H228222   0.647   5.358  10.693  0.0361  0.5217 -0.5412
 1343TIP3   OH228223   0.220   3.206   9.543  0.2006  0.2441  0.2528
 1343TIP3    H128224   0.202   3.240   9.455 -1.0515 -1.8801 -0.3913
 1343TIP3    H228225   0.170   3.264   9.601  1.4647  2.0000 -0.3256
 1344TIP3   OH228226   2.923   1.558  11.249 -0.6369 -0.0104  0.0218
 1344TIP3    H128227   3.006   1.551  11.295 -1.0594 -1.2511  0.6620
 1344TIP3    H228228   2.921   1.647  11.216  0.7399  0.1784  0.3832
 1345TIP3   OH228229   5.395   5.659  11.514 -0.2092  0.1833  0.3618
 1345TIP3    H128230   5.423   5.570  11.491 -2.3072 -0.5437  0.4653
 1345TIP3    H228231   5.387   5.703  11.430 -0.7190 -0.2275  0.1892
 1346TIP3   OH228232   4.249   6.253  10.344  0.1461 -0.3443  0.3214
 1346TIP3    H128233   4.255   6.330  10.401 -1.3018  0.5060 -0.6266
 1346TIP3    H228234   4.310   6.190  10.383  0.8991  1.0401  1.4817
 1347TIP3   OH228235   5.241   1.499  10.107 -0.2355 -0.1203  0.2058
 1347TIP3    H128236   5.267   1.444  10.033  0.5395  0.5293 -0.0141
 1347TIP3    H228237   5.259   1.445  10.184  0.4348 -0.2157 -0.0110
 1348TIP3   OH228238   3.347   6.273  12.172 -0.3196  0.0362  0.4149
 1348TIP3    H128239   3.433   6.307  12.195 -0.5407  0.7346  0.2454
 1348TIP3    H228240   3.353   6.253  12.079  0.1566 -1.4906  0.7528
 1349TIP3   OH228241   4.029   2.640   9.988 -0.1902 -0.4055 -0.4748
 1349TIP3    H128242   4.115   2.639  10.029 -0.0301  0.0192 -0.7889
 1349TIP3    H228243   4.012   2.733   9.971 -0.9937 -0.4192  0.1768
 1350TIP3   OH228244   3.950   6.414  12.147 -0.0719  0.3355  0.2942
 1350TIP3    H128245   3.944   6.375  12.235 -1.1793 -0.5114 -0.1356
 1350TIP3    H228246   3.894   6.359  12.093  1.1833  0.4060 -1.1222
 1351TIP3   OH228247   4.279   4.814  10.235 -0.0541  0.4706  0.0589
 1351TIP3    H128248   4.333   4.863  10.172 -0.3384 -0.0964 -0.6341
 1351TIP3    H228249   4.316   4.837  10.320  1.0151  0.4405 -0.3750
 1352TIP3   OH228250   5.065   0.042   9.791 -0.2830 -0.6242 -0.3283
 1352TIP3    H128251   5.030   0.014   9.707  0.2801 -1.0856 -0.4179
 1352TIP3    H228252   5.007   0.002   9.856 -0.2061 -0.9897 -0.4825
 1353TIP3   OH228253   1.453   6.494   9.077 -0.0852 -0.4516 -0.5447
 1353TIP3    H128254   1.386   6.561   9.075 -0.9489 -1.1243  2.1252
 1353TIP3    H228255   1.465   6.469   8.985 -1.4810  1.5844 -1.3449
 1354TIP3   OH228256   0.203   4.996  11.452 -0.1109 -0.2158 -0.3789
 1354TIP3    H128257   0.204   5.080  11.497 -0.9522 -0.2615 -0.2574
 1354TIP3    H228258   0.269   5.005  11.383 -0.9832  0.9785 -1.1182
 1355TIP3   OH228259   4.132   4.072  11.127 -0.2280 -0.4449  0.0379
 1355TIP3    H128260   4.170   4.157  11.105 -0.5044 -0.2369  0.3506
 1355TIP3    H228261   4.205   4.011  11.119 -0.1501 -0.2586 -0.6809
 1356TIP3   OH228262   0.442   0.827  10.257  0.3909 -0.2684  0.0769
 1356TIP3    H128263   0.502   0.765  10.214 -0.8248 -0.8958 -0.7707
 1356TIP3    H228264   0.447   0.906  10.203  0.9488 -0.0806  0.3965
 1357TIP3   OH228265   1.259   6.237  10.063 -0.0822  0.3961 -0.1428
 1357TIP3    H128266   1.214   6.198  10.138  0.2258  1.7741  0.7905
 1357TIP3    H228267   1.333   6.284  10.101  1.2745 -0.5303 -1.5098
 1358TIP3   OH228268   3.167   2.625  10.674 -0.3978  0.2808  0.1273
 1358TIP3    H128269   3.214   2.698  10.713 -0.5543  0.7106 -0.4740
 1358TIP3    H228270   3.132   2.660  10.592 -1.8235  0.0047  0.5775
 1359TIP3   OH228271   6.015   0.661  10.218  0.4620 -0.6193  0.7181
 1359TIP3    H128272   5.954   0.588  10.207 -1.1818  0.6491  1.0243
 1359TIP3    H228273   6.045   0.682  10.130 -0.5204 -0.4886  0.4045
 1360TIP3   OH228274   5.124   2.297   9.806 -0.3274  0.4692 -0.3204
 1360TIP3    H128275   5.122   2.248   9.724 -2.3161 -0.1572  0.0505
 1360TIP3    H228276   5.125   2.388   9.779  0.5976  0.2700 -1.0237
 1361TIP3   OH228277   2.483   1.675  11.688 -0.2978  0.4189 -0.6711
 1361TIP3    H128278   2.407   1.687  11.632 -2.6909  0.1671  2.2492
 1361TIP3    H228279   2.516   1.588  11.664 -3.9501 -1.6873  1.0308
 1362TIP3   OH228280   0.416   0.319  10.070 -0.1066  0.0984  0.2784
 1362TIP3    H128281   0.381   0.294  10.155  0.6530 -0.9494  0.3080
 1362TIP3    H228282   0.341   0.317  10.011 -0.4282 -0.2726  0.7022
 1363TIP3   OH228283   1.431   0.165   9.087  0.2306  0.4878 -0.1286
 1363TIP3    H128284   1.355   0.106   9.088 -0.7877  1.7430  0.8561
 1363TIP3    H228285   1.426   0.208   9.002 -0.2197  0.6043 -0.0489
 1364TIP3   OH228286   0.223   0.672  10.247 -0.4806  0.3004  0.2500
 1364TIP3    H128287   0.289   0.732  10.214 -0.6545  0.1209 -0.4443
 1364TIP3    H228288   0.273   0.599  10.284 -0.2378 -0.6428 -1.7445
 1365TIP3   OH228289   1.846   5.428   9.743 -0.0535 -0.0198  0.2321
 1365TIP3    H128290   1.845   5.391   9.831 -0.5971  0.7403  0.5506
 1365TIP3    H228291   1.782   5.376   9.694 -2.2636  1.6543  1.1844
 1366TIP3   OH228292   0.968   6.508  11.310  0.4315  0.6643  0.0956
 1366TIP3    H128293   0.971   6.520  11.405 -1.3352  0.8123  0.1577
 1366TIP3    H228294   1.024   6.432  11.294 -1.6136 -1.3080  1.6367
 1367TIP3   OH228295   4.982   0.906   9.668  0.6665 -0.0391 -0.4896
 1367TIP3    H128296   4.906   0.905   9.726 -0.0893 -0.8896 -1.4429
 1367TIP3    H228297   5.002   0.813   9.654  0.4195  0.1186 -2.0686
 1368TIP3   OH228298   0.273   4.498  10.727  0.0004 -0.3163  0.1803
 1368TIP3    H128299   0.257   4.513  10.634  2.9434  0.0107 -0.3473
 1368TIP3    H228300   0.298   4.406  10.733 -0.8199 -0.5145  0.7808
 1369TIP3   OH228301   0.216   0.522   9.969  0.0167  0.2843 -0.1220
 1369TIP3    H128302   0.132   0.517  10.015 -0.5733 -0.6489 -1.2315
 1369TIP3    H228303   0.217   0.443   9.915  0.1937  1.8060 -2.4839
 1370TIP3   OH228304   4.388   4.269  10.328 -0.3247  0.5168  0.1594
 1370TIP3    H128305   4.313   4.225  10.367  0.1633  0.7504  1.3916
 1370TIP3    H228306   4.441   4.198  10.292  0.0479  0.1448  1.4115
 1371TIP3   OH228307   4.943   2.376   9.523 -0.0206  0.2330  0.5582
 1371TIP3    H128308   4.899   2.364   9.439  0.2157  1.4286  0.2523
 1371TIP3    H228309   4.874   2.362   9.588 -0.0337 -1.4912  0.2283
 1372TIP3   OH228310   0.871   2.835   9.903  0.2119 -0.2696 -0.0314
 1372TIP3    H128311   0.923   2.761   9.938 -0.1669 -0.5067  0.0316
 1372TIP3    H228312   0.937   2.899   9.876  0.5272 -0.0775  1.1038
 1373TIP3   OH228313   2.176   6.403   8.291  0.1946  0.4627  0.4454
 1373TIP3    H128314   2.244   6.379   8.354  0.7434  1.5389  0.2935
 1373TIP3    H228315   2.204   6.488   8.258  0.3767 -0.4369 -1.8973
 1374TIP3   OH228316   4.549   6.071  12.317  0.4771  0.3240  0.3633
 1374TIP3    H128317   4.471   6.126  12.311  1.2075  1.5839  1.7972
 1374TIP3    H228318   4.607   6.104  12.249 -0.6640 -1.4844 -1.6307
 1375TIP3   OH228319   1.315   1.946   8.355  0.2603  0.0246 -0.3564
 1375TIP3    H128320   1.357   2.027   8.384  1.6974 -0.9513  0.3794
 1375TIP3    H228321   1.247   1.930   8.420  0.9301 -0.1070  0.3273
 1376TIP3   OH228322   4.469   3.866  11.916 -0.0112  0.3172  0.5515
 1376TIP3    H128323   4.457   3.818  11.998  3.1612 -0.7414  0.5450
 1376TIP3    H228324   4.475   3.958  11.943 -0.9988  0.2054  1.2190
 1377TIP3   OH228325   2.296   0.703   9.191  0.0714 -0.1369  0.3306
 1377TIP3    H128326   2.391   0.717   9.190  0.0534  0.0756  1.1282
 1377TIP3    H228327   2.273   0.692   9.099  0.9910 -0.9861  0.1785
 1378TIP3   OH228328   3.011   1.023  12.196 -0.4254  0.3624  0.2213
 1378TIP3    H128329   3.091   1.043  12.146 -0.3090  0.9264  0.6340
 1378TIP3    H228330   2.982   1.107  12.230 -0.5228 -0.0124  1.0775
 1379TIP3   OH228331   3.167   2.771  11.510 -0.2810 -0.3356  0.4696
 1379TIP3    H128332   3.256   2.757  11.542  0.0304 -0.8998 -0.5895
 1379TIP3    H228333   3.165   2.863  11.482  1.0528 -1.0889 -2.5709
 1380TIP3   OH228334   2.224   2.391  10.323 -0.1746  0.3303 -0.1426
 1380TIP3    H128335   2.290   2.343  10.373  1.2077  0.7359 -1.4760
 1380TIP3    H228336   2.186   2.452  10.385 -0.7659 -1.2731  1.1616
 1381TIP3   OH228337   5.860   0.433   8.576 -0.8626  0.7144 -0.6352
 1381TIP3    H128338   5.839   0.362   8.515 -1.2113  0.6531 -0.4480
 1381TIP3    H228339   5.927   0.484   8.531  0.1873 -0.3438 -0.3280
 1382TIP3   OH228340   0.384   1.047  11.271  0.3389 -0.3750  0.7224
 1382TIP3    H128341   0.344   1.002  11.346 -1.0457 -1.0056 -0.3556
 1382TIP3    H228342   0.328   1.024  11.197 -0.0616  2.6219 -0.0106
 1383TIP3   OH228343   1.605   1.483   8.683 -0.3445 -0.4845 -0.1572
 1383TIP3    H128344   1.609   1.397   8.724  1.1931 -0.5974 -0.4800
 1383TIP3    H228345   1.694   1.499   8.651 -0.5863  1.2154 -0.1128
 1384TIP3   OH228346   5.519   3.850  11.041 -0.7568 -0.2970 -0.2407
 1384TIP3    H128347   5.544   3.926  10.989 -1.5353  0.1889  0.0783
 1384TIP3    H228348   5.594   3.791  11.035  0.2470  0.8676  0.2340
 1385TIP3   OH228349   2.121   5.169   9.601  0.2611  0.0839  0.4312
 1385TIP3    H128350   2.123   5.263   9.619 -3.2870  0.6428 -1.2667
 1385TIP3    H228351   2.084   5.130   9.681 -1.7575  0.6826 -0.1584
 1386TIP3   OH228352   1.798   4.477  12.016  0.2124  0.1618  0.2935
 1386TIP3    H128353   1.826   4.386  12.005  2.1588  0.7909 -0.4589
 1386TIP3    H228354   1.785   4.509  11.926  0.2268  0.8082  0.5137
 1387TIP3   OH228355   4.522   6.663  11.683 -0.7279  0.5252 -0.3024
 1387TIP3    H128356   4.506   6.577  11.721  1.6433  0.2003  0.1231
 1387TIP3    H228357   4.455   6.719  11.722 -1.1415 -0.7377  0.8765
 1388TIP3   OH228358   3.989   1.480  11.376  0.5525  0.4169  1.0448
 1388TIP3    H128359   4.068   1.442  11.339  0.4081  0.8363  0.2757
 1388TIP3    H228360   3.934   1.405  11.397  0.6527  0.1575  0.4148
 1389TIP3   OH228361   5.009   6.295   8.977 -0.1569  0.0968  0.4227
 1389TIP3    H128362   5.070   6.231   9.013  0.5829 -0.0879 -1.0505
 1389TIP3    H228363   5.005   6.274   8.884 -0.2012  1.9334 -0.0293
 1390TIP3   OH228364   4.991   3.061   9.394 -0.2807  0.1646 -0.3575
 1390TIP3    H128365   5.001   3.124   9.323  3.0909  0.0753 -0.1271
 1390TIP3    H228366   5.053   2.991   9.372 -0.5753 -0.8123  1.6938
 1391TIP3   OH228367   3.630   2.825  11.345 -0.0352 -0.2151 -0.1071
 1391TIP3    H128368   3.708   2.878  11.358 -0.4279 -0.1053  2.3542
 1391TIP3    H228369   3.646   2.777  11.264  3.7654 -2.1612  1.5154
 1392TIP3   OH228370   4.666   0.106  10.701 -0.4425  0.0587  0.7645
 1392TIP3    H128371   4.623   0.145  10.777 -0.2009  0.5355  0.6603
 1392TIP3    H228372   4.759   0.127  10.713 -0.0880 -1.7818  1.4900
 1393TIP3   OH228373   4.461   3.012  11.458  0.0338 -0.3076 -0.4473
 1393TIP3    H128374   4.539   3.029  11.405  0.2865  0.9321  0.2644
 1393TIP3    H228375   4.394   3.070  11.421  0.4617  1.2533  1.0698
 1394TIP3   OH228376   5.574   2.911  11.697 -0.3269  0.0766  0.6863
 1394TIP3    H128377   5.668   2.898  11.692 -0.5246 -1.0548 -0.4741
 1394TIP3    H228378   5.563   3.006  11.693  0.6685  0.1734 -2.3364
 1395TIP3   OH228379   6.606   2.091  11.089 -0.3845 -0.7564 -0.8955
 1395TIP3    H128380   6.629   2.014  11.038 -0.8372 -0.7234 -1.1521
 1395TIP3    H228381   6.664   2.088  11.165  2.0401  0.4595 -2.5397
 1396TIP3   OH228382   4.250   0.047  12.078  0.2847 -0.9635  0.2208
 1396TIP3    H128383   4.155   0.044  12.093  0.4752 -0.6064  1.6834
 1396TIP3    H228384   4.259   0.060  11.984 -1.1513  0.3349  0.2215
 1397TIP3   OH228385   6.672   1.055   8.216  0.0665  0.1930 -0.6272
 1397TIP3    H128386   6.767   1.046   8.210  0.1773  0.0594  0.9274
 1397TIP3    H228387   6.657   1.106   8.295 -1.1688  0.2401 -0.8656
 1398TIP3   OH228388   1.250   5.808  11.738 -0.6245  0.1076 -0.2395
 1398TIP3    H128389   1.336   5.851  11.734  0.0906 -1.1458  0.6623
 1398TIP3    H228390   1.271   5.714  11.733 -1.6373 -0.4121  2.9307
 1399TIP3   OH228391   6.497   0.923   8.823  0.5739 -0.1857  0.2550
 1399TIP3    H128392   6.444   0.844   8.836  1.8161 -1.9958 -3.8658
 1399TIP3    H228393   6.585   0.890   8.805  1.8219  2.3782  1.1210
 1400TIP3   OH228394   0.047   6.009   8.632 -0.3498 -0.0379 -0.6118
 1400TIP3    H128395   0.083   5.985   8.546  0.5485 -0.8632 -0.0184
 1400TIP3    H228396   0.028   5.925   8.675 -0.3004  0.3609  0.2019
 1401TIP3   OH228397   4.361   1.083   9.827 -0.2761  0.0681 -0.4322
 1401TIP3    H128398   4.348   1.144   9.754 -1.5634  1.1694  0.6671
 1401TIP3    H228399   4.386   1.140   9.901 -1.5694 -0.7159  0.6412
 1402TIP3   OH228400   6.622   1.817   9.688  0.0527 -0.0190 -0.4287
 1402TIP3    H128401   6.681   1.791   9.617  1.0934 -0.2033  0.4851
 1402TIP3    H228402   6.535   1.798   9.654  0.5111  0.1658 -1.7694
 1403TIP3   OH228403   0.575   4.391  10.734  0.2230  0.2333  0.7436
 1403TIP3    H128404   0.539   4.454  10.797 -1.6237 -0.2170  0.1972
 1403TIP3    H228405   0.558   4.305  10.774 -0.9030 -0.0521 -0.3192
 1404TIP3   OH228406   6.539   1.369   9.299 -0.0795 -0.1153 -0.0343
 1404TIP3    H128407   6.542   1.282   9.259 -0.6894  0.6039 -1.7717
 1404TIP3    H228408   6.482   1.420   9.240 -0.0734  1.3406  1.1691
 1405TIP3   OH228409   5.989   6.677   9.359  0.0302  0.1207  0.5026
 1405TIP3    H128410   5.954   6.729   9.286 -2.9589 -2.4040 -0.0941
 1405TIP3    H228411   6.032   6.602   9.316  0.2711 -0.2185  1.3227
 1406TIP3   OH228412   0.224   3.889  12.062 -0.2186  0.0712  0.1533
 1406TIP3    H128413   0.135   3.861  12.085  0.7215 -1.8898  1.8631
 1406TIP3    H228414   0.217   3.983  12.046 -2.7012 -0.1553 -0.4957
 1407TIP3   OH228415   6.222   5.312  11.832  0.2227  0.4114 -0.5342
 1407TIP3    H128416   6.187   5.351  11.752 -0.3904  1.9609  0.4433
 1407TIP3    H228417   6.149   5.261  11.867 -0.2399  1.4794  0.1180
 1408TIP3   OH228418   4.888   6.054  10.325 -0.1383  0.1300  0.7488
 1408TIP3    H128419   4.878   6.139  10.368 -1.4872  0.1358  0.4857
 1408TIP3    H228420   4.963   6.065  10.267  1.2440  0.3667  2.4904
 1409TIP3   OH228421   2.921   4.616   9.805 -0.4555  0.5838  0.1768
 1409TIP3    H128422   2.936   4.704   9.770 -1.5503  0.8644  0.3930
 1409TIP3    H228423   2.826   4.607   9.809 -0.3958 -1.0388 -0.8964
 1410TIP3   OH228424   4.767   3.133  11.829 -0.8770 -0.1636 -0.5004
 1410TIP3    H128425   4.747   3.049  11.870 -1.8932  0.2850 -0.0419
 1410TIP3    H228426   4.855   3.154  11.859 -0.1801 -1.5249 -1.4363
 1411TIP3   OH228427   6.628   1.425  10.070  0.0881  0.0092 -0.4324
 1411TIP3    H128428   6.541   1.461  10.054 -0.0249  0.5148  1.1256
 1411TIP3    H228429   6.670   1.422   9.984 -1.1452  0.6145 -1.0676
 1412TIP3   OH228430   2.817   2.413  11.219 -0.6097 -0.0531 -0.1500
 1412TIP3    H128431   2.868   2.480  11.173  1.7179 -0.7947  1.1351
 1412TIP3    H228432   2.774   2.460  11.290  1.2995  0.1224  0.9678
 1413TIP3   OH228433   0.916   0.654  11.705  0.2747  0.0701  0.6109
 1413TIP3    H128434   0.988   0.605  11.745  1.3604  0.7368 -0.4435
 1413TIP3    H228435   0.955   0.693  11.626 -1.5365 -0.4420 -0.5817
 1414TIP3   OH228436   2.726   4.706  10.510 -0.4962  0.3671 -0.1191
 1414TIP3    H128437   2.792   4.759  10.555 -0.1077 -0.3982  0.2296
 1414TIP3    H228438   2.771   4.674  10.432 -0.6325  0.2987 -0.1681
 1415TIP3   OH228439   2.637   1.677  10.739 -0.2628  0.3821  0.5818
 1415TIP3    H128440   2.596   1.597  10.706 -0.2680  0.8638 -0.6348
 1415TIP3    H228441   2.598   1.747  10.687  0.5938  1.0621  0.8346
 1416TIP3   OH228442   5.841   5.458  11.217 -0.5258 -0.6599  0.3641
 1416TIP3    H128443   5.788   5.386  11.182 -0.0222 -1.3259  0.9294
 1416TIP3    H228444   5.924   5.417  11.239 -0.6433 -0.1572  1.8421
 1417TIP3   OH228445   5.074   6.567  11.285  0.5875  0.1419  0.1885
 1417TIP3    H128446   5.070   6.485  11.236 -1.0826  0.0801  0.3690
 1417TIP3    H228447   5.142   6.552  11.351  0.5848 -0.9391 -0.0356
 1418TIP3   OH228448   3.969   0.898  11.572  0.0164  0.7906  0.2092
 1418TIP3    H128449   3.995   0.827  11.630  0.4404  1.0302  0.3188
 1418TIP3    H228450   3.998   0.869  11.485 -2.0535 -0.3045 -0.1867
 1419TIP3   OH228451   1.669   0.977   9.022 -0.1914 -0.0475  0.3990
 1419TIP3    H128452   1.691   1.054   9.074  2.2060 -0.0905 -0.4696
 1419TIP3    H228453   1.604   0.930   9.076 -0.2241  1.5368  1.8258
 1420TIP3   OH228454   3.334   2.496   9.260 -0.0681 -0.4367 -0.1934
 1420TIP3    H128455   3.289   2.576   9.286 -1.3123 -1.3485  0.5905
 1420TIP3    H228456   3.427   2.520   9.262 -0.4509  1.3527 -1.3782
 1421TIP3   OH228457   1.950   5.470   8.611 -0.0507  0.2969  0.0287
 1421TIP3    H128458   1.971   5.379   8.593  1.3515  0.8648 -1.4152
 1421TIP3    H228459   1.855   5.476   8.596 -0.2784 -1.0444  0.8160
 1422TIP3   OH228460   3.656   1.182  10.653 -0.3329 -0.3951  0.3024
 1422TIP3    H128461   3.703   1.256  10.615 -2.9515 -0.2115 -3.0630
 1422TIP3    H228462   3.575   1.220  10.687 -0.1924 -1.3172  1.7658
 1423TIP3   OH228463   3.533   1.997   9.464 -0.4575  0.3458 -0.4715
 1423TIP3    H128464   3.612   2.032   9.423  0.4707 -0.8554  0.2254
 1423TIP3    H228465   3.552   1.904   9.476 -0.6899  0.5865  2.5559
 1424TIP3   OH228466   4.466   1.727   9.746 -0.3768  0.0755  0.0978
 1424TIP3    H128467   4.406   1.769   9.807 -1.4800 -1.0427 -0.1815
 1424TIP3    H228468   4.425   1.739   9.660  0.0725 -0.2235 -0.1628
 1425TIP3   OH228469   0.327   1.243   8.615 -0.2333  0.5375  0.3991
 1425TIP3    H128470   0.262   1.310   8.596  1.1525  1.3408 -2.0678
 1425TIP3    H228471   0.407   1.274   8.571  1.5803 -0.8545  2.4590
 1426TIP3   OH228472   2.945   0.463  10.268  0.5838 -0.4391  0.0823
 1426TIP3    H128473   2.882   0.451  10.339  0.1652  1.4941  0.1086
 1426TIP3    H228474   3.016   0.402  10.287  0.1722 -0.4183  1.7971
 1427TIP3   OH228475   2.025   1.166  11.954 -0.4742 -0.2683  0.4095
 1427TIP3    H128476   2.115   1.188  11.977 -0.3247 -1.3608  0.9554
 1427TIP3    H228477   1.974   1.243  11.979  0.4506  0.8964 -1.1243
 1428TIP3   OH228478   5.945   2.791  11.704 -0.0082  0.1557  0.4324
 1428TIP3    H128479   5.882   2.786  11.632  1.2151  0.5372 -0.7099
 1428TIP3    H228480   5.891   2.793  11.783 -1.4140  0.3020 -0.4880
 1429TIP3   OH228481   6.540   5.117   9.929 -0.2380  0.7229 -0.6010
 1429TIP3    H128482   6.478   5.163   9.987  0.0102  1.1726 -0.6896
 1429TIP3    H228483   6.548   5.175   9.853 -1.3943 -0.3616 -1.5897
 1430TIP3   OH228484   5.258   6.292  11.393 -0.0867 -0.4693 -0.0063
 1430TIP3    H128485   5.173   6.314  11.430 -0.8980  1.8396 -2.8648
 1430TIP3    H228486   5.321   6.341  11.446 -0.9017  0.5426  0.0527
 1431TIP3   OH228487   2.349   0.272   9.636 -0.3270 -0.3696  0.2115
 1431TIP3    H128488   2.444   0.273   9.640 -0.1795  2.1671 -1.3448
 1431TIP3    H228489   2.321   0.314   9.718 -0.0053  0.3725 -0.0485
 1432TIP3   OH228490   5.877   2.996  12.280  0.1582 -0.0253  0.0969
 1432TIP3    H128491   5.957   2.947  12.301  0.0931  0.3843  1.3692
 1432TIP3    H228492   5.840   2.950  12.205 -0.1551 -2.2430  1.5272
 1433TIP3   OH228493   5.241   0.954  11.479 -0.5044 -0.6777 -0.0393
 1433TIP3    H128494   5.215   1.046  11.472  3.4400  0.5784 -0.9345
 1433TIP3    H228495   5.201   0.912  11.403 -1.5731  0.5106 -0.1686
 1434TIP3   OH228496   5.273   1.779   9.718 -0.0319  0.5769 -0.4904
 1434TIP3    H128497   5.334   1.813   9.653 -0.7293  0.4190 -1.2457
 1434TIP3    H228498   5.307   1.693   9.740 -0.8057 -0.2090 -2.1177
 1435TIP3   OH228499   3.084   3.691   9.654  0.4308 -0.0436  0.1343
 1435TIP3    H128500   3.038   3.675   9.571 -1.4468  0.2633  1.0486
 1435TIP3    H228501   3.149   3.757   9.633  0.8409 -0.8873 -1.3505
 1436TIP3   OH228502   3.843   5.186  10.018  0.2392  0.1921  0.2211
 1436TIP3    H128503   3.925   5.235  10.015  0.2110  0.2895  0.9179
 1436TIP3    H228504   3.827   5.160   9.927  1.5392 -0.6646  0.2056
 1437TIP3   OH228505   6.476   5.956   9.098  0.4190  0.3137 -0.4553
 1437TIP3    H128506   6.492   6.003   9.180  0.6315  0.0446 -0.3405
 1437TIP3    H228507   6.555   5.904   9.084 -1.1148 -2.7339  1.2644
 1438TIP3   OH228508   1.436   0.815  11.224 -0.2469  0.3331 -0.2738
 1438TIP3    H128509   1.365   0.823  11.287 -1.2662  0.6834 -1.4370
 1438TIP3    H228510   1.431   0.724  11.192 -0.8672  0.6525 -1.1274
 1439TIP3   OH228511   2.534   3.062   9.503 -0.4264  0.2051  0.1725
 1439TIP3    H128512   2.514   3.037   9.413 -1.4850 -1.0055  0.7064
 1439TIP3    H228513   2.625   3.034   9.517 -0.9168 -1.5224  0.0934
 1440TIP3   OH228514   3.013   3.820  11.560 -0.4148  0.4671 -0.1336
 1440TIP3    H128515   2.949   3.755  11.588 -0.1940  0.1263 -0.4010
 1440TIP3    H228516   3.024   3.803  11.466 -0.6734  1.1740 -0.2999
 1441TIP3   OH228517   4.724   4.311   9.998 -0.5998 -0.2827  0.6031
 1441TIP3    H128518   4.809   4.297   9.956 -0.5143 -2.5631  1.4177
 1441TIP3    H228519   4.744   4.366  10.075 -0.0775  0.1845  0.1455
 1442TIP3   OH228520   1.651   3.040  10.977 -1.0569 -0.2686  0.0247
 1442TIP3    H128521   1.604   3.071  11.054 -1.0121  0.2781 -0.1663
 1442TIP3    H228522   1.589   3.051  10.905 -0.4470  1.0324 -0.3318
 1443TIP3   OH228523   1.638   1.645   9.693 -0.2888  0.0018 -0.2075
 1443TIP3    H128524   1.574   1.713   9.675  1.0551  1.5391  0.5872
 1443TIP3    H228525   1.719   1.692   9.713  0.7104 -1.8241  0.3143
 1444TIP3   OH228526   1.008   6.146  10.929 -0.3049 -0.6445  0.2879
 1444TIP3    H128527   1.072   6.164  10.860 -0.1202 -0.6414  0.4595
 1444TIP3    H228528   0.986   6.053  10.918 -1.0576 -0.3948 -0.4282
 1445TIP3   OH228529   5.172   2.135  12.172  0.1644 -0.2998 -0.2463
 1445TIP3    H128530   5.227   2.074  12.220 -0.7796 -0.4460  0.6797
 1445TIP3    H228531   5.124   2.081  12.110 -1.9021 -0.8429  1.6740
 1446TIP3   OH228532   1.123   1.474  12.048  0.0705 -0.0406 -0.1733
 1446TIP3    H128533   1.138   1.564  12.018  0.7551 -0.2279 -0.4248
 1446TIP3    H228534   1.207   1.448  12.086 -0.0866 -0.6217 -0.2244
 1447TIP3   OH228535   1.041   3.402  10.945 -0.2561 -0.6386 -0.6284
 1447TIP3    H128536   1.034   3.472  11.010 -0.8412  0.0806 -1.4397
 1447TIP3    H228537   1.105   3.341  10.981  1.6453  1.2141 -0.7325
 1448TIP3   OH228538   4.777   6.299  11.994 -0.5427  0.0580 -0.4004
 1448TIP3    H128539   4.836   6.367  11.960 -1.1242  0.3257 -0.8784
 1448TIP3    H228540   4.716   6.347  12.050 -0.8113 -0.1052 -0.5545
 1449TIP3   OH228541   4.489   2.428   8.903  0.1283 -0.4437  0.0942
 1449TIP3    H128542   4.405   2.455   8.867  0.3573  2.4354  1.4892
 1449TIP3    H228543   4.546   2.419   8.826 -0.7861  0.1410 -0.6715
 1450TIP3   OH228544   5.715   0.270  11.346  0.1212  0.1816  0.3724
 1450TIP3    H128545   5.638   0.235  11.391 -0.0822  1.0519  0.7140
 1450TIP3    H228546   5.728   0.212  11.271 -0.6206 -0.2090  0.5450
 1451TIP3   OH228547   6.681   1.512  11.517 -0.0235 -0.0233  0.1774
 1451TIP3    H128548   6.714   1.602  11.510  0.0786 -0.1056 -0.4461
 1451TIP3    H228549   6.600   1.520  11.567 -1.7327  0.8587 -2.5345
 1452TIP3   OH228550   5.949   3.264  12.284  0.1191  0.1189  0.1656
 1452TIP3    H128551   5.935   3.170  12.272  1.2777  0.0150 -0.6067
 1452TIP3    H228552   5.943   3.277  12.379 -5.5029  0.2750  0.1062
 1453TIP3   OH228553   4.781   2.243   9.712 -0.3264 -0.4149  0.2855
 1453TIP3    H128554   4.714   2.233   9.779 -1.0921 -1.4395 -0.5844
 1453TIP3    H228555   4.777   2.161   9.662 -0.9984  0.9424 -2.0723
 1454TIP3   OH228556   4.865   5.932   8.322  0.0759  0.5505 -0.1543
 1454TIP3    H128557   4.912   6.009   8.290  1.8481  0.1322  1.2339
 1454TIP3    H228558   4.923   5.895   8.389 -1.0158 -1.6144 -0.3066
 1455TIP3   OH228559   1.892   1.280   9.819 -0.6101  0.5059  0.1734
 1455TIP3    H128560   1.931   1.193   9.830 -2.7610 -0.4664  0.5387
 1455TIP3    H228561   1.825   1.268   9.752 -0.7985  1.9561  0.0715
 1456TIP3   OH228562   4.024   1.149   9.870  0.6649 -0.2982  0.5259
 1456TIP3    H128563   4.032   1.075   9.931  1.9233 -0.0481  0.6894
 1456TIP3    H228564   3.932   1.177   9.879 -0.1575 -2.5024 -0.3556
 1457TIP3   OH228565   2.211   3.386  11.727  0.0001 -0.3150 -0.2581
 1457TIP3    H128566   2.269   3.390  11.804 -1.3913  2.1030  0.7968
 1457TIP3    H228567   2.261   3.430  11.658  1.5744 -3.1784 -1.0845
 1458TIP3   OH228568   4.782   0.868  10.891 -0.6319 -0.3823 -0.6214
 1458TIP3    H128569   4.775   0.956  10.854  0.0234 -0.5756 -1.2094
 1458TIP3    H228570   4.718   0.816  10.842 -0.9787 -0.2564 -0.3117
 1459TIP3   OH228571   5.969   2.963   9.883  0.4852 -0.2074  0.0411
 1459TIP3    H128572   6.052   3.011   9.875  0.9179 -1.0415 -0.7736
 1459TIP3    H228573   5.995   2.871   9.883 -0.3844 -0.4662  0.7852
 1460TIP3   OH228574   6.290   6.607  11.364 -0.5437  0.8196  0.1875
 1460TIP3    H128575   6.308   6.670  11.435 -0.5070  1.5604 -0.4629
 1460TIP3    H228576   6.342   6.530  11.387 -1.3505  0.6371  1.5125
 1461TIP3   OH228577   1.928   6.268   9.617 -0.8848 -0.0917 -0.0214
 1461TIP3    H128578   1.973   6.207   9.675  0.3180  0.1986 -0.6277
 1461TIP3    H228579   1.995   6.331   9.592 -1.6281  0.3431 -0.9571
 1462TIP3   OH228580   2.245   6.397  11.292 -0.4483  0.4047 -0.7476
 1462TIP3    H128581   2.326   6.350  11.310 -0.9649  0.1626  1.0650
 1462TIP3    H228582   2.191   6.335  11.243 -1.1254 -0.9628  1.6099
 1463TIP3   OH228583   2.291   1.586  10.121 -0.2844 -0.5452  0.1322
 1463TIP3    H128584   2.253   1.669  10.091 -0.6451 -1.3959 -1.9409
 1463TIP3    H228585   2.226   1.520  10.099  1.0675 -1.6768 -0.6849
 1464TIP3   OH228586   3.831   3.444  11.849  0.0191  0.8212  0.4959
 1464TIP3    H128587   3.773   3.396  11.908 -2.7522  2.2836 -0.7886
 1464TIP3    H228588   3.821   3.535  11.875  1.7787  1.1332  0.1758
 1465TIP3   OH228589   1.143   1.731  11.694  0.3997 -0.0152  0.1802
 1465TIP3    H128590   1.107   1.819  11.684  1.0745  0.1519 -1.0669
 1465TIP3    H228591   1.235   1.745  11.714  0.1181 -0.4460  1.8889
 1466TIP3   OH228592   2.828   4.575  12.131 -0.6615  0.2914  0.6484
 1466TIP3    H128593   2.884   4.651  12.115 -1.2936  0.6752  0.2068
 1466TIP3    H228594   2.850   4.514  12.060  0.2279 -0.1823  1.3030
 1467TIP3   OH228595   2.128   0.124   8.910 -0.1038 -0.2185  0.0672
 1467TIP3    H128596   2.096   0.056   8.850 -0.1026 -0.5004  0.3821
 1467TIP3    H228597   2.053   0.182   8.923 -0.2935 -0.5061  0.2805
 1468TIP3   OH228598   2.057   6.597  10.195  0.1700 -0.1332  0.2506
 1468TIP3    H128599   2.078   6.656  10.267 -0.5828  0.8929 -0.3501
 1468TIP3    H228600   2.093   6.640  10.117  0.6485 -1.0463 -0.0446
 1469TIP3   OH228601   1.251   1.912  10.568 -0.4038 -0.5869 -0.0577
 1469TIP3    H128602   1.306   1.946  10.639 -2.3314  0.0234  1.2243
 1469TIP3    H228603   1.186   1.980  10.553 -0.4849 -1.0258 -1.9376
 1470TIP3   OH228604   1.501   0.878   9.246  0.6494  0.2982  0.2287
 1470TIP3    H128605   1.494   0.794   9.203  1.3588  0.5338 -0.3579
 1470TIP3    H228606   1.413   0.895   9.280 -0.0274  0.2707 -1.4220
 1471TIP3   OH228607   3.188   0.540   9.063  0.3162 -0.0000  0.3440
 1471TIP3    H128608   3.168   0.497   8.979 -1.0308 -2.1356  1.6692
 1471TIP3    H228609   3.102   0.555   9.102  0.9151  1.2483  1.2343
 1472TIP3   OH228610   4.391   6.541  12.202 -0.0047  0.1458  0.1808
 1472TIP3    H128611   4.350   6.599  12.138  0.9726 -0.3479 -0.9390
 1472TIP3    H228612   4.394   6.592  12.283 -0.5929  1.0606 -0.3571
 1473TIP3   OH228613   1.621   3.934  11.044 -0.4227  0.2490  1.1544
 1473TIP3    H128614   1.616   3.915  11.138 -0.2024 -1.5292  0.8384
 1473TIP3    H228615   1.711   3.964  11.031 -0.1141 -0.5598  1.3495
 1474TIP3   OH228616   0.744   0.933  11.102  0.3536  0.6309  0.0705
 1474TIP3    H128617   0.764   0.990  11.176  0.7786  1.1990 -0.4711
 1474TIP3    H228618   0.772   0.982  11.025  1.0059 -0.4325 -0.4011
 1475TIP3   OH228619   1.340   5.815  10.103  0.0966  0.0249 -0.6902
 1475TIP3    H128620   1.259   5.769  10.080  0.1524 -1.3245  1.4921
 1475TIP3    H228621   1.310   5.900  10.136 -0.3428 -0.0316 -0.9390
 1476TIP3   OH228622   1.941   1.717  11.361  0.3615  0.2627 -0.0513
 1476TIP3    H128623   1.955   1.626  11.335 -0.5904  0.0814  0.0270
 1476TIP3    H228624   2.011   1.765  11.317 -0.8605 -0.1140 -2.6027
 1477TIP3   OH228625   3.480   1.805  11.590 -0.3800 -0.9114 -0.1857
 1477TIP3    H128626   3.406   1.827  11.534 -0.1760  0.4875  0.0604
 1477TIP3    H228627   3.497   1.885  11.640  1.2910 -1.2047 -0.2229
 1478TIP3   OH228628   5.997   4.542  10.307  0.1556 -0.1944 -0.5003
 1478TIP3    H128629   5.925   4.481  10.296 -1.3183  0.8540  2.3762
 1478TIP3    H228630   5.989   4.602  10.232 -1.5125 -0.5253 -0.6163
 1479TIP3   OH228631   0.383   3.685  11.983  0.6685 -0.1923 -0.0250
 1479TIP3    H128632   0.337   3.606  12.012  1.2476 -0.4194  0.2859
 1479TIP3    H228633   0.327   3.757  12.012  0.8847 -0.4393  1.0600
 1480TIP3   OH228634   3.898   2.571   9.036 -0.0684 -0.1629  0.2042
 1480TIP3    H128635   3.809   2.545   9.012 -0.8753  2.0597  0.5526
 1480TIP3    H228636   3.914   2.529   9.120 -1.6930  1.1436  1.2268
 1481TIP3   OH228637   2.075   4.932  11.905 -0.3071  0.3900 -0.1211
 1481TIP3    H128638   2.036   4.854  11.946  0.8400  0.6448  1.5354
 1481TIP3    H228639   2.070   4.914  11.811 -0.7578 -1.3469  0.1921
 1482TIP3   OH228640   5.052   0.969   9.318  0.4631  0.5260  0.3515
 1482TIP3    H128641   5.021   1.035   9.380  1.8749  0.1776  1.4864
 1482TIP3    H228642   5.123   0.924   9.364 -0.3680 -1.7332 -0.4064
 1483TIP3   OH228643   6.586   2.596  12.154 -0.0171 -0.1600 -0.1929
 1483TIP3    H128644   6.498   2.562  12.139 -0.3833  0.7741 -0.2300
 1483TIP3    H228645   6.575   2.664  12.222  0.7171 -0.2398  0.0212
 1484TIP3   OH228646   0.335   1.374  11.454  0.4486 -0.3634 -0.4652
 1484TIP3    H128647   0.415   1.366  11.403  1.1953  0.6423  0.5048
 1484TIP3    H228648   0.292   1.453  11.421  1.0191  0.3877  0.5277
 1485TIP3   OH228649   4.248   2.070  10.098  0.0451 -0.2425 -0.2789
 1485TIP3    H128650   4.221   2.153  10.059  0.6645  0.4032  0.6190
 1485TIP3    H228651   4.318   2.094  10.159  0.7213 -1.5143 -0.5159
 1486TIP3   OH228652   5.863   1.540   9.563 -0.3923 -0.3413  0.0036
 1486TIP3    H128653   5.855   1.524   9.468 -0.7693  0.8857 -0.1809
 1486TIP3    H228654   5.798   1.607   9.581 -0.4295 -0.6793  1.1809
 1487TIP3   OH228655   4.563   0.167  11.039 -0.3823  0.3881  0.0238
 1487TIP3    H128656   4.516   0.143  11.119  0.7078  0.9730  0.8619
 1487TIP3    H228657   4.652   0.189  11.068 -0.2423  1.6310 -1.2065
 1488TIP3   OH228658   1.703   0.750  11.729  0.1315 -0.1669 -0.3923
 1488TIP3    H128659   1.726   0.660  11.704 -2.2108 -1.1912  0.7922
 1488TIP3    H228660   1.758   0.769  11.805 -1.0035 -1.5902  0.8549
 1489TIP3   OH228661   0.516   4.874  10.141  0.3752  0.1642  0.5300
 1489TIP3    H128662   0.428   4.855  10.109  0.2184  1.0721  0.3932
 1489TIP3    H228663   0.523   4.823  10.222 -0.4395  0.4199  0.7733
 1490TIP3   OH228664   1.256   0.391  11.707 -0.4468  0.3581  0.0213
 1490TIP3    H128665   1.327   0.367  11.767  0.0358  1.2039 -0.2072
 1490TIP3    H228666   1.197   0.444  11.760 -0.7320 -0.0350  0.1071
 1491TIP3   OH228667   3.179   2.011   9.057  0.3786  0.6525  0.6561
 1491TIP3    H128668   3.237   1.993   9.131  1.1867  1.9570  0.3673
 1491TIP3    H228669   3.196   1.940   8.995 -0.6993 -0.7626  1.9002
 1492TIP3   OH228670   2.758   2.325  10.839 -0.5158 -0.0107  0.1009
 1492TIP3    H128671   2.809   2.250  10.868 -1.1638 -0.6900 -0.4933
 1492TIP3    H228672   2.820   2.398  10.840  0.3503 -0.7308 -0.1759
 1493TIP3   OH228673   6.184   2.596   9.021  0.5994  0.5264 -0.1277
 1493TIP3    H128674   6.090   2.577   9.013  0.5191  0.6099  0.5669
 1493TIP3    H228675   6.216   2.592   8.931  0.3816 -1.8037 -0.1795
 1494TIP3   OH228676   5.071   2.636  10.040 -0.1071 -0.0724  0.0485
 1494TIP3    H128677   4.994   2.692  10.039  0.2432  0.4210  0.0351
 1494TIP3    H228678   5.134   2.682  10.096  0.4989 -0.0177 -0.6529
 1495TIP3   OH228679   1.170   3.902  10.158  0.4346  0.0746  0.1860
 1495TIP3    H128680   1.215   3.825  10.123 -0.8719 -0.7458  0.2312
 1495TIP3    H228681   1.134   3.873  10.242  0.6141  0.9882  0.5857
 1496TIP3   OH228682   3.685   1.434   9.976 -0.4202 -0.5196 -0.0146
 1496TIP3    H128683   3.735   1.440  10.058 -1.0861  1.6608  0.2683
 1496TIP3    H228684   3.612   1.376   9.997 -1.5042  1.2759  1.4923
 1497TIP3   OH228685   5.025   2.974   9.956  0.1499 -0.6856 -0.2512
 1497TIP3    H128686   5.117   2.996   9.975 -0.2777 -0.0438  1.1928
 1497TIP3    H228687   4.977   3.005  10.032 -1.3325 -0.6831 -1.1545
 1498TIP3   OH228688   5.423   4.702  11.579  0.6479 -0.1245  0.1259
 1498TIP3    H128689   5.431   4.607  11.591  2.1693 -0.2764 -1.6286
 1498TIP3    H228690   5.480   4.739  11.646 -1.1785 -0.3011  1.8970
 1499TIP3   OH228691   0.218   5.052   9.349  0.4622  0.3169  0.1097
 1499TIP3    H128692   0.240   5.064   9.256  0.1130 -0.2154 -0.0447
 1499TIP3    H228693   0.302   5.036   9.392  0.6214  0.5212 -0.1221
 1500TIP3   OH228694   6.315   0.118   9.540  0.3765 -0.7044 -0.5688
 1500TIP3    H128695   6.394   0.147   9.496  0.5434  1.0863  0.7547
 1500TIP3    H228696   6.271   0.061   9.478  3.1674 -2.5921 -0.9671
 1501TIP3   OH228697   0.581   0.598  10.194 -0.5191  0.3985  0.0030
 1501TIP3    H128698   0.673   0.602  10.169 -0.4506 -1.9785 -0.2748
 1501TIP3    H228699   0.541   0.537  10.132 -1.2559 -2.3001  2.8877
 1502TIP3   OH228700   5.745   5.250  11.874 -0.6216 -0.0009 -0.4877
 1502TIP3    H128701   5.757   5.344  11.891  0.3581 -0.4431  1.4851
 1502TIP3    H228702   5.817   5.227  11.815  0.0842  0.1822  0.2861
 1503TIP3   OH228703   5.373   5.419  10.714 -0.1155 -0.1656 -0.3412
 1503TIP3    H128704   5.419   5.451  10.791  1.1356  0.1417 -1.1873
 1503TIP3    H228705   5.302   5.482  10.701  1.2298  1.3012 -0.9316
 1504TIP3   OH228706   5.989   1.722   9.032  0.4107  0.2716  0.3453
 1504TIP3    H128707   5.936   1.672   8.970  0.6929 -1.4783  1.4183
 1504TIP3    H228708   6.063   1.754   8.981  0.2727 -0.5341 -0.3774
 1505TIP3   OH228709   0.991   2.786  10.340  0.0298  0.0990 -0.0237
 1505TIP3    H128710   0.994   2.783  10.244 -0.0190  0.5649 -0.0402
 1505TIP3    H228711   1.082   2.775  10.367  0.1853  0.9686 -0.1573
 1506TIP3   OH228712   0.316   1.339  10.794 -0.0811 -0.1094  0.4802
 1506TIP3    H128713   0.344   1.325  10.884  0.7113 -1.0505  0.1075
 1506TIP3    H228714   0.298   1.251  10.760  1.1139  0.0749 -0.7332
 1507TIP3   OH228715   3.003   5.262  11.579 -0.0893  0.1371  0.1161
 1507TIP3    H128716   2.944   5.186  11.579  2.5548 -2.1074 -0.7998
 1507TIP3    H228717   3.031   5.271  11.670 -0.0937 -0.2981  0.1638
 1508TIP3   OH228718   4.782   2.736  11.992 -0.3292 -0.1079  0.0624
 1508TIP3    H128719   4.748   2.646  11.984  1.0371 -0.7410  0.9812
 1508TIP3    H228720   4.709   2.791  11.965 -1.6702 -1.4543  0.7597
 1509TIP3   OH228721   4.475   2.667  11.707  0.3382  0.4164  0.5916
 1509TIP3    H128722   4.455   2.701  11.619 -0.2337 -0.1830  0.4784
 1509TIP3    H228723   4.389   2.648  11.745  0.5187  1.6967  1.7163
 1510TIP3   OH228724   2.506   4.986  11.786 -0.5754  0.1339  0.1884
 1510TIP3    H128725   2.592   4.984  11.743 -1.5283  0.7111 -1.8824
 1510TIP3    H228726   2.457   4.915  11.744 -1.6039  0.8080  0.2364
 1511TIP3   OH228727   5.823   0.197  12.123 -0.5142 -0.1087  0.3416
 1511TIP3    H128728   5.778   0.131  12.175 -1.3867 -0.2472 -0.5686
 1511TIP3    H228729   5.909   0.158  12.104  1.1250  1.1479  4.1798
 1512TIP3   OH228730   3.943   1.776   8.931  0.1608 -0.7844 -0.7937
 1512TIP3    H128731   3.886   1.756   8.856  0.6958 -0.9342 -1.1710
 1512TIP3    H228732   3.948   1.871   8.931  0.1883 -0.7843 -0.9734
 1513TIP3   OH228733   4.385   1.018  10.485  0.1124  0.0141 -0.0364
 1513TIP3    H128734   4.403   1.077  10.558  0.1150 -0.2421  0.1734
 1513TIP3    H228735   4.440   1.050  10.414 -0.0394  0.3841  0.0139
 1514TIP3   OH228736   5.630   0.151   8.700  0.2554  0.4386 -0.0598
 1514TIP3    H128737   5.643   0.127   8.608  1.6208  0.3888  0.1225
 1514TIP3    H228738   5.598   0.241   8.696 -1.3294 -0.1248 -0.6236
 1515TIP3   OH228739   5.880   0.077   8.843  0.0204 -0.0217  0.2351
 1515TIP3    H128740   5.917   0.070   8.755 -0.1873 -1.7121  0.2527
 1515TIP3    H228741   5.793   0.114   8.830 -0.2513 -0.8418 -0.3433
 1516TIP3   OH228742   5.728   4.522  10.883  0.2507 -0.0950  0.3043
 1516TIP3    H128743   5.700   4.465  10.954 -0.4543 -1.0356 -0.7018
 1516TIP3    H228744   5.785   4.586  10.925  0.1734 -0.8707  1.6454
 1517TIP3   OH228745   3.836   2.320  11.798  0.3138 -0.3044 -0.1870
 1517TIP3    H128746   3.881   2.401  11.772 -0.2742 -0.3128 -1.2943
 1517TIP3    H228747   3.802   2.339  11.885  3.1504 -0.5865  1.1218
 1518TIP3   OH228748   4.366   3.345  11.875  0.0441  0.3147  0.1921
 1518TIP3    H128749   4.370   3.437  11.850 -0.9542  0.5073  0.6772
 1518TIP3    H228750   4.272   3.323  11.873  0.2782 -0.7339 -0.0713
 1519TIP3   OH228751   0.060   0.972  10.539  0.2031 -0.2005 -0.1870
 1519TIP3    H128752   0.070   0.889  10.492 -0.2854  0.6744 -1.9266
 1519TIP3    H228753  -0.017   1.013  10.500  0.4205  1.0748  0.6407
 1520TIP3   OH228754   0.920   1.461   8.783 -0.3244 -0.3324 -0.6603
 1520TIP3    H128755   0.907   1.549   8.745  2.2280  0.2481 -0.3554
 1520TIP3    H228756   0.875   1.402   8.722 -0.2639  1.0005 -2.0594
 1521TIP3   OH228757   0.878   1.669   8.622 -0.3230 -0.0838  0.2083
 1521TIP3    H128758   0.895   1.662   8.528 -2.5138  0.2777 -0.2465
 1521TIP3    H228759   0.885   1.763   8.641  0.6029 -0.2060  0.5309
 1522TIP3   OH228760   4.575   1.530   8.677  0.5298  0.1103 -0.2069
 1522TIP3    H128761   4.637   1.597   8.649 -0.1559  0.6025 -0.5796
 1522TIP3    H228762   4.541   1.494   8.596  1.6678 -1.4628 -0.0393
 1523TIP3   OH228763   6.625   4.486  10.930  0.0298  0.2914  0.1926
 1523TIP3    H128764   6.561   4.445  10.988  0.1295  0.3681  0.3574
 1523TIP3    H228765   6.575   4.551  10.880 -0.4447 -1.0243 -1.1274
 1524TIP3   OH228766   5.243   4.078  11.550 -0.0834 -0.2041  0.0969
 1524TIP3    H128767   5.174   4.081  11.484  0.2610 -1.7514 -0.3812
 1524TIP3    H228768   5.284   4.164  11.545 -1.3519  0.4079 -0.2786
 1525TIP3   OH228769   1.622   3.851  11.308  0.3157 -0.7881 -0.2476
 1525TIP3    H128770   1.597   3.761  11.291 -0.5851 -0.9695  1.7082
 1525TIP3    H228771   1.679   3.846  11.385 -0.6670  0.3611  0.6006
 1526TIP3   OH228772   2.583   3.845   9.359  0.1840 -0.0044 -0.1457
 1526TIP3    H128773   2.645   3.782   9.395  0.9075  0.4350 -0.5881
 1526TIP3    H228774   2.509   3.792   9.328  0.1523 -0.4976  0.7396
 1527TIP3   OH228775   3.460   1.222  12.074 -0.3010 -0.1349 -0.2903
 1527TIP3    H128776   3.464   1.318  12.069  0.0744 -0.1648 -0.7391
 1527TIP3    H228777   3.543   1.194  12.035 -0.9704 -0.6751 -1.3841
 1528TIP3   OH228778   4.885   2.476   9.930  0.3320  0.1677 -0.1085
 1528TIP3    H128779   4.912   2.412   9.864  0.7290 -1.1131  1.2490
 1528TIP3    H228780   4.966   2.518   9.958 -0.0057  2.0496 -1.6716
 1529TIP3   OH228781   6.478   0.249  10.292 -0.7035 -0.2835 -0.2755
 1529TIP3    H128782   6.454   0.209  10.208 -0.0471 -0.1899 -0.5172
 1529TIP3    H228783   6.471   0.177  10.355  1.4656 -1.1186 -0.8732
 1530TIP3   OH228784   2.945   0.716  10.348 -0.1613 -0.1864 -0.8510
 1530TIP3    H128785   2.960   0.765  10.267  1.1770  0.9535  0.0381
 1530TIP3    H228786   2.938   0.624  10.320 -2.1782  0.3785 -2.4928
 1531TIP3   OH228787   1.671   4.273  10.087  0.3144 -0.3124  0.1236
 1531TIP3    H128788   1.693   4.185  10.119  1.8510  0.0778  0.2469
 1531TIP3    H228789   1.752   4.304  10.047 -0.4584  0.7286 -0.6766
 1532TIP3   OH228790   0.084   1.297   9.428  0.4453 -0.3242 -0.2905
 1532TIP3    H128791   0.067   1.209   9.396 -0.3119 -1.0031  1.8080
 1532TIP3    H228792   0.005   1.346   9.405 -0.3713 -0.9727  1.0007
 1533TIP3   OH228793   1.622   4.490   9.898  0.2933 -0.1849  0.4364
 1533TIP3    H128794   1.649   4.576   9.868 -1.6834  0.0050 -1.0336
 1533TIP3    H228795   1.631   4.433   9.822  2.1493 -1.4770  1.5414
 1534TIP3   OH228796   4.457   4.502   9.606 -0.4341 -0.2524  0.0154
 1534TIP3    H128797   4.520   4.431   9.592 -2.0342 -2.0722  1.3587
 1534TIP3    H228798   4.389   4.487   9.540 -0.1251  0.8854 -0.5735
 1535TIP3   OH228799   0.029   6.149  10.260 -0.3363 -0.4272 -0.0071
 1535TIP3    H128800   0.084   6.091  10.312 -0.3524 -1.2248 -0.8415
 1535TIP3    H228801  -0.059   6.113  10.271 -0.5751  0.3242  0.6284
 1536TIP3   OH228802   3.217   0.928   8.820 -0.4747 -0.0681  0.1541
 1536TIP3    H128803   3.260   0.977   8.750 -1.7832 -0.0633 -0.6898
 1536TIP3    H228804   3.179   0.852   8.775 -0.3586 -0.6776  1.0671
 1537TIP3   OH228805   5.146   0.163   9.313 -0.0457 -0.3708 -0.0453
 1537TIP3    H128806   5.178   0.116   9.390  0.3743 -0.1352 -0.0722
 1537TIP3    H228807   5.082   0.225   9.348  1.5253  1.0889  0.3955
 1538TIP3   OH228808   3.661   1.142  10.245 -0.2456 -0.0216 -0.1778
 1538TIP3    H128809   3.699   1.079  10.306 -0.3880 -1.0621 -1.1430
 1538TIP3    H228810   3.578   1.167  10.286  0.6890  1.0398  1.1510
 1539TIP3   OH228811   6.526   2.209  10.553  0.2928  0.1934 -0.0081
 1539TIP3    H128812   6.532   2.274  10.623  0.3073  1.2736 -0.9587
 1539TIP3    H228813   6.616   2.203  10.519  0.2741 -0.2713  0.0302
 1540TIP3   OH228814   1.864   5.332  11.490 -0.6048  0.3061  0.2058
 1540TIP3    H128815   1.921   5.256  11.504 -0.8908  0.1553  0.5761
 1540TIP3    H228816   1.786   5.296  11.446 -0.7021  0.3992  0.3017
 1541TIP3   OH228817   3.962   1.929  11.274 -0.2442  0.7230  0.0915
 1541TIP3    H128818   3.934   1.922  11.183 -0.2221  1.4513  0.0251
 1541TIP3    H228819   4.048   1.972  11.270  0.4930 -0.6743  0.3541
 1542TIP3   OH228820   0.823   0.678  11.422 -0.0404 -0.1871  0.6088
 1542TIP3    H128821   0.872   0.719  11.351  1.0173  1.2428  2.0753
 1542TIP3    H228822   0.856   0.589  11.426  0.1938 -0.1581 -0.4060
 1543TIP3   OH228823   4.714   0.071  11.501 -0.1560  0.0163 -0.3918
 1543TIP3    H128824   4.664   0.025  11.569 -0.2462  0.6691 -0.0143
 1543TIP3    H228825   4.723   0.006  11.431  1.4278 -1.2545  0.9095
 1544TIP3   OH228826   6.654   4.154  11.700 -0.4410  0.2724 -0.1731
 1544TIP3    H128827   6.654   4.066  11.739 -0.5160  0.1745 -0.3958
 1544TIP3    H228828   6.627   4.141  11.610 -1.0896  0.5982 -0.0378
 1545TIP3   OH228829   3.142   1.681   9.160  0.0456 -0.7736  0.3181
 1545TIP3    H128830   3.196   1.720   9.229  1.0635 -1.9924  0.2402
 1545TIP3    H228831   3.162   1.732   9.082 -0.9466  0.4735  0.8509
 1546TIP3   OH228832   1.584   6.423  10.392  0.4714  0.5154  0.0256
 1546TIP3    H128833   1.583   6.355  10.325  1.3951 -1.0767  1.5538
 1546TIP3    H228834   1.677   6.433  10.415  0.1562  0.8989  1.1924
 1547TIP3   OH228835   0.738   4.950   9.901  0.2246 -0.5993 -0.0269
 1547TIP3    H128836   0.749   4.866   9.857  0.6774 -1.1982  1.1890
 1547TIP3    H228837   0.661   4.939   9.956 -0.1063  0.0123 -0.3511
 1548TIP3   OH228838   5.841   4.967  11.786 -0.1934 -0.3090  0.4437
 1548TIP3    H128839   5.915   4.969  11.847  0.5580 -0.2723 -0.4417
 1548TIP3    H228840   5.849   5.048  11.737 -0.8290 -0.3061  0.3429
 1549TIP3   OH228841   3.433   3.207   9.236 -0.5071 -0.2695 -0.1068
 1549TIP3    H128842   3.400   3.118   9.226 -1.8395  0.0179  1.3180
 1549TIP3    H228843   3.510   3.198   9.292 -0.6083 -0.5250 -0.0085
 1550TIP3   OH228844   5.168   1.604  10.501  0.3561  0.0049  0.2424
 1550TIP3    H128845   5.166   1.685  10.553 -0.2164  1.3160 -1.7284
 1550TIP3    H228846   5.209   1.629  10.418 -0.8688 -1.4307 -0.8482
 1551TIP3   OH228847   4.929   5.234  11.199  0.0099 -0.7296  0.6253
 1551TIP3    H128848   4.993   5.274  11.257 -0.9222  0.1544  1.0796
 1551TIP3    H228849   4.905   5.304  11.137 -0.6930 -0.9667  0.6202
 1552TIP3   OH228850   5.884   2.029   9.376  0.1312 -0.7213  0.1924
 1552TIP3    H128851   5.801   2.069   9.353 -0.6421 -1.8437  0.8940
 1552TIP3    H228852   5.915   2.080   9.451  0.4565  0.1547 -0.5216
 1553TIP3   OH228853   2.508   0.898   8.018 -0.2899 -0.4901 -0.5370
 1553TIP3    H128854   2.422   0.905   7.976 -1.7236 -1.7822  1.9282
 1553TIP3    H228855   2.526   0.987   8.049 -1.4479 -0.4529  0.1073
 1554TIP3   OH228856   5.431   4.289  11.021 -0.4350 -0.4686 -0.0557
 1554TIP3    H128857   5.472   4.349  10.960  0.2292 -0.5248  0.3244
 1554TIP3    H228858   5.491   4.285  11.096 -1.4657 -0.0212  0.8204
 1555TIP3   OH228859   2.562   5.490   9.648  0.3382  0.0137  0.3424
 1555TIP3    H128860   2.491   5.537   9.691 -1.3523  0.8754 -3.0478
 1555TIP3    H228861   2.601   5.554   9.589  1.9854 -1.2976 -0.0773
 1556TIP3   OH228862   2.762   6.179  10.120 -0.0403 -0.1316 -0.3636
 1556TIP3    H128863   2.771   6.223  10.204  0.6254 -2.0659  0.6253
 1556TIP3    H228864   2.746   6.251  10.058  0.8442  1.4868  1.1681
 1557TIP3   OH228865   2.186   3.634  10.943  0.6150  0.2323 -0.0372
 1557TIP3    H128866   2.261   3.577  10.925 -0.1284 -0.1954 -1.9785
 1557TIP3    H228867   2.110   3.575  10.944  0.2152  0.7128  1.5367
 1558TIP3   OH228868   5.399   3.485  10.096 -0.5592 -0.0397  0.1128
 1558TIP3    H128869   5.473   3.437  10.060  0.5734  1.5863  0.1956
 1558TIP3    H228870   5.424   3.505  10.186 -0.6271  1.4083 -0.1633
 1559TIP3   OH228871   6.072   6.462  11.226  0.2562  0.1263  0.2244
 1559TIP3    H128872   6.135   6.523  11.265  1.3562 -0.6883 -0.2491
 1559TIP3    H228873   6.103   6.448  11.137 -2.0517  1.6992 -0.9145
 1560TIP3   OH228874   6.315   3.173  11.078  0.2468 -0.2495  0.3437
 1560TIP3    H128875   6.304   3.160  11.172  2.5176 -0.1435  0.6850
 1560TIP3    H228876   6.278   3.095  11.038 -1.1823 -0.0850  1.2517
 1561TIP3   OH228877   1.279   1.659  10.150 -0.0639  0.3626 -0.1636
 1561TIP3    H128878   1.248   1.584  10.200 -0.3904  1.1758  0.8976
 1561TIP3    H228879   1.361   1.685  10.193  0.2048  0.4444 -0.7058
 1562TIP3   OH228880   5.759   6.114  10.271  0.2226  0.6557 -0.3033
 1562TIP3    H128881   5.775   6.193  10.220 -0.9348  1.0062 -0.1415
 1562TIP3    H228882   5.704   6.059  10.215  0.2844  0.3454 -0.0679
 1563TIP3   OH228883   3.182   3.477   9.786 -0.0279 -0.7341  0.2679
 1563TIP3    H128884   3.157   3.541   9.719  0.3844 -0.0443  0.7614
 1563TIP3    H228885   3.099   3.443   9.818 -0.2320 -1.3423 -0.8358
 1564TIP3   OH228886   6.562   0.164  10.678 -0.3536 -0.1187  0.1723
 1564TIP3    H128887   6.515   0.139  10.757 -0.6298 -0.3576 -0.0659
 1564TIP3    H228888   6.515   0.121  10.607  0.8266 -1.2026  0.0084
 1565TIP3   OH228889   4.149   0.273   9.897  0.0115  0.0208 -0.2671
 1565TIP3    H128890   4.204   0.241   9.825  0.4769 -2.4954  1.0894
 1565TIP3    H228891   4.075   0.212   9.899  0.5597 -0.6347  2.0252
 1566TIP3   OH228892   0.075   0.429   9.016  0.2067  0.3777  0.0190
 1566TIP3    H128893   0.100   0.497   8.953 -0.3606  0.4465 -0.1313
 1566TIP3    H228894   0.035   0.477   9.088  0.8287  0.2961  0.4244
 1567TIP3   OH228895   4.990   0.438  10.435 -0.1884 -0.5930  0.2485
 1567TIP3    H128896   5.051   0.379  10.478 -1.8690 -1.6407  1.2975
 1567TIP3    H228897   4.937   0.474  10.505 -0.4559  0.7294 -0.5804
 1568TIP3   OH228898   4.336   1.631   8.763  0.3192 -0.1894  0.5353
 1568TIP3    H128899   4.414   1.595   8.720 -1.3308 -2.7138 -0.6057
 1568TIP3    H228900   4.330   1.582   8.846  0.1364  0.2504  0.7863
 1569TIP3   OH228901   6.312   5.674  10.733  0.4447 -0.7282 -0.4563
 1569TIP3    H128902   6.287   5.766  10.729 -2.1406 -1.3147  0.4691
 1569TIP3    H228903   6.272   5.635  10.655  2.3501 -0.9634 -1.3899
 1570TIP3   OH228904   3.629   5.434  10.484  0.4939 -0.0708 -0.5355
 1570TIP3    H128905   3.695   5.393  10.428  0.8660  1.3725 -1.1839
 1570TIP3    H228906   3.559   5.460  10.423 -0.3268 -0.8552  0.0388
 1571TIP3   OH228907   3.057   6.217  12.021  0.2991 -0.4588  0.2001
 1571TIP3    H128908   3.081   6.125  12.027  0.6868 -0.3119  1.1017
 1571TIP3    H228909   3.136   6.261  11.988 -0.6041 -0.7277 -2.5799
 1572TIP3   OH228910   6.580   6.245  10.513  0.0438 -0.4672  0.1664
 1572TIP3    H128911   6.535   6.178  10.461  0.3274 -0.8060  0.3547
 1572TIP3    H228912   6.645   6.196  10.564 -0.5780 -0.2194  1.2319
 1573TIP3   OH228913   0.383   1.133  10.118 -0.6030 -0.4073  0.2714
 1573TIP3    H128914   0.328   1.169  10.048 -0.3124 -1.6693 -0.6473
 1573TIP3    H228915   0.412   1.048  10.084 -2.4471 -2.2375  2.9287
 1574TIP3   OH228916   6.655   5.867  11.940 -0.0525  0.3522 -0.6975
 1574TIP3    H128917   6.644   5.871  11.844  1.0330  1.4222 -0.7903
 1574TIP3    H228918   6.701   5.784  11.955 -1.8008 -0.7090 -0.9153
 1575TIP3   OH228919   4.014   0.168  10.144 -0.0207 -0.3594 -0.2502
 1575TIP3    H128920   3.949   0.100  10.124  0.2335 -1.1614  1.4766
 1575TIP3    H228921   4.003   0.185  10.237  1.3362  0.4731 -0.2207
 1576TIP3   OH228922   3.150   5.653  10.574 -0.1623  0.1143 -0.1818
 1576TIP3    H128923   3.189   5.596  10.508  0.1414 -0.8320  0.7860
 1576TIP3    H228924   3.224   5.679  10.629 -0.5775 -0.0145  0.4439
 1577TIP3   OH228925   2.300   5.558   9.746 -0.4466  0.0423 -0.0796
 1577TIP3    H128926   2.250   5.513   9.678  2.8052 -0.2884 -2.4710
 1577TIP3    H228927   2.290   5.651   9.726  0.7478 -0.0643 -1.2872
 1578TIP3   OH228928   0.784   5.427  10.260  0.2551  0.0261  0.1600
 1578TIP3    H128929   0.788   5.343  10.214  0.8071 -0.1156  0.4603
 1578TIP3    H228930   0.700   5.426  10.305 -0.1588  0.0364 -0.5925
 1579TIP3   OH228931   0.178   0.985   9.809 -0.3401 -0.1045 -0.6008
 1579TIP3    H128932   0.110   1.034   9.855 -0.6451  1.9188 -3.0452
 1579TIP3    H228933   0.135   0.903   9.783  0.3891 -2.4292  4.1948
 1580TIP3   OH228934   1.934   4.054  10.627  0.4223  0.2186 -0.0520
 1580TIP3    H128935   1.949   4.120  10.559 -0.2995 -0.3275 -0.7622
 1580TIP3    H228936   1.851   4.079  10.667 -1.1644 -1.5948 -2.0005
 1581TIP3   OH228937   6.629   0.443  10.388  0.0646 -0.3000  0.3935
 1581TIP3    H128938   6.559   0.378  10.390 -0.2648 -0.0457 -1.2642
 1581TIP3    H228939   6.688   0.417  10.458 -1.3960 -0.8391  1.4802
 1582TIP3   OH228940   6.555   5.758   9.385 -0.1933  0.1075 -1.0945
 1582TIP3    H128941   6.480   5.702   9.368  0.3767 -1.7559  1.7641
 1582TIP3    H228942   6.517   5.843   9.406 -1.6227 -0.9103  0.7511
 1583TIP3   OH228943   5.702   3.156  10.327  0.1609 -0.0745  0.6140
 1583TIP3    H128944   5.735   3.241  10.300  0.8553 -0.4605  0.2332
 1583TIP3    H228945   5.607   3.169  10.338  0.1992  0.6258  0.1246
 1584TIP3   OH228946   4.815   4.842   8.885  0.0083 -0.4705  0.0536
 1584TIP3    H128947   4.779   4.867   8.970 -1.1044  1.3445 -0.8540
 1584TIP3    H228948   4.738   4.834   8.829  0.7965 -0.1459 -1.1120
 1585TIP3   OH228949   1.182   0.225  12.072  0.0825 -0.1962 -0.0349
 1585TIP3    H128950   1.122   0.176  12.016 -0.1659 -0.6350  0.5990
 1585TIP3    H228951   1.152   0.206  12.161  2.2398 -1.8841  0.4061
 1586TIP3   OH228952   1.145   4.552  11.991 -0.4994  0.5389 -0.0202
 1586TIP3    H128953   1.228   4.600  11.995  0.5945 -0.9335 -2.6150
 1586TIP3    H228954   1.087   4.609  11.941  0.0338  0.2266 -1.0265
 1587TIP3   OH228955   4.565   6.316  10.480  0.1869  0.7175  0.5235
 1587TIP3    H128956   4.590   6.366  10.558 -0.3737  0.3423  0.9523
 1587TIP3    H228957   4.583   6.375  10.407  1.7370  0.6969  0.8478
 1588TIP3   OH228958   1.864   1.618  10.398 -0.5761 -0.2997 -0.1067
 1588TIP3    H128959   1.883   1.603  10.491 -0.8710 -1.1421 -0.1756
 1588TIP3    H228960   1.802   1.550  10.374  1.9209 -2.1794 -1.7300
 1589TIP3   OH228961   6.497   0.474   9.475  0.0603 -0.0366 -0.0855
 1589TIP3    H128962   6.562   0.535   9.509  0.1689 -0.2460  0.0880
 1589TIP3    H228963   6.413   0.510   9.503  0.1566 -0.3153  0.5955
 1590TIP3   OH228964   6.674   3.200  10.792  0.2946 -0.1658  0.3671
 1590TIP3    H128965   6.724   3.140  10.847  0.3932 -0.5437 -0.1310
 1590TIP3    H228966   6.678   3.162  10.704  0.5019  0.6573  0.0071
 1591TIP3   OH228967   3.844   0.348   8.300 -0.1127  0.5261 -0.1361
 1591TIP3    H128968   3.886   0.288   8.238 -1.7712 -0.2059 -0.6298
 1591TIP3    H228969   3.870   0.316   8.386 -1.3539 -1.2940 -0.3671
 1592TIP3   OH228970   0.481   6.466  10.337  0.6423 -0.2515 -0.5025
 1592TIP3    H128971   0.565   6.426  10.315 -0.2685 -0.7004 -3.7360
 1592TIP3    H228972   0.416   6.399  10.317 -0.5850 -0.3328  2.9992
 1593TIP3   OH228973   6.090   4.318  12.077  0.5884 -0.3340  0.0799
 1593TIP3    H128974   6.084   4.223  12.075 -0.9054 -0.2778  0.5090
 1593TIP3    H228975   6.108   4.343  11.987  1.1278 -1.0221 -0.0138
 1594TIP3   OH228976   5.048   3.817  10.056 -0.6066 -0.0961  0.0070
 1594TIP3    H128977   5.104   3.750  10.016 -0.0811  0.8084 -0.7991
 1594TIP3    H228978   5.096   3.844  10.134 -0.2108  0.2209 -0.3397
 1595TIP3   OH228979   3.690   5.787  12.180 -0.2455 -0.2041  0.0979
 1595TIP3    H128980   3.649   5.733  12.247  0.1842  0.0294  0.5637
 1595TIP3    H228981   3.747   5.727  12.132 -1.0523 -0.5080 -0.4936
 1596TIP3   OH228982   6.491   4.688   9.641  0.0750  0.6168 -0.4976
 1596TIP3    H128983   6.466   4.748   9.712 -1.3715 -0.4738 -0.0187
 1596TIP3    H228984   6.407   4.659   9.604  0.7336 -0.8228 -0.9285
 1597TIP3   OH228985   1.515   3.357  10.680 -0.0482 -0.4859 -0.3631
 1597TIP3    H128986   1.514   3.263  10.697  1.3612 -0.3596  0.5735
 1597TIP3    H228987   1.563   3.367  10.598 -0.4199 -0.5906 -0.5967
 1598TIP3   OH228988   5.487   5.166  10.756  0.2443 -0.1016  0.2459
 1598TIP3    H128989   5.477   5.121  10.672  1.3901  0.6596 -0.3367
 1598TIP3    H228990   5.449   5.253  10.741 -0.3112 -0.2473  0.7896
 1599TIP3   OH228991   2.360   2.853   9.603 -0.2005 -0.0530  0.6999
 1599TIP3    H128992   2.434   2.914   9.608 -0.2604 -0.0155  1.1461
 1599TIP3    H228993   2.293   2.901   9.554  0.5123 -0.5450 -0.8296
 1600TIP3   OH228994   3.043   4.392  10.887 -0.3679  0.3157  0.0108
 1600TIP3    H128995   3.108   4.404  10.956 -0.9485 -0.1026  0.6425
 1600TIP3    H228996   3.051   4.470  10.832  0.0025  0.7189  0.6287
 1601TIP3   OH228997   2.436   5.753   8.718  0.1872 -0.2958 -0.4078
 1601TIP3    H128998   2.444   5.734   8.811  1.5278  3.3589  0.4027
 1601TIP3    H228999   2.379   5.830   8.714 -0.1652 -0.5969 -2.6699
 1602TIP3   OH229000   1.360   5.304  12.093 -0.5394 -0.2220 -0.2292
 1602TIP3    H129001   1.307   5.255  12.155  0.0776  0.5319  0.9281
 1602TIP3    H229002   1.296   5.347  12.036 -1.0972 -1.6741 -0.7502
 1603TIP3   OH229003   6.676   1.702   9.419 -0.6070  0.3712  0.7145
 1603TIP3    H129004   6.598   1.718   9.367 -0.0487  1.5035  0.1906
 1603TIP3    H229005   6.749   1.717   9.359  0.1305  3.5940  2.1670
 1604TIP3   OH229006   3.679   1.955  10.105 -0.5902 -0.8357 -0.2507
 1604TIP3    H129007   3.660   1.924  10.016  1.3323  0.4822 -1.2099
 1604TIP3    H229008   3.770   1.985  10.100 -0.6817 -0.0329  1.9942
 1605TIP3   OH229009   5.293   5.126   9.183 -0.6840  0.0067 -0.3290
 1605TIP3    H129010   5.212   5.119   9.132 -1.5919 -0.2289  1.1020
 1605TIP3    H229011   5.338   5.203   9.147 -2.1583  0.9127 -0.3081
 1606TIP3   OH229012   3.369   5.176  10.339 -0.2766  0.0137  0.0412
 1606TIP3    H129013   3.407   5.095  10.305 -0.8283 -0.1785 -0.1341
 1606TIP3    H229014   3.285   5.148  10.377 -0.3354  0.4580  0.2411
 1607TIP3   OH229015   6.612   6.572  12.260  0.0852  0.0020  0.1755
 1607TIP3    H129016   6.573   6.658  12.274 -0.7849 -0.0228 -1.7710
 1607TIP3    H229017   6.569   6.515  12.323 -0.8569  0.5978  0.0912
 1608TIP3   OH229018   3.123   3.574  10.968  0.5130  0.5266  0.0916
 1608TIP3    H129019   3.078   3.497  10.932 -0.5757  1.2068 -0.0718
 1608TIP3    H229020   3.053   3.639  10.978  0.7603  0.4471  3.3418
 1609TIP3   OH229021   0.865   2.184   8.955  0.6282 -0.8363  0.2887
 1609TIP3    H129022   0.780   2.217   8.985 -0.2803 -1.8637 -1.0556
 1609TIP3    H229023   0.919   2.183   9.033 -1.1901 -2.0230  1.6047
 1610TIP3   OH229024   2.088   4.817  10.159 -0.0226 -0.5561 -0.1484
 1610TIP3    H129025   2.142   4.739  10.152 -0.0839 -0.5498 -0.7746
 1610TIP3    H229026   2.000   4.787  10.138 -0.0601 -0.3413 -0.3025
 1611TIP3   OH229027   5.244   0.599  11.466 -0.1217  0.0479 -0.1809
 1611TIP3    H129028   5.178   0.654  11.425 -1.4936 -0.3698  1.3682
 1611TIP3    H229029   5.224   0.511  11.434  0.2130  0.0363 -0.3591
 1612TIP3   OH229030   6.008   1.660  11.362  0.1593 -0.3013  0.4471
 1612TIP3    H129031   5.983   1.618  11.279  2.8735  0.1208 -0.6915
 1612TIP3    H229032   6.031   1.587  11.419  1.6545 -0.5472 -0.4074
 1613TIP3   OH229033   4.266   2.669  10.092  0.2175  0.2536 -0.4250
 1613TIP3    H129034   4.282   2.751  10.140  0.1794 -0.7953  1.4524
 1613TIP3    H229035   4.353   2.635  10.073  0.2432 -0.0054  0.1312
 1614TIP3   OH229036   4.939   4.614  10.046 -0.1456 -0.2616  0.1595
 1614TIP3    H129037   4.999   4.638  10.116 -0.1231  2.6556 -0.7682
 1614TIP3    H229038   4.858   4.590  10.092  0.7793 -1.4169  1.2650
 1615TIP3   OH229039   2.258   0.029  11.817  0.3734 -0.5210 -0.1010
 1615TIP3    H129040   2.270  -0.011  11.731 -1.3152  0.1375 -0.6838
 1615TIP3    H229041   2.170   0.065  11.815  0.1095 -0.8894  2.0940
 1616TIP3   OH229042   6.412   2.462  10.695  0.1722  0.4055 -0.1449
 1616TIP3    H129043   6.431   2.481  10.787 -0.8523  0.4998  0.0536
 1616TIP3    H229044   6.460   2.530  10.646  0.7098  0.3591  0.3132
 1617TIP3   OH229045   3.782   6.010  10.784  0.0830 -0.3883  0.6829
 1617TIP3    H129046   3.802   6.101  10.761 -0.8981 -0.6672 -1.5358
 1617TIP3    H229047   3.765   6.012  10.878  0.4869  1.6329  0.7608
 1618TIP3   OH229048   0.321   5.716  10.389  0.6251 -0.1147  0.7579
 1618TIP3    H129049   0.316   5.647  10.323  2.2663  1.0640 -0.6786
 1618TIP3    H229050   0.350   5.671  10.469  1.6856 -1.0873 -0.1575
 1619TIP3   OH229051   0.955   4.345  11.543  0.1970  0.3279 -0.7599
 1619TIP3    H129052   0.934   4.261  11.584 -1.6303 -0.5939 -3.2955
 1619TIP3    H229053   1.050   4.344  11.534  0.7418  0.6281  3.2494
 1620TIP3   OH229054   6.195   0.817   9.108  0.0583  0.3734  0.1481
 1620TIP3    H129055   6.224   0.816   9.017  0.1443  1.9024  0.1338
 1620TIP3    H229056   6.138   0.893   9.114  0.7123  0.7839  1.5614
 1621TIP3   OH229057   2.627   0.874  11.290 -0.0923 -0.5422 -0.3598
 1621TIP3    H129058   2.568   0.856  11.217 -2.3821  0.4082  1.1425
 1621TIP3    H229059   2.581   0.840  11.367  0.2680  2.1472  1.1611
 1622TIP3   OH229060   3.017   5.601   9.521  0.1237  0.4508  0.2696
 1622TIP3    H129061   3.077   5.650   9.578 -1.7428  1.4368  1.4942
 1622TIP3    H229062   3.050   5.511   9.524  1.1165  0.8260  1.4846
 1623TIP3   OH229063   6.541   3.492  10.418  0.1002 -0.4350 -0.3542
 1623TIP3    H129064   6.593   3.441  10.356 -0.8536 -1.7394 -0.1350
 1623TIP3    H229065   6.559   3.451  10.503  0.4095  0.5128  0.0451
 1624TIP3   OH229066   2.533   3.970   9.986 -0.3024 -0.3767 -0.1400
 1624TIP3    H129067   2.519   4.064   9.972  3.0158  0.1858 -0.6178
 1624TIP3    H229068   2.584   3.942   9.910 -0.2307 -2.3096  0.5624
 1625TIP3   OH229069   4.691   6.250  10.168  0.3213 -0.1273  0.1291
 1625TIP3    H129070   4.670   6.336  10.205 -1.4595  0.0437 -1.1760
 1625TIP3    H229071   4.786   6.252  10.155  0.4280  1.2898  0.9553
 1626TIP3   OH229072   5.785   5.888  10.529 -0.5177 -0.2483  0.4971
 1626TIP3    H129073   5.817   5.842  10.451  1.4992 -0.1374  1.1911
 1626TIP3    H229074   5.715   5.833  10.563 -0.4719 -1.0202 -0.5922
 1627TIP3   OH229075   4.905   1.862  11.777  0.4371 -0.1538  0.0892
 1627TIP3    H129076   4.877   1.910  11.699  1.5691 -1.4367 -1.1720
 1627TIP3    H229077   4.869   1.774  11.765  1.7278 -0.7361  0.3528
 1628TIP3   OH229078   2.579   4.245  10.904  0.2566 -0.1767  0.1221
 1628TIP3    H129079   2.620   4.225  10.819 -0.4080  0.6121 -0.4034
 1628TIP3    H229080   2.647   4.290  10.953  0.4825 -0.1597 -0.2009
 1629TIP3   OH229081   2.855   4.948  11.910 -0.7674  0.5613  0.3021
 1629TIP3    H129082   2.944   4.971  11.935 -0.5452  0.3217 -0.2599
 1629TIP3    H229083   2.800   4.986  11.979 -0.3714  2.2952 -0.2885
 1630TIP3   OH229084   1.253   4.894  11.768 -0.2396 -0.8048 -0.0443
 1630TIP3    H129085   1.195   4.946  11.713  1.4757  0.3182 -0.8790
 1630TIP3    H229086   1.257   4.942  11.852  2.1424  1.1732 -1.1365
 1631TIP3   OH229087   6.575   4.816  11.077  0.1575  0.7754  0.5272
 1631TIP3    H129088   6.533   4.795  10.994 -0.8262  2.0128  0.6793
 1631TIP3    H229089   6.573   4.734  11.127  1.1420 -0.0973 -0.7939
 1632TIP3   OH229090   5.907   1.744   8.775 -0.2543  0.6920  0.2738
 1632TIP3    H129091   5.838   1.689   8.737  0.0774 -0.1996  0.9391
 1632TIP3    H229092   5.881   1.833   8.751 -2.0208  0.4465  1.0880
 1633TIP3   OH229093   2.822   5.231   8.813  0.9262  0.6671 -0.1711
 1633TIP3    H129094   2.879   5.250   8.739 -0.5043  3.0712 -0.7441
 1633TIP3    H229095   2.745   5.286   8.800 -0.6721 -0.9770  1.6194
 1634TIP3   OH229096   3.131   2.721  10.235 -0.0449 -0.2464 -0.4474
 1634TIP3    H129097   3.075   2.772  10.176  0.9827  0.8695 -0.5005
 1634TIP3    H229098   3.183   2.666  10.177  1.4086  1.2995 -0.6871
 1635TIP3   OH229099   6.076   1.931  11.341  0.9964 -0.2505  0.0127
 1635TIP3    H129100   6.048   1.839  11.338  2.2614 -0.7007  0.8769
 1635TIP3    H229101   6.172   1.926  11.339  1.0716  1.0621 -0.0414
 1636TIP3   OH229102   6.483   2.720  10.601  0.1411  0.7674 -0.3402
 1636TIP3    H129103   6.445   2.779  10.666 -0.2383  0.6185 -0.4210
 1636TIP3    H229104   6.438   2.743  10.519 -0.8523 -0.4085 -0.1475
 1637TIP3   OH229105   0.097   5.627   9.697 -0.6834  0.0647 -0.1649
 1637TIP3    H129106   0.018   5.634   9.751  0.7847 -0.5048  2.1786
 1637TIP3    H229107   0.145   5.554   9.734  1.4366  1.0151 -0.8775
 1638TIP3   OH229108   3.407   6.241  10.769 -0.2308 -0.2155 -0.2900
 1638TIP3    H129109   3.320   6.250  10.730  0.2488  0.3588 -1.2537
 1638TIP3    H229110   3.392   6.189  10.849 -1.2869 -1.0754 -1.0149
 1639TIP3   OH229111   3.897   5.976  12.293  0.1890 -1.0104 -0.1072
 1639TIP3    H129112   3.843   5.927  12.232 -0.5818  0.5078 -0.7008
 1639TIP3    H229113   3.967   6.013  12.240 -0.5179  0.3680 -0.1516
 1640TIP3   OH229114   4.173   4.548  11.412  0.3081 -0.1872  0.2484
 1640TIP3    H129115   4.208   4.627  11.371 -1.4289  0.4235 -0.1717
 1640TIP3    H229116   4.143   4.494  11.338  0.6898 -0.8438  0.5687
 1641TIP3   OH229117   3.409   0.058  11.406 -0.7552 -0.2802  0.0948
 1641TIP3    H129118   3.450   0.106  11.334  1.5681  1.2291  2.2675
 1641TIP3    H229119   3.343   0.118  11.441 -1.8445 -0.9908 -0.6632
 1642TIP3   OH229120   0.132   1.721  10.557  0.0630 -0.0279  0.0679
 1642TIP3    H129121   0.084   1.759  10.483  0.5648 -0.3773 -0.4414
 1642TIP3    H229122   0.148   1.795  10.615 -1.8456 -0.0269  0.6922
 1643TIP3   OH229123   0.536   2.193  10.342 -0.5861  0.3229  0.3268
 1643TIP3    H129124   0.477   2.251  10.292  0.2641  0.6121 -0.3536
 1643TIP3    H229125   0.483   2.166  10.417 -3.5936 -3.6983 -2.8125
 1644TIP3   OH229126   2.275   6.614  12.335  0.1426  0.4720 -0.0961
 1644TIP3    H129127   2.264   6.702  12.299  0.2851  0.0575 -1.2109
 1644TIP3    H229128   2.367   6.609  12.360  0.0762  0.7220  0.2005
 1645TIP3   OH229129   0.441   5.199  12.197 -0.3071  0.5551  0.4622
 1645TIP3    H129130   0.388   5.279  12.202 -1.6161 -0.1440 -1.3165
 1645TIP3    H229131   0.475   5.198  12.108  0.1353 -0.6000  0.6301
 1646TIP3   OH229132   0.933   0.031  10.250 -0.3248 -0.0276  0.1598
 1646TIP3    H129133   0.858   0.085  10.227  0.1396  0.1043 -1.1149
 1646TIP3    H229134   0.907  -0.012  10.332 -0.5144  2.4460  1.4820
 1647TIP3   OH229135   3.452   4.945  11.231 -0.6597 -0.0921 -0.6491
 1647TIP3    H129136   3.524   5.007  11.241 -0.8798  0.0405  0.1978
 1647TIP3    H229137   3.475   4.871  11.287 -0.9010 -0.3088 -0.8309
 1648TIP3   OH229138   1.565   4.965  10.883  0.7041 -0.5462  0.0531
 1648TIP3    H129139   1.654   4.943  10.857  0.0425 -1.9381 -1.1506
 1648TIP3    H229140   1.550   4.915  10.963  0.9150 -0.5128  0.1136
 1649TIP3   OH229141   2.837   1.317   9.082 -0.0398 -0.3789 -0.1075
 1649TIP3    H129142   2.851   1.407   9.111  1.0606 -0.0208 -1.6059
 1649TIP3    H229143   2.926   1.282   9.071 -0.4303 -1.0626 -1.2240
 1650TIP3   OH229144   2.649   5.689   9.848  0.0825  0.0974 -0.3325
 1650TIP3    H129145   2.697   5.713   9.769 -0.7215  0.4233 -0.7378
 1650TIP3    H229146   2.714   5.692   9.918  0.7655 -0.0326 -0.9571
 1651TIP3   OH229147   5.423   3.879  11.302 -0.3098 -0.1242  0.8800
 1651TIP3    H129148   5.371   3.959  11.307  1.8114  1.3801  0.4351
 1651TIP3    H229149   5.457   3.878  11.212  2.0845  0.1709  1.7001
 1652TIP3   OH229150   0.665   2.054  10.141 -0.4898  0.1676  0.1212
 1652TIP3    H129151   0.658   2.106  10.060  1.2184  1.4996  0.7655
 1652TIP3    H229152   0.614   2.104  10.205  0.9308  0.9532  0.6751
 1653TIP3   OH229153   5.578   4.294   9.678 -0.3394  0.1715  0.6105
 1653TIP3    H129154   5.581   4.200   9.696 -0.0870  0.0734  0.0481
 1653TIP3    H229155   5.658   4.312   9.628 -0.2305  0.7410  0.9758
 1654TIP3   OH229156   2.576   6.303  10.912  0.0919  0.0314 -0.1807
 1654TIP3    H129157   2.668   6.276  10.911 -0.0271 -0.3866  0.2071
 1654TIP3    H229158   2.575   6.381  10.967  0.2869  0.3093 -0.5623
 1655TIP3   OH229159   2.830   0.203   9.426 -0.2576  0.5739  0.4246
 1655TIP3    H129160   2.784   0.259   9.363  0.1820 -0.1227 -0.5550
 1655TIP3    H229161   2.770   0.196   9.500 -0.1017  2.7277  0.7947
 1656TIP3   OH229162   4.711   3.670  10.127  0.8581 -0.1826  0.1777
 1656TIP3    H129163   4.663   3.597  10.165  0.1348  0.6319  0.8941
 1656TIP3    H229164   4.782   3.630  10.077 -0.1598 -1.4002 -0.3403
 1657TIP3   OH229165   2.992   1.741   9.496  0.3613  0.7225  0.5602
 1657TIP3    H129166   2.938   1.739   9.575 -0.0267 -0.6868  0.2788
 1657TIP3    H229167   2.940   1.790   9.432 -0.2301  0.0793  0.5440
 1658TIP3   OH229168   6.284   6.206   9.230 -0.4386  0.0184 -0.0441
 1658TIP3    H129169   6.298   6.284   9.176 -2.6462  0.0520 -0.6801
 1658TIP3    H229170   6.361   6.201   9.286  0.8982  1.2602 -1.6653
 1659TIP3   OH229171   2.581   1.345  10.853  0.5039  0.6451 -0.0702
 1659TIP3    H129172   2.674   1.366  10.857  0.4903  0.5060  1.4093
 1659TIP3    H229173   2.569   1.274  10.917 -0.6483  0.8029 -0.0914
 1660TIP3   OH229174   2.015   6.322   8.737  0.2471 -0.4239 -0.3496
 1660TIP3    H129175   2.039   6.398   8.790  0.3965 -0.3503 -0.5207
 1660TIP3    H229176   2.054   6.247   8.783  1.8503 -0.1826 -1.2517
 1661TIP3   OH229177   5.490   4.632  11.955 -0.8975 -0.6553 -0.8158
 1661TIP3    H129178   5.436   4.590  12.021  0.9686 -1.3168  0.3823
 1661TIP3    H229179   5.505   4.721  11.989  0.8797 -1.3034  0.2449
 1662TIP3   OH229180   5.618   5.448  10.595 -0.3662 -0.1609  0.7937
 1662TIP3    H129181   5.528   5.416  10.600 -0.0327 -1.1286  5.7347
 1662TIP3    H229182   5.612   5.541  10.617 -0.2033 -0.0507  0.3828
 1663TIP3   OH229183   1.360   4.613  11.637 -0.1680  0.3053  0.4630
 1663TIP3    H129184   1.395   4.584  11.553  1.2642 -1.4263  1.5820
 1663TIP3    H229185   1.387   4.704  11.645 -0.4975  0.5522 -1.0157
 1664TIP3   OH229186   1.801   1.345  10.117  0.1570 -0.1566  0.1717
 1664TIP3    H129187   1.776   1.389  10.036  0.2212 -0.8473 -0.2406
 1664TIP3    H229188   1.724   1.352  10.173  0.4768  1.2297  0.4506
 1665TIP3   OH229189   3.977   3.956   9.927 -0.0715 -0.3376  0.3079
 1665TIP3    H129190   4.066   3.943   9.960 -0.2571 -0.1310  0.9009
 1665TIP3    H229191   3.968   4.051   9.918 -0.2659 -0.3518  0.3492
 1666TIP3   OH229192   1.568   5.776   8.897 -0.0084  0.1312  0.0349
 1666TIP3    H129193   1.480   5.810   8.880 -0.7290 -1.7094 -0.1590
 1666TIP3    H229194   1.566   5.686   8.863  2.5737  0.6636 -1.8174
 1667TIP3   OH229195   6.045   1.415  11.769 -0.3030 -0.0749  0.5964
 1667TIP3    H129196   5.978   1.429  11.703 -1.6730  0.0592  1.9720
 1667TIP3    H229197   6.004   1.440  11.852  1.1737 -0.7531  1.5829
 1668TIP3   OH229198   3.230   6.133  10.121 -0.2839  0.1497  0.0419
 1668TIP3    H129199   3.159   6.178  10.075  0.2739 -0.4954 -1.5178
 1668TIP3    H229200   3.298   6.200  10.130 -0.4417  0.3144  0.0207
 1669TIP3   OH229201   0.500   1.410   8.450  0.0439  0.2860 -0.0942
 1669TIP3    H129202   0.465   1.496   8.425  3.6783  1.9121 -0.1800
 1669TIP3    H229203   0.565   1.391   8.382 -0.0086 -2.1186  0.4586
 1670TIP3   OH229204   2.489   2.568  10.219 -0.0741 -0.2715 -0.0511
 1670TIP3    H129205   2.411   2.589  10.166  0.5479  0.7511 -0.5992
 1670TIP3    H229206   2.507   2.476  10.199 -1.8614 -0.9203  1.0611
 1671TIP3   OH229207   3.808   3.712  11.889  0.3908 -0.0358  0.1716
 1671TIP3    H129208   3.833   3.762  11.967 -1.6772  0.2556  0.7041
 1671TIP3    H229209   3.712   3.717  11.887  0.3503 -0.7438 -1.9319
 1672TIP3   OH229210   4.098   0.291  10.508  0.1062  0.5788  0.4276
 1672TIP3    H129211   4.004   0.292  10.527  0.1466  0.5261  0.6348
 1672TIP3    H229212   4.132   0.367  10.556 -0.0828  1.6175 -1.0082
 1673TIP3   OH229213   3.916   6.643  10.893  0.4203 -0.3024  0.4691
 1673TIP3    H129214   3.969   6.608  10.822  0.0245  0.6954 -0.3522
 1673TIP3    H229215   3.838   6.587  10.894 -1.2343  1.6522 -2.2654
 1674TIP3   OH229216   3.712   6.479  11.815  0.0219  0.1104 -0.0071
 1674TIP3    H129217   3.717   6.575  11.817 -2.2109  0.3132 -0.6670
 1674TIP3    H229218   3.756   6.451  11.895  1.8189  1.6031 -0.4149
 1675TIP3   OH229219   5.117   4.702  10.553  0.2974  0.3386 -0.0477
 1675TIP3    H129220   5.106   4.613  10.587  3.4256 -1.6887 -3.6112
 1675TIP3    H229221   5.204   4.728  10.583  0.1951  1.3944 -0.6334
 1676TIP3   OH229222   2.135   5.903  11.732  0.1387  0.1795  0.6815
 1676TIP3    H129223   2.167   5.861  11.653 -0.8405  0.8880 -0.1135
 1676TIP3    H229224   2.213   5.911  11.788  0.7480 -0.7335 -0.0097
 1677TIP3   OH229225   3.781   2.049  11.516  0.3401 -0.3358  0.0844
 1677TIP3    H129226   3.827   2.125  11.552 -2.9901  2.2540 -0.5909
 1677TIP3    H229227   3.830   2.028  11.436  2.1704  0.1068  1.0225
 1678TIP3   OH229228   3.099   5.433   9.253 -0.4517  0.1892  0.8042
 1678TIP3    H129229   3.080   5.340   9.268 -0.6462  0.2255  0.7795
 1678TIP3    H229230   3.062   5.452   9.167  0.4624  0.0389  0.3640
 1679TIP3   OH229231   1.584   5.302  10.212 -0.1575 -0.2371  0.4756
 1679TIP3    H129232   1.663   5.330  10.257 -0.0950 -0.4241  0.4811
 1679TIP3    H229233   1.560   5.377  10.158  0.9878 -0.7747 -0.8407
 1680TIP3   OH229234   0.909   3.802   9.882  0.4869  0.0041 -0.4813
 1680TIP3    H129235   0.889   3.852   9.803  1.4897  1.4607  0.1430
 1680TIP3    H229236   1.005   3.795   9.882  0.4457 -0.6157  0.2280
 1681TIP3   OH229237   6.239   4.661   9.556  0.5153  0.6016  0.0855
 1681TIP3    H129238   6.247   4.747   9.515 -0.4840  1.2256  1.1526
 1681TIP3    H229239   6.194   4.678   9.639 -0.6003 -1.0727 -0.1369
 1682TIP3   OH229240   2.513   3.705  11.791 -0.3168 -0.1734  0.2117
 1682TIP3    H129241   2.476   3.765  11.726  1.3622  0.6104 -0.0757
 1682TIP3    H229242   2.519   3.757  11.871  2.5342  0.6186 -0.4159
 1683TIP3   OH229243   5.024   0.570   9.295  0.6505 -0.4194  0.2258
 1683TIP3    H129244   4.988   0.654   9.267  0.3979 -1.0810 -1.6007
 1683TIP3    H229245   5.119   0.580   9.283  0.5111 -0.9368 -1.8509
 1684TIP3   OH229246   0.009   5.005  10.677  0.1806  0.2244  0.1424
 1684TIP3    H129247   0.093   4.983  10.718 -0.3070 -1.4101  0.3491
 1684TIP3    H229248  -0.026   4.921  10.648 -0.0553  1.1763 -2.5956
 1685TIP3   OH229249   2.334   0.559  10.328 -0.1810 -0.5502 -0.5061
 1685TIP3    H129250   2.336   0.612  10.248  1.9613 -1.9298 -1.4706
 1685TIP3    H229251   2.420   0.573  10.368 -0.5040 -1.3673  0.5290
 1686TIP3   OH229252   0.990   6.482   8.858 -0.5723  0.3670  0.2753
 1686TIP3    H129253   1.048   6.557   8.847  0.0389 -0.0216  0.7696
 1686TIP3    H229254   1.047   6.412   8.889 -1.3256 -0.0021  0.8554
 1687TIP3   OH229255   3.082   0.721   8.702  0.0051  0.1831 -0.2353
 1687TIP3    H129256   3.107   0.669   8.626  0.2890 -2.1241  1.3441
 1687TIP3    H229257   2.999   0.684   8.730 -0.4702  1.4977  0.1788
 1688TIP3   OH229258   5.618   2.907  10.448  0.2264  0.7313  0.0342
 1688TIP3    H129259   5.581   2.832  10.496  1.2196 -0.1514 -0.5402
 1688TIP3    H229260   5.680   2.946  10.509  0.5235  0.4103 -0.0617
 1689TIP3   OH229261   0.683   4.574  10.154  0.1932 -0.1961 -0.3241
 1689TIP3    H129262   0.726   4.498  10.192  1.4549  0.4508 -0.4174
 1689TIP3    H229263   0.738   4.648  10.177 -1.4518  0.8385  0.4875
 1690TIP3   OH229264   0.941   0.708   8.878  0.1255 -0.2538 -0.0516
 1690TIP3    H129265   0.994   0.726   8.800  1.6838  1.7550  1.3850
 1690TIP3    H229266   1.005   0.692   8.947 -1.0189  2.6233  1.8393
 1691TIP3   OH229267   1.444   3.478   9.907  0.2040 -0.0064  0.4649
 1691TIP3    H129268   1.462   3.571   9.899  3.3276 -0.5848 -0.3957
 1691TIP3    H229269   1.454   3.459  10.001  1.0302  0.2784  0.4385
 1692TIP3   OH229270   5.064   6.554  10.810  0.2684  0.1956 -0.4316
 1692TIP3    H129271   4.997   6.543  10.877  2.4648 -2.5832  1.6049
 1692TIP3    H229272   5.023   6.607  10.742 -2.8442  1.3047  2.0876
 1693TIP3   OH229273   3.497   6.338   8.477 -0.0622 -0.6735 -0.5737
 1693TIP3    H129274   3.401   6.336   8.477 -0.1224  0.7967  0.5457
 1693TIP3    H229275   3.522   6.262   8.531 -0.5878 -1.0944 -0.9102
 1694TIP3   OH229276   5.566   1.466  11.612  0.3195  0.3755 -0.1382
 1694TIP3    H129277   5.483   1.509  11.633  1.0077  1.1668  1.0707
 1694TIP3    H229278   5.583   1.490  11.521 -0.2916  1.0352 -0.0853
 1695TIP3   OH229279   2.442   1.074  12.162  0.2111  0.3752 -0.5309
 1695TIP3    H129280   2.379   1.143  12.181  0.9626  0.7639  0.6109
 1695TIP3    H229281   2.508   1.117  12.108  0.0724  0.2449 -0.8062
 1696TIP3   OH229282   4.767   4.773  11.957 -0.0486 -0.1052 -0.0302
 1696TIP3    H129283   4.712   4.851  11.943  1.4348  0.8862 -0.5927
 1696TIP3    H229284   4.852   4.808  11.983  1.3147 -1.3757 -2.3763
 1697TIP3   OH229285   0.150   6.688   9.750  0.0624  0.3153  0.5918
 1697TIP3    H129286   0.138   6.635   9.829 -0.4358  0.4907  0.6377
 1697TIP3    H229287   0.062   6.699   9.715  0.3920 -0.7344 -0.6397
 1698TIP3   OH229288   1.622   5.505   8.812 -0.1705 -0.2650  0.1086
 1698TIP3    H129289   1.669   5.431   8.849 -0.5697 -1.7093 -2.0656
 1698TIP3    H229290   1.660   5.516   8.724 -1.5499  0.7329 -0.4013
 1699TIP3   OH229291   4.737   1.336  11.183  0.6405 -0.1387  0.6667
 1699TIP3    H129292   4.681   1.346  11.106 -0.2343  1.0614  1.4295
 1699TIP3    H229293   4.826   1.330  11.146  0.3029  0.9957 -0.4436
 1700TIP3   OH229294   3.175   6.631   9.279 -0.7235 -0.2013 -0.0092
 1700TIP3    H129295   3.259   6.673   9.297 -0.4008 -0.7653 -0.1902
 1700TIP3    H229296   3.188   6.539   9.301 -0.4345 -0.8741 -2.6483
 1701TIP3   OH229297   4.326   4.286  11.369  0.6946  0.1880  0.1349
 1701TIP3    H129298   4.339   4.230  11.445 -0.2363 -0.2462 -0.0129
 1701TIP3    H229299   4.234   4.313  11.374  1.4538  2.9838  1.0491
 1702TIP3   OH229300   1.399   5.227   9.450  0.0159  0.3943  0.4995
 1702TIP3    H129301   1.401   5.132   9.458 -0.5206  0.4510  1.5306
 1702TIP3    H229302   1.381   5.244   9.358 -1.8384 -0.5391  0.6609
 1703TIP3   OH229303   5.559   0.315  11.071 -0.3695 -0.6865  0.0698
 1703TIP3    H129304   5.544   0.401  11.111 -2.4957 -1.2710  0.6559
 1703TIP3    H229305   5.498   0.257  11.116 -0.8913 -1.9622 -2.1297
 1704TIP3   OH229306   1.392   6.369  11.009  0.0208 -0.1947 -0.4704
 1704TIP3    H129307   1.402   6.274  10.999  1.8634  0.1829 -3.4038
 1704TIP3    H229308   1.450   6.392  11.081 -1.9918 -1.4000  1.7267
 1705TIP3   OH229309   0.196   3.519  11.233 -0.1320  0.5727  0.2333
 1705TIP3    H129310   0.246   3.438  11.240 -0.0335  0.5929 -0.2142
 1705TIP3    H229311   0.255   3.581  11.191  0.2562  1.2805  1.7238
 1706TIP3   OH229312   1.868   5.528  10.646  0.0878  0.0163  0.5009
 1706TIP3    H129313   1.920   5.547  10.567 -0.9907 -1.7451 -0.7089
 1706TIP3    H229314   1.929   5.484  10.705  0.5187 -0.0775 -0.0086
 1707TIP3   OH229315   3.291   0.266  11.709 -0.2529  0.0393  0.1111
 1707TIP3    H129316   3.366   0.261  11.768  0.3585  1.9581 -0.4286
 1707TIP3    H229317   3.216   0.277  11.767  0.1158 -0.0360  0.6116
 1708TIP3   OH229318   2.938   4.138  10.173 -0.3858  0.1124 -0.4173
 1708TIP3    H129319   2.894   4.056  10.197  3.0089 -1.9164 -0.4647
 1708TIP3    H229320   2.960   4.127  10.081  0.0538  1.1118 -0.4393
 1709TIP3   OH229321   3.376   0.609   9.265  0.0458 -0.3544 -0.0097
 1709TIP3    H129322   3.312   0.593   9.197 -0.9513  1.3755  0.4752
 1709TIP3    H229323   3.384   0.704   9.270  1.3764 -0.4804  1.1233
 1710TIP3   OH229324   1.166   5.245   9.990  0.2910 -0.1977  0.0626
 1710TIP3    H129325   1.248   5.228  10.035 -0.2737 -0.3325  1.0793
 1710TIP3    H229326   1.188   5.305   9.920  0.8834  1.6746  1.7715
 1711TIP3   OH229327   1.198   5.317  11.617 -0.5410  0.3816 -0.9526
 1711TIP3    H129328   1.206   5.407  11.586 -0.8507  0.5418 -0.5737
 1711TIP3    H229329   1.289   5.287  11.623 -0.4872 -0.3724 -3.9956
 1712TIP3   OH229330   0.959   5.409   9.096 -0.2302 -0.4590  0.3067
 1712TIP3    H129331   0.865   5.398   9.081 -0.5744  2.2197 -0.0548
 1712TIP3    H229332   0.986   5.476   9.032  1.6282 -0.1337  1.3495
 1713TIP3   OH229333   0.161   2.180   9.554 -0.2446 -0.1507 -0.3828
 1713TIP3    H129334   0.191   2.261   9.596 -2.5891  0.0439  1.1159
 1713TIP3    H229335   0.192   2.110   9.612 -1.1694 -0.0439  0.2832
 1714TIP3   OH229336   5.430   5.440  10.347 -0.1512  0.2527 -0.1110
 1714TIP3    H129337   5.524   5.448  10.362 -0.5519  1.9242  1.9514
 1714TIP3    H229338   5.420   5.446  10.252  1.9579 -2.3697 -0.6380
 1715TIP3   OH229339   5.105   4.501   9.345 -0.4771  0.4392  0.3973
 1715TIP3    H129340   5.125   4.555   9.421  0.4611  0.3617  0.2181
 1715TIP3    H229341   5.013   4.518   9.327 -0.8166  0.1494  1.7841
 1716TIP3   OH229342   1.173   3.535  11.820  0.2366  0.3417 -0.1262
 1716TIP3    H129343   1.167   3.524  11.725  0.1197 -1.5662  0.0679
 1716TIP3    H229344   1.116   3.610  11.838 -1.7585 -0.7916 -1.3157
 1717TIP3   OH229345   3.130   3.542  11.499 -0.6307  0.1100 -0.7470
 1717TIP3    H129346   3.101   3.458  11.463 -1.9974  0.0713  0.3650
 1717TIP3    H229347   3.094   3.607  11.440  0.6090 -0.0542 -1.7339
 1718TIP3   OH229348   6.179   6.131  11.303 -0.0122 -0.0336  0.2357
 1718TIP3    H129349   6.095   6.098  11.271  1.0579 -3.0583  0.1817
 1718TIP3    H229350   6.215   6.179  11.228 -1.3157  0.5977 -0.0182
 1719TIP3   OH229351   2.715   1.617   9.471  0.3851 -0.3116  0.1041
 1719TIP3    H129352   2.745   1.682   9.407  2.1674 -0.5462  0.6386
 1719TIP3    H229353   2.794   1.594   9.520 -0.4830 -1.8601  0.8489
 1720TIP3   OH229354   3.655   5.813   8.850  0.4113  0.2179 -0.1433
 1720TIP3    H129355   3.663   5.908   8.853 -0.4251  0.4238 -2.4212
 1720TIP3    H229356   3.744   5.781   8.836  0.6161  0.6989  0.0455
 1721TIP3   OH229357   3.299   0.825  11.208 -0.8344 -0.0235  0.4670
 1721TIP3    H129358   3.225   0.769  11.230 -1.8220  1.2958  0.6654
 1721TIP3    H229359   3.360   0.816  11.281 -0.4769 -1.6094  0.0025
 1722TIP3   OH229360   1.922   1.928  12.185  0.1963 -0.5681 -0.4105
 1722TIP3    H129361   1.857   1.866  12.216  0.4924 -0.8271 -0.3035
 1722TIP3    H229362   1.882   2.014  12.201  0.0104 -0.7168 -0.0576
 1723TIP3   OH229363   2.972   4.471  11.912  0.0020  0.0262  0.2294
 1723TIP3    H129364   3.052   4.477  11.964  0.1530  0.0422  0.0016
 1723TIP3    H229365   3.004   4.454  11.823 -0.1855  1.3996 -0.1185
 1724TIP3   OH229366   1.786   6.331   9.112 -0.0278  0.1165 -0.2276
 1724TIP3    H129367   1.787   6.257   9.052 -0.6080 -0.1865  0.1179
 1724TIP3    H229368   1.815   6.406   9.060 -0.5021 -0.1441 -0.8781
 1725TIP3   OH229369   3.367   0.185  12.388 -0.7282 -0.0456  0.2718
 1725TIP3    H129370   3.323   0.230  12.317  0.5821  1.8903  0.6258
 1725TIP3    H229371   3.342   0.233  12.467 -1.3393 -1.5324  1.0429
 1726TIP3   OH229372   5.826   1.002   9.402 -0.6485  0.1419  0.3453
 1726TIP3    H129373   5.809   1.038   9.315 -0.2418  1.0146  0.6153
 1726TIP3    H229374   5.870   1.073   9.449 -0.7218 -0.3766  1.2134
 1727TIP3   OH229375   4.793   6.000  10.064  0.8545 -0.1880 -0.3520
 1727TIP3    H129376   4.799   6.083  10.016 -2.0524 -0.5422 -1.5504
 1727TIP3    H229377   4.788   6.025  10.156  2.5459  0.7650 -0.4888
 1728TIP3   OH229378   5.903   0.462  12.102  0.1722 -0.3013  0.2082
 1728TIP3    H129379   5.833   0.492  12.045  0.0369 -0.9608  0.0162
 1728TIP3    H229380   5.879   0.372  12.125  1.0202 -0.5820  0.0310
 1729TIP3   OH229381   0.401   1.733   9.219 -0.4697  0.0036 -0.1513
 1729TIP3    H129382   0.363   1.722   9.132 -0.2768 -2.1528 -0.0329
 1729TIP3    H229383   0.338   1.689   9.278  0.9861 -1.5542  0.3323
 1730TIP3   OH229384   2.472   3.954  12.360  0.5778  0.4217  0.0791
 1730TIP3    H129385   2.464   4.034  12.412  1.1401 -0.2518  1.2435
 1730TIP3    H229386   2.397   3.901  12.386  0.3437  0.4566 -0.5046
 1731TIP3   OH229387   4.637   5.786  10.086 -0.1866  0.4726 -0.3066
 1731TIP3    H129388   4.696   5.859  10.067  1.8354 -1.1870 -0.8309
 1731TIP3    H229389   4.573   5.788  10.016  0.6201  1.0011 -1.0507
 1732TIP3   OH229390   4.305   3.405  10.808 -0.2418  0.1385 -0.8667
 1732TIP3    H129391   4.371   3.474  10.804 -0.6165  0.6790  1.2034
 1732TIP3    H229392   4.335   3.339  10.745  2.2610  0.3811 -0.0330
 1733TIP3   OH229393   4.264   1.427   9.904  0.1686  0.1635  0.4601
 1733TIP3    H129394   4.310   1.411   9.822  0.0507 -0.6730  0.5482
 1733TIP3    H229395   4.332   1.427   9.971 -0.0652 -3.3234  0.9069
 1734TIP3   OH229396   1.408   6.620   9.750  0.1157 -0.0381 -0.3365
 1734TIP3    H129397   1.340   6.566   9.710 -0.4197 -0.1615  0.6928
 1734TIP3    H229398   1.490   6.581   9.721 -0.2264 -2.1053  1.1937
 1735TIP3   OH229399   5.677   0.869  11.855 -0.3086  1.2759  0.3546
 1735TIP3    H129400   5.672   0.789  11.803 -0.9709  1.0599  0.7449
 1735TIP3    H229401   5.718   0.933  11.796 -0.5660  0.8900 -0.2545
 1736TIP3   OH229402   2.980   0.098   8.460 -0.1899  0.1078  0.2997
 1736TIP3    H129403   3.054   0.058   8.504 -0.6294 -0.3596  0.6285
 1736TIP3    H229404   3.013   0.182   8.428  1.1051 -0.9844 -1.4397
 1737TIP3   OH229405   2.879   0.361  11.517 -0.4874  0.4772 -0.2637
 1737TIP3    H129406   2.850   0.276  11.552  0.8858  0.4966  1.0265
 1737TIP3    H229407   2.798   0.408  11.498 -1.2717 -0.9156 -0.4703
 1738TIP3   OH229408   6.227   6.239  10.526 -0.0090 -0.3511 -0.4653
 1738TIP3    H129409   6.139   6.201  10.531 -0.5588  0.5046 -2.4941
 1738TIP3    H229410   6.230   6.280  10.439  2.5138 -0.6474 -0.5827
 1739TIP3   OH229411   0.070   6.111  11.252  0.2385  0.0508 -0.2092
 1739TIP3    H129412   0.157   6.151  11.246  0.3475 -0.0152  0.7810
 1739TIP3    H229413   0.027   6.159  11.322  0.0151 -0.9053  0.3269
 1740TIP3   OH229414   3.794   1.598  11.243 -0.0272 -0.7245  0.1963
 1740TIP3    H129415   3.789   1.683  11.286 -0.9674  0.4677 -2.0754
 1740TIP3    H229416   3.876   1.560  11.273  1.0877  1.5760  0.2653
 1741TIP3   OH229417   3.633   0.666  10.349 -0.1295  0.0886 -0.8270
 1741TIP3    H129418   3.662   0.584  10.388 -1.4298  0.5241  1.1809
 1741TIP3    H229419   3.712   0.720  10.345  0.7848 -1.2493 -2.3415
 1742TIP3   OH229420   4.426   5.587  10.252 -0.3812 -0.2000  0.6893
 1742TIP3    H129421   4.411   5.679  10.269 -1.0177 -0.0415 -0.6069
 1742TIP3    H229422   4.339   5.547  10.256  0.0741 -1.1393  3.1760
 1743TIP3   OH229423   0.250   2.207   8.684 -0.5793 -0.3288 -0.0896
 1743TIP3    H129424   0.201   2.152   8.622 -0.3812 -1.0095  0.3457
 1743TIP3    H229425   0.287   2.277   8.630 -0.5841 -0.7950 -0.7124
 1744TIP3   OH229426   2.671   5.296  11.435 -0.2424 -0.2158 -0.4439
 1744TIP3    H129427   2.677   5.269  11.344  0.6362  0.1269 -0.4929
 1744TIP3    H229428   2.749   5.350  11.450  0.5544 -1.7006  0.9942
 1745TIP3   OH229429   0.243   5.605  11.293 -0.5895  0.5090  0.2061
 1745TIP3    H129430   0.194   5.684  11.268  1.5818  1.4742 -1.3342
 1745TIP3    H229431   0.201   5.535  11.244 -0.1209  1.4280 -1.6244
 1746TIP3   OH229432   0.502   1.311  11.026  0.4273 -0.1563  0.4041
 1746TIP3    H129433   0.462   1.317  11.112 -4.8224 -0.9392 -1.5885
 1746TIP3    H229434   0.508   1.401  10.996  1.0691  0.0318  1.0743
 1747TIP3   OH229435   3.495   1.254  10.050  0.1412  0.1267  0.2290
 1747TIP3    H129436   3.414   1.204  10.046  0.3633 -0.3677  1.4464
 1747TIP3    H229437   3.553   1.203  10.107  0.5985  1.4422  1.0087
 1748TIP3   OH229438   4.933   0.505  11.469 -0.1442 -0.5636 -0.4157
 1748TIP3    H129439   4.949   0.472  11.381 -0.3243  0.5988 -0.8993
 1748TIP3    H229440   4.886   0.587  11.456  1.2360  0.4612  0.6998
 1749TIP3   OH229441   3.453   1.253  11.458  0.3535  0.2825  0.1477
 1749TIP3    H129442   3.472   1.346  11.469 -0.2960  0.8332 -2.5881
 1749TIP3    H229443   3.519   1.222  11.395 -0.0904 -0.8586  0.2122
 1750TIP3   OH229444   3.597   4.118  10.962  0.2772  0.3950 -0.1700
 1750TIP3    H129445   3.556   4.195  10.921 -0.9682  0.0184  0.3231
 1750TIP3    H229446   3.526   4.077  11.011  1.2570 -0.3315  0.6630
 1751TIP3   OH229447   1.252   3.150  10.198 -0.4914 -0.2877 -0.3713
 1751TIP3    H129448   1.252   3.075  10.138 -0.1399 -0.1296 -0.5737
 1751TIP3    H229449   1.162   3.183  10.195 -0.7840 -1.0195  0.1212
 1752TIP3   OH229450   5.864   0.520   9.354  0.2416 -0.0036  0.7364
 1752TIP3    H129451   5.913   0.514   9.272 -0.0349 -0.7105  0.6077
 1752TIP3    H229452   5.777   0.550   9.327  0.4829  0.8598  0.9128
 1753TIP3   OH229453   2.793   0.023  10.181  0.2036 -0.3618  0.2284
 1753TIP3    H129454   2.836   0.040  10.265 -0.2248  1.4355  0.1242
 1753TIP3    H229455   2.865   0.000  10.122  0.8955  1.1598  0.4250
 1754TIP3   OH229456   2.663   3.151   9.020 -0.5270 -0.2856 -0.7637
 1754TIP3    H129457   2.608   3.080   8.989  0.4470 -0.5525 -1.9542
 1754TIP3    H229458   2.752   3.121   9.005 -0.0280  0.2144  0.9486
 1755TIP3   OH229459   0.844   5.876  10.313  0.0275  0.5775 -0.1054
 1755TIP3    H129460   0.855   5.934  10.237 -2.1457  2.1307  0.6710
 1755TIP3    H229461   0.821   5.935  10.385 -0.4739 -1.0945  1.1636
 1756TIP3   OH229462   3.365   0.893   9.313  0.2384 -0.1153 -0.0852
 1756TIP3    H129463   3.364   0.925   9.223 -0.2429 -0.0313 -0.0531
 1756TIP3    H229464   3.374   0.971   9.367  0.5875 -0.1707 -0.0574
 1757TIP3   OH229465   3.551   2.630  10.112  0.3425 -0.1556 -0.1463
 1757TIP3    H129466   3.596   2.714  10.107 -0.0248  0.1616  1.3912
 1757TIP3    H229467   3.608   2.575  10.167 -0.6544 -0.0411  1.0472
 1758TIP3   OH229468   6.077   0.211  10.164 -0.4741 -0.1700 -0.0070
 1758TIP3    H129469   6.139   0.149  10.125  1.4749  1.2510  0.6343
 1758TIP3    H229470   6.052   0.269  10.092  0.6954  0.5681  0.1535
 1759TIP3   OH229471   5.271   6.296   9.479 -0.3734  0.5787  0.1325
 1759TIP3    H129472   5.332   6.290   9.406 -0.4952  1.6945 -0.0686
 1759TIP3    H229473   5.193   6.249   9.449  0.1124 -0.2305  0.1167
 1760TIP3   OH229474   6.245   5.458   9.133  0.0950 -0.0990  0.4894
 1760TIP3    H129475   6.263   5.400   9.207  0.0159  0.2786  0.8065
 1760TIP3    H229476   6.161   5.428   9.098 -0.0287 -0.0654  0.7607
 1761TIP3   OH229477   0.665   1.153  10.856  0.2165 -0.1723  0.8589
 1761TIP3    H129478   0.630   1.220  10.915 -1.1668 -1.8176  1.9947
 1761TIP3    H229479   0.738   1.196  10.812  0.0678  1.7376  2.3439
 1762TIP3   OH229480   1.668   6.611   8.842  0.6859  0.1299  0.4864
 1762TIP3    H129481   1.682   6.605   8.937 -0.5230 -0.7284  0.6297
 1762TIP3    H229482   1.756   6.624   8.806  1.2865 -0.5220  1.6519
 1763TIP3   OH229483   5.227   2.631  11.283 -0.0989  0.4063 -0.3121
 1763TIP3    H129484   5.310   2.668  11.253  0.8558 -1.1888  0.2817
 1763TIP3    H229485   5.227   2.542  11.249 -0.4973 -0.3647  1.6107
 1764TIP3   OH229486   5.585   2.940  12.369  0.7183  0.1784  0.8849
 1764TIP3    H129487   5.676   2.951  12.342  0.3934  1.0066  0.0535
 1764TIP3    H229488   5.544   3.025  12.351 -1.5597 -1.5724 -4.1781
 1765TIP3   OH229489   0.819   1.954  11.483  0.0562 -0.2286 -0.2104
 1765TIP3    H129490   0.872   1.875  11.473 -1.5831 -1.3671 -0.2788
 1765TIP3    H229491   0.880   2.020  11.516  1.7182 -1.1935 -1.2265
 1766TIP3   OH229492   5.062   5.833  10.042  0.1550 -0.3731  0.7314
 1766TIP3    H129493   5.031   5.817   9.952 -0.3321 -1.4143  1.0641
 1766TIP3    H229494   5.015   5.913  10.069  1.4054  0.8043 -0.4184
 1767TIP3   OH229495   5.537   0.767  10.793  0.3342  0.5246  0.2028
 1767TIP3    H129496   5.449   0.759  10.755 -0.0159  0.7792  0.9413
 1767TIP3    H229497   5.527   0.738  10.883  1.2244 -0.3767  0.0310
 1768TIP3   OH229498   1.828   5.389  10.293  0.2211  0.0044  0.1222
 1768TIP3    H129499   1.866   5.475  10.277 -0.0651  0.3529  1.2608
 1768TIP3    H229500   1.857   5.366  10.381 -1.5626 -0.0529  0.7324
 1769TIP3   OH229501   3.021   6.678  10.001  0.0446  0.2858 -0.5657
 1769TIP3    H129502   3.050   6.755  10.049 -0.4368  0.0131  0.1730
 1769TIP3    H229503   3.061   6.687   9.914  1.1793  0.6242 -0.0253
 1770TIP3   OH229504   2.286   4.605  10.125 -0.0684 -0.3014 -0.1985
 1770TIP3    H129505   2.353   4.537  10.132 -0.7830 -0.9204  0.9884
 1770TIP3    H229506   2.270   4.613  10.031  1.4084 -0.3683 -0.4893
 1771TIP3   OH229507   0.977   3.035  12.014 -0.1928 -0.1055  0.2616
 1771TIP3    H129508   0.985   3.024  11.919  1.7584  1.5026  0.1754
 1771TIP3    H229509   0.938   3.121  12.026  1.4342  0.5758  0.8964
 1772TIP3   OH229510   2.015   0.566  10.026 -0.2991 -0.1816 -0.7842
 1772TIP3    H129511   2.079   0.510  10.071  1.5411  3.2601  1.4148
 1772TIP3    H229512   1.933   0.552  10.073  0.6382  0.3822  1.1355
 1773TIP3   OH229513   2.282   0.230  10.463 -0.4214  0.3510  0.1362
 1773TIP3    H129514   2.314   0.145  10.432 -0.6760 -0.6165  2.3266
 1773TIP3    H229515   2.351   0.292  10.440  1.6058 -1.1248  1.8340
 1774TIP3   OH229516   3.713   0.413  10.675  0.5231  0.0441 -0.2427
 1774TIP3    H129517   3.754   0.488  10.632 -0.3978  1.0907  0.6297
 1774TIP3    H229518   3.758   0.406  10.759 -0.5711  0.7806  0.4370
 1775TIP3   OH229519   3.051   3.884  10.352  0.2723 -0.4438 -0.6429
 1775TIP3    H129520   3.103   3.960  10.376  0.7481 -0.9196 -0.1162
 1775TIP3    H229521   2.973   3.919  10.310 -0.3081  0.4213  1.0666
 1776TIP3   OH229522   6.035   6.195  10.781 -0.0168  0.4882 -0.6908
 1776TIP3    H129523   6.047   6.126  10.846  2.0659  0.7712 -0.7221
 1776TIP3    H229524   5.956   6.169  10.733 -2.6410  1.0810  2.8834
 1777TIP3   OH229525   2.306   1.959  11.920 -0.1960  0.3646  0.0465
 1777TIP3    H129526   2.259   1.879  11.943 -1.4191  0.8539 -0.6340
 1777TIP3    H229527   2.260   2.028  11.968 -1.9977  1.2342 -2.6332
 1778TIP3   OH229528   1.637   1.358  11.243 -0.5604  0.4085 -0.4486
 1778TIP3    H129529   1.594   1.444  11.250 -0.8858  0.1807  0.5090
 1778TIP3    H229530   1.565   1.296  11.230 -0.6139 -0.0286  1.6106
 1779TIP3   OH229531   3.141   6.214  10.703 -0.3050 -0.0118  0.3044
 1779TIP3    H129532   3.050   6.242  10.718 -0.3043 -0.2609  0.8003
 1779TIP3    H229533   3.144   6.125  10.738 -0.2251 -0.5266 -0.9717
 1780TIP3   OH229534   4.207   5.163  10.101  0.0459  0.0954 -0.5413
 1780TIP3    H129535   4.170   5.123  10.022  0.8742 -0.7663 -0.5076
 1780TIP3    H229536   4.300   5.139  10.099  0.1490  0.3489  0.5191
 1781TIP3   OH229537   0.869   3.480   9.101 -0.0105 -0.2332  0.0775
 1781TIP3    H129538   0.932   3.552   9.098 -0.7509  0.4541  0.6210
 1781TIP3    H229539   0.844   3.474   9.193 -0.2073 -0.9621 -0.0239
 1782TIP3   OH229540   2.721   4.778   9.526  0.2700  0.0446 -0.2626
 1782TIP3    H129541   2.707   4.848   9.591  0.3788  2.1027 -2.3292
 1782TIP3    H229542   2.637   4.771   9.481  0.4472 -0.7745 -0.4645
 1783TIP3   OH229543   6.460   6.649  10.893  0.1820 -0.3153  0.1922
 1783TIP3    H129544   6.423   6.676  10.977  0.4072  2.1424 -0.4117
 1783TIP3    H229545   6.536   6.595  10.916  0.1289  0.1614  1.5644
 1784TIP3   OH229546   1.279   3.119   8.951  0.0725  0.3129  0.0880
 1784TIP3    H129547   1.341   3.136   8.881 -0.7304  0.7335 -0.5463
 1784TIP3    H229548   1.201   3.170   8.926 -1.0676 -1.3611  0.0745
 1785TIP3   OH229549   1.072   6.147  11.396  0.4689  0.4074 -0.3139
 1785TIP3    H129550   1.141   6.081  11.401  1.0368  1.0106 -0.1235
 1785TIP3    H229551   1.099   6.204  11.323  0.7092  1.2466  0.4210
 1786TIP3   OH229552   3.563   0.479   9.759 -0.4385 -0.4597  0.0768
 1786TIP3    H129553   3.638   0.538   9.755  0.9069 -2.1653 -2.4416
 1786TIP3    H229554   3.506   0.507   9.687  0.2659 -2.1541 -1.2186
 1787TIP3   OH229555   3.605   1.607  11.027  0.0658 -0.0277 -0.1472
 1787TIP3    H129556   3.671   1.619  11.096  1.8534 -1.8043 -1.4560
 1787TIP3    H229557   3.569   1.520  11.042 -1.4027  0.5583 -0.0124
 1788TIP3   OH229558   5.469   0.310  11.495 -0.0771  0.3922  0.6887
 1788TIP3    H129559   5.426   0.330  11.578  0.1279 -0.0892  0.9181
 1788TIP3    H229560   5.495   0.395  11.460 -1.7176  0.7597  0.2572
 1789TIP3   OH229561   4.783   5.575  11.135  0.7420  0.2235 -0.1855
 1789TIP3    H129562   4.839   5.513  11.088 -1.1932 -1.9152  0.1278
 1789TIP3    H229563   4.834   5.600  11.212  2.1108  0.1219 -1.0305
 1790TIP3   OH229564   5.130   2.763  10.376  0.0565  0.4273  0.1489
 1790TIP3    H129565   5.053   2.713  10.403  0.4195 -0.4172 -0.3329
 1790TIP3    H229566   5.133   2.753  10.281  2.6230 -2.4265  0.3844
 1791TIP3   OH229567   3.008   2.225  11.674 -0.2909 -0.4182 -0.2158
 1791TIP3    H129568   2.988   2.239  11.766  1.3976 -0.3147  0.1609
 1791TIP3    H229569   3.047   2.307  11.644 -1.3217 -0.2550 -1.1834
 1792TIP3   OH229570   3.295   1.838   9.895 -0.5988 -0.1229 -0.3249
 1792TIP3    H129571   3.322   1.928   9.914 -0.7673 -0.3019  0.7911
 1792TIP3    H229572   3.350   1.812   9.820  0.6314  0.3342  0.3885
 1793TIP3   OH229573   1.536   0.745   8.919 -0.2128  0.0593 -0.0043
 1793TIP3    H129574   1.489   0.700   8.849 -0.4980 -0.1204  0.2965
 1793TIP3    H229575   1.504   0.835   8.916 -1.3866 -0.3068  0.8770
 1794TIP3   OH229576   5.945   2.759  10.288 -0.1354 -0.5977 -0.1737
 1794TIP3    H129577   5.903   2.673  10.282  2.1689 -1.6990 -2.0858
 1794TIP3    H229578   5.988   2.758  10.373  0.1980 -1.5103 -0.3395
 1795TIP3   OH229579   5.150   1.139   9.712 -0.4849 -0.7201 -0.4383
 1795TIP3    H129580   5.170   1.108   9.800  0.4453  0.6940 -0.1254
 1795TIP3    H229581   5.130   1.060   9.663  2.5622 -1.9726  0.1064
 1796TIP3   OH229582   3.904   4.485   9.827  0.8072 -0.1545 -0.6050
 1796TIP3    H129583   3.811   4.500   9.809  0.1564  0.6225  2.6585
 1796TIP3    H229584   3.933   4.565   9.870  2.8950 -0.5879 -1.1026
 1797TIP3   OH229585   5.717   4.729   9.915  0.2276  0.2905 -0.0289
 1797TIP3    H129586   5.715   4.634   9.913 -0.3603  0.2811  0.4734
 1797TIP3    H229587   5.698   4.751  10.007  0.2262  0.8937 -0.1698
 1798TIP3   OH229588   2.468   2.485  11.988  0.5700 -0.2388 -0.1360
 1798TIP3    H129589   2.464   2.508  11.895 -0.2241  1.3521  0.2424
 1798TIP3    H229590   2.560   2.498  12.012  0.5432  0.5656 -0.4373
 1799TIP3   OH229591   2.124   0.432   8.683  0.0960 -0.1644 -0.3045
 1799TIP3    H129592   2.141   0.526   8.687 -0.4685 -0.0872  2.0135
 1799TIP3    H229593   2.201   0.392   8.725  0.1484 -0.7172 -0.9098
 1800TIP3   OH229594   5.055   3.186  10.705 -0.1460 -0.2664 -0.3610
 1800TIP3    H129595   5.040   3.111  10.648  0.6543 -1.1867  0.5801
 1800TIP3    H229596   5.040   3.262  10.650  1.0999 -1.1022 -1.9557
 1801TIP3   OH229597   0.551   6.546   8.694 -0.2592  0.2136  0.1726
 1801TIP3    H129598   0.574   6.581   8.608  1.4569  0.5456  0.7130
 1801TIP3    H229599   0.512   6.461   8.676  1.2601 -0.2987 -0.8915
 1802TIP3   OH229600   2.127   6.255  11.076  0.0839 -0.2934 -0.1227
 1802TIP3    H129601   2.121   6.333  11.021  1.1108  0.7656  1.2164
 1802TIP3    H229602   2.036   6.233  11.097 -0.1777  1.6094  0.9169
 1803TIP3   OH229603   5.039   0.062  10.625  0.4798 -0.0694  0.2004
 1803TIP3    H129604   5.023   0.143  10.675  0.5455 -0.8416  1.5290
 1803TIP3    H229605   5.134   0.063  10.610  0.4889  0.0764  0.2612
 1804TIP3   OH229606   4.743   1.635   9.087  0.6528 -0.1808 -0.1821
 1804TIP3    H129607   4.744   1.711   9.029  0.1875  0.5461  0.7445
 1804TIP3    H229608   4.751   1.560   9.028  2.4068  0.6177 -1.0381
 1805TIP3   OH229609   3.672   2.869  10.121  0.0340 -0.7273  0.1815
 1805TIP3    H129610   3.668   2.916  10.038  2.6019  0.7421  0.7690
 1805TIP3    H229611   3.678   2.938  10.187  1.0687 -1.8408  1.3147
 1806TIP3   OH229612   3.407   4.384  10.865  0.1776  0.2353 -0.3229
 1806TIP3    H129613   3.391   4.413  10.775  1.0085 -1.6393 -1.1148
 1806TIP3    H229614   3.472   4.446  10.899  0.9298  0.1091 -1.4999
 1807TIP3   OH229615   3.788   1.571   9.112  0.5391  0.7262  0.0828
 1807TIP3    H129616   3.832   1.625   9.047  1.2564  2.1385  1.6769
 1807TIP3    H229617   3.854   1.507   9.138  1.3333  2.0700  1.5690
 1808TIP3   OH229618   3.404   1.665  10.550  0.1155 -0.1555 -0.3887
 1808TIP3    H129619   3.408   1.582  10.503  0.3814 -0.5850  0.3756
 1808TIP3    H229620   3.325   1.659  10.603  1.1775 -0.7790  1.1964
 1809TIP3   OH229621   3.173   5.971  11.962 -0.1730  0.6455 -0.3931
 1809TIP3    H129622   3.214   5.890  11.991 -0.4510 -0.1346 -2.0338
 1809TIP3    H229623   3.186   5.972  11.867 -1.0894  2.0055 -0.5418
 1810TIP3   OH229624   4.609   2.886  11.833  0.3987 -0.1664  0.3299
 1810TIP3    H129625   4.553   2.956  11.801  0.9593 -0.0079 -0.3226
 1810TIP3    H229626   4.592   2.813  11.774  0.6287 -0.2278  0.3373
 1811TIP3   OH229627   1.408   5.093  11.225  0.0160  0.0157  0.1188
 1811TIP3    H129628   1.498   5.095  11.256  0.3670  1.5374 -0.8631
 1811TIP3    H229629   1.356   5.080  11.304  0.9641  2.1907  1.1972
 1812TIP3   OH229630   1.602   5.752   9.189 -0.2708  0.0837  0.3312
 1812TIP3    H129631   1.585   5.754   9.094 -0.6319  1.2902  0.4058
 1812TIP3    H229632   1.561   5.671   9.219  0.4843 -0.6885 -0.6512
 1813TIP3   OH229633   0.583   2.412  10.746  0.1061 -0.2091  0.2125
 1813TIP3    H129634   0.616   2.458  10.668 -0.4578  0.6146  0.4379
 1813TIP3    H229635   0.655   2.354  10.772 -0.1784 -1.4849 -1.6743
 1814TIP3   OH229636   0.905   1.697  11.514 -0.0453  0.1336  0.2490
 1814TIP3    H129637   0.893   1.702  11.609 -2.6291  0.5529 -0.0399
 1814TIP3    H229638   0.821   1.666  11.481  0.5197  0.8593 -1.9861
 1815TIP3   OH229639   3.310   6.073  10.471  0.3671  0.0893  0.2135
 1815TIP3    H129640   3.298   6.158  10.430  2.3790 -0.1167 -0.9362
 1815TIP3    H229641   3.390   6.082  10.524 -1.6354  0.0858  3.5624
 1816TIP3   OH229642   6.086   0.827  12.189  0.0316 -0.6297 -0.1361
 1816TIP3    H129643   6.063   0.791  12.274  0.0874  0.1841  0.2286
 1816TIP3    H229644   6.004   0.830  12.141 -0.2672  0.2820  0.4139
 1817TIP3   OH229645   0.060   1.437   8.900 -0.5353  0.2894  0.2043
 1817TIP3    H129646   0.064   1.530   8.877 -1.5924  0.2729 -0.0682
 1817TIP3    H229647  -0.033   1.415   8.896 -0.2708 -0.8438  0.0381
 1818TIP3   OH229648   3.649   4.921  10.313 -0.8001 -0.1291  0.3328
 1818TIP3    H129649   3.604   4.897  10.394  1.1130 -1.1189  1.1817
 1818TIP3    H229650   3.714   4.987  10.340 -1.7482  1.3494 -0.8640
 1819TIP3   OH229651   3.442   1.035   8.640  0.2307 -0.1146  0.2950
 1819TIP3    H129652   3.482   1.040   8.553  0.6820 -0.9897  0.4280
 1819TIP3    H229653   3.390   1.114   8.648  0.1733 -0.0288 -0.7780
 1820TIP3   OH229654   3.819   3.108  11.556 -0.0922  0.2409  0.0462
 1820TIP3    H129655   3.857   3.196  11.550 -1.0651  0.6096 -0.7978
 1820TIP3    H229656   3.742   3.119  11.612  0.3749 -0.2964  0.8220
 1821TIP3   OH229657   2.369   1.045  11.289  0.1248 -0.4171  0.3233
 1821TIP3    H129658   2.429   1.057  11.363  2.1525  0.1708 -1.3065
 1821TIP3    H229659   2.349   0.951  11.289 -0.4306 -0.3244  1.9560
 1822TIP3   OH229660   1.566   0.886  10.727 -0.4094  0.0930 -0.8101
 1822TIP3    H129661   1.511   0.881  10.805  0.1356 -2.2688 -0.5056
 1822TIP3    H229662   1.558   0.799  10.687  0.7115  0.6997 -2.4277
 1823TIP3   OH229663   6.609   2.247  10.074  0.1348  0.0111  0.3873
 1823TIP3    H129664   6.596   2.153  10.087 -2.1043  0.2305  0.1880
 1823TIP3    H229665   6.686   2.253  10.017 -0.0912 -1.7468 -0.1677
 1824TIP3   OH229666   4.054   1.651  11.924  0.2519  0.2076 -0.0051
 1824TIP3    H129667   4.078   1.573  11.975 -0.1910 -1.5954 -2.3693
 1824TIP3    H229668   3.971   1.680  11.962  0.2267 -0.7183  0.6845
 1825TIP3   OH229669   1.626   0.235  10.019  0.1526  0.2327  0.6467
 1825TIP3    H129670   1.599   0.302  10.082  0.0409  0.1850  0.6494
 1825TIP3    H229671   1.605   0.272   9.934  1.9100  1.0476  0.5234
 1826TIP3   OH229672   0.107   6.510  11.233 -0.3493  0.1182 -0.5821
 1826TIP3    H129673   0.076   6.598  11.255 -0.5085  0.1794 -1.0332
 1826TIP3    H229674   0.103   6.462  11.315  2.1677  1.2265  0.3025
 1827TIP3   OH229675   0.045   5.575  12.313 -0.7582 -0.2966  0.4858
 1827TIP3    H129676   0.001   5.514  12.371 -0.1252 -0.9711  0.2726
 1827TIP3    H229677   0.042   5.533  12.227 -2.9884  1.3358 -0.3292
 1828TIP3   OH229678   0.070   0.283  11.642  0.2285 -0.0577  0.0605
 1828TIP3    H129679   0.073   0.218  11.572  1.2682 -1.9286  1.7455
 1828TIP3    H229680   0.104   0.363  11.602  1.0596 -1.1430 -1.5106
 1829TIP3   OH229681   1.185   1.877  11.129  0.7999 -0.2712  0.2864
 1829TIP3    H129682   1.256   1.932  11.162  1.1754 -0.6333  0.0956
 1829TIP3    H229683   1.147   1.837  11.207  1.0544 -0.3721  0.3601
 1830TIP3   OH229684   3.234   2.145   8.619 -0.0168  0.4670 -0.5217
 1830TIP3    H129685   3.278   2.070   8.660  0.2965 -0.0737 -1.8128
 1830TIP3    H229686   3.209   2.114   8.533 -1.0785  1.4495 -0.5840
 1831TIP3   OH229687   2.955   2.756  10.009  0.0729  0.1316 -0.5275
 1831TIP3    H129688   2.945   2.708   9.926  0.2395 -0.9534  0.0658
 1831TIP3    H229689   2.869   2.749  10.051 -0.2742  1.4303 -0.9834
 1832TIP3   OH229690   1.419   1.779  11.805 -0.7148  0.0146 -0.0569
 1832TIP3    H129691   1.481   1.760  11.735 -0.5125  0.1854  0.0752
 1832TIP3    H229692   1.417   1.874  11.809  0.3397  0.0083  1.1082
 1833TIP3   OH229693   4.981   0.607  10.920 -0.3869 -0.2102  0.5387
 1833TIP3    H129694   4.906   0.666  10.920  0.9186  1.5301 -0.0865
 1833TIP3    H229695   4.974   0.558  11.002 -1.1601  1.2849  1.3917
 1834TIP3   OH229696   4.775   1.957   9.632  0.1832 -0.3767 -0.0912
 1834TIP3    H129697   4.865   1.947   9.663  0.9886  1.4281 -1.7185
 1834TIP3    H229698   4.782   1.968   9.538 -1.7084  0.4565 -0.1875
 1835TIP3   OH229699   2.379   3.823  10.477  0.1585 -0.1432 -0.2975
 1835TIP3    H129700   2.322   3.884  10.526  0.6706  0.0084  0.1190
 1835TIP3    H229701   2.468   3.849  10.501  0.3918 -0.7861 -0.4513
 1836TIP3   OH229702   4.825   2.024  11.563  0.4212  0.1948 -0.3483
 1836TIP3    H129703   4.737   2.057  11.545  0.7922  0.7381 -1.2243
 1836TIP3    H229704   4.876   2.047  11.485  0.6941 -2.4649 -1.0623
 1837TIP3   OH229705   0.965   1.065   8.804  0.6865 -0.4056  0.3995
 1837TIP3    H129706   0.887   1.012   8.786 -1.3073  2.3425  0.2834
 1837TIP3    H229707   0.993   1.095   8.717 -0.9536  2.2079  0.6597
 1838TIP3   OH229708   4.165   1.132   8.465  0.3789  0.7319 -0.8379
 1838TIP3    H129709   4.178   1.203   8.402  0.8376  0.5036 -1.0034
 1838TIP3    H229710   4.071   1.133   8.482  0.3022  1.0332 -1.2473
 1839TIP3   OH229711   5.810   1.437  11.956  0.0038 -0.2481  0.7424
 1839TIP3    H129712   5.860   1.414  12.034 -0.4677  0.7175  1.3651
 1839TIP3    H229713   5.814   1.533  11.953  0.0685 -0.2762 -0.4645
 1840TIP3   OH229714   4.055   6.506  11.259  0.8187 -0.4782 -0.2176
 1840TIP3    H129715   4.048   6.421  11.215  0.1927 -1.3532  1.4879
 1840TIP3    H229716   3.968   6.522  11.294  1.3725  0.0403  0.9518
 1841TIP3   OH229717   3.699   6.506   9.639 -0.8049 -0.3437  0.0405
 1841TIP3    H129718   3.786   6.513   9.600 -0.9008 -0.1892 -0.1452
 1841TIP3    H229719   3.647   6.573   9.595 -1.3604 -1.2655 -0.7660
 1842TIP3   OH229720   2.717   3.286  11.941  0.0836 -0.2485  0.3824
 1842TIP3    H129721   2.722   3.361  11.882 -0.1716 -0.2357  0.3771
 1842TIP3    H229722   2.737   3.211  11.885  0.7169 -0.1475  0.4701
 1843TIP3   OH229723   0.475   5.375  10.960  0.5960 -0.1871  0.4242
 1843TIP3    H129724   0.422   5.355  11.038  0.3333  0.3383  0.3840
 1843TIP3    H229725   0.565   5.361  10.989  0.5220  0.3520  0.9302
 1844TIP3   OH229726   3.807   2.487  11.130  0.3414  0.3550 -0.3607
 1844TIP3    H129727   3.786   2.578  11.147  0.3862  0.1604  0.7897
 1844TIP3    H229728   3.804   2.479  11.034 -2.4795  0.9010 -0.4121
 1845TIP3   OH229729   4.629   3.283   9.482  0.1271  0.0713  1.1659
 1845TIP3    H129730   4.588   3.210   9.528 -2.8427  1.4234  0.9017
 1845TIP3    H229731   4.641   3.251   9.392 -3.6999  0.5593  0.2912
 1846TIP3   OH229732   1.396   5.587  11.730  0.0761  0.3244  0.6226
 1846TIP3    H129733   1.407   5.531  11.653  0.6878  1.7121 -0.3493
 1846TIP3    H229734   1.447   5.666  11.710 -1.3283  1.5451  1.6130
 1847TIP3   OH229735   5.575   1.266   8.252  0.0070 -0.2972  0.0026
 1847TIP3    H129736   5.581   1.233   8.342 -0.7644 -2.9956 -0.8150
 1847TIP3    H229737   5.515   1.204   8.209 -0.3680  1.4582 -2.1414
 1848TIP3   OH229738   0.022   3.307  10.287  0.3327 -0.2373  0.0317
 1848TIP3    H129739   0.102   3.360  10.284 -0.7672  1.4315 -0.7736
 1848TIP3    H229740  -0.011   3.308  10.198  0.0413 -1.9942  0.0717
 1849TIP3   OH229741   1.358   1.643   9.155 -0.1823 -0.0643 -0.1204
 1849TIP3    H129742   1.419   1.598   9.214  0.3697  0.0569 -0.5930
 1849TIP3    H229743   1.397   1.633   9.068  0.2314  1.7538 -0.1891
 1850TIP3   OH229744   4.385   5.884  10.966 -0.3315 -0.0438 -0.0728
 1850TIP3    H129745   4.291   5.889  10.983 -0.2712  0.3097  0.1522
 1850TIP3    H229746   4.404   5.790  10.972 -0.3221  0.0281  1.8539
 1851TIP3   OH229747   4.640   0.133   8.106 -0.5309 -0.3836 -0.1551
 1851TIP3    H129748   4.624   0.217   8.149 -1.9359 -0.8228  0.2210
 1851TIP3    H229749   4.666   0.156   8.017 -0.6318  0.4538  0.0249
 1852TIP3   OH229750   5.470   6.075   8.984 -0.1460  0.0602  0.2075
 1852TIP3    H129751   5.533   6.130   9.031 -0.5233  0.0120  0.7809
 1852TIP3    H229752   5.453   6.122   8.903  0.8800 -0.0926 -0.1013
 1853TIP3   OH229753   1.046   5.101  11.582 -0.1014 -0.3292  0.1072
 1853TIP3    H129754   0.956   5.112  11.613  0.3013 -0.0601  1.2188
 1853TIP3    H229755   1.087   5.186  11.596  0.7817 -0.9032  1.2078
 1854TIP3   OH229756   2.111   1.783  11.974 -0.0400 -0.1783 -0.7158
 1854TIP3    H129757   2.061   1.799  11.894  0.1782 -0.7547 -0.9687
 1854TIP3    H229758   2.051   1.808  12.045 -0.6696 -0.7935 -1.0143
 1855TIP3   OH229759   4.888   0.439  11.868 -0.3908  0.1617 -0.2022
 1855TIP3    H129760   4.828   0.502  11.827 -0.7419 -0.6209 -0.9228
 1855TIP3    H229761   4.969   0.448  11.819 -0.3239  0.3052 -0.0665
 1856TIP3   OH229762   1.418   2.259   9.187  0.1506 -0.2753 -0.3643
 1856TIP3    H129763   1.409   2.328   9.121  0.7212  1.4668  1.3049
 1856TIP3    H229764   1.500   2.215   9.164  0.6736  0.7234 -0.4622
 1857TIP3   OH229765   2.924   5.635  12.400  0.0267 -0.5333 -0.2727
 1857TIP3    H129766   2.860   5.704  12.416 -1.0443 -0.9179 -2.5621
 1857TIP3    H229767   2.882   5.576  12.338  2.3769 -1.1191 -1.4398
 1858TIP3   OH229768   2.834   0.636  11.046  0.2735 -0.2067  0.1287
 1858TIP3    H129769   2.750   0.617  11.088  0.1300 -0.0262 -0.0768
 1858TIP3    H229770   2.820   0.718  10.999  0.5375 -0.2260  0.0114
 1859TIP3   OH229771   2.476   0.412   8.283 -0.3998  0.3877  0.3657
 1859TIP3    H129772   2.448   0.322   8.264  1.5353 -0.3205  0.6396
 1859TIP3    H229773   2.491   0.451   8.197  0.7571 -0.2419  0.2729
 1860TIP3   OH229774   4.734   0.589   8.925  0.0461 -0.6376  0.3430
 1860TIP3    H129775   4.829   0.602   8.918 -0.0862 -0.5533 -2.3040
 1860TIP3    H229776   4.700   0.672   8.956  0.6374  0.3157 -1.4108
 1861TIP3   OH229777   6.297   1.542  11.642  0.5803 -0.2561  0.3207
 1861TIP3    H129778   6.364   1.540  11.710  0.3461  0.6456  0.6044
 1861TIP3    H229779   6.222   1.498  11.681  0.7744 -0.6264  0.2736
 1862TIP3   OH229780   3.828   4.474  11.032 -0.5405  0.1458  0.0985
 1862TIP3    H129781   3.850   4.518  10.950  0.3271  0.7878  0.6514
 1862TIP3    H229782   3.843   4.381  11.014  2.3038  0.4712  0.2615
 1863TIP3   OH229783   0.525   1.795  10.002  0.8926  0.2204 -0.2194
 1863TIP3    H129784   0.569   1.818   9.920 -0.6730 -2.2988 -1.9018
 1863TIP3    H229785   0.537   1.701  10.010 -1.8421 -0.1415  0.6279
 1864TIP3   OH229786   2.800   1.818   9.308 -0.3208 -0.1287 -0.7268
 1864TIP3    H129787   2.720   1.868   9.326  0.7085  1.4835 -0.4751
 1864TIP3    H229788   2.851   1.874   9.250  2.1703  0.5129  1.8419
 1865TIP3   OH229789   1.857   3.779   9.858  0.0831 -0.4131  0.5050
 1865TIP3    H129790   1.762   3.783   9.864  0.1268  1.9079  0.3241
 1865TIP3    H229791   1.875   3.689   9.829 -2.2291 -0.0536 -2.5667
 1866TIP3   OH229792   6.127   4.678  11.794 -0.4808  0.0493  0.0985
 1866TIP3    H129793   6.135   4.583  11.803 -2.1384  0.0292  2.2181
 1866TIP3    H229794   6.035   4.696  11.813 -0.1049  2.1252  0.1661
 1867TIP3   OH229795   4.555   2.660  11.086  0.4165 -0.0517 -0.3172
 1867TIP3    H129796   4.569   2.575  11.129  0.9756 -0.3988 -1.1617
 1867TIP3    H229797   4.631   2.712  11.111  1.2038 -0.5542 -1.5749
 1868TIP3   OH229798   0.679   2.710   8.791  0.2685 -0.1432  0.1801
 1868TIP3    H129799   0.687   2.695   8.697 -0.1759  2.3769 -0.3431
 1868TIP3    H229800   0.689   2.805   8.801 -1.6831 -0.0704  2.4365
 1869TIP3   OH229801   3.247   3.482  12.213 -0.0281 -0.5815 -0.3617
 1869TIP3    H129802   3.177   3.534  12.252 -0.4643 -0.4658 -1.2717
 1869TIP3    H229803   3.324   3.501  12.267 -0.2638  0.7213 -0.4421
 1870TIP3   OH229804   6.237   3.290  12.172  0.8304 -0.7498 -0.4745
 1870TIP3    H129805   6.212   3.230  12.101  0.3932 -1.9095  0.6112
 1870TIP3    H229806   6.174   3.362  12.166  0.3446 -1.1931 -0.8250
 1871TIP3   OH229807   1.270   4.367  10.573 -0.1373 -0.6505  0.2047
 1871TIP3    H129808   1.242   4.278  10.555 -0.1096 -0.4479 -0.9251
 1871TIP3    H229809   1.225   4.391  10.655 -1.8076 -0.9810 -0.5686
 1872TIP3   OH229810   6.687   0.883  11.200  0.3713  0.1881 -0.1297
 1872TIP3    H129811   6.625   0.954  11.218 -0.2121  0.2821 -2.3199
 1872TIP3    H229812   6.768   0.928  11.177  0.1721  0.1394 -0.9354
 1873TIP3   OH229813   0.918   4.510   9.958  0.3436 -0.3655  0.2815
 1873TIP3    H129814   0.988   4.573   9.974  1.1577 -0.9319 -0.8837
 1873TIP3    H229815   0.867   4.508  10.039  1.1969  0.6593  0.8555
 1874TIP3   OH229816   3.574   2.307  11.691  0.0080  0.4853  0.3424
 1874TIP3    H129817   3.595   2.323  11.599 -0.5601  0.7617  0.2583
 1874TIP3    H229818   3.659   2.307  11.735  0.1557  2.9198  0.2088
 1875TIP3   OH229819   2.018   0.841  11.691  0.4192  0.8202 -0.0127
 1875TIP3    H129820   2.081   0.911  11.707  0.4457  0.5812  1.0238
 1875TIP3    H229821   1.978   0.825  11.777  0.9927 -0.9781 -0.0523
 1876TIP3   OH229822   5.951   6.332   8.886  0.1634  0.4399  0.1811
 1876TIP3    H129823   5.978   6.304   8.799  0.3550  1.8353 -0.2262
 1876TIP3    H229824   5.871   6.382   8.873  0.2259  0.7163  0.7879
 1877TIP3   OH229825   4.113   1.443   8.056 -0.4700  0.0904  0.1256
 1877TIP3    H129826   4.192   1.429   8.003 -0.6016  0.0069 -0.0458
 1877TIP3    H229827   4.144   1.434   8.146 -0.3680 -0.3856  0.0473
 1878TIP3   OH229828   1.173   6.537   9.598 -0.4674  0.1331  0.2183
 1878TIP3    H129829   1.121   6.597   9.545  0.8008  0.4196 -0.7447
 1878TIP3    H229830   1.174   6.455   9.549 -0.5954 -0.0898  0.5829
 1879TIP3   OH229831   3.395   5.766   9.340  0.1715  0.3689 -0.0146
 1879TIP3    H129832   3.487   5.793   9.337 -0.1420  1.4668 -0.1288
 1879TIP3    H229833   3.348   5.843   9.372 -0.5028 -0.7499  1.8440
 1880TIP3   OH229834   5.392   1.137   9.206 -0.1128 -0.4052  0.6445
 1880TIP3    H129835   5.310   1.180   9.182  0.0208  0.4639  1.6956
 1880TIP3    H229836   5.440   1.202   9.257  1.9312 -0.3383 -1.2148
 1881TIP3   OH229837   0.877   1.123   9.460  0.0652  0.1514  0.0280
 1881TIP3    H129838   0.924   1.084   9.386 -0.0867  1.0878 -0.5743
 1881TIP3    H229839   0.785   1.104   9.442  0.0111  0.5576 -0.1359
 1882TIP3   OH229840   1.939   1.938  11.806  0.0607 -1.0530  0.1746
 1882TIP3    H129841   1.880   1.955  11.880 -1.5849 -1.6671 -0.9234
 1882TIP3    H229842   1.920   2.008  11.743  2.7190  0.5127  0.9836
 1883TIP3   OH229843   3.361   2.083  10.385 -0.6620 -0.4865 -1.0470
 1883TIP3    H129844   3.267   2.090  10.405 -0.5403 -0.1475 -0.5853
 1883TIP3    H229845   3.382   2.165  10.340 -0.3688 -0.1186 -0.2510
 1884TIP3   OH229846   5.467   5.983  11.767  0.2256  0.8057 -0.5157
 1884TIP3    H129847   5.497   5.990  11.857 -1.1092 -0.5337  0.0711
 1884TIP3    H229848   5.373   5.968  11.774 -0.1395  2.0588 -2.1888
 1885TIP3   OH229849   5.742   1.522  10.564  0.4262 -0.0256  0.5105
 1885TIP3    H129850   5.708   1.503  10.652  0.8822  0.6018  0.8265
 1885TIP3    H229851   5.789   1.604  10.574 -0.0853  0.3966 -0.4754
 1886TIP3   OH229852   3.431   5.382  10.115 -0.0537 -0.0040 -0.2303
 1886TIP3    H129853   3.448   5.355  10.025  0.1628 -1.0859  0.1240
 1886TIP3    H229854   3.401   5.302  10.159  3.2226 -0.4307  1.5450
 1887TIP3   OH229855   0.145   6.270   9.047 -0.1673 -0.3877  0.0613
 1887TIP3    H129856   0.119   6.361   9.064 -0.7441 -0.8086  1.6499
 1887TIP3    H229857   0.118   6.254   8.956 -0.8026  0.7786  0.0162
 1888TIP3   OH229858   4.534   1.529   9.937  0.2931 -0.2589  0.0452
 1888TIP3    H129859   4.524   1.601   9.874  1.3610  0.5080  0.7041
 1888TIP3    H229860   4.600   1.561   9.998  1.3138 -2.0917 -0.0362
 1889TIP3   OH229861   0.011   2.721  10.318 -0.2908  0.0201 -0.2344
 1889TIP3    H129862   0.033   2.769  10.238 -1.0959  0.5765 -0.1348
 1889TIP3    H229863   0.092   2.719  10.368  0.4527 -1.0588 -1.4188
 1890TIP3   OH229864   6.481   5.013  12.045 -0.2649 -0.3634 -0.3058
 1890TIP3    H129865   6.527   4.967  11.975 -1.5073 -0.2373 -1.2271
 1890TIP3    H229866   6.412   4.953  12.072  1.2308 -1.1943  2.1024
 1891TIP3   OH229867   4.747   1.002   9.759 -0.3578 -0.0855  0.0365
 1891TIP3    H129868   4.768   1.092   9.784 -1.9042  0.5272 -0.6734
 1891TIP3    H229869   4.672   1.011   9.700  0.6220 -1.7255 -1.5603
 1892TIP3   OH229870   4.243   2.803  12.227  0.3347  0.3901  0.2310
 1892TIP3    H129871   4.284   2.857  12.159 -1.3540 -0.1167 -1.2827
 1892TIP3    H229872   4.279   2.715  12.212  1.0900  0.5592  0.9901
 1893TIP3   OH229873   2.662   0.784   9.888 -0.0494 -0.4115  0.2339
 1893TIP3    H129874   2.746   0.752   9.857  0.0334  0.1087 -0.1010
 1893TIP3    H229875   2.599   0.716   9.864  0.2142 -0.6017  0.0887
 1894TIP3   OH229876   4.652   4.611  12.156 -0.6711 -0.0205 -0.0406
 1894TIP3    H129877   4.712   4.666  12.105  0.0040 -1.0925 -0.4246
 1894TIP3    H229878   4.599   4.674  12.205  0.5529  0.9761  0.0689
 1895TIP3   OH229879   4.146   0.556  10.594 -0.0621 -0.2657  0.2694
 1895TIP3    H129880   4.134   0.582  10.503  0.9383 -1.6860 -0.2974
 1895TIP3    H229881   4.241   0.555  10.607 -0.1568 -1.2454  0.9626
 1896TIP3   OH229882   6.117   5.788  11.324 -0.3303 -0.2237 -0.2076
 1896TIP3    H129883   6.160   5.816  11.243  0.6193 -0.6093  0.1379
 1896TIP3    H229884   6.121   5.692  11.321  0.5331 -0.2356  0.7007
 1897TIP3   OH229885   5.087   2.170  10.082  0.2288  0.0043 -0.4112
 1897TIP3    H129886   5.074   2.205   9.993 -0.5190  0.1696 -0.2452
 1897TIP3    H229887   5.178   2.139  10.082  0.6174  1.0724 -0.8689
 1898TIP3   OH229888   3.973   4.036  12.266  0.5204 -0.2702  0.7258
 1898TIP3    H129889   4.067   4.052  12.261  0.4399 -0.0103 -0.1369
 1898TIP3    H229890   3.934   4.124  12.262  0.2294 -0.3915  0.8536
 1899TIP3   OH229891   6.281   3.665   9.049 -0.5588  0.1006  0.2955
 1899TIP3    H129892   6.264   3.711   8.967 -2.0011 -1.2101 -0.1955
 1899TIP3    H229893   6.345   3.598   9.027 -1.0538 -0.3454  0.1863
 1900TIP3   OH229894   5.789   1.415  10.251  0.4489 -0.1752  0.9705
 1900TIP3    H129895   5.807   1.327  10.218 -1.4937 -0.8915  1.6483
 1900TIP3    H229896   5.760   1.402  10.341 -0.2630  1.1095  0.9629
 1901TIP3   OH229897   2.211   0.359  10.704 -0.2267 -0.3812 -0.4439
 1901TIP3    H129898   2.293   0.407  10.713  0.3793 -1.5539  0.5603
 1901TIP3    H229899   2.231   0.288  10.643 -1.0916  0.5312 -1.8597
 1902TIP3   OH229900   3.649   1.751   9.470  0.3506 -0.8782  0.0548
 1902TIP3    H129901   3.711   1.772   9.401  0.8675 -2.4020  0.0033
 1902TIP3    H229902   3.672   1.662   9.496 -0.3807 -0.6441  1.6075
 1903TIP3   OH229903   0.417   5.033  11.292 -0.0793  0.2549 -0.1852
 1903TIP3    H129904   0.424   4.939  11.307 -0.7707  0.3063  0.4886
 1903TIP3    H229905   0.427   5.042  11.197 -1.2563 -0.6275 -0.4174
 1904TIP3   OH229906   5.350   5.720  11.083 -0.4727 -0.4533  0.0566
 1904TIP3    H129907   5.392   5.695  11.166 -0.5658  1.0422  0.5892
 1904TIP3    H229908   5.419   5.708  11.017  0.3631  0.5723  0.7068
 1905TIP3   OH229909   5.316   0.619   9.593 -0.5854  0.0474 -0.2073
 1905TIP3    H129910   5.342   0.530   9.619 -0.3302  0.6479  1.7364
 1905TIP3    H229911   5.357   0.676   9.658 -1.6241  1.5081 -0.7820
 1906TIP3   OH229912   2.815   0.042  11.877  0.3993  0.2500  0.2389
 1906TIP3    H129913   2.817  -0.034  11.936 -1.1676 -0.8028 -0.9358
 1906TIP3    H229914   2.754   0.103  11.919 -0.6165 -0.4430 -0.1666
 1907TIP3   OH229915   5.565   4.047  10.876  0.3318 -0.2318  0.0812
 1907TIP3    H129916   5.560   4.039  10.780  3.4618 -0.4124 -0.1742
 1907TIP3    H229917   5.543   4.138  10.894 -1.4015 -0.4636 -0.6477
 1908TIP3   OH229918   1.751   2.359  11.525  0.7725 -0.5625 -0.1080
 1908TIP3    H129919   1.845   2.371  11.518  0.6672  1.6564  1.3493
 1908TIP3    H229920   1.715   2.448  11.529 -1.4653 -1.3218 -1.3322
 1909TIP3   OH229921   6.431   2.845  11.217 -0.0876  0.2257 -0.4156
 1909TIP3    H129922   6.342   2.810  11.213 -1.4225  3.3166 -0.5028
 1909TIP3    H229923   6.450   2.852  11.311  0.7087 -1.6892 -0.3737
 1910TIP3   OH229924   5.636   2.294   9.560 -0.5629  0.1582 -0.1921
 1910TIP3    H129925   5.603   2.325   9.476 -1.0579  1.6521  0.5083
 1910TIP3    H229926   5.694   2.222   9.539  1.9201  2.5158 -2.1056
 1911TIP3   OH229927   3.912   5.150  10.969 -0.0236 -0.0552  0.4067
 1911TIP3    H129928   3.994   5.118  10.930 -1.1634 -0.7091 -1.5942
 1911TIP3    H229929   3.892   5.230  10.920 -0.7388 -0.0718  0.6682
 1912TIP3   OH229930   0.252   1.626   8.624  0.0107  0.4794  0.0298
 1912TIP3    H129931   0.196   1.565   8.577 -0.7196  1.0072  0.1926
 1912TIP3    H229932   0.204   1.709   8.622  0.2109  0.6427  1.2378
 1913TIP3   OH229933   2.252   3.749  11.330  0.2436 -0.4870  0.6185
 1913TIP3    H129934   2.205   3.671  11.301 -1.0551  0.5778 -0.2462
 1913TIP3    H229935   2.316   3.767  11.261  0.6675 -0.8679  0.9044
 1914TIP3   OH229936   2.035   1.009   9.869 -0.1447  0.1894  0.0463
 1914TIP3    H129937   2.006   1.028   9.959 -2.8245  1.9975 -1.0701
 1914TIP3    H229938   1.997   0.923   9.851 -1.6926  0.8527 -0.0786
 1915TIP3   OH229939   5.483   5.954  11.497  0.2899  0.4486  0.0641
 1915TIP3    H129940   5.477   5.990  11.586  1.4065 -3.0060  1.7360
 1915TIP3    H229941   5.570   5.980  11.467 -0.3123  2.1205 -0.3251
 1916TIP3   OH229942   1.547   5.799  11.710 -0.1689 -0.1029 -0.0838
 1916TIP3    H129943   1.631   5.817  11.668 -0.0040 -3.1694 -1.2684
 1916TIP3    H229944   1.558   5.831  11.800  2.7472 -1.4757  0.1616
 1917TIP3   OH229945   2.516   1.443  10.616  0.0862  0.7853  0.6755
 1917TIP3    H129946   2.528   1.408  10.704  0.7900 -0.9492 -0.0590
 1917TIP3    H229947   2.480   1.370  10.565 -1.0170  1.9679 -0.3240
 1918TIP3   OH229948   1.740   5.814  12.195  0.2147 -0.2289  0.7333
 1918TIP3    H129949   1.826   5.780  12.219 -0.3880 -0.5314  2.6901
 1918TIP3    H229950   1.678   5.750  12.232 -0.8845 -1.2983 -2.6087
 1919TIP3   OH229951   1.623   3.517  12.067  0.0107  0.0217 -0.3550
 1919TIP3    H129952   1.638   3.452  12.136  0.7711  0.9179  0.3476
 1919TIP3    H229953   1.528   3.522  12.059 -0.0842 -1.9354 -1.1726
 1920TIP3   OH229954   1.405   6.132  12.143 -0.0568 -0.2360 -0.1647
 1920TIP3    H129955   1.402   6.044  12.181 -0.2969 -0.4924 -0.7625
 1920TIP3    H229956   1.340   6.182  12.191 -0.2915 -0.5299 -0.1755
 1921TIP3   OH229957   0.861   3.173   9.772 -0.0136 -0.0268  0.5671
 1921TIP3    H129958   0.924   3.107   9.803  1.2865  1.3212  0.9278
 1921TIP3    H229959   0.901   3.207   9.692 -0.4260  0.6437  0.6416
 1922TIP3   OH229960   5.639   3.253   9.658 -0.8346  0.0118 -0.1319
 1922TIP3    H129961   5.729   3.229   9.636 -0.8321  0.0899 -0.2087
 1922TIP3    H229962   5.586   3.215   9.587 -0.9130 -0.4524  0.1689
 1923TIP3   OH229963   0.857   2.630  11.659  0.0043  0.0953 -0.3238
 1923TIP3    H129964   0.803   2.598  11.586 -3.1398  0.4831  1.6270
 1923TIP3    H229965   0.795   2.641  11.731  2.5460  1.9429  1.7642
 1924TIP3   OH229966   6.550   5.527  10.619 -0.0142  0.2626  0.4535
 1924TIP3    H129967   6.487   5.600  10.619 -0.7776 -0.2588  3.3348
 1924TIP3    H229968   6.634   5.568  10.599 -0.9694  1.2481 -1.8518
 1925TIP3   OH229969   5.518   1.566  10.355  0.1137  0.3008 -0.4661
 1925TIP3    H129970   5.557   1.574  10.442 -0.4740  1.2585 -0.2863
 1925TIP3    H229971   5.574   1.619  10.298 -0.6675  1.3475 -0.2823
 1926TIP3   OH229972   0.323   1.440  11.783  0.2311  0.1751  0.1039
 1926TIP3    H129973   0.415   1.416  11.793  0.1643 -1.8690 -2.9809
 1926TIP3    H229974   0.300   1.411  11.695 -2.8567  2.4628  0.0065
 1927TIP3   OH229975   4.964   3.235   9.145  0.6559 -0.4582  0.5118
 1927TIP3    H129976   5.039   3.181   9.120  0.9509  0.1458  0.0593
 1927TIP3    H229977   5.003   3.314   9.182  0.3686  1.1227 -2.2703
 1928TIP3   OH229978   0.209   5.304   9.491  0.0191 -0.5104  1.0308
 1928TIP3    H129979   0.121   5.323   9.524  0.1031  1.1499  0.3846
 1928TIP3    H229980   0.199   5.221   9.444 -1.3947  0.0404  0.2860
 1929TIP3   OH229981   6.322   1.310  12.211 -0.4373  0.2952  0.2244
 1929TIP3    H129982   6.320   1.223  12.170 -0.3549  1.5894 -2.7830
 1929TIP3    H229983   6.349   1.293  12.301  0.1908 -2.7310 -0.4184
 1930TIP3   OH229984   0.144   4.502   9.837  0.2018  0.4065  0.1781
 1930TIP3    H129985   0.218   4.452   9.871 -0.1622 -0.4570 -0.2963
 1930TIP3    H229986   0.066   4.453   9.863 -0.2308  1.3537  0.7551
 1931TIP3   OH229987   2.714   1.296  10.318  0.4443  0.2663 -0.0284
 1931TIP3    H129988   2.670   1.230  10.371  1.1228 -1.0265 -1.0294
 1931TIP3    H229989   2.734   1.367  10.380  1.4343 -1.2862  1.5261
 1932TIP3   OH229990   2.602   1.117  11.439  0.0642  0.1330  0.1911
 1932TIP3    H129991   2.677   1.174  11.453 -0.6737  1.6868 -1.6745
 1932TIP3    H229992   2.638   1.028  11.445  1.7425  0.8073  0.7545
 1933TIP3   OH229993   4.336   3.502  12.357 -0.5407 -0.2071  0.0665
 1933TIP3    H129994   4.386   3.423  12.336 -0.7146 -0.6196  1.1372
 1933TIP3    H229995   4.245   3.477  12.342 -0.6400 -0.3985  0.9336
 1934TIP3   OH229996   1.474   4.428  11.862 -0.5256  0.0296 -0.0186
 1934TIP3    H129997   1.486   4.335  11.881 -1.3151 -0.0805 -0.0151
 1934TIP3    H229998   1.441   4.430  11.772  1.0342  0.4166 -0.6156
 1935TIP3   OH229999   2.786   5.976  10.923  0.0003  0.2065  0.1879
 1935TIP3    H130000   2.699   5.975  10.963 -0.2342 -0.2906 -0.3047
 1935TIP3    H230001   2.829   5.898  10.958 -0.8811 -1.3322 -1.8795
 1936TIP3   OH230002   0.991   4.703  11.163  0.3179 -0.2673 -0.6760
 1936TIP3    H130003   1.057   4.642  11.196 -0.0261 -1.7275 -2.4712
 1936TIP3    H230004   0.922   4.702  11.229 -0.2243 -2.8476 -1.1607
 1937TIP3   OH230005   6.259   1.460  10.458 -0.4589 -0.1229  0.0597
 1937TIP3    H130006   6.196   1.456  10.529  0.1202 -0.0977  0.5807
 1937TIP3    H230007   6.308   1.378  10.464  0.9736  0.7573  1.0034
 1938TIP3   OH230008   1.322   0.487   9.500  0.2483  0.8090 -0.2056
 1938TIP3    H130009   1.348   0.438   9.421  1.3020  1.8096 -0.5162
 1938TIP3    H230010   1.293   0.420   9.561  2.2565 -0.3070 -0.3806
 1939TIP3   OH230011   3.156   4.819  11.525 -0.0597 -0.0608  0.3667
 1939TIP3    H130012   3.147   4.815  11.620  1.6992  0.6879  0.6076
 1939TIP3    H230013   3.201   4.902  11.509 -0.0657 -0.3131 -1.1021
 1940TIP3   OH230014   1.357   2.008  11.308  0.3065 -0.2838  0.3392
 1940TIP3    H130015   1.417   1.967  11.370  1.0629  0.9124  0.4507
 1940TIP3    H230016   1.363   2.102  11.328 -1.3398 -0.0916  0.1095
 1941TIP3   OH230017   2.139   0.244  11.222  0.2239  0.2074 -0.4941
 1941TIP3    H130018   2.179   0.258  11.307 -0.6189 -2.3342  0.4051
 1941TIP3    H230019   2.055   0.288  11.227 -1.3946 -2.7994  1.4100
 1942TIP3   OH230020   0.019   2.378  10.278  0.2105  0.3992  0.6001
 1942TIP3    H130021  -0.001   2.317  10.207  1.5699  0.2810  0.2864
 1942TIP3    H230022  -0.023   2.460  10.252 -1.3882 -0.2842  0.8830
 1943TIP3   OH230023   6.507   6.082  10.790  0.1350  0.4833  0.4184
 1943TIP3    H130024   6.591   6.115  10.822  1.0727 -0.5953 -0.8136
 1943TIP3    H230025   6.446   6.155  10.803  1.3268  1.4150  1.0026
 1944TIP3   OH230026   3.830   4.280  12.167  0.6171  0.0787  0.0287
 1944TIP3    H130027   3.738   4.255  12.182  0.6201 -0.3195 -0.5959
 1944TIP3    H230028   3.824   4.361  12.117  0.6053  0.0843  0.0396
 1945TIP3   OH230029   5.863   1.290  11.114  0.2202  0.0204  0.2585
 1945TIP3    H130030   5.899   1.261  11.197  0.6896  0.0481  0.0685
 1945TIP3    H230031   5.792   1.228  11.095  0.8009 -0.6270  0.1618
 1946TIP3   OH230032   0.042   1.474  10.604 -0.3134 -0.3326 -0.1137
 1946TIP3    H130033   0.055   1.567  10.591 -0.7133 -0.4526 -1.4942
 1946TIP3    H230034   0.090   1.432  10.532 -0.3091 -1.1874  0.3663
 1947TIP3   OH230035   3.876   1.734  10.347  0.0698 -0.1962 -0.1258
 1947TIP3    H130036   3.828   1.686  10.415 -0.6960 -0.0898 -0.5782
 1947TIP3    H230037   3.877   1.824  10.378 -1.8717  0.2056 -1.0759
 1948TIP3   OH230038   0.686   5.359   9.067 -0.0603 -0.6451 -0.0294
 1948TIP3    H130039   0.666   5.453   9.073  0.6421 -0.5807  2.4871
 1948TIP3    H230040   0.602   5.317   9.054 -0.3928  0.2939 -1.1824
 1949TIP3   OH230041   6.102   2.603  11.810  0.7480  0.1569 -0.5387
 1949TIP3    H130042   6.035   2.642  11.755  1.1770  1.1901 -0.3446
 1949TIP3    H230043   6.117   2.667  11.880  0.4923 -0.9487  0.5779
 1950TIP3   OH230044   1.524   0.777   9.539  0.3848  0.1949  0.4093
 1950TIP3    H130045   1.459   0.821   9.484  1.0759 -0.1563 -0.7001
 1950TIP3    H230046   1.547   0.843   9.605  0.4306  1.0490 -0.4354
 1951TIP3   OH230047   4.259   5.812   9.172  0.2895 -0.1845  0.0209
 1951TIP3    H130048   4.268   5.735   9.228  0.3206  0.2087  0.5613
 1951TIP3    H230049   4.314   5.793   9.096  1.7813  0.0782  0.9982
 1952TIP3   OH230050   4.978   5.988   8.586  0.1692 -0.4317 -0.0325
 1952TIP3    H130051   4.885   6.001   8.563  0.2329  0.1653  0.0301
 1952TIP3    H230052   4.981   5.899   8.621 -0.3381 -0.5494 -0.2681
 1953TIP3   OH230053   5.280   3.229  11.237 -0.1828 -0.2181  0.2990
 1953TIP3    H130054   5.203   3.171  11.241 -0.0415 -0.4326 -0.1117
 1953TIP3    H230055   5.250   3.304  11.187 -0.4514  0.2034  1.0692
 1954TIP3   OH230056   3.134   6.538  11.878 -0.5059  0.0164  0.1079
 1954TIP3    H130057   3.228   6.542  11.862 -0.8729  1.2263 -2.1212
 1954TIP3    H230058   3.126   6.547  11.973  1.5677  1.4219  0.2233
 1955TIP3   OH230059   5.905   4.419  12.288 -0.2346  0.2976  0.2332
 1955TIP3    H130060   5.837   4.465  12.239 -1.2696 -0.1715  1.1760
 1955TIP3    H230061   5.973   4.398  12.223 -0.8221  1.0803 -0.6548
 1956TIP3   OH230062   0.407   2.429   9.198  0.3101  0.0612  0.1613
 1956TIP3    H130063   0.403   2.380   9.116 -2.4751 -1.1151  0.8901
 1956TIP3    H230064   0.336   2.494   9.191 -1.3059 -1.3313  2.2874
 1957TIP3   OH230065   0.291   1.727   8.961 -0.1548 -0.5329 -0.5368
 1957TIP3    H130066   0.343   1.669   8.905 -0.3657  0.5802 -1.9391
 1957TIP3    H230067   0.204   1.726   8.923  0.2789  2.1624 -1.8208
 1958TIP3   OH230068   4.270   0.185  10.333 -0.2925 -0.7003  0.7339
 1958TIP3    H130069   4.352   0.168  10.379 -0.1910 -0.7015  0.5524
 1958TIP3    H230070   4.208   0.208  10.402 -0.0906 -0.5161  0.8564
 1959TIP3   OH230071   1.023   5.420   9.380 -0.2800 -0.5076  0.1093
 1959TIP3    H130072   1.024   5.402   9.286 -0.9002 -0.4374  0.0913
 1959TIP3    H230073   1.113   5.447   9.400 -0.2538 -0.0995 -0.5491
 1960TIP3   OH230074   1.287   0.004  11.998 -0.0253 -0.4032 -0.4753
 1960TIP3    H130075   1.342  -0.028  12.069 -0.4360  2.0309  1.0599
 1960TIP3    H230076   1.244   0.082  12.034 -2.4615 -0.6933 -2.4697
 1961TIP3   OH230077   5.235   0.402  11.980  0.4162  0.2295  0.1519
 1961TIP3    H130078   5.156   0.451  12.005  0.5923  0.1094  0.9680
 1961TIP3    H230079   5.224   0.317  12.021  0.6496 -0.0299 -0.3146
 1962TIP3   OH230080   5.741   3.090  11.903  0.0330  0.2714 -0.7718
 1962TIP3    H130081   5.673   3.076  11.969  0.0653  0.4698 -0.6958
 1962TIP3    H230082   5.700   3.144  11.836  0.0211  0.1272 -0.8802
 1963TIP3   OH230083   5.150   1.751  10.849  0.4681 -0.3899  0.3116
 1963TIP3    H130084   5.129   1.836  10.810  0.8319 -0.4199  0.0550
 1963TIP3    H230085   5.238   1.731  10.819  1.1562  0.0547  1.9215
 1964TIP3   OH230086   1.780   2.184  12.129  0.2608  0.2773  0.2509
 1964TIP3    H130087   1.775   2.218  12.040  0.6695  0.8515  0.4431
 1964TIP3    H230088   1.712   2.231  12.178  1.4151  1.5150  0.7296
 1965TIP3   OH230089   1.966   4.699  10.519  0.3803  0.2389 -0.0869
 1965TIP3    H130090   2.061   4.701  10.533  0.4707 -1.5482 -0.2527
 1965TIP3    H230091   1.948   4.778  10.468  1.7833  0.5909 -0.0745
 1966TIP3   OH230092   4.511   1.708  10.839 -0.1489 -0.3228 -0.7392
 1966TIP3    H130093   4.591   1.719  10.889 -0.5402 -0.3125 -0.1088
 1966TIP3    H230094   4.539   1.711  10.747  0.4586  0.4982 -0.5347
 1967TIP3   OH230095   5.839   4.507   9.591 -0.6731 -0.3898 -0.0540
 1967TIP3    H130096   5.804   4.421   9.566 -1.6210  0.4202 -1.6912
 1967TIP3    H230097   5.920   4.487   9.638 -0.9309 -2.1802 -0.2850
 1968TIP3   OH230098   4.009   6.302  11.083  1.1859  0.5998 -0.0168
 1968TIP3    H130099   4.090   6.265  11.047  0.4287  0.0402 -1.2563
 1968TIP3    H230100   3.957   6.324  11.005 -0.6709 -0.9506  0.6862
 1969TIP3   OH230101   3.183   0.847   8.410  0.2250 -0.6844 -0.6107
 1969TIP3    H130102   3.139   0.931   8.392  0.3747 -0.5513 -0.3551
 1969TIP3    H230103   3.111   0.784   8.418  0.0818 -0.4781 -0.2505
 1970TIP3   OH230104   1.849   2.041  11.380 -0.0915 -0.1102 -0.2311
 1970TIP3    H130105   1.937   2.028  11.416 -0.5149 -1.1701  0.4480
 1970TIP3    H230106   1.865   2.084  11.296  0.9494  1.6181  0.7962
 1971TIP3   OH230107   3.529   1.827   9.079  0.1261  0.4941  0.1600
 1971TIP3    H130108   3.567   1.750   9.037 -1.9962  0.1590 -1.3116
 1971TIP3    H230109   3.581   1.900   9.047  0.8273 -0.1154 -0.1307
 1972TIP3   OH230110   3.163   3.111  11.118 -0.3441 -0.2175  0.3401
 1972TIP3    H130111   3.172   3.125  11.023 -1.5970  0.1676  0.2581
 1972TIP3    H230112   3.130   3.021  11.125 -1.5590  0.2034  0.3107
 1973TIP3   OH230113   2.850   0.971  11.973 -0.2570 -0.8881  0.5930
 1973TIP3    H130114   2.772   0.927  12.008 -0.0982 -0.3844  1.6091
 1973TIP3    H230115   2.911   0.973  12.047  1.4839 -2.9517 -0.6658
 1974TIP3   OH230116   1.410   1.105   9.821  0.8074  0.2518  0.0476
 1974TIP3    H130117   1.382   1.056   9.899  1.7437  0.8212  0.7598
 1974TIP3    H230118   1.328   1.128   9.777  0.1105  1.7720  1.9978
 1975TIP3   OH230119   5.827   2.918  10.718  0.3906 -0.3065 -0.4443
 1975TIP3    H130120   5.765   2.846  10.707  0.3777 -0.2951 -0.4458
 1975TIP3    H230121   5.905   2.877  10.756  0.0821 -0.1700  0.3353
 1976TIP3   OH230122   6.323   1.936  11.651  0.1236  0.1220 -0.7620
 1976TIP3    H130123   6.285   2.021  11.629  0.7876  0.1759 -1.7487
 1976TIP3    H230124   6.260   1.896  11.711  0.1983  1.6432  0.3645
 1977TIP3   OH230125   3.742   0.915  10.698 -0.4013  0.1339  0.0567
 1977TIP3    H130126   3.684   0.861  10.753 -1.5681 -0.1870 -1.4308
 1977TIP3    H230127   3.686   0.946  10.627  0.7810  1.5408 -0.3055
 1978TIP3   OH230128   2.900   5.797  10.287  0.1246 -0.2750  0.0216
 1978TIP3    H130129   2.975   5.856  10.301 -1.0706  1.1925  0.5595
 1978TIP3    H230130   2.859   5.789  10.373 -1.7005  0.9313 -0.6738
 1979TIP3   OH230131   2.145   5.419  10.811 -0.1640  0.1505  0.3162
 1979TIP3    H130132   2.198   5.498  10.806 -0.3120  0.2310  0.0165
 1979TIP3    H230133   2.125   5.410  10.905  0.2260  0.2162  0.4073
 1980TIP3   OH230134   3.356   5.523  11.182  0.3107 -0.1113 -0.4521
 1980TIP3    H130135   3.264   5.498  11.171 -0.1541  0.8812  0.8204
 1980TIP3    H230136   3.405   5.460  11.130 -1.1268 -0.2955 -1.6603
 1981TIP3   OH230137   5.492   4.877   9.490 -0.0389  0.2890  0.2365
 1981TIP3    H130138   5.553   4.862   9.562  1.7500  1.3522 -1.0004
 1981TIP3    H230139   5.478   4.790   9.452 -0.1798 -0.1173  1.1792
 1982TIP3   OH230140   0.494   0.870  10.954 -0.6288 -0.2998 -0.1145
 1982TIP3    H130141   0.543   0.885  11.035 -1.0513  1.9401 -0.2016
 1982TIP3    H230142   0.425   0.809  10.979 -1.0211  0.6807  1.3810
 1983TIP3   OH230143   1.881   4.397  10.219 -0.2734  0.6059  0.6225
 1983TIP3    H130144   1.790   4.425  10.224 -0.2826  0.4008  4.0386
 1983TIP3    H230145   1.930   4.470  10.258  0.5774 -0.7384  2.1688
 1984TIP3   OH230146   5.850   2.727  11.040  0.7340 -0.2165 -0.1083
 1984TIP3    H130147   5.761   2.708  11.013  0.6053  0.8216 -0.4532
 1984TIP3    H230148   5.854   2.700  11.132 -0.2230  0.6565  0.1953
 1985TIP3   OH230149   5.516   5.102  11.923  0.5319 -0.5340  0.6405
 1985TIP3    H130150   5.445   5.152  11.963  0.5061 -1.6280  2.0563
 1985TIP3    H230151   5.590   5.162  11.922 -0.0943  0.2468  0.2230
 1986TIP3   OH230152   2.261   5.144  10.290  0.1995 -0.1098  0.4480
 1986TIP3    H130153   2.242   5.103  10.374 -1.4348 -2.1380 -0.7829
 1986TIP3    H230154   2.277   5.236  10.310 -0.2925 -0.5068  2.9373
 1987TIP3   OH230155   4.142   3.408  10.374  0.2757 -0.1901  0.0212
 1987TIP3    H130156   4.107   3.480  10.427 -0.5000 -1.5839  1.5068
 1987TIP3    H230157   4.086   3.406  10.297  0.3433  0.8237 -0.0623
 1988TIP3   OH230158   5.747   6.033  11.428  0.0945 -0.1737  0.0098
 1988TIP3    H130159   5.774   6.043  11.337 -0.0742  1.3515  0.1012
 1988TIP3    H230160   5.824   5.997  11.472  0.5385  0.1060 -0.5226
 1989TIP3   OH230161   6.406   4.367  11.071 -0.2691  0.1714 -0.3687
 1989TIP3    H130162   6.354   4.444  11.095 -1.4787 -0.2571 -1.4948
 1989TIP3    H230163   6.359   4.294  11.112 -0.3414 -0.1812 -1.0817
 1990TIP3   OH230164   2.747   4.812  11.684  0.1598 -0.3650  0.5617
 1990TIP3    H130165   2.782   4.866  11.755  0.6879  0.8320 -0.5633
 1990TIP3    H230166   2.718   4.732  11.727 -0.0880  0.5623  2.2109
 1991TIP3   OH230167   2.669   5.918  10.174 -0.2373 -0.0563 -0.6149
 1991TIP3    H130168   2.734   5.872  10.227 -1.2807 -0.9299 -0.0556
 1991TIP3    H230169   2.718   5.990  10.133  1.2555 -1.1667 -0.8723
 1992TIP3   OH230170   3.823   3.913  12.082 -0.3626 -0.3949  0.1923
 1992TIP3    H130171   3.834   3.830  12.129 -0.4399 -0.7311 -0.3771
 1992TIP3    H230172   3.874   3.976  12.133 -1.1929 -0.5411  1.2597
 1993TIP3   OH230173   2.781   6.660   8.354  0.0282 -0.5199 -0.3569
 1993TIP3    H130174   2.712   6.709   8.398  0.3938  0.0789 -0.4345
 1993TIP3    H230175   2.856   6.720   8.354  0.6939 -1.3488  0.1616
 1994TIP3   OH230176   2.151   3.907  10.913  0.2395  0.0933  0.4456
 1994TIP3    H130177   2.170   3.817  10.937 -0.6041 -0.4664 -0.8819
 1994TIP3    H230178   2.217   3.929  10.848 -0.2817  0.0190 -0.1126
 1995TIP3   OH230179   5.657   1.634  10.800 -0.2855  0.3210 -0.3643
 1995TIP3    H130180   5.625   1.612  10.888 -0.1227  1.0417 -0.1241
 1995TIP3    H230181   5.603   1.707  10.772 -1.4524 -0.9364 -1.5563
 1996TIP3   OH230182   2.057   4.344  11.680 -0.0781 -0.3172 -0.7436
 1996TIP3    H130183   2.080   4.376  11.593 -2.6299  0.3339 -1.2818
 1996TIP3    H230184   2.057   4.422  11.735  1.2023 -0.6760 -0.1951
 1997TIP3   OH230185   2.715   5.091  11.600  0.5489 -0.0418 -0.2324
 1997TIP3    H130186   2.758   5.018  11.555 -1.2021 -0.9967 -0.4468
 1997TIP3    H230187   2.690   5.151  11.531 -1.8351 -1.3469 -0.6193
 1998TIP3   OH230188   4.805   4.094  12.089  0.2142 -0.2654  0.3480
 1998TIP3    H130189   4.783   4.006  12.119  2.2880 -1.1066 -0.3476
 1998TIP3    H230190   4.725   4.145  12.101 -0.7787 -2.0081  1.6176
 1999TIP3   OH230191   1.115   2.866  11.605  0.3586  0.2849 -0.0755
 1999TIP3    H130192   1.166   2.867  11.686 -0.6903 -1.1052  0.6394
 1999TIP3    H230193   1.030   2.902  11.630  0.1402  0.1655 -0.6400
 2000TIP3   OH230194   1.996   5.843  12.296 -0.4964  0.1341  0.0418
 2000TIP3    H130195   1.972   5.930  12.329  0.4581  0.3228  0.2715
 2000TIP3    H230196   2.091   5.841  12.303 -0.5240 -0.9801  0.1451
 2001TIP3   OH230197   0.507   4.763   9.806  0.5758 -0.1233  0.0817
 2001TIP3    H130198   0.596   4.763   9.769  1.0392  0.5489  1.1519
 2001TIP3    H230199   0.501   4.681   9.854  1.1111  0.4065  1.0945
 2002TIP3   OH230200   2.325   1.052   9.026 -0.7792 -0.1927  0.4140
 2002TIP3    H130201   2.386   1.092   9.089  0.7173 -0.3267 -0.8799
 2002TIP3    H230202   2.382   1.007   8.963 -2.2870 -1.4523 -0.1191
 2003TIP3   OH230203   5.925   2.013   9.051  0.4322  0.6759  0.4840
 2003TIP3    H130204   5.839   2.009   9.092  0.2724  1.7038  0.2892
 2003TIP3    H230205   5.947   1.922   9.031 -0.5914  0.3982  0.5718
 2004TIP3   OH230206   6.345   2.030   9.835 -0.2108 -0.0856  0.1615
 2004TIP3    H130207   6.369   2.037   9.743 -0.5536  0.0540  0.0808
 2004TIP3    H230208   6.416   1.981   9.875  0.0275  0.0080 -0.1440
 2005TIP3   OH230209   6.100   3.117   9.270 -0.2347  0.0793  0.1642
 2005TIP3    H130210   6.039   3.062   9.220  0.4722  0.5520 -1.2544
 2005TIP3    H230211   6.078   3.099   9.361 -2.0012 -0.3299 -0.2984
 2006TIP3   OH230212   0.702   1.420   9.084  0.2009 -0.1784 -0.1189
 2006TIP3    H130213   0.626   1.390   9.034  0.1182  0.7863 -0.6008
 2006TIP3    H230214   0.713   1.511   9.058  0.3163  0.2801  1.4567
 2007TIP3   OH230215   1.236   0.935   9.302  0.0006 -0.0343 -0.0638
 2007TIP3    H130216   1.147   0.937   9.266 -0.5329  0.3120  1.2061
 2007TIP3    H230217   1.280   1.011   9.263  0.5124 -1.4856 -2.4932
 2008TIP3   OH230218   4.567   4.772   9.575 -0.3743  0.4936  0.0791
 2008TIP3    H130219   4.552   4.679   9.593  1.8497  0.1404  0.4348
 2008TIP3    H230220   4.537   4.817   9.654  0.9131 -0.2070  1.0087
 2009TIP3   OH230221   2.589   1.415   9.896 -0.6508 -0.4464  0.1261
 2009TIP3    H130222   2.618   1.354   9.963  1.0956  2.0807  1.8522
 2009TIP3    H230223   2.506   1.449   9.928 -0.3394 -0.0180  0.4823
 2010TIP3   OH230224   1.958   1.209   9.259 -0.7729  0.1165  0.1235
 2010TIP3    H130225   1.865   1.192   9.242 -0.8824 -0.6554  1.3518
 2010TIP3    H230226   1.959   1.257   9.342 -0.1456  1.5944 -0.7025
 2011TIP3   OH230227   0.307   1.514   9.910  0.0618  0.1816  0.1790
 2011TIP3    H130228   0.283   1.568   9.835 -0.5769  0.9194  0.8970
 2011TIP3    H230229   0.259   1.432   9.897  1.0286 -0.2506 -0.9122
 2012TIP3   OH230230   5.046   2.849   9.709 -0.4105  0.1059  0.0646
 2012TIP3    H130231   5.033   2.866   9.802 -0.3261  1.7384 -0.1787
 2012TIP3    H230232   5.008   2.763   9.693  1.3140 -1.0978  1.9793
 2013TIP3   OH230233   0.830   1.916   9.362 -0.0346 -0.8730  0.2855
 2013TIP3    H130234   0.770   1.843   9.374  1.2630 -1.8092  1.4992
 2013TIP3    H230235   0.827   1.965   9.445 -0.9174  0.5081 -0.5232
 2014TIP3   OH230236   4.579   0.231   9.634  0.2321 -0.2730 -0.0483
 2014TIP3    H130237   4.607   0.290   9.703 -1.0401 -0.7026  0.8696
 2014TIP3    H230238   4.633   0.153   9.645  1.4742  0.4331 -0.8670
 2015TIP3   OH230239   5.505   2.178  11.820  0.6733  0.0670  0.1362
 2015TIP3    H130240   5.421   2.155  11.780  1.1406 -0.4556 -0.5632
 2015TIP3    H230241   5.493   2.269  11.848  0.4640  0.6175 -1.6147
 2016TIP3   OH230242   5.263   6.635   9.464 -0.0408  0.2451  0.1249
 2016TIP3    H130243   5.276   6.541   9.476 -1.4306  0.0501  0.2766
 2016TIP3    H230244   5.185   6.656   9.516 -1.7014  0.8556 -2.4077
 2017TIP3   OH230245   4.546   4.357  10.995 -0.3630  0.5336  0.4162
 2017TIP3    H130246   4.617   4.420  10.994  1.3154 -1.2268  1.9122
 2017TIP3    H230247   4.565   4.299  10.921  0.3483 -0.4872  1.3626
 2018TIP3   OH230248   3.783   5.306  10.251 -0.0198 -0.7245 -0.4372
 2018TIP3    H130249   3.734   5.377  10.210  0.5450 -0.2065 -0.2165
 2018TIP3    H230250   3.785   5.237  10.184 -0.2417 -0.3984 -0.7871
 2019TIP3   OH230251   0.685   4.555  10.491 -0.4809  0.5787 -0.0934
 2019TIP3    H130252   0.774   4.540  10.460 -0.8015  1.0823 -1.3390
 2019TIP3    H230253   0.668   4.484  10.552  1.0848  0.9787  0.8646
 2020TIP3   OH230254   1.535   5.031  12.099  0.2495  0.4294  0.5682
 2020TIP3    H130255   1.494   5.095  12.157  0.0079  0.3646  0.4699
 2020TIP3    H230256   1.526   5.068  12.011  1.4655  0.9882  0.6535
 2021TIP3   OH230257   3.111   3.068   8.699 -0.1733  0.3042  0.2404
 2021TIP3    H130258   3.088   3.161   8.703 -1.8977 -0.1053  0.8897
 2021TIP3    H230259   3.028   3.024   8.680  0.8563 -1.0102 -1.5884
 2022TIP3   OH230260   1.843   1.415  11.904 -0.4221 -0.2451  0.4720
 2022TIP3    H130261   1.904   1.446  11.837  0.4091  0.6404  1.5884
 2022TIP3    H230262   1.774   1.482  11.907 -0.2535 -0.0808  0.7567
 2023TIP3   OH230263   2.972   2.460   9.117 -0.1679 -0.4079  0.0358
 2023TIP3    H130264   3.004   2.549   9.105  1.9398 -1.3323 -2.1874
 2023TIP3    H230265   2.882   2.462   9.085  0.4125  0.5916 -1.6395
 2024TIP3   OH230266   0.943   1.118  10.991  0.3947  0.1122  0.8305
 2024TIP3    H130267   0.977   1.068  10.917 -0.5610  0.0230  0.4427
 2024TIP3    H230268   0.994   1.087  11.066  0.3848 -0.8284  0.4543
 2025TIP3   OH230269   1.033   1.046  11.234 -0.1768 -0.0885 -0.2382
 2025TIP3    H130270   1.112   1.088  11.269 -0.6435 -0.2602  1.1147
 2025TIP3    H230271   1.045   0.953  11.252 -1.1621 -0.0020  1.0783
 2026TIP3   OH230272   3.121   1.526  10.268  0.4370 -0.5284  0.1292
 2026TIP3    H130273   3.027   1.509  10.273  0.3315  0.2838  1.7427
 2026TIP3    H230274   3.129   1.599  10.208 -0.1599  0.4762  1.2314
 2027TIP3   OH230275   4.992   2.428   8.785  0.4636  0.5810  0.1121
 2027TIP3    H130276   4.986   2.390   8.873  0.2020  0.2043 -0.0617
 2027TIP3    H230277   4.912   2.398   8.742  1.9175 -1.7274 -1.2104
 2028TIP3   OH230278   0.668   4.714  10.921 -0.0310  0.3551  0.3348
 2028TIP3    H130279   0.573   4.711  10.929 -0.2154 -1.3059 -1.5693
 2028TIP3    H230280   0.700   4.647  10.981 -0.0227  1.1511  1.2304
 2029TIP3   OH230281   0.606   4.564  12.161  0.3202 -0.0276  0.2724
 2029TIP3    H130282   0.619   4.624  12.234 -1.3818 -0.9524  1.3990
 2029TIP3    H230283   0.679   4.503  12.166  0.9379  0.7038  0.3638
 2030TIP3   OH230284   6.686   0.928   9.313 -0.5810  0.3179 -0.0179
 2030TIP3    H130285   6.613   0.917   9.375 -0.2788  0.9546  0.4553
 2030TIP3    H230286   6.756   0.967   9.365  0.0470 -0.1308 -0.5124
 2031TIP3   OH230287   4.447   5.887   9.917 -0.6448  0.3419  0.0024
 2031TIP3    H130288   4.389   5.920   9.849 -1.4217 -1.0723 -0.0427
 2031TIP3    H230289   4.481   5.966   9.959 -1.8604  1.2033 -0.5836
 2032TIP3   OH230290   1.392   5.831  12.214 -0.3694  0.3456  0.2700
 2032TIP3    H130291   1.311   5.797  12.176  0.5038 -0.5014 -0.8981
 2032TIP3    H230292   1.430   5.757  12.259  0.1455  0.5264  0.1348
 2033TIP3   OH230293   0.353   2.626  10.123  0.0177  0.0225  0.2711
 2033TIP3    H130294   0.408   2.574  10.065 -2.2854 -1.7059 -0.5574
 2033TIP3    H230295   0.366   2.588  10.210  0.7582  0.1973  0.2369
 2034TIP3   OH230296   5.522   0.538  10.450  0.2246  0.7680 -0.5072
 2034TIP3    H130297   5.511   0.455  10.403  0.4747  0.0896  0.5997
 2034TIP3    H230298   5.606   0.572  10.418 -0.1546  0.9036 -1.3991
 2035TIP3   OH230299   5.174   0.350  10.631 -0.1065  0.3781  0.3770
 2035TIP3    H130300   5.235   0.277  10.641 -0.3577  0.2493  1.0603
 2035TIP3    H230301   5.187   0.403  10.710 -0.6314  0.5243  0.3709
 2036TIP3   OH230302   2.525   0.409   9.358  0.2448  0.1555 -0.0741
 2036TIP3    H130303   2.522   0.347   9.431  0.6904  1.9376  1.5603
 2036TIP3    H230304   2.444   0.460   9.366  0.6864  0.9142 -0.3020
 2037TIP3   OH230305   2.039   5.501  10.135 -0.4486  0.1248 -0.2225
 2037TIP3    H130306   2.124   5.458  10.144 -0.5803 -0.0170  0.4595
 2037TIP3    H230307   2.034   5.527  10.044  0.8881  1.2840  0.0042
 2038TIP3   OH230308   1.666   1.913   9.408  0.0361 -0.5582 -0.7410
 2038TIP3    H130309   1.587   1.862   9.429  0.1440 -0.3709  0.1607
 2038TIP3    H230310   1.734   1.878   9.465  1.2775 -2.3353 -3.1692
 2039TIP3   OH230311   2.170   4.315  10.695  0.2968 -0.1612  0.0391
 2039TIP3    H130312   2.113   4.354  10.627  0.2860  1.2569  0.8179
 2039TIP3    H230313   2.189   4.388  10.754 -1.7086 -1.7968  2.9938
 2040TIP3   OH230314   5.979   0.349  10.384  0.0224 -0.2445  0.2293
 2040TIP3    H130315   6.015   0.296  10.312 -1.8213 -0.5566 -0.5232
 2040TIP3    H230316   6.045   0.416  10.399  0.4660 -0.1475 -1.7991
 2041TIP3   OH230317   2.467   4.294   9.404  0.1225  0.1291  0.1586
 2041TIP3    H130318   2.509   4.228   9.349  1.0479  1.1176 -0.3445
 2041TIP3    H230319   2.373   4.276   9.395  0.3171 -0.4759 -0.7801
 2042TIP3   OH230320   5.610   0.226   9.434  0.3742 -0.1595 -0.1962
 2042TIP3    H130321   5.573   0.160   9.492 -0.8141  0.8572  0.2516
 2042TIP3    H230322   5.632   0.299   9.491 -0.9644  0.9221 -1.0122
 2043TIP3   OH230323   0.140   2.598   8.777 -0.0491  0.1374 -0.1233
 2043TIP3    H130324   0.056   2.577   8.818  0.9916 -1.5557  1.2752
 2043TIP3    H230325   0.170   2.676   8.824 -0.0617 -0.2700  0.5746
 2044TIP3   OH230326   1.431   5.560  10.137  0.2419  0.4631 -0.1217
 2044TIP3    H130327   1.406   5.650  10.115 -2.2740  0.1340  1.0093
 2044TIP3    H230328   1.420   5.512  10.055  0.4351  0.9598 -0.4431
 2045TIP3   OH230329   3.170   3.185  11.889  0.3492  0.3539  0.4552
 2045TIP3    H130330   3.125   3.231  11.960 -0.2076  0.2239  0.1915
 2045TIP3    H230331   3.121   3.210  11.810  0.7186  0.1787  0.1698
 2046TIP3   OH230332   5.289   0.131   8.683 -0.1240  0.0986 -0.5981
 2046TIP3    H130333   5.243   0.159   8.604  0.3339  0.3765 -0.7723
 2046TIP3    H230334   5.322   0.044   8.662 -0.0192  0.1647 -0.7122
 2047TIP3   OH230335   5.344   2.652  11.944 -0.4386  0.1884  0.1205
 2047TIP3    H130336   5.328   2.696  11.860  1.7713 -1.3296 -1.2210
 2047TIP3    H230337   5.394   2.715  11.995  0.3577  0.2874 -0.7316
 2048TIP3   OH230338   1.504   4.811   9.995 -0.4095  0.3748  0.2625
 2048TIP3    H130339   1.500   4.770   9.909 -1.7187  0.1973  0.3954
 2048TIP3    H230340   1.457   4.893   9.986  1.3786  1.4632  0.2538
 2049TIP3   OH230341   5.017   1.142  11.577  0.5906 -0.5424 -0.3947
 2049TIP3    H130342   4.928   1.107  11.589  0.4747 -0.1721 -0.1582
 2049TIP3    H230343   5.034   1.192  11.656  0.7052  0.0354 -0.7778
 2050TIP3   OH230344   0.199   3.512  10.269  0.0056  0.2604  0.0602
 2050TIP3    H130345   0.271   3.560  10.308  0.5511 -0.4903 -0.0094
 2050TIP3    H230346   0.127   3.575  10.265  1.4287  1.8751 -2.3724
 2051TIP3   OH230347   6.543   6.192  11.686  0.2403  0.0203 -0.1882
 2051TIP3    H130348   6.502   6.131  11.624 -1.0094 -0.5026  1.0946
 2051TIP3    H230349   6.603   6.139  11.737  0.5951  0.2611 -0.3528
 2052TIP3   OH230350   0.111   2.024   9.211 -0.4595 -0.4322  0.0553
 2052TIP3    H130351   0.064   2.107   9.218 -0.5111 -0.4468 -0.1108
 2052TIP3    H230352   0.047   1.957   9.235 -1.0080 -0.5888 -1.7028
 2053TIP3   OH230353   3.902   0.497  12.196 -0.0225 -0.1874 -0.1589
 2053TIP3    H130354   3.981   0.456  12.161  0.2480 -0.3809  0.6362
 2053TIP3    H230355   3.876   0.440  12.269  1.8207  2.2744  2.6892
 2054TIP3   OH230356   0.885   6.088   8.383  0.2920  0.1416 -0.0997
 2054TIP3    H130357   0.915   5.999   8.366 -1.3793 -0.2990 -0.9612
 2054TIP3    H230358   0.790   6.080   8.391  0.3493  1.2965  3.4855
 2055TIP3   OH230359   0.988   5.232   9.596 -0.5269  0.0917  0.7413
 2055TIP3    H130360   0.898   5.234   9.628 -0.1212 -0.0635  1.9324
 2055TIP3    H230361   0.986   5.283   9.515 -1.7238 -0.0937  0.6373
 2056TIP3   OH230362   2.862   0.073  11.456 -0.1641  0.7242 -0.4239
 2056TIP3    H130363   2.921   0.054  11.383 -0.1559 -1.7155  0.1328
 2056TIP3    H230364   2.897   0.021  11.529 -2.9365 -0.8678 -0.0788
 2057TIP3   OH230365   3.072   0.558  12.283 -0.4473  0.3168  0.2327
 2057TIP3    H130366   3.040   0.601  12.203 -0.4296 -1.6341 -0.8825
 2057TIP3    H230367   3.111   0.629  12.334  0.8003  1.4302 -2.1207
 2058TIP3   OH230368   0.870   0.489   8.710  0.0441  0.6695 -0.3116
 2058TIP3    H130369   0.902   0.521   8.626  0.7006  1.1836  0.1140
 2058TIP3    H230370   0.871   0.567   8.766 -1.3880  0.5649 -0.1052
 2059TIP3   OH230371   1.367   5.502  10.421  0.5383 -0.3224 -0.1904
 2059TIP3    H130372   1.450   5.532  10.456  0.0105  1.1241 -0.1250
 2059TIP3    H230373   1.361   5.542  10.334 -0.4949  0.3751  0.1770
 2060TIP3   OH230374   4.961   3.124  11.474  0.1862  0.5189  0.1556
 2060TIP3    H130375   4.911   3.205  11.469  0.4343  0.7876  1.6593
 2060TIP3    H230376   4.906   3.065  11.525  0.6062  0.2026  0.2464
 2061TIP3   OH230377   4.578   4.295  11.260 -0.2078 -0.4679  0.1449
 2061TIP3    H130378   4.491   4.295  11.302 -0.3169 -1.3223 -0.0723
 2061TIP3    H230379   4.559   4.289  11.167  0.0797 -0.3130  0.0770
 2062TIP3   OH230380   1.252   3.104  11.921 -0.0083  0.0078 -0.2743
 2062TIP3    H130381   1.181   3.132  11.978  0.2711  0.6505 -0.2308
 2062TIP3    H230382   1.270   3.180  11.866  1.9709  0.5566  1.0462
 2063TIP3   OH230383   4.842   0.263  11.127 -0.3650  0.4604  0.5162
 2063TIP3    H130384   4.880   0.175  11.119  0.4525  0.7107  1.3249
 2063TIP3    H230385   4.912   0.322  11.099 -0.6541  0.8768  0.6583
 2064TIP3   OH230386   5.833   3.295  10.047 -0.0059 -0.5113  0.0759
 2064TIP3    H130387   5.800   3.205  10.046 -1.3706 -0.0371 -0.4237
 2064TIP3    H230388   5.922   3.289  10.013  0.5620 -1.8831  1.6954
 2065TIP3   OH230389   1.751   4.300  11.351 -0.3095 -0.0135  0.4023
 2065TIP3    H130390   1.734   4.350  11.271  1.2326  0.4285  0.3249
 2065TIP3    H230391   1.718   4.355  11.422  2.7830  1.9686  0.4711
 2066TIP3   OH230392   5.979   0.691   8.729 -0.0706  0.2696 -0.2585
 2066TIP3    H130393   5.943   0.720   8.813  1.3570  0.8803  0.1751
 2066TIP3    H230394   5.943   0.603   8.716 -0.2200  0.1243  1.0512
 2067TIP3   OH230395   0.369   1.793  10.957 -0.9295  0.0172  0.1143
 2067TIP3    H130396   0.407   1.874  10.990  0.7199 -1.4968  2.1670
 2067TIP3    H230397   0.278   1.795  10.988 -0.6566  0.6728  0.9043
 2068TIP3   OH230398   3.256   0.621   8.223  0.4630 -0.4494  0.3350
 2068TIP3    H130399   3.271   0.540   8.271  0.2936 -1.0541 -0.6310
 2068TIP3    H230400   3.192   0.669   8.277 -0.4030 -1.5065  0.2691
 2069TIP3   OH230401   3.717   3.671  12.204  0.1952 -0.2546 -0.4421
 2069TIP3    H130402   3.723   3.712  12.290 -0.1891 -0.0359 -0.5155
 2069TIP3    H230403   3.627   3.639  12.199 -0.6662  2.0592 -1.7648
 2070TIP3   OH230404   2.252   3.329   9.642 -0.5133 -0.2958  0.9049
 2070TIP3    H130405   2.222   3.418   9.660 -0.2969 -0.4197  1.9291
 2070TIP3    H230406   2.232   3.279   9.721 -1.9221 -1.5270 -0.1594
 2071TIP3   OH230407   2.683   3.137  11.144  0.4727  0.1641 -0.3498
 2071TIP3    H130408   2.620   3.125  11.074  1.2806  1.0212 -1.2533
 2071TIP3    H230409   2.741   3.207  11.113  1.0155  0.3748  1.0480
 2072TIP3   OH230410   0.985   3.657  11.039  0.3933 -0.5330 -0.1461
 2072TIP3    H130411   0.948   3.716  11.104 -1.5707 -0.4738 -1.2296
 2072TIP3    H230412   1.005   3.713  10.964  0.6044 -0.9077 -0.3771
 2073TIP3   OH230413   3.168   1.532  11.054 -0.0098 -0.3308 -0.0950
 2073TIP3    H130414   3.164   1.452  11.105  0.6621 -0.4186 -0.1748
 2073TIP3    H230415   3.076   1.559  11.044 -0.1088  0.5182  2.4277
 2074TIP3   OH230416   0.028   1.406   9.797 -0.2846 -0.5621  0.2772
 2074TIP3    H130417  -0.053   1.360   9.775 -0.7603 -0.0038  0.8328
 2074TIP3    H230418   0.095   1.362   9.746 -0.6265 -2.2574  1.2047
 2075TIP3   OH230419   3.798   3.833  12.404 -0.1721 -0.0509 -0.1969
 2075TIP3    H130420   3.841   3.852  12.487 -1.1616  0.4917  0.2020
 2075TIP3    H230421   3.844   3.888  12.340  0.8636 -0.7735 -0.1051
 2076TIP3   OH230422   0.295   3.915  10.186 -0.2791  0.3294 -0.3274
 2076TIP3    H130423   0.288   3.857  10.262  0.4897 -0.1860 -0.6425
 2076TIP3    H230424   0.287   3.857  10.111  1.0857  0.5425 -0.6528
 2077TIP3   OH230425   2.943   0.490  11.944 -0.1685  0.2034  0.3392
 2077TIP3    H130426   2.856   0.502  11.981  0.1649 -1.1460  1.6360
 2077TIP3    H230427   2.991   0.568  11.969 -0.4605  0.0910  1.2665
 2078TIP3   OH230428   3.029   0.756  12.090 -0.2248 -0.3459 -0.2614
 2078TIP3    H130429   3.061   0.777  12.002 -3.8693  0.0289 -1.6635
 2078TIP3    H230430   3.005   0.841  12.127  0.5314 -0.5896  0.8371
 2079TIP3   OH230431   4.417   1.248  11.397  0.0012 -0.1593 -0.2675
 2079TIP3    H130432   4.349   1.293  11.347  1.0437  1.0466 -0.6638
 2079TIP3    H230433   4.491   1.241  11.336  0.3478 -1.1871  0.2412
 2080TIP3   OH230434   3.290   5.670  10.951 -0.0484 -0.3681 -0.0175
 2080TIP3    H130435   3.225   5.602  10.935 -0.8605  0.5118 -0.5324
 2080TIP3    H230436   3.330   5.646  11.035 -0.4710 -1.3449 -0.0799
 2081TIP3   OH230437   4.260   3.886   9.887  0.0333 -0.3828 -0.2043
 2081TIP3    H130438   4.256   3.794   9.859  0.0096 -0.0096 -1.4727
 2081TIP3    H230439   4.331   3.888   9.951 -0.9716 -1.5699  1.0207
 2082TIP3   OH230440   2.550   4.606  10.848  0.0950  0.0179  0.1921
 2082TIP3    H130441   2.596   4.688  10.865  0.4522  0.2641 -1.7159
 2082TIP3    H230442   2.487   4.627  10.779 -0.0276 -1.2273 -0.1052
 2083TIP3   OH230443   4.976   2.383  12.167 -0.0793  0.3630 -0.1700
 2083TIP3    H130444   4.901   2.389  12.108  0.9796  0.7339 -1.5081
 2083TIP3    H230445   4.999   2.290  12.169  0.8728  0.5290 -1.6659
 2084TIP3   OH230446   3.966   3.770   9.737  0.1450 -0.4271 -0.0793
 2084TIP3    H130447   3.938   3.831   9.806  0.7528  1.0593 -1.1013
 2084TIP3    H230448   3.913   3.792   9.662  1.2798 -0.2486 -0.8586
 2085TIP3   OH230449   0.766   2.167   9.569  0.5252  0.6979  0.2745
 2085TIP3    H130450   0.684   2.118   9.575  1.3038 -0.9123 -1.2599
 2085TIP3    H230451   0.754   2.225   9.494  1.1431 -0.3558 -0.6728
 2086TIP3   OH230452   4.349   3.062  11.043  0.0510  0.2285 -0.3874
 2086TIP3    H130453   4.308   3.138  11.085  0.2494  0.3331 -0.3846
 2086TIP3    H230454   4.440   3.087  11.031 -0.4768  1.1143 -3.0546
 2087TIP3   OH230455   2.365   6.386  11.613 -0.2261  0.4768  0.0369
 2087TIP3    H130456   2.340   6.295  11.598  0.5344  0.2042  0.3916
 2087TIP3    H230457   2.461   6.385  11.609 -0.2513  1.6592 -2.3114
 2088TIP3   OH230458   0.596   3.663  11.488  0.0829  0.3336 -0.3479
 2088TIP3    H130459   0.555   3.644  11.572  0.2673  0.5997 -0.1953
 2088TIP3    H230460   0.623   3.578  11.454 -0.3288  0.1862 -0.3106
 2089TIP3   OH230461   4.038   0.854   8.933 -0.0795 -0.5728 -0.5661
 2089TIP3    H130462   3.985   0.779   8.908 -1.2331  0.3746 -1.0545
 2089TIP3    H230463   4.101   0.819   8.996 -2.2063 -1.4718  1.1818
 2090TIP3   OH230464   0.361   2.069   9.081 -0.1876  0.7718  0.1983
 2090TIP3    H130465   0.373   2.146   9.025  0.6856 -0.5107 -1.4678
 2090TIP3    H230466   0.267   2.050   9.076 -0.2712  1.2330 -0.0337
 2091TIP3   OH230467   0.254   6.069  11.672  0.0656  0.3093  0.2027
 2091TIP3    H130468   0.345   6.098  11.686  0.3641 -0.5490  0.0960
 2091TIP3    H230469   0.201   6.141  11.705  0.7875  0.4022  1.1993
 2092TIP3   OH230470   6.094   3.059  11.581  0.0928 -0.3584 -0.7642
 2092TIP3    H130471   6.106   3.107  11.664  0.0516  0.5555 -1.2780
 2092TIP3    H230472   6.004   3.026  11.585 -0.3448  0.7823 -1.0024
 2093TIP3   OH230473   4.474   0.478  10.341  0.1485  0.2113 -0.2277
 2093TIP3    H130474   4.428   0.427  10.274  0.2366  0.1496 -0.2425
 2093TIP3    H230475   4.437   0.447  10.423  0.8107 -0.5112 -0.1861
 2094TIP3   OH230476   3.624   4.569  10.087 -0.4291  0.3702 -0.6619
 2094TIP3    H130477   3.546   4.574  10.142 -0.6393  0.6343 -0.9827
 2094TIP3    H230478   3.639   4.659  10.058 -1.0190  0.0396 -2.0182
 2095TIP3   OH230479   6.525   1.517  11.763  0.0022  0.4055  0.2053
 2095TIP3    H130480   6.572   1.558  11.835 -0.5259  1.2469  0.0785
 2095TIP3    H230481   6.532   1.423  11.781  1.0002  0.5513  0.6351
 2096TIP3   OH230482   4.968   5.663   9.733 -0.4360 -0.1994  0.4726
 2096TIP3    H130483   5.042   5.724   9.738 -0.4192 -0.0656 -1.0133
 2096TIP3    H230484   4.891   5.720   9.731 -0.5951 -0.3330  1.8363
 2097TIP3   OH230485   3.790   2.902   9.197 -0.3629 -0.6554 -0.2186
 2097TIP3    H130486   3.827   2.826   9.241  0.5119  0.3424  0.8399
 2097TIP3    H230487   3.744   2.950   9.266  1.0739  0.9676 -0.3055
 2098TIP3   OH230488   4.083   1.424  12.072  0.3689 -0.3829 -0.1297
 2098TIP3    H130489   4.145   1.352  12.079 -2.8243 -3.4686 -0.2975
 2098TIP3    H230490   4.035   1.406  11.991  0.0300  2.5326 -0.6696
 2099TIP3   OH230491   2.243   0.034  10.757 -0.0147 -0.3831 -0.4847
 2099TIP3    H130492   2.172   0.022  10.694  0.2596  0.2397 -0.9288
 2099TIP3    H230493   2.207   0.093  10.823  0.2495  0.3720 -0.9987
 2100TIP3   OH230494   4.092   0.431   9.243 -0.4681 -0.7430 -0.4312
 2100TIP3    H130495   4.093   0.351   9.295 -0.4095 -1.2752 -1.2479
 2100TIP3    H230496   4.184   0.448   9.225 -0.4860 -0.5240 -0.3229
 2101TIP3   OH230497   3.508   0.353  10.519 -0.1345  0.9037 -0.0307
 2101TIP3    H130498   3.575   0.382  10.581  0.1788 -1.5048  0.9008
 2101TIP3    H230499   3.428   0.399  10.547  0.1106  0.2536  1.9349
 2102TIP3   OH230500   6.684   3.260   9.996  0.5831 -0.1762 -0.0508
 2102TIP3    H130501   6.592   3.249   9.972  0.6018 -1.0880  0.2552
 2102TIP3    H230502   6.730   3.194   9.944  1.2580  1.1973 -1.2723
 2103TIP3   OH230503   3.673   1.914   8.708 -0.4957 -0.1345 -0.4553
 2103TIP3    H130504   3.713   1.954   8.786 -1.4046 -1.1194  0.5490
 2103TIP3    H230505   3.684   1.820   8.720  1.8651 -0.2987 -2.9334
 2104TIP3   OH230506   4.154   1.108  11.995  0.2200 -0.4055  0.1937
 2104TIP3    H130507   4.175   1.021  11.961 -0.5013 -0.2631 -0.6812
 2104TIP3    H230508   4.222   1.165  11.958 -0.6691 -0.2178 -1.2583
 2105TIP3   OH230509   6.623   5.884  11.676  0.5485  0.3259 -0.5432
 2105TIP3    H130510   6.545   5.830  11.661  0.9863 -0.7746  0.9046
 2105TIP3    H230511   6.686   5.856  11.610  0.4217 -0.2435 -0.4265
 2106TIP3   OH230512   3.166   0.317  10.398  0.2577  0.0943 -0.0842
 2106TIP3    H130513   3.166   0.264  10.478  2.9717 -0.3640 -0.2911
 2106TIP3    H230514   3.201   0.401  10.426  1.0374 -0.0050 -0.7477
 2107TIP3   OH230515   3.158   3.540  10.636  0.8481 -0.8263 -0.2315
 2107TIP3    H130516   3.244   3.579  10.652  1.7574 -2.2375 -1.3876
 2107TIP3    H230517   3.176   3.448  10.616 -1.1467 -1.7542  1.7576
 2108TIP3   OH230518   1.751   4.542  10.478  0.0625 -0.2239 -0.1864
 2108TIP3    H130519   1.690   4.568  10.547  0.4362 -0.4615  0.2399
 2108TIP3    H230520   1.823   4.605  10.485  0.8563 -1.1993  0.6910
 2109TIP3   OH230521   1.910   4.618  10.786 -0.0216 -0.4747 -0.0948
 2109TIP3    H130522   1.897   4.526  10.810  0.7999 -1.1951 -2.1499
 2109TIP3    H230523   1.946   4.614  10.697  0.1163  1.8466 -0.1928
 2110TIP3   OH230524   4.857   1.865  12.164 -0.1929 -0.3426  0.3804
 2110TIP3    H130525   4.893   1.898  12.081 -0.0691 -0.0902  0.5344
 2110TIP3    H230526   4.862   1.770  12.156 -0.6344 -0.3299 -0.1034
 2111TIP3   OH230527   3.172   4.196  10.746  0.2374  0.3523  0.1140
 2111TIP3    H130528   3.133   4.256  10.810 -1.7959 -0.2927 -0.4718
 2111TIP3    H230529   3.165   4.110  10.786 -0.2014  0.0567 -0.5871
 2112TIP3   OH230530   0.322   0.181  10.296 -0.1424  0.5751  0.1781
 2112TIP3    H130531   0.397   0.124  10.310 -0.5934  0.4854  2.6455
 2112TIP3    H230532   0.265   0.166  10.371 -2.2241  1.3258 -1.1335
 2113TIP3   OH230533   5.370   5.345   9.463  0.2560  0.2691  0.0487
 2113TIP3    H130534   5.426   5.278   9.424 -1.1245 -1.5427  1.0691
 2113TIP3    H230535   5.331   5.303   9.540  0.6992  2.8081  1.7889
 2114TIP3   OH230536   5.333   2.472   9.977 -0.5319 -0.0806  0.5475
 2114TIP3    H130537   5.355   2.439   9.889 -0.5878 -4.1678  1.8459
 2114TIP3    H230538   5.240   2.495   9.971  0.0718  2.3914 -1.0352
 2115TIP3   OH230539   1.267   1.242  11.278  0.1754 -0.0948 -0.9626
 2115TIP3    H130540   1.338   1.203  11.226  0.2889  0.2744 -1.0854
 2115TIP3    H230541   1.288   1.335  11.283  1.5704 -0.4667  1.9493
 2116TIP3   OH230542   6.153   3.341  10.323 -0.4622 -0.1099 -0.2244
 2116TIP3    H130543   6.122   3.369  10.409 -1.6377 -0.9152 -0.3584
 2116TIP3    H230544   6.239   3.301  10.340 -0.5882 -0.0710  0.5417
 2117TIP3   OH230545   5.200   5.946  11.810  0.8994 -0.3499 -0.5184
 2117TIP3    H130546   5.162   6.020  11.857 -1.1662 -0.3599 -2.0254
 2117TIP3    H230547   5.144   5.872  11.833  0.4545 -0.5586 -2.1288
 2118TIP3   OH230548   0.743   4.795  11.609 -0.1182  0.0235 -0.4310
 2118TIP3    H130549   0.740   4.891  11.612  0.2970  0.0609 -1.1756
 2118TIP3    H230550   0.663   4.768  11.655 -0.7377  0.7376 -1.0600
 2119TIP3   OH230551   5.388   3.691  10.839  0.5528 -0.6588  0.5923
 2119TIP3    H130552   5.446   3.759  10.872  1.2021 -1.0277  0.2263
 2119TIP3    H230553   5.331   3.670  10.913 -1.9888  2.6444 -0.1632
 2120TIP3   OH230554   0.045   1.727   8.873  0.3160  0.6863 -0.6653
 2120TIP3    H130555  -0.046   1.750   8.891 -0.0169 -0.3828 -0.9650
 2120TIP3    H230556   0.060   1.756   8.783 -0.1954 -0.4824 -1.1483
 2121TIP3   OH230557   0.895   4.291  10.527  0.4160 -0.6835 -0.1082
 2121TIP3    H130558   0.987   4.269  10.510  0.5361  0.8090 -1.6374
 2121TIP3    H230559   0.897   4.339  10.610  0.8159 -1.8208  0.5616
 2122TIP3   OH230560   1.189   6.243  10.369 -0.3379 -0.3049  0.1747
 2122TIP3    H130561   1.108   6.287  10.344  0.7501  2.3807  0.9679
 2122TIP3    H230562   1.233   6.305  10.428  1.4764 -2.4103  1.2203
 2123TIP3   OH230563   6.520   1.524   9.051 -0.0467  0.2269  0.0597
 2123TIP3    H130564   6.440   1.550   9.096  0.1814 -1.9978  1.9598
 2123TIP3    H230565   6.493   1.504   8.961 -1.2835  1.0955  0.2270
 2124TIP3   OH230566   4.180   6.406  11.478 -0.0110 -0.6676  0.3756
 2124TIP3    H130567   4.132   6.447  11.405 -0.5078 -1.3819  0.2957
 2124TIP3    H230568   4.261   6.456  11.483  0.6754 -1.4946 -1.5932
 2125TIP3   OH230569   3.823   0.453  10.935  0.0229  0.3685  0.2008
 2125TIP3    H130570   3.769   0.442  11.014  0.5030  1.0036  0.6293
 2125TIP3    H230571   3.856   0.365  10.917 -1.1253 -0.0287 -0.0563
 2126TIP3   OH230572   1.840   1.416  11.044 -0.1376 -0.1797  0.3805
 2126TIP3    H130573   1.818   1.499  11.001  2.2241  1.1621  1.5563
 2126TIP3    H230574   1.775   1.406  11.113 -0.6696  0.4845 -0.0148
 2127TIP3   OH230575   1.703   6.125   9.980 -0.1183 -0.3893 -0.2932
 2127TIP3    H130576   1.635   6.088   9.923 -1.5992  0.8871  0.5609
 2127TIP3    H230577   1.704   6.069  10.057  0.9122 -1.3028 -0.9421
 2128TIP3   OH230578   2.870   0.564   8.735  0.1735 -0.7235 -0.1547
 2128TIP3    H130579   2.793   0.547   8.789 -0.3890  2.0636  0.0413
 2128TIP3    H230580   2.837   0.564   8.645  0.3490 -1.4952 -0.2230
 2129TIP3   OH230581   1.241   5.888  11.020 -1.2420 -0.3158 -0.2409
 2129TIP3    H130582   1.207   5.811  10.974  0.6203 -1.4238  0.1462
 2129TIP3    H230583   1.171   5.912  11.080 -1.8497 -1.7484 -0.3294
 2130TIP3   OH230584   1.039   0.229  11.560 -0.0727  0.1778 -0.1459
 2130TIP3    H130585   1.108   0.197  11.502  1.4390  1.0348  1.1018
 2130TIP3    H230586   1.086   0.269  11.633 -1.9116  0.3036  1.0248
 2131TIP3   OH230587   4.938   5.033  10.742  0.1815 -0.0412 -0.0473
 2131TIP3    H130588   4.973   5.093  10.676 -0.6095  0.1368 -0.3127
 2131TIP3    H230589   4.970   4.947  10.716  0.6622  0.1533 -0.1157
 2132TIP3   OH230590   2.084   2.146  11.537 -0.6092  0.1216 -0.0824
 2132TIP3    H130591   2.150   2.129  11.470 -0.4421 -0.1030  0.1359
 2132TIP3    H230592   2.066   2.240  11.530 -0.2581  0.1861 -0.1335
 2133TIP3   OH230593   6.522   6.144   9.613  0.0698  0.1000  0.6486
 2133TIP3    H130594   6.495   6.230   9.646 -1.3973 -0.4763  1.0119
 2133TIP3    H230595   6.483   6.139   9.526 -0.0609 -0.2936  0.7301
 2134TIP3   OH230596   5.166   1.311  11.415 -0.1397 -0.7988  0.1620
 2134TIP3    H130597   5.094   1.279  11.469 -0.1413 -1.6362 -0.3279
 2134TIP3    H230598   5.179   1.401  11.445 -0.1082 -1.2489  1.5865
 2135TIP3   OH230599   5.484   0.879  11.603  0.1821  0.0475  0.7871
 2135TIP3    H130600   5.398   0.888  11.564  0.0255 -1.1260  0.8261
 2135TIP3    H230601   5.490   0.951  11.666 -0.1071  1.1192 -0.3712
 2136TIP3   OH230602   0.991   3.223   8.964  0.6909 -0.4300 -0.1299
 2136TIP3    H130603   0.968   3.292   9.027  0.2124 -1.6592  1.1042
 2136TIP3    H230604   0.915   3.217   8.907 -0.2595 -1.4277  1.1670
 2137TIP3   OH230605   1.693   2.378  10.516 -0.3406  0.6202  0.2537
 2137TIP3    H130606   1.785   2.401  10.525 -0.2910  0.9005 -0.8029
 2137TIP3    H230607   1.663   2.362  10.606  1.2650 -1.5938  0.4651
 2138TIP3   OH230608   1.072   5.624   8.938  0.3204  0.4056  0.1960
 2138TIP3    H130609   1.059   5.606   8.845  0.2866  1.1292  0.0511
 2138TIP3    H230610   1.075   5.720   8.943  0.1043  0.3745  0.9714
 2139TIP3   OH230611   1.487   5.817  10.712  0.4411  0.3013  0.2413
 2139TIP3    H130612   1.565   5.761  10.703  0.8079  0.3345  2.5973
 2139TIP3    H230613   1.414   5.760  10.689  0.9644 -0.5948  0.7175
 2140TIP3   OH230614   2.976   4.843  10.113  0.1195 -0.1290 -0.3548
 2140TIP3    H130615   2.925   4.775  10.156  0.2680 -0.1909 -0.2770
 2140TIP3    H230616   3.061   4.803  10.098  0.1722  0.0036 -0.4074
 2141TIP3   OH230617   3.657   5.478   9.410 -0.5710  0.0863 -0.4981
 2141TIP3    H130618   3.742   5.436   9.394 -0.1702 -0.5076  2.6045
 2141TIP3    H230619   3.678   5.570   9.425 -0.6682  0.1829 -0.9193
 2142TIP3   OH230620   1.864   0.945  10.989  0.2833 -0.6463  0.3255
 2142TIP3    H130621   1.803   0.918  11.058  0.3911 -0.4163  0.5132
 2142TIP3    H230622   1.849   0.883  10.918  0.5294 -1.2109  0.7488
 2143TIP3   OH230623   2.332   5.930  11.189  0.3127 -0.0412 -0.3804
 2143TIP3    H130624   2.356   6.007  11.136  1.5310 -0.2798 -0.1999
 2143TIP3    H230625   2.414   5.903  11.230 -0.2387 -1.0453  0.0852
 2144TIP3   OH230626   4.617   1.960   9.873 -0.6022 -0.2814  0.3805
 2144TIP3    H130627   4.645   1.897   9.939  1.4120  0.2930  0.1276
 2144TIP3    H230628   4.688   1.963   9.809 -1.0441  1.5415 -0.1098
 2145TIP3   OH230629   6.409   0.239  11.335 -0.3578  0.0742 -0.2699
 2145TIP3    H130630   6.368   0.325  11.342  0.5938  0.4689  0.6887
 2145TIP3    H230631   6.468   0.233  11.410  0.0595 -1.1658 -0.6569
 2146TIP3   OH230632   3.792   4.671  10.685 -0.1455 -0.3967 -1.1941
 2146TIP3    H130633   3.804   4.731  10.612  2.3685 -0.9955 -1.3782
 2146TIP3    H230634   3.847   4.596  10.664  2.7857  0.4439  2.3372
 2147TIP3   OH230635   3.552   2.323  10.052  0.5272 -0.3449  0.4495
 2147TIP3    H130636   3.506   2.282   9.980  0.4302 -1.7915  1.3147
 2147TIP3    H230637   3.583   2.406  10.015 -2.5823  0.6525 -0.2018
 2148TIP3   OH230638   3.996   5.449  10.371  0.1111  0.5608 -0.2242
 2148TIP3    H130639   3.920   5.409  10.328  0.8933 -2.2956  0.7865
 2148TIP3    H230640   4.062   5.456  10.302 -0.3930  1.1017 -0.6527
 2149TIP3   OH230641   1.213   6.159   9.166 -0.2553  0.2445 -0.0033
 2149TIP3    H130642   1.231   6.234   9.222 -1.5089  0.4319  0.1822
 2149TIP3    H230643   1.285   6.098   9.182  0.1384  0.8934  0.7417
 2150TIP3   OH230644   1.281   3.448  11.346  0.5714  0.6338  0.5207
 2150TIP3    H130645   1.203   3.451  11.402  0.4630 -1.7776  0.6034
 2150TIP3    H230646   1.293   3.356  11.326  3.0779  0.9886 -0.0031
 2151TIP3   OH230647   1.078   2.604   9.681 -0.3733  0.5241 -0.3414
 2151TIP3    H130648   1.100   2.664   9.610 -0.3557  0.9751  0.0418
 2151TIP3    H230649   1.142   2.622   9.749 -0.0616 -0.2773 -0.4149
 2152TIP3   OH230650   0.965   4.699  11.858  0.4526  0.6651 -0.2598
 2152TIP3    H130651   0.876   4.664  11.858  1.2930 -1.6439  0.5348
 2152TIP3    H230652   0.953   4.793  11.843 -2.3216  0.9849  2.8099
 2153TIP3   OH230653   6.220   0.877  10.792 -0.1193 -0.5143 -0.4436
 2153TIP3    H130654   6.254   0.951  10.741 -0.1229  0.3751  0.8093
 2153TIP3    H230655   6.131   0.865  10.760 -0.5111  0.7685  0.1022
 2154TIP3   OH230656   2.302   1.893   8.806 -0.1543  0.0856  0.0466
 2154TIP3    H130657   2.328   1.842   8.729  0.0829  1.1910 -0.6397
 2154TIP3    H230658   2.249   1.964   8.770  2.6718  2.6113  0.3894
 2155TIP3   OH230659   3.645   4.255  11.413  0.2254  0.6550  0.3829
 2155TIP3    H130660   3.556   4.270  11.382  0.3739  1.7559  0.4516
 2155TIP3    H230661   3.689   4.211  11.340 -0.0324  1.2446 -0.1386
 2156TIP3   OH230662   2.620   6.099  11.133  0.2276  0.9400  0.5150
 2156TIP3    H130663   2.701   6.151  11.134  0.8059  0.0539  1.8347
 2156TIP3    H230664   2.559   6.149  11.187  0.2534  1.0509  0.4410
 2157TIP3   OH230665   3.584   2.271  11.418  0.2594 -0.2182  0.0823
 2157TIP3    H130666   3.510   2.252  11.361 -0.0845 -1.3567  0.8733
 2157TIP3    H230667   3.613   2.185  11.450 -0.3532  0.4352  2.5848
 2158TIP3   OH230668   4.478   3.716  12.167 -0.3044  0.1139 -0.3710
 2158TIP3    H130669   4.397   3.672  12.193  0.3999 -0.8280  0.3383
 2158TIP3    H230670   4.547   3.655  12.193  0.6379  0.9436 -0.8620
 2159TIP3   OH230671   3.709   1.009  11.600  0.2083 -0.1008  0.4414
 2159TIP3    H130672   3.791   1.000  11.648  1.2129 -0.4848 -1.2622
 2159TIP3    H230673   3.704   0.931  11.544 -0.0400  1.0915 -1.2902
 2160TIP3   OH230674   0.322   5.953   8.700 -0.3501 -0.0862 -0.1816
 2160TIP3    H130675   0.355   5.964   8.611 -1.3562 -4.7409 -1.4094
 2160TIP3    H230676   0.227   5.951   8.690 -0.4730 -0.9463  0.9431
 2161TIP3   OH230677   6.054   2.244  12.045 -0.2462  0.3055 -0.6062
 2161TIP3    H130678   5.972   2.290  12.029 -0.1775  0.2855 -1.0160
 2161TIP3    H230679   6.108   2.261  11.968  0.0492  0.1263 -0.4441
 2162TIP3   OH230680   3.789   6.272   9.746 -0.3385  0.2917  0.0051
 2162TIP3    H130681   3.741   6.342   9.702 -0.2656  0.9518  0.9589
 2162TIP3    H230682   3.878   6.279   9.712 -0.5524  0.0295 -0.6286
 2163TIP3   OH230683   2.189   0.617  12.069  0.6862  0.1690 -0.1367
 2163TIP3    H130684   2.216   0.707  12.089 -1.7580  1.1609 -0.8702
 2163TIP3    H230685   2.113   0.601  12.125 -0.5048 -0.4231 -1.8082
 2164TIP3   OH230686   1.011   2.449  10.909  0.0373 -0.5612  0.1349
 2164TIP3    H130687   0.959   2.419  10.836  0.1713 -1.1623  0.2823
 2164TIP3    H230688   1.100   2.421  10.889  0.2795  0.2624 -0.0092
 2165TIP3   OH230689   3.769   2.579  11.704  0.2463  0.5175  0.2231
 2165TIP3    H130690   3.814   2.663  11.703 -2.1564  1.9229  1.0057
 2165TIP3    H230691   3.771   2.550  11.612  0.4119  1.8499 -0.2189
 2166TIP3   OH230692   5.525   1.206  10.179  0.6589 -0.0142  0.4688
 2166TIP3    H130693   5.531   1.112  10.163 -1.2800 -0.0574 -0.1725
 2166TIP3    H230694   5.610   1.229  10.217  1.6456 -1.7732 -0.5591
 2167TIP3   OH230695   3.822   4.190  10.470  0.2352 -0.4969  0.2593
 2167TIP3    H130696   3.800   4.264  10.413 -0.9043 -3.7418 -4.0688
 2167TIP3    H230697   3.911   4.165  10.443 -0.1412 -1.8132  0.1844
 2168TIP3   OH230698   0.934   1.560  10.430  0.2903  0.2567 -0.3698
 2168TIP3    H130699   0.924   1.558  10.525 -0.8690  0.4572 -0.4704
 2168TIP3    H230700   1.020   1.520  10.414  0.1598 -0.5109  0.7139
 2169TIP3   OH230701   2.435   3.242  11.406  0.4032  0.1496 -0.4039
 2169TIP3    H130702   2.388   3.231  11.323  0.6090 -0.5545 -0.4391
 2169TIP3    H230703   2.447   3.152  11.438  0.1088  0.4305  0.5117
 2170TIP3   OH230704   3.236   0.125   9.557  0.3418 -0.1080 -0.3880
 2170TIP3    H130705   3.185   0.205   9.554  1.6205  0.7143 -1.9389
 2170TIP3    H230706   3.240   0.095   9.466  0.1098 -1.8004  0.1247
 2171TIP3   OH230707   5.152   4.627   9.600  0.3480  0.2146  0.2064
 2171TIP3    H130708   5.117   4.695   9.658  1.7786  0.1652  1.2040
 2171TIP3    H230709   5.207   4.573   9.657  1.2273 -0.2840 -1.0531
 2172TIP3   OH230710   3.488   6.383   9.434 -0.4127  0.1579  0.5220
 2172TIP3    H130711   3.566   6.435   9.416  0.3535 -1.2890 -0.5505
 2172TIP3    H230712   3.451   6.422   9.512  0.7663  1.5772  0.4162
 2173TIP3   OH230713   0.258   1.647   9.673 -0.0516  0.9659 -0.2035
 2173TIP3    H130714   0.339   1.681   9.636 -0.9018  0.8105 -2.3380
 2173TIP3    H230715   0.201   1.633   9.598 -1.6971  0.0602  1.1372
 2174TIP3   OH230716   3.721   5.628  10.906 -0.6688  0.0082 -0.0866
 2174TIP3    H130717   3.690   5.645  10.817  0.0063  0.8457 -0.1762
 2174TIP3    H230718   3.705   5.711  10.953 -1.9640 -0.7432  0.8577
 2175TIP3   OH230719   2.774   3.949  10.278 -0.1962 -0.2702  0.1285
 2175TIP3    H130720   2.681   3.969  10.273  0.1245  1.2938  0.0024
 2175TIP3    H230721   2.781   3.887  10.351 -1.5537 -2.0597 -1.1683
 2176TIP3   OH230722   4.059   1.092  12.301  0.0617 -0.0892  0.1681
 2176TIP3    H130723   3.986   1.124  12.248 -0.1449 -0.8336 -0.0129
 2176TIP3    H230724   4.028   1.095  12.391 -0.8079 -1.8943 -0.0224
 2177TIP3   OH230725   6.019   2.477   9.365  0.1118  0.1076  0.3079
 2177TIP3    H130726   6.028   2.413   9.294 -1.0512 -0.1305  0.3615
 2177TIP3    H230727   5.954   2.540   9.333  0.0733  0.3781  0.8985
 2178TIP3   OH230728   0.098   0.686  11.674  0.3903 -0.2280 -0.4512
 2178TIP3    H130729   0.009   0.719  11.683  0.3259 -0.0169 -1.6974
 2178TIP3    H230730   0.144   0.718  11.751 -0.6562 -0.5061  0.3058
 2179TIP3   OH230731   5.292   2.735  10.139 -0.0484 -0.1661 -0.3961
 2179TIP3    H130732   5.321   2.664  10.082  0.1199 -1.3563  1.1220
 2179TIP3    H230733   5.343   2.724  10.219  0.7314  2.2965 -0.4556
 2180TIP3   OH230734   4.949   5.437  10.971 -0.4622  0.1141  0.8117
 2180TIP3    H130735   4.944   5.413  10.879  0.0258  2.2518  0.1617
 2180TIP3    H230736   5.034   5.481  10.980 -1.3740  1.8189  1.7427
 2181TIP3   OH230737   6.498   2.359  11.200  0.4164 -0.4837  0.1303
 2181TIP3    H130738   6.496   2.266  11.224  0.2778 -0.8713 -1.3093
 2181TIP3    H230739   6.590   2.383  11.206  0.7219 -1.2003 -1.1489
 2182TIP3   OH230740   4.006   5.143  11.239  0.0921 -0.0997  0.0485
 2182TIP3    H130741   3.976   5.148  11.330 -1.5314  0.8973 -0.5011
 2182TIP3    H230742   3.929   5.112  11.190  0.8114 -0.2001 -1.0597
 2183TIP3   OH230743   3.612   2.929  10.457 -0.0960 -0.0411  0.2714
 2183TIP3    H130744   3.694   2.895  10.422  0.3603  1.9613 -0.7426
 2183TIP3    H230745   3.636   3.013  10.498 -1.5270  0.2994  0.4706
 2184TIP3   OH230746   0.470   0.392  11.988 -0.1572 -0.1314 -0.1928
 2184TIP3    H130747   0.560   0.358  11.990 -0.1817 -0.4102 -2.0153
 2184TIP3    H230748   0.415   0.314  11.997 -0.2176 -0.0093  0.5030
 2185TIP3   OH230749   1.465   2.290  11.996  0.3376  0.3250 -0.3046
 2185TIP3    H130750   1.550   2.283  11.952  0.0202  0.8862 -1.0402
 2185TIP3    H230751   1.405   2.319  11.927 -0.5424 -0.4688  0.0978
 2186TIP3   OH230752   1.801   1.904   8.983 -0.2242 -0.2196 -0.2441
 2186TIP3    H130753   1.771   1.870   8.898 -0.1359 -1.1966  0.1037
 2186TIP3    H230754   1.858   1.978   8.960 -2.2597  1.2067 -0.9352
 2187TIP3   OH230755   5.395   3.760  11.565  0.7839 -0.3086  0.2477
 2187TIP3    H130756   5.412   3.829  11.630 -2.1522  1.3441 -0.5509
 2187TIP3    H230757   5.428   3.795  11.483  0.0477 -0.1938 -0.0083
 2188TIP3   OH230758   2.286   3.471  10.161  0.2954  0.4315  0.2318
 2188TIP3    H130759   2.286   3.385  10.204 -1.8300  0.7926  1.0703
 2188TIP3    H230760   2.344   3.525  10.215  0.7793 -0.1748  0.3323
 2189TIP3   OH230761   1.644   1.800  12.201  0.4143  0.3483  0.4070
 2189TIP3    H130762   1.577   1.850  12.154  2.2285  2.6957  0.1736
 2189TIP3    H230763   1.622   1.812  12.294  0.0985  0.4693  0.3179
 2190TIP3   OH230764   1.149   4.978  10.122  0.1713  0.1522  0.0549
 2190TIP3    H130765   1.088   5.019  10.060  0.0132 -2.3403 -1.5689
 2190TIP3    H230766   1.170   5.048  10.185 -2.6596  1.7145 -0.5617
 2191TIP3   OH230767   1.708   1.650  11.928 -0.3067  0.2534 -0.8803
 2191TIP3    H130768   1.687   1.674  12.018 -1.8159 -1.9853 -0.5618
 2191TIP3    H230769   1.646   1.700  11.874 -1.9472 -1.1707 -0.3860
 2192TIP3   OH230770   1.167   0.529   9.001 -0.6297 -0.0975 -0.5857
 2192TIP3    H130771   1.208   0.470   8.938 -0.2765 -0.2118 -0.2541
 2192TIP3    H230772   1.088   0.483   9.030 -0.5437 -0.2502 -0.5949
 2193TIP3   OH230773   0.878   4.735  10.305  0.2830  0.5661 -0.5328
 2193TIP3    H130774   0.930   4.760  10.229  1.4230 -0.0875  0.0127
 2193TIP3    H230775   0.942   4.706  10.370 -0.7247  0.2886  0.3680
 2194TIP3   OH230776   4.396   0.381  10.600 -0.0612 -0.3529  0.2354
 2194TIP3    H130777   4.357   0.358  10.684  0.4805  0.1338  0.6287
 2194TIP3    H230778   4.423   0.297  10.562  1.0555 -0.4804  1.2390
 2195TIP3   OH230779   3.871   3.775  11.262  0.4639  0.4146 -0.3451
 2195TIP3    H130780   3.900   3.702  11.208  0.2319  0.7056 -0.8680
 2195TIP3    H230781   3.788   3.802  11.224  0.0403  0.2918  0.4807
 2196TIP3   OH230782   3.437   1.498  11.978  0.6065  0.5277 -0.1031
 2196TIP3    H130783   3.497   1.524  11.909 -0.5344 -0.0553 -1.3563
 2196TIP3    H230784   3.352   1.490  11.935  0.0183 -0.6792  1.1907
 2197TIP3   OH230785   0.175   6.137  10.575  0.7040  0.2967 -0.4917
 2197TIP3    H130786   0.268   6.153  10.593  0.5937 -2.1346  3.7272
 2197TIP3    H230787   0.171   6.045  10.549 -0.5431 -0.0856  0.8764
 2198TIP3   OH230788   2.945   1.498  12.077  0.2941 -0.0692 -0.1546
 2198TIP3    H130789   2.964   1.590  12.060 -2.0358  0.4509 -0.2655
 2198TIP3    H230790   2.871   1.499  12.138  1.2241 -1.8985  1.1085
 2199TIP3   OH230791   1.812   0.277   9.374  0.1749 -0.0831  0.2908
 2199TIP3    H130792   1.881   0.330   9.334  0.0647  0.2415  0.5229
 2199TIP3    H230793   1.769   0.233   9.300 -1.5313  2.2650 -0.2681
 2200TIP3   OH230794   2.424   3.192  11.896 -0.4437  0.3837 -0.1734
 2200TIP3    H130795   2.445   3.263  11.956 -1.9835  1.3671 -0.7436
 2200TIP3    H230796   2.483   3.204  11.822  1.1457 -0.5658  0.8785
 2201TIP3   OH230797   0.338   0.755   9.392  0.0923 -0.5417  0.1164
 2201TIP3    H130798   0.273   0.686   9.391 -1.2724  0.6751  0.9940
 2201TIP3    H230799   0.398   0.731   9.463  0.6488 -1.6712 -0.7076
 2202TIP3   OH230800   4.902   0.013  11.086  0.1042  0.2993  0.1125
 2202TIP3    H130801   4.839  -0.038  11.035 -0.8281  1.9638 -0.4700
 2202TIP3    H230802   4.885  -0.011  11.177 -0.6677 -0.0645 -0.1202
 2203TIP3   OH230803   2.444   4.796  11.073 -0.9682  0.1404 -0.1682
 2203TIP3    H130804   2.440   4.834  10.985 -0.5946  1.2158  0.2696
 2203TIP3    H230805   2.502   4.853  11.122 -0.2471 -1.0980  0.4798
 2204TIP3   OH230806   2.996   6.684  10.611  0.1925  0.3090  0.3976
 2204TIP3    H130807   2.911   6.672  10.654  1.0484  0.0275  2.0955
 2204TIP3    H230808   3.054   6.622  10.654  1.0401 -0.3053 -1.5156
 2205TIP3   OH230809   4.619   5.050  11.939  1.1072  0.1756  0.4333
 2205TIP3    H130810   4.685   5.119  11.931  1.5097 -0.3030 -0.6450
 2205TIP3    H230811   4.545   5.081  11.888  0.1908  1.0087  2.1785
 2206TIP3   OH230812   4.853   1.545  10.760 -0.0739 -0.3223  0.1356
 2206TIP3    H130813   4.787   1.480  10.785 -0.7834  0.6199  0.7866
 2206TIP3    H230814   4.918   1.541  10.829 -0.7716  0.5376  0.8657
 2207TIP3   OH230815   2.889   2.355   9.643  0.5178 -0.2114 -0.6190
 2207TIP3    H130816   2.893   2.388   9.553  0.8000 -0.2096 -0.6067
 2207TIP3    H230817   2.948   2.279   9.643 -0.4907 -1.0185 -0.7736
 2208TIP3   OH230818   3.184   0.147  10.170  0.8453 -0.0044 -0.2546
 2208TIP3    H130819   3.269   0.153  10.127  0.5678  1.6823 -0.6261
 2208TIP3    H230820   3.196   0.194  10.253  1.1020 -2.4014  1.1798
 2209TIP3   OH230821   3.042   5.680  11.290  0.0254 -0.3055  0.6621
 2209TIP3    H130822   3.119   5.636  11.326  1.9937  0.3270 -2.3983
 2209TIP3    H230823   3.038   5.763  11.339  0.8506 -0.6435  1.3364
 2210TIP3   OH230824   2.722   1.959   9.590 -0.6693 -0.1901 -0.2021
 2210TIP3    H130825   2.678   1.959   9.675 -1.6549  2.0811 -0.6376
 2210TIP3    H230826   2.651   1.953   9.526 -0.4661  2.8938 -0.9000
 2211TIP3   OH230827   5.813   5.820  12.116  0.1078 -0.0648  0.3523
 2211TIP3    H130828   5.825   5.915  12.128  0.5563  0.0358 -0.7690
 2211TIP3    H230829   5.719   5.806  12.130  0.2166  0.3452  1.6811
 2212TIP3   OH230830   0.174   2.537  11.447  0.1744  0.5599  0.2574
 2212TIP3    H130831   0.087   2.550  11.408  0.0768 -1.3359 -0.2519
 2212TIP3    H230832   0.206   2.626  11.464 -1.9372  1.3197  0.6495
 2213TIP3   OH230833   5.193   5.070  11.716 -0.1344 -0.0014  0.4408
 2213TIP3    H130834   5.243   5.129  11.773 -0.2015 -0.2306  0.7354
 2213TIP3    H230835   5.122   5.124  11.681  0.8046  0.5718 -0.6572
 2214TIP3   OH230836   4.662   4.312   9.560 -0.1372  0.0028  0.0190
 2214TIP3    H130837   4.712   4.309   9.478 -0.4827 -0.5209 -0.1824
 2214TIP3    H230838   4.696   4.238   9.610 -1.7290 -1.3018 -0.7408
 2215TIP3   OH230839   0.871   2.400  10.348 -0.1789 -0.8564  0.7041
 2215TIP3    H130840   0.823   2.480  10.333  0.7495 -0.3092  0.5503
 2215TIP3    H230841   0.805   2.336  10.374 -1.0617 -0.3271 -0.1849
 2216TIP3   OH230842   6.674   0.656  11.969  0.0716 -0.7215  0.4354
 2216TIP3    H130843   6.585   0.662  11.935 -0.0999  0.8709  1.0859
 2216TIP3    H230844   6.705   0.570  11.940 -2.4166 -2.2615  1.9518
 2217TIP3   OH230845   0.018   1.866  10.355 -0.3936 -0.1552 -0.3011
 2217TIP3    H130846   0.003   1.805  10.283 -1.0628 -0.1769 -0.1482
 2217TIP3    H230847   0.107   1.898  10.341 -0.0957 -1.0249 -0.4909
 2218TIP3   OH230848   4.406   2.043   8.713 -0.0754 -0.2400 -0.0553
 2218TIP3    H130849   4.446   1.996   8.786 -0.4560 -1.4239 -0.5878
 2218TIP3    H230850   4.461   2.022   8.637 -0.4857 -0.1550 -0.3822
 2219TIP3   OH230851   5.543   3.654  12.024  0.2608  0.1509  0.2925
 2219TIP3    H130852   5.591   3.734  12.047 -1.1634  1.3871 -0.7776
 2219TIP3    H230853   5.511   3.621  12.108  0.5998  0.9013  0.7312
 2220TIP3   OH230854   5.415   4.303  10.194 -0.0952 -0.9383  0.1805
 2220TIP3    H130855   5.418   4.207  10.199  0.0634 -0.9082  0.7245
 2220TIP3    H230856   5.351   4.329  10.260  2.1817 -0.5151  2.3697
 2221TIP3   OH230857   3.694   0.882  11.150  0.0139  0.1329 -0.1941
 2221TIP3    H130858   3.724   0.945  11.085  0.0773  1.2405  0.8665
 2221TIP3    H230859   3.731   0.798  11.122  0.8321  0.7655 -1.0443
 2222TIP3   OH230860   1.017   4.493   9.469 -0.1061 -0.0958  0.2570
 2222TIP3    H130861   0.974   4.552   9.407 -0.5873  1.2001  1.7535
 2222TIP3    H230862   1.097   4.539   9.494  0.7693 -1.2242 -0.3955
 2223TIP3   OH230863   5.812   0.422  11.565  0.1756 -0.0151  0.2442
 2223TIP3    H130864   5.857   0.493  11.519  0.7206 -2.1426 -2.7609
 2223TIP3    H230865   5.773   0.369  11.496  0.7284 -3.2838  2.2235
 2224TIP3   OH230866   5.521   2.268  10.909 -0.2176  1.0828  0.8324
 2224TIP3    H130867   5.487   2.180  10.895  0.3077  1.0288 -0.1531
 2224TIP3    H230868   5.443   2.324  10.910 -0.5261  0.6505  1.1372
 2225TIP3   OH230869   5.110   0.311  11.015  0.1509 -0.0101  0.1700
 2225TIP3    H130870   5.199   0.326  10.984  0.1618 -2.6375 -1.3723
 2225TIP3    H230871   5.103   0.216  11.025 -1.7948  0.2851  2.5746
 2226TIP3   OH230872   2.864   4.353   9.692  0.2043 -0.5133 -0.4269
 2226TIP3    H130873   2.858   4.373   9.599 -0.2026 -1.2832 -0.5752
 2226TIP3    H230874   2.897   4.433   9.732 -1.4535  0.5030 -0.9820
 2227TIP3   OH230875   4.146   6.653   9.107 -0.1592 -0.5304  0.1845
 2227TIP3    H130876   4.178   6.737   9.075 -1.1002  0.2307  1.1654
 2227TIP3    H230877   4.095   6.675   9.185 -0.8630 -1.9584  0.1567
 2228TIP3   OH230878   5.005   6.057  10.956  0.6503 -0.2246  0.3940
 2228TIP3    H130879   5.019   6.017  11.042 -1.0036 -0.1620  0.7110
 2228TIP3    H230880   4.911   6.066  10.948  0.7418 -0.4540 -1.5443
 2229TIP3   OH230881   2.334   2.867  10.255 -0.2380  0.3040  0.6479
 2229TIP3    H130882   2.376   2.781  10.259 -2.1457 -0.7103  0.4545
 2229TIP3    H230883   2.306   2.884  10.345 -1.1357 -0.0039  0.4470
 2230TIP3   OH230884   0.461   6.069   8.491  0.0085  0.2785 -0.2462
 2230TIP3    H130885   0.395   6.109   8.435 -0.0694  0.6297  0.0943
 2230TIP3    H230886   0.526   6.033   8.430 -0.5598 -0.1927 -0.5862
 2231TIP3   OH230887   5.030   3.244  11.932 -0.3047  0.1878  0.9550
 2231TIP3    H130888   5.071   3.288  11.857  0.1333  0.8006  1.5441
 2231TIP3    H230889   5.071   3.158  11.935  0.8340  0.7283  1.4250
 2232TIP3   OH230890   4.231   1.387  11.275 -0.6757 -0.1462  0.2478
 2232TIP3    H130891   4.272   1.469  11.250  0.0808 -0.3439  0.8057
 2232TIP3    H230892   4.200   1.349  11.192 -0.9841  0.6632 -0.0173
 2233TIP3   OH230893   0.265   1.589  11.284  0.4408  0.0480 -0.1191
 2233TIP3    H130894   0.217   1.632  11.355 -1.0625 -0.6142 -0.6879
 2233TIP3    H230895   0.270   1.656  11.215  0.9837  0.3554  0.2164
 2234TIP3   OH230896   2.379   5.119   9.940 -0.1947 -0.3765 -0.3032
 2234TIP3    H130897   2.323   5.196   9.944 -1.3081 -1.1368 -0.7979
 2234TIP3    H230898   2.373   5.088   9.850  0.6301 -0.7720 -0.2423
 2235TIP3   OH230899   2.628   6.261   9.040  0.3856  0.0968  0.2253
 2235TIP3    H130900   2.561   6.316   9.083  0.5217  0.1988  0.3078
 2235TIP3    H230901   2.708   6.314   9.044  0.7024 -0.4240  1.0075
 2236TIP3   OH230902   0.533   5.771  11.751 -0.0496  0.0386 -0.0904
 2236TIP3    H130903   0.579   5.724  11.821 -0.8714  0.5683  0.8322
 2236TIP3    H230904   0.603   5.808  11.697  0.6420  1.1778  1.5146
 2237TIP3   OH230905   2.926   2.078   9.738  0.0445  0.0174  0.1883
 2237TIP3    H130906   2.875   2.057   9.660 -0.5046  0.0643  0.5322
 2237TIP3    H230907   2.944   1.994   9.778  0.7028 -0.0436 -0.2131
 2238TIP3   OH230908   3.595   3.160   9.655 -0.2320 -0.0124 -0.8642
 2238TIP3    H130909   3.629   3.136   9.569 -1.3839  1.2085 -1.6813
 2238TIP3    H230910   3.548   3.242   9.641 -1.1510 -0.2187  0.7565
 2239TIP3   OH230911   2.644   1.227   8.905  0.4341 -0.6768  0.2680
 2239TIP3    H130912   2.647   1.133   8.891 -0.0796 -1.2142  3.0521
 2239TIP3    H230913   2.719   1.245   8.962  1.0492  0.7719 -0.9411
 2240TIP3   OH230914   3.049   4.588   9.232  0.3345 -0.2379 -0.3299
 2240TIP3    H130915   3.071   4.521   9.296  1.6880  0.0306 -0.4704
 2240TIP3    H230916   2.974   4.634   9.269  0.8248 -0.3560  0.8581
 2241TIP3   OH230917   5.295   5.699  10.636 -0.4428  0.4279 -0.3570
 2241TIP3    H130918   5.250   5.663  10.560 -0.8686  2.4782 -1.1453
 2241TIP3    H230919   5.237   5.768  10.668  0.1271  0.1712  1.3261
 2242TIP3   OH230920   4.654   1.088  11.268 -0.3563  0.5485  0.3043
 2242TIP3    H130921   4.655   1.174  11.226  1.0761  0.9251  1.0604
 2242TIP3    H230922   4.709   1.034  11.213  0.0259  0.5459  0.6866
 2243TIP3   OH230923   3.900   0.059   8.496  0.8944 -0.3254  0.4394
 2243TIP3    H130924   3.897   0.012   8.413  0.5758 -1.5374  1.1261
 2243TIP3    H230925   3.810   0.057   8.529  0.2767  2.9917 -0.6913
 2244TIP3   OH230926   4.339   3.230   9.484 -0.7490  0.2054  0.3875
 2244TIP3    H130927   4.347   3.254   9.392  1.7119  1.2798  0.8080
 2244TIP3    H230928   4.270   3.163   9.486 -2.6448  1.9258 -1.8468
 2245TIP3   OH230929   2.655   2.371   9.782  0.8497  0.2007 -0.1502
 2245TIP3    H130930   2.609   2.288   9.792  0.1632  0.3069 -1.9365
 2245TIP3    H230931   2.740   2.347   9.745  0.7368  0.2592 -0.4547
 2246TIP3   OH230932   3.527   5.712   9.769  0.0711 -0.0724 -0.0442
 2246TIP3    H130933   3.488   5.698   9.855 -0.7508  0.3444 -0.3409
 2246TIP3    H230934   3.482   5.650   9.711  0.3278 -0.0593 -0.2629
 2247TIP3   OH230935   0.099   4.105  10.201  0.4201  0.1817  0.1432
 2247TIP3    H130936   0.145   4.023  10.183 -0.9993 -0.8433  0.9554
 2247TIP3    H230937   0.160   4.156  10.254  1.7742  0.1708 -1.3342
 2248TIP3   OH230938   6.152   2.271   8.577  0.0322 -0.2015  0.2904
 2248TIP3    H130939   6.113   2.195   8.619  0.6860 -1.1395 -0.7407
 2248TIP3    H230940   6.132   2.344   8.636  0.9221 -1.4399  2.2133
 2249TIP3   OH230941   2.358   6.181  10.349  0.3407  0.5763  0.1130
 2249TIP3    H130942   2.300   6.154  10.420 -0.8678  0.5911 -0.8160
 2249TIP3    H230943   2.446   6.160  10.380 -0.2427 -0.5877  1.0963
 2250TIP3   OH230944   2.804   2.133  11.170 -0.0684 -0.4654  0.0562
 2250TIP3    H130945   2.797   2.228  11.162 -0.3648 -0.1047  3.1858
 2250TIP3    H230946   2.714   2.103  11.184  0.0158 -1.2257 -0.9410
 2251TIP3   OH230947   2.889   1.611   9.159 -0.3257  0.3675  0.1908
 2251TIP3    H130948   2.980   1.632   9.177 -0.3885  1.0941 -0.2769
 2251TIP3    H230949   2.839   1.667   9.217 -0.5063  2.0153 -1.4740
 2252TIP3   OH230950   2.087   2.821  10.640  0.3846  0.1631 -0.7988
 2252TIP3    H130951   1.998   2.787  10.630  0.9916 -1.8681  0.1887
 2252TIP3    H230952   2.078   2.894  10.701 -0.6636  0.2749 -1.0704
 2253TIP3   OH230953   6.116   6.533  10.125 -0.4618  0.8793 -0.3407
 2253TIP3    H130954   6.135   6.554  10.217  1.1654 -0.3233 -0.3453
 2253TIP3    H230955   6.161   6.602  10.076  0.7724  0.1759 -0.2522
 2254TIP3   OH230956   4.098   6.530   9.742  0.2186  0.2284 -0.3395
 2254TIP3    H130957   4.193   6.523   9.735  0.4097  2.6401 -1.5297
 2254TIP3    H230958   4.064   6.479   9.668  0.5433 -1.0009  0.3485
 2255TIP3   OH230959   4.815   4.066   9.637  0.1262 -0.2758  0.2469
 2255TIP3    H130960   4.798   3.983   9.682 -0.8358 -0.6962 -0.8428
 2255TIP3    H230961   4.815   4.043   9.544  0.2391  0.8834 -0.0530
 2256TIP3   OH230962   2.551   1.958   9.378  0.3087 -0.2475  0.2134
 2256TIP3    H130963   2.467   1.920   9.405  0.6976 -0.0153  1.8678
 2256TIP3    H230964   2.528   2.018   9.307 -1.1275  0.7081  1.4127
 2257TIP3   OH230965   6.008   0.360   8.857  0.8843  0.5818 -0.5094
 2257TIP3    H130966   5.926   0.352   8.810 -0.0977 -3.3705  1.4585
 2257TIP3    H230967   6.074   0.372   8.789 -0.9273 -0.0106 -2.4833
 2258TIP3   OH230968   5.421   5.305   9.011 -0.0291 -0.4698  0.4432
 2258TIP3    H130969   5.466   5.230   8.972 -1.8885 -1.4484  0.0583
 2258TIP3    H230970   5.439   5.377   8.951 -1.1012 -1.4592 -1.1443
 2259TIP3   OH230971   3.003   6.673  11.658 -0.0927  0.3866 -0.4646
 2259TIP3    H130972   3.090   6.673  11.698  0.0299 -0.7911 -0.7066
 2259TIP3    H230973   2.945   6.701  11.728  0.3108 -0.1910  0.1140
 2260TIP3   OH230974   0.423   0.897   9.996 -0.0984  0.2055  0.3624
 2260TIP3    H130975   0.357   0.851   9.945 -0.8566 -0.5473  1.9472
 2260TIP3    H230976   0.506   0.870   9.957 -0.6166 -0.9749  0.0204
 2261TIP3   OH230977   4.972   4.246  10.257 -0.0969  0.0471 -0.0517
 2261TIP3    H130978   4.919   4.285  10.326 -0.1930  1.5310 -0.9290
 2261TIP3    H230979   4.965   4.151  10.272 -3.0095  0.1652 -0.1660
 2262TIP3   OH230980   2.560   0.914  10.148  0.2698 -0.2029 -0.2480
 2262TIP3    H130981   2.474   0.951  10.127  0.5482 -0.6426 -2.4228
 2262TIP3    H230982   2.577   0.850  10.078  1.9267 -0.8537  0.6863
 2263TIP3   OH230983   4.885   2.946  11.009 -0.0092  0.0836  0.0250
 2263TIP3    H130984   4.845   2.897  11.081 -1.1196  0.9733  0.0333
 2263TIP3    H230985   4.976   2.956  11.035 -0.1473 -0.5192  0.8056
 2264TIP3   OH230986   5.561   1.074   8.995  0.0181  0.1482 -0.3139
 2264TIP3    H130987   5.607   1.014   9.053 -0.4320 -1.2253 -1.3431
 2264TIP3    H230988   5.477   1.090   9.039  0.1217 -0.0133 -0.0584
 2265TIP3   OH230989   0.862   2.798  11.228 -0.4125  0.0500 -0.0575
 2265TIP3    H130990   0.821   2.754  11.154  0.3961  0.5845 -0.8407
 2265TIP3    H230991   0.956   2.789  11.212 -0.2318  0.1566  0.9130
 2266TIP3   OH230992   5.734   2.415  11.048  0.1770 -0.3212  0.0944
 2266TIP3    H130993   5.670   2.367  10.995 -1.0085 -1.1526  2.1842
 2266TIP3    H230994   5.699   2.503  11.054 -0.8212 -0.7758  1.2337
 2267TIP3   OH230995   1.757   0.437  12.198  0.8774  0.2612 -0.2372
 2267TIP3    H130996   1.692   0.507  12.195  0.9241  0.3401  0.3473
 2267TIP3    H230997   1.719   0.366  12.148  1.1086  0.9245 -1.4091
 2268TIP3   OH230998   5.824   5.866   9.888  0.2102  0.0315 -0.1386
 2268TIP3    H130999   5.907   5.895   9.925  0.6595 -0.4066 -0.7829
 2268TIP3    H231000   5.809   5.925   9.814  0.4160 -0.4730 -0.5874
 2269TIP3   OH231001   4.625   6.541  10.643  0.5066  0.0567  0.0403
 2269TIP3    H131002   4.631   6.624  10.691  1.5143 -0.0274  0.0729
 2269TIP3    H231003   4.714   6.524  10.612  0.2680 -0.9049 -0.1536
 2270TIP3   OH231004   2.996   3.614  12.268 -0.6901 -0.2280 -0.3982
 2270TIP3    H131005   2.921   3.587  12.215 -0.9146  0.0522 -0.2306
 2270TIP3    H231006   3.006   3.707  12.249  0.5241 -0.5636 -1.5161
 2271TIP3   OH231007   4.183   5.551   9.012 -0.5974 -0.2807  0.3973
 2271TIP3    H131008   4.270   5.547   9.050  0.0581 -0.1601 -1.0536
 2271TIP3    H231009   4.150   5.461   9.018  0.7380 -0.9484 -1.5403
 2272TIP3   OH231010   1.662   5.668  10.303 -0.6173  0.5263 -0.0603
 2272TIP3    H131011   1.665   5.637  10.212 -0.6943  1.8368 -0.5246
 2272TIP3    H231012   1.658   5.763  10.296 -0.4925  0.6526  1.3285
 2273TIP3   OH231013   1.563   2.521   9.674  0.7785 -0.2112 -0.1286
 2273TIP3    H131014   1.640   2.539   9.728 -0.0807 -0.9017  1.3855
 2273TIP3    H231015   1.521   2.447   9.717  0.6719 -1.5541 -2.4266
 2274TIP3   OH231016   4.351   6.556   9.626 -0.2298 -0.9067  0.0784
 2274TIP3    H131017   4.445   6.539   9.638 -0.0955 -0.5806 -0.4678
 2274TIP3    H231018   4.340   6.562   9.532 -0.5783  0.2643  0.1704
 2275TIP3   OH231019   3.955   3.385  10.040  0.5255  0.1044  0.2715
 2275TIP3    H131020   4.014   3.460  10.044 -0.3362  0.8210 -0.0444
 2275TIP3    H231021   3.867   3.423  10.040  0.0688 -0.8984 -0.0475
 2276TIP3   OH231022   0.235   3.912  11.716  0.3841 -0.1952 -0.3721
 2276TIP3    H131023   0.168   3.899  11.784  1.6462 -1.4127  0.7146
 2276TIP3    H231024   0.244   4.008  11.709 -1.0234 -0.0292 -0.1086
 2277TIP3   OH231025   3.435   3.096  10.297 -0.0406 -0.1355  0.8241
 2277TIP3    H131026   3.504   3.097  10.231 -0.9347 -0.2388 -0.1582
 2277TIP3    H231027   3.471   3.046  10.370  0.6317 -0.8676  0.0103
 2278TIP3   OH231028   4.527   4.759   9.304 -0.5796 -0.2112 -0.3989
 2278TIP3    H131029   4.575   4.683   9.272 -1.0133 -0.3859 -0.6442
 2278TIP3    H231030   4.545   4.761   9.398  1.5719  0.9369 -0.7794
 2279TIP3   OH231031   4.312   6.651  10.894 -0.5329 -0.3123 -0.2392
 2279TIP3    H131032   4.393   6.658  10.944 -1.0773  0.2624  0.5916
 2279TIP3    H231033   4.242   6.658  10.959 -1.2599 -0.0451 -1.0165
 2280TIP3   OH231034   2.678   3.011   9.929 -0.0470 -0.4179 -0.2738
 2280TIP3    H131035   2.606   2.990   9.869 -0.6890  1.2222 -0.1414
 2280TIP3    H231036   2.757   2.995   9.879 -0.5678  1.1898 -1.7204
 2281TIP3   OH231037   1.645   2.643  10.412 -0.5982 -0.1010 -0.2793
 2281TIP3    H131038   1.631   2.558  10.454 -1.6929  0.9929  1.7359
 2281TIP3    H231039   1.609   2.632  10.324 -1.7627 -1.3913  0.3189
 2282TIP3   OH231040   0.771   3.231  12.060  0.5008 -0.1199  0.5046
 2282TIP3    H131041   0.782   3.294  11.989  1.2637  0.4598  1.1256
 2282TIP3    H231042   0.698   3.265  12.112  0.2867 -0.2630  0.2977
 2283TIP3   OH231043   0.314   3.466   9.965  0.0486  0.1034  0.7956
 2283TIP3    H131044   0.336   3.413  10.042 -0.6666  1.3898  1.9350
 2283TIP3    H231045   0.309   3.556   9.999 -2.8502  0.3955 -0.2011
 2284TIP3   OH231046   5.546   0.090   9.675  0.1044  0.2909 -0.1114
 2284TIP3    H131047   5.473   0.117   9.732 -0.2784  0.1314 -0.5222
 2284TIP3    H231048   5.527  -0.001   9.654  0.0739  0.4442 -0.7552
 2285TIP3   OH231049   5.584   0.786   9.667 -0.3989 -0.8788 -0.2768
 2285TIP3    H131050   5.673   0.753   9.658  0.1821  0.8158 -1.1507
 2285TIP3    H231051   5.572   0.845   9.592 -2.5164 -1.5978 -0.6007
 2286TIP3   OH231052   5.440   1.988   9.466 -0.2756  0.5770  0.0399
 2286TIP3    H131053   5.434   2.016   9.375 -1.9672  0.7189  0.1611
 2286TIP3    H231054   5.442   1.893   9.461 -2.9100  0.4597 -0.1142
 2287TIP3   OH231055   0.371   5.378   9.284  0.1189  0.4445  0.2929
 2287TIP3    H131056   0.311   5.373   9.358 -2.5108 -0.4682 -1.7332
 2287TIP3    H231057   0.358   5.466   9.249 -0.1453  0.1958 -0.2392
 2288TIP3   OH231058   3.979   1.747  11.491 -0.5617  0.0514  0.2612
 2288TIP3    H131059   3.998   1.664  11.447 -1.1759  0.1244 -0.1474
 2288TIP3    H231060   3.997   1.814  11.425 -1.5326  0.1609  0.1053
 2289TIP3   OH231061   1.017   1.847   8.194  0.0242  0.1637  0.6435
 2289TIP3    H131062   0.984   1.902   8.265  1.6158  1.9126  0.1176
 2289TIP3    H231063   1.058   1.909   8.134 -0.4149 -1.3619 -1.3388
 2290TIP3   OH231064   0.367   6.053  11.987  0.2040  0.1891 -0.1612
 2290TIP3    H131065   0.461   6.071  11.997  0.3226  0.2550 -1.2944
 2290TIP3    H231066   0.326   6.139  11.991  0.2704  0.2343 -0.4234
 2291TIP3   OH231067   1.262   2.619  10.277  0.2183  0.2671  0.1620
 2291TIP3    H131068   1.189   2.596  10.220  1.0559 -0.9223 -0.4779
 2291TIP3    H231069   1.339   2.619  10.220  1.0855 -0.9235  1.2529
 2292TIP3   OH231070   3.547   6.030  10.641 -0.0234 -0.0143  0.0586
 2292TIP3    H131071   3.534   6.095  10.710 -1.0796 -1.1880  1.0162
 2292TIP3    H231072   3.638   6.004  10.649  0.0868  0.4773  0.4369
 2293TIP3   OH231073   1.147   0.167  10.057  0.0014  0.0402 -0.7946
 2293TIP3    H131074   1.063   0.147  10.099  1.3787  0.5616  2.4760
 2293TIP3    H231075   1.186   0.081  10.040  1.1032 -0.3683  2.9222
 2294TIP3   OH231076   1.644   3.831  10.638 -0.1458 -0.4933 -0.1804
 2294TIP3    H131077   1.626   3.831  10.544 -1.1310  0.3052 -0.0129
 2294TIP3    H231078   1.663   3.922  10.659 -1.1327 -0.4437  0.5933
 2295TIP3   OH231079   6.570   1.870  10.067 -0.5861 -0.0628  0.4167
 2295TIP3    H131080   6.502   1.803  10.079 -0.9778 -0.0791 -1.5060
 2295TIP3    H231081   6.646   1.821  10.035 -0.5700  0.2880 -0.0896
 2296TIP3   OH231082   4.837   3.535   9.934  0.5073  0.2486  0.2192
 2296TIP3    H131083   4.868   3.601   9.871  0.8526 -1.0663 -1.0343
 2296TIP3    H231084   4.819   3.458   9.880  1.2459 -1.0710  1.8094
 2297TIP3   OH231085   2.842   2.729   9.648  0.2179 -0.0371  1.0844
 2297TIP3    H131086   2.891   2.715   9.567  0.5172  0.6730  1.1301
 2297TIP3    H231087   2.880   2.666   9.710 -0.2075 -0.7766  0.6037
 2298TIP3   OH231088   4.782   4.274  10.435 -0.3802 -0.0813 -0.0366
 2298TIP3    H131089   4.847   4.274  10.505 -1.2704 -0.8964  0.8314
 2298TIP3    H231090   4.698   4.261  10.481 -0.9709 -0.7397 -1.2656
 2299TIP3   OH231091   5.935   0.340   9.581  0.0416  0.0021  0.6078
 2299TIP3    H131092   5.907   0.250   9.598 -0.9553  0.5933  2.3072
 2299TIP3    H231093   5.876   0.371   9.512 -0.7589 -0.1130  1.2273
 2300TIP3   OH231094   4.692   3.229   9.210 -0.4713 -0.0485 -0.1007
 2300TIP3    H131095   4.787   3.240   9.214 -0.4140  0.7270 -2.3229
 2300TIP3    H231096   4.662   3.298   9.152 -2.4566 -0.1144  0.7668
 2301TIP3   OH231097   1.037   2.443  11.313 -0.5344 -0.1760 -0.1652
 2301TIP3    H131098   1.093   2.414  11.386  0.7515  0.3043 -0.9261
 2301TIP3    H231099   0.948   2.427  11.344 -0.0529  0.4734  1.7331
 2302TIP3   OH231100   3.235   3.544  11.746  0.2875  0.1356 -0.0251
 2302TIP3    H131101   3.201   3.541  11.656  3.3294 -1.7535 -1.3000
 2302TIP3    H231102   3.259   3.636  11.759  0.0212  0.4089 -1.2796
 2303TIP3   OH231103   4.168   6.068  10.676  0.1590  0.4199 -0.5241
 2303TIP3    H131104   4.257   6.092  10.649  0.1417  1.0603 -0.0280
 2303TIP3    H231105   4.168   5.972  10.675  1.5835  0.3195  1.7219
 2304TIP3   OH231106   2.269   5.091  11.795  0.1687  0.3576  0.0384
 2304TIP3    H131107   2.224   5.037  11.860  1.4745  1.5109  2.0016
 2304TIP3    H231108   2.359   5.059  11.795 -0.1416 -0.7231 -2.4991
 2305TIP3   OH231109   3.052   1.026  11.119  0.5380 -0.4164 -0.0069
 2305TIP3    H131110   2.966   1.029  11.161  0.8499  0.5953  0.5839
 2305TIP3    H231111   3.088   0.941  11.144  0.3391 -0.2103  1.0006
 2306TIP3   OH231112   6.315   0.715   8.864  0.0847  0.2411  0.0774
 2306TIP3    H131113   6.376   0.641   8.861  0.3116  0.4631 -2.6866
 2306TIP3    H231114   6.229   0.676   8.847  0.1389  0.5238 -0.8987
 2307TIP3   OH231115   4.699   3.100  11.285  0.9439  0.2259  0.1187
 2307TIP3    H131116   4.774   3.141  11.328  1.0874  0.3138 -0.2098
 2307TIP3    H231117   4.645   3.174  11.257  0.9228  0.1736  0.0235
 2308TIP3   OH231118   4.763   4.276  11.445  0.0162 -0.0964 -0.0281
 2308TIP3    H131119   4.703   4.296  11.373 -1.0246  1.2555  1.1465
 2308TIP3    H231120   4.708   4.234  11.511  0.3283  1.1308  1.0583
 2309TIP3   OH231121   6.590   0.371  11.828  0.6477  0.4236  0.1312
 2309TIP3    H131122   6.554   0.286  11.853 -1.4478  0.9695 -0.8141
 2309TIP3    H231123   6.637   0.354  11.746  0.8031  0.0806  0.2886
 2310TIP3   OH231124   0.362   3.302  11.206  0.0634 -0.3989  0.1748
 2310TIP3    H131125   0.394   3.254  11.130 -1.4622 -0.4441 -0.4897
 2310TIP3    H231126   0.350   3.235  11.273 -0.3940 -0.6785 -0.1772
 2311TIP3   OH231127   5.225   0.516   9.885  0.4981 -0.1999  0.3754
 2311TIP3    H131128   5.182   0.536   9.969 -0.0822  1.5600 -0.3052
 2311TIP3    H231129   5.271   0.596   9.862  0.5285 -0.6127 -1.0676
 2312TIP3   OH231130   2.244   6.373  10.586  0.6130  0.5695 -0.3636
 2312TIP3    H131131   2.191   6.304  10.624  2.1632 -0.5079 -0.0345
 2312TIP3    H231132   2.333   6.354  10.616  1.3950  1.5392 -1.9095
 2313TIP3   OH231133   5.507   6.272   9.652  0.6703  0.2994  0.1309
 2313TIP3    H131134   5.519   6.190   9.604 -0.2879  0.1809  0.0559
 2313TIP3    H231135   5.414   6.293   9.639  1.0895  1.8618 -0.5850
 2314TIP3   OH231136   4.477   5.394   9.487  0.1060 -0.5928 -0.8478
 2314TIP3    H131137   4.504   5.341   9.563 -0.1740  0.0482 -0.2917
 2314TIP3    H231138   4.540   5.466   9.484 -1.4841  0.9481  0.4972
 2315TIP3   OH231139   5.904   1.739  10.609 -0.1810  0.2913 -0.0028
 2315TIP3    H131140   5.934   1.660  10.654  0.0463  0.4441  0.1136
 2315TIP3    H231141   5.950   1.811  10.653 -1.0904  0.5751  0.5330
 2316TIP3   OH231142   1.673   1.247  11.629 -0.0968 -0.4620  0.1760
 2316TIP3    H131143   1.714   1.329  11.601 -2.8321  0.4140 -1.6258
 2316TIP3    H231144   1.600   1.274  11.684 -1.0932 -1.6867 -0.5049
 2317TIP3   OH231145   5.112   0.137  11.332  0.1008  0.0631 -0.7317
 2317TIP3    H131146   5.111   0.043  11.317  0.7667  0.1123 -1.1407
 2317TIP3    H231147   5.085   0.148  11.423  0.4603 -0.5510 -0.5491
 2318TIP3   OH231148   3.183   4.320  10.151 -0.2390  0.0172 -0.7807
 2318TIP3    H131149   3.109   4.290  10.202 -0.4300  0.6983 -0.6547
 2318TIP3    H231150   3.144   4.365  10.076 -0.0027  2.3349  0.4001
 2319TIP3   OH231151   5.540   6.636  11.964  0.1572  0.0796 -0.3483
 2319TIP3    H131152   5.497   6.707  12.011 -1.9542 -1.2122 -0.2078
 2319TIP3    H231153   5.576   6.678  11.885 -0.8469  1.3343 -0.1697
 2320TIP3   OH231154   6.230   1.812   8.627  0.2484 -0.6970 -0.7409
 2320TIP3    H131155   6.303   1.813   8.689 -0.5032  0.6631  0.1749
 2320TIP3    H231156   6.207   1.720   8.618  0.2360 -0.9202  1.1968
 2321TIP3   OH231157   5.148   5.329  12.224 -0.2278  0.0480  0.1517
 2321TIP3    H131158   5.204   5.390  12.271 -0.7626 -0.6637  1.7581
 2321TIP3    H231159   5.198   5.308  12.144  1.2446  0.3685  0.9506
 2322TIP3   OH231160   0.167   2.924   9.515  0.2355  0.2573  0.3500
 2322TIP3    H131161   0.189   3.010   9.552 -0.7099  0.3600  0.6967
 2322TIP3    H231162   0.133   2.943   9.428  0.5915  0.1846  0.1959
 2323TIP3   OH231163   0.340   4.544  10.242  0.0982  0.2461 -0.2085
 2323TIP3    H131164   0.433   4.566  10.237 -0.1048  1.0701 -0.3852
 2323TIP3    H231165   0.304   4.606  10.305 -0.4769  0.4258 -0.7094
 2324TIP3   OH231166   3.865   0.670   9.491  0.1910 -0.9830 -0.1697
 2324TIP3    H131167   3.818   0.739   9.444 -0.4530 -1.4282 -0.1850
 2324TIP3    H231168   3.951   0.668   9.450  0.0823 -0.4553 -0.4328
 2325TIP3   OH231169   0.153   5.210  10.911 -0.2936  0.0375 -0.1175
 2325TIP3    H131170   0.148   5.188  11.004 -1.3878 -0.2434 -0.2365
 2325TIP3    H231171   0.149   5.305  10.909  0.1195  0.0648  0.1401
 2326TIP3   OH231172   3.832   4.568   9.494  0.1767 -0.0309 -0.3748
 2326TIP3    H131173   3.894   4.638   9.515  1.0174 -0.5264 -1.1211
 2326TIP3    H231174   3.830   4.514   9.573  0.4943  0.1377 -0.2471
 2327TIP3   OH231175   4.384   3.767  10.520  0.8237  0.6302  0.6746
 2327TIP3    H131176   4.310   3.801  10.469  1.8125  0.4160 -0.9740
 2327TIP3    H231177   4.432   3.845  10.547  1.1029  0.6987 -0.0046
 2328TIP3   OH231178   4.096   0.947   9.426  0.2915 -0.2720 -0.7809
 2328TIP3    H131179   4.014   0.941   9.377 -0.5207  0.0307  0.4962
 2328TIP3    H231180   4.123   0.857   9.439 -1.3848 -0.5688  1.2422
 2329TIP3   OH231181   4.770   1.792  11.374  0.4969 -0.0992  0.1640
 2329TIP3    H131182   4.681   1.775  11.345  0.0642  1.8869  0.2033
 2329TIP3    H231183   4.761   1.853  11.446  1.9166  0.5729 -0.1946
 2330TIP3   OH231184   6.054   0.747  11.198  0.3318  0.4584 -0.0079
 2330TIP3    H131185   6.110   0.802  11.253  0.2223  1.0951 -0.5122
 2330TIP3    H231186   6.035   0.802  11.122 -1.6376  0.5614  0.5087
 2331TIP3   OH231187   4.724   1.075  11.559 -0.1043  0.0514  0.1892
 2331TIP3    H131188   4.728   1.091  11.464  0.6638 -1.2064 -0.0136
 2331TIP3    H231189   4.651   1.014  11.570 -0.4191  0.4719  0.4598
 2332TIP3   OH231190   4.333   0.800  10.678 -0.0812 -0.0336 -0.2770
 2332TIP3    H131191   4.243   0.768  10.676 -0.0057 -0.2091 -1.0795
 2332TIP3    H231192   4.340   0.858  10.602 -0.3451  2.3020  1.3686
 2333TIP3   OH231193   5.742   3.377  10.824  0.2433  0.1564 -0.7119
 2333TIP3    H131194   5.670   3.395  10.764 -1.6873 -2.1540  0.7264
 2333TIP3    H231195   5.783   3.298  10.790  0.3391 -0.0812 -0.0720
 2334TIP3   OH231196   2.585   0.858  12.016  0.1361  0.3329  0.6856
 2334TIP3    H131197   2.571   0.764  12.021 -1.3678  0.5025  0.2531
 2334TIP3    H231198   2.511   0.896  12.063 -0.6086  1.3233 -1.1679
 2335TIP3   OH231199   2.773   4.423  10.729 -0.2054 -0.4002 -0.1289
 2335TIP3    H131200   2.712   4.488  10.763 -0.4542 -0.1789 -0.9634
 2335TIP3    H231201   2.855   4.471  10.719 -0.0074 -0.5830  0.5724
 2336TIP3   OH231202   0.701   2.548  11.890  0.3284 -0.0736  0.0764
 2336TIP3    H131203   0.729   2.620  11.946 -0.0650  0.2982 -0.1961
 2336TIP3    H231204   0.613   2.526  11.921  1.5709 -2.5247  2.2013
 2337TIP3   OH231205   2.032   1.226  11.567 -0.0900 -0.3449  0.0176
 2337TIP3    H131206   2.039   1.135  11.594  0.1946 -0.1613  0.5852
 2337TIP3    H231207   1.959   1.228  11.505 -0.2354 -0.9174  0.1698
 2338TIP3   OH231208   3.458   3.739  12.301  0.0381 -0.1521  0.3196
 2338TIP3    H131209   3.519   3.794  12.253  0.7874  0.3102  1.7386
 2338TIP3    H231210   3.404   3.800  12.351 -1.1111 -0.5939 -0.3419
 2339TIP3   OH231211   4.063   4.360  11.234  0.1877  0.1393  0.1010
 2339TIP3    H131212   4.030   4.383  11.147  1.4512 -0.3754 -0.5312
 2339TIP3    H231213   3.992   4.385  11.293  0.2784  2.9527 -0.7993
 2340TIP3   OH231214   0.982   6.413  10.325 -0.1843 -0.2661  0.4745
 2340TIP3    H131215   1.023   6.439  10.242 -0.1550 -0.8720  0.2949
 2340TIP3    H231216   0.965   6.495  10.370 -1.9172  0.1864 -0.9290
 2341TIP3   OH231217   6.422   0.617   9.870  0.2884  0.9762  0.0130
 2341TIP3    H131218   6.379   0.532   9.878  2.6881 -0.3695 -0.5495
 2341TIP3    H231219   6.415   0.655   9.958  0.6774 -0.5938  0.7682
 2342TIP3   OH231220   6.369   0.300   9.749 -0.1570 -0.4753 -0.3781
 2342TIP3    H131221   6.351   0.241   9.676 -0.4036 -1.4847  0.4645
 2342TIP3    H231222   6.314   0.377   9.733  0.7895 -0.0751 -1.9335
 2343TIP3   OH231223   6.571   4.647  10.366 -0.2780 -0.6999 -0.8070
 2343TIP3    H131224   6.571   4.577  10.431  2.0528  0.0551  0.1081
 2343TIP3    H231225   6.612   4.607  10.288 -0.6389 -0.8557 -0.9200
 2344TIP3   OH231226   3.412   4.086  11.701 -0.3427  0.2153  0.2062
 2344TIP3    H131227   3.435   4.177  11.680  1.0625  0.9827  4.1552
 2344TIP3    H231228   3.470   4.033  11.647  0.3905  1.7709 -0.5922
 2345TIP3   OH231229   3.551   4.423  11.117  0.1648 -0.0745 -0.1115
 2345TIP3    H131230   3.624   4.448  11.060 -0.6074  1.1268 -0.6119
 2345TIP3    H231231   3.568   4.331  11.139  3.1860  0.8074  1.8643
 2346TIP3   OH231232   2.706   0.920   8.480  0.3936 -0.0592  0.0896
 2346TIP3    H131233   2.642   0.950   8.416 -0.8378 -1.1645  0.7688
 2346TIP3    H231234   2.742   0.840   8.443  0.1043 -0.3863  0.5058
 2347TIP3   OH231235   4.325   6.364   8.812  0.0630  0.2609  0.0397
 2347TIP3    H131236   4.243   6.377   8.764  0.0291 -1.5462 -0.4837
 2347TIP3    H231237   4.393   6.370   8.745  0.3139  1.1151  0.3650
 2348TIP3   OH231238   5.841   3.092   9.519  0.3936  0.0012 -0.2639
 2348TIP3    H131239   5.892   3.019   9.483 -0.7246 -1.4387  0.9447
 2348TIP3    H231240   5.749   3.066   9.504 -0.0588  0.2321  1.8799
 2349TIP3   OH231241   0.217   5.560   9.122  0.4671 -0.2108 -0.0753
 2349TIP3    H131242   0.231   5.624   9.192  1.0286 -0.0742 -0.3121
 2349TIP3    H231243   0.181   5.612   9.050  1.5228 -0.0372 -0.4927
 2350TIP3   OH231244   0.723   4.140  11.247 -0.0165 -0.2328  0.4044
 2350TIP3    H131245   0.818   4.129  11.236 -0.3906 -2.8483 -0.9087
 2350TIP3    H231246   0.704   4.098  11.332 -0.1173 -0.5821  0.2100
 2351TIP3   OH231247   5.857   5.697  11.355 -0.0110  0.5287 -0.4655
 2351TIP3    H131248   5.947   5.729  11.351  0.8065 -0.8382  3.3964
 2351TIP3    H231249   5.856   5.624  11.293  1.5119  0.5990 -0.6227
 2352TIP3   OH231250   1.569   0.551   9.120  0.0828  0.0129  0.2423
 2352TIP3    H131251   1.579   0.621   9.056 -0.6967 -0.0174  0.0824
 2352TIP3    H231252   1.636   0.570   9.186  2.3121 -1.1065 -1.5546
 2353TIP3   OH231253   3.420   5.858  11.509  0.2655  0.2764  0.7967
 2353TIP3    H131254   3.460   5.816  11.585  0.7005 -0.4841  0.1642
 2353TIP3    H231255   3.440   5.800  11.436 -0.8273  0.5894  0.2246
 2354TIP3   OH231256   5.213   1.530  11.072 -0.3226 -0.1772  0.1627
 2354TIP3    H131257   5.149   1.596  11.047 -0.8225 -0.9876 -0.7532
 2354TIP3    H231258   5.199   1.517  11.166 -0.4431  0.7678  0.2787
 2355TIP3   OH231259   5.894   2.651  11.287  0.3290  0.2669  0.0390
 2355TIP3    H131260   5.864   2.694  11.367  0.4533 -0.7385  0.6407
 2355TIP3    H231261   5.907   2.560  11.312  1.0722  0.0862 -0.9501
 2356TIP3   OH231262   0.226   3.657  10.683 -0.6454 -0.4540  0.0464
 2356TIP3    H131263   0.204   3.566  10.701 -1.2483 -0.3501 -0.1644
 2356TIP3    H231264   0.148   3.706  10.708 -1.1089 -0.1857 -1.7819
 2357TIP3   OH231265   6.169   4.043  12.150 -0.5650  0.0378  0.3242
 2357TIP3    H131266   6.179   3.980  12.222 -1.6436  0.7830  1.1590
 2357TIP3    H231267   6.178   3.990  12.071 -0.4646 -1.0008  1.0028
 2358TIP3   OH231268   3.146   5.435  12.316  0.0165  0.3442  0.3953
 2358TIP3    H131269   3.102   5.486  12.384  1.8041  1.2359  0.9506
 2358TIP3    H231270   3.100   5.459  12.235 -0.5535  1.2057  0.9516
 2359TIP3   OH231271   3.971   1.782  10.675  0.0208 -0.4331 -0.0163
 2359TIP3    H131272   4.044   1.806  10.732 -2.4751 -0.6139  3.6380
 2359TIP3    H231273   3.937   1.866  10.643  0.1480 -0.1356  0.6160
 2360TIP3   OH231274   2.971   6.414  11.578 -0.3688 -0.1533  0.1594
 2360TIP3    H131275   2.940   6.382  11.663 -1.4967 -0.0891 -0.2063
 2360TIP3    H231276   2.970   6.509  11.586 -2.3597 -0.0603 -0.5073
 2361TIP3   OH231277   4.822   3.393  10.826  0.0699  0.0635  0.1207
 2361TIP3    H131278   4.888   3.441  10.775 -1.0513  0.0212 -1.4615
 2361TIP3    H231279   4.788   3.328  10.765 -0.8824 -0.4234  1.1465
 2362TIP3   OH231280   5.949   2.609  12.109  0.8306 -0.8414 -0.4796
 2362TIP3    H131281   5.900   2.529  12.088 -0.2834 -0.1405 -0.5800
 2362TIP3    H231282   5.947   2.660  12.028 -3.2625  1.7635  1.0099
 2363TIP3   OH231283   1.411   5.344  11.126 -0.1880 -0.3349  0.2566
 2363TIP3    H131284   1.418   5.261  11.172  1.5408 -0.7052 -0.5837
 2363TIP3    H231285   1.465   5.333  11.048  1.0038  1.9102  0.6538
 2364TIP3   OH231286   5.051   2.294  10.928  0.2349  0.4323  0.0552
 2364TIP3    H131287   4.960   2.297  10.958  0.6878 -1.4512  1.8448
 2364TIP3    H231288   5.062   2.206  10.893  1.8671 -0.1206  1.7832
 2365TIP3   OH231289   1.807   1.883  10.509  0.1329  1.1200 -0.4502
 2365TIP3    H131290   1.895   1.887  10.473  0.6584 -0.7385  0.5276
 2365TIP3    H231291   1.818   1.903  10.602 -0.6755  2.0615 -0.5358
 2366TIP3   OH231292   0.072   5.901   9.687  0.0477  0.4355  0.1589
 2366TIP3    H131293   0.069   5.916   9.593 -0.0841 -0.9786 -0.0868
 2366TIP3    H231294   0.117   5.817   9.696  0.1876  0.6237  1.3687
 2367TIP3   OH231295   0.152   5.365   9.843 -0.0298  1.1369  0.4116
 2367TIP3    H131296   0.222   5.317   9.800 -1.3599  0.5282 -1.1665
 2367TIP3    H231297   0.072   5.331   9.804 -1.1962  2.2158  1.7476
 2368TIP3   OH231298   3.700   3.468   9.982 -0.1088 -0.4444 -0.5295
 2368TIP3    H131299   3.632   3.524  10.019 -0.2442 -0.9515  0.0032
 2368TIP3    H231300   3.662   3.434   9.900 -0.2895 -0.2997 -0.5051
 2369TIP3   OH231301   2.308   4.161  10.356  0.4676 -0.2489  0.4376
 2369TIP3    H131302   2.278   4.122  10.438 -1.2296  0.0580  0.0087
 2369TIP3    H231303   2.229   4.166  10.302  1.2338  1.0033 -0.6287
 2370TIP3   OH231304   1.855   0.135  10.949 -0.7101  0.5637  0.0378
 2370TIP3    H131305   1.851   0.154  10.855  0.2632  1.9873  0.2544
 2370TIP3    H231306   1.820   0.046  10.957 -1.7055  0.7698 -1.5486
 2371TIP3   OH231307   3.583   6.377  12.483  0.4099 -0.0578  0.2376
 2371TIP3    H131308   3.572   6.403  12.392  0.0839  0.5291  0.4388
 2371TIP3    H231309   3.507   6.414  12.528  1.5572  1.3534  1.0973
 2372TIP3   OH231310   6.049   6.479  11.660 -0.4231  0.5926  0.2198
 2372TIP3    H131311   6.055   6.432  11.576  1.1992 -0.3638  0.8110
 2372TIP3    H231312   5.964   6.522  11.657  0.0720  1.6224 -2.4569
 2373TIP3   OH231313   3.678   4.290  10.084 -0.2164 -0.3562  0.0649
 2373TIP3    H131314   3.750   4.269  10.025  1.4639  0.6271  1.6587
 2373TIP3    H231315   3.661   4.383  10.070 -1.1283 -0.5608 -0.2290
 2374TIP3   OH231316   2.344   5.939  11.896  0.1044 -0.0134 -0.1803
 2374TIP3    H131317   2.379   5.958  11.983 -0.3281 -0.3966  0.0809
 2374TIP3    H231318   2.421   5.934  11.840  0.5824 -1.7498  0.5535
 2375TIP3   OH231319   6.448   4.444  11.383  0.0103 -0.0967  0.1076
 2375TIP3    H131320   6.392   4.385  11.333 -0.5553  0.4952  0.0333
 2375TIP3    H231321   6.387   4.503  11.427  0.5646  0.3016  0.3461
 2376TIP3   OH231322   0.279   5.028  11.999 -0.3015 -0.1147  0.0124
 2376TIP3    H131323   0.312   5.115  11.975 -1.9446  0.5357 -0.0032
 2376TIP3    H231324   0.208   5.045  12.060 -0.7657 -1.4454 -0.1195
 2377TIP3   OH231325   6.088   0.021  10.359 -0.5957  0.2143 -0.3244
 2377TIP3    H131326   5.999   0.005  10.392 -0.0281 -0.1733  1.0886
 2377TIP3    H231327   6.075   0.062  10.274 -2.1320 -0.2921 -0.3667
 2378TIP3   OH231328   6.304   1.124  11.073  0.0320 -0.3745  0.1179
 2378TIP3    H131329   6.242   1.192  11.099  0.4031  0.5583 -1.2557
 2378TIP3    H231330   6.250   1.053  11.039 -0.3520  0.8205 -1.9855
 2379TIP3   OH231331   0.924   5.857  12.091 -1.1494 -0.7607  0.3386
 2379TIP3    H131332   0.909   5.936  12.040 -2.9492 -1.7955 -0.8594
 2379TIP3    H231333   0.850   5.853  12.152 -1.0827 -1.4924  0.3861
 2380TIP3   OH231334   5.484   5.170  10.085  0.3701  0.0380 -0.1180
 2380TIP3    H131335   5.492   5.075  10.079  1.7818  0.2288 -2.1310
 2380TIP3    H231336   5.530   5.203  10.008  0.6725  2.4010  0.9860
 2381TIP3   OH231337   2.240   6.370   9.991 -0.0076  0.1182  0.4792
 2381TIP3    H131338   2.184   6.432  10.039  0.1165  0.6666 -0.0723
 2381TIP3    H231339   2.219   6.285  10.029 -1.3599  0.2820  0.1698
 2382TIP3   OH231340   2.766   0.329  10.712 -0.1379  0.1954 -0.3925
 2382TIP3    H131341   2.732   0.335  10.802  2.7161 -1.3950  0.9199
 2382TIP3    H231342   2.714   0.259  10.672  0.1690 -0.7920  0.8728
 2383TIP3   OH231343   3.791   6.053  11.086 -0.6878  0.0065 -0.3101
 2383TIP3    H131344   3.755   5.965  11.097  0.0273 -0.2688 -0.1431
 2383TIP3    H231345   3.833   6.073  11.169 -2.3511  1.2324  0.2979
 2384TIP3   OH231346   3.014   1.834  11.485  0.0028 -0.1689 -0.1921
 2384TIP3    H131347   2.975   1.795  11.407  1.6760  1.1145 -1.7466
 2384TIP3    H231348   3.006   1.929  11.472  2.1054  0.1174  0.1598
 2385TIP3   OH231349   5.634   6.100   9.233 -0.1575  0.2519  0.4109
 2385TIP3    H131350   5.701   6.032   9.233 -0.3299  0.0473 -1.0546
 2385TIP3    H231351   5.681   6.179   9.206 -0.5211  0.0652 -0.8186
 2386TIP3   OH231352   2.517   5.117  10.548  0.3242 -0.2549  0.0717
 2386TIP3    H131353   2.476   5.189  10.499 -1.0403 -0.9257  0.1701
 2386TIP3    H231354   2.457   5.101  10.621  1.6362 -0.1800  1.1882
 2387TIP3   OH231355   3.998   1.663  10.994  0.0382  0.6780  0.0573
 2387TIP3    H131356   3.923   1.722  11.002  0.2438  0.6934  2.9161
 2387TIP3    H231357   4.074   1.720  10.989 -0.0417  0.6521 -1.9447
 2388TIP3   OH231358   4.329   3.470   9.967  0.4152  0.6281 -0.7625
 2388TIP3    H131359   4.317   3.521   9.887 -1.2911  0.0028 -0.9418
 2388TIP3    H231360   4.275   3.515  10.032 -1.0900 -0.8799 -0.9135
 2389TIP3   OH231361   5.946   3.611  10.428 -0.4650  0.3938 -0.0630
 2389TIP3    H131362   5.944   3.607  10.524  1.2927  0.8398  0.0140
 2389TIP3    H231363   5.874   3.554  10.401 -1.3171  0.6561  1.5181
 2390TIP3   OH231364   2.798   0.945   7.822  0.5410 -0.4714 -0.4580
 2390TIP3    H131365   2.783   1.040   7.821 -2.4961 -0.8082 -2.3361
 2390TIP3    H231366   2.864   0.930   7.755  0.0771  0.2696 -1.1026
 2391TIP3   OH231367   5.387   0.212  10.172 -0.1989 -0.7918 -0.0701
 2391TIP3    H131368   5.375   0.271  10.246 -0.1080 -0.9527  0.0764
 2391TIP3    H231369   5.300   0.200  10.136 -0.5662 -2.1898  1.1654
 2392TIP3   OH231370   1.077   2.077   9.254  0.2596  0.6934  0.6297
 2392TIP3    H131371   0.984   2.057   9.264  0.3555 -1.4174 -1.7015
 2392TIP3    H231372   1.122   2.003   9.297  0.8334  0.8972  0.3948
 2393TIP3   OH231373   1.089   0.744   8.643 -0.0431  0.3588 -0.2730
 2393TIP3    H131374   1.047   0.812   8.590 -1.3470 -0.4371 -0.3130
 2393TIP3    H231375   1.183   0.758   8.631 -0.2842  0.3186 -2.6661
 2394TIP3   OH231376   4.326   4.109  11.644 -0.6271  0.1587  0.0832
 2394TIP3    H131377   4.251   4.128  11.700  0.8071 -0.7752  2.4534
 2394TIP3    H231378   4.340   4.014  11.653  0.3246  0.1704 -0.9825
 2395TIP3   OH231379   2.270   6.273   8.521 -0.2994  0.3312 -0.5916
 2395TIP3    H131380   2.257   6.178   8.523  0.6141  0.2031  1.6516
 2395TIP3    H231381   2.216   6.306   8.593  1.0652  1.2435  0.0453
 2396TIP3   OH231382   3.387   3.482  10.232 -0.0243  0.3087 -0.7578
 2396TIP3    H131383   3.399   3.515  10.143 -2.9270  1.4192 -0.8270
 2396TIP3    H231384   3.315   3.533  10.268  1.1273 -0.0016  2.3362
 2397TIP3   OH231385   4.834   3.446   9.501  0.3308 -0.5744 -0.1175
 2397TIP3    H131386   4.808   3.537   9.510  0.4676 -0.6087  0.6400
 2397TIP3    H231387   4.751   3.398   9.498  0.2516 -0.6353  1.8097
 2398TIP3   OH231388   6.592   1.788  10.765  0.1680  0.0491  0.0407
 2398TIP3    H131389   6.685   1.810  10.763  0.2628 -0.0337  1.9720
 2398TIP3    H231390   6.585   1.720  10.832 -1.1654 -0.6275 -0.7428
 2399TIP3   OH231391   2.078   0.514   9.626 -0.2709  0.1873  0.1486
 2399TIP3    H131392   2.096   0.607   9.635 -0.5897  0.2586  0.0628
 2399TIP3    H231393   2.121   0.489   9.544 -0.1985  0.2601  0.1639
 2400TIP3   OH231394   1.391   6.074  11.478 -0.2668 -0.3110 -0.5322
 2400TIP3    H131395   1.341   5.996  11.454 -1.8091  0.7816 -1.0166
 2400TIP3    H231396   1.328   6.145  11.475  0.8543  0.8199  0.9516
 2401TIP3   OH231397   5.074   1.973  11.958  0.2252  0.5856  0.3598
 2401TIP3    H131398   5.011   1.950  11.890  0.6833 -2.8559  0.8890
 2401TIP3    H231399   5.157   1.981  11.912  0.1248  0.8214  0.2153
 2402TIP3   OH231400   2.428   5.295   9.556  0.0406 -0.2247  0.4479
 2402TIP3    H131401   2.487   5.367   9.578  1.3326 -1.3120  0.6722
 2402TIP3    H231402   2.371   5.331   9.487 -0.1717  1.3648  1.3849
 2403TIP3   OH231403   4.712   6.226   9.780 -0.0994  0.1620 -0.0825
 2403TIP3    H131404   4.688   6.223   9.687 -1.6972  2.5878  0.1487
 2403TIP3    H231405   4.630   6.207   9.826  0.7060 -1.1726  0.8901
 2404TIP3   OH231406   6.600   1.590  10.983  0.1772 -0.3671  0.4830
 2404TIP3    H131407   6.595   1.537  10.904 -2.3720  0.3498  0.0534
 2404TIP3    H231408   6.520   1.569  11.031  1.3904 -0.3570  2.6369
 2405TIP3   OH231409   3.525   4.207  12.193  0.5391 -0.1268 -0.1325
 2405TIP3    H131410   3.477   4.250  12.122 -0.7944 -3.0007 -1.1123
 2405TIP3    H231411   3.461   4.198  12.263  0.9116 -0.1550  0.2051
 2406TIP3   OH231412   4.869   5.874  10.553  0.1795  0.0923 -0.1932
 2406TIP3    H131413   4.809   5.823  10.499 -0.0535  1.1172 -0.9467
 2406TIP3    H231414   4.911   5.934  10.492  1.0388  0.2567  0.5362
 2407TIP3   OH231415   0.032   2.570  10.614  0.0077 -0.3596 -0.5305
 2407TIP3    H131416   0.084   2.629  10.559 -1.0042  0.9050 -0.2046
 2407TIP3    H231417  -0.059   2.593  10.592 -0.4022 -0.7189  0.7439
 2408TIP3   OH231418   0.934   0.911   9.826 -0.2278  0.2312  0.2759
 2408TIP3    H131419   0.986   0.925   9.905  0.1725  1.7611 -0.2146
 2408TIP3    H231420   0.984   0.846   9.776 -0.9584 -1.4534  1.6568
 2409TIP3   OH231421   6.639   4.331   9.947  0.4459  0.1927 -0.6906
 2409TIP3    H131422   6.557   4.380   9.935  0.0417 -0.6109 -1.3503
 2409TIP3    H231423   6.611   4.249   9.988  1.0618  0.3335  0.0351
 2410TIP3   OH231424   2.446   1.841  10.348  0.2212  0.1311  0.3371
 2410TIP3    H131425   2.396   1.814  10.271  0.2453  1.0313 -0.0049
 2410TIP3    H231426   2.448   1.763  10.404  1.1396 -0.8636 -1.0417
 2411TIP3   OH231427   1.387   3.876   9.706 -0.0385 -0.0771 -0.1077
 2411TIP3    H131428   1.445   3.877   9.630 -0.3530 -1.2373 -0.3823
 2411TIP3    H231429   1.444   3.849   9.779 -0.3284 -1.8668 -0.4977
 2412TIP3   OH231430   2.467   0.615  11.928  0.6883 -0.5347  0.4811
 2412TIP3    H131431   2.456   0.692  11.872 -0.7400  0.5877  2.2231
 2412TIP3    H231432   2.379   0.580  11.939  1.0619 -1.2298  1.3613
 2413TIP3   OH231433   1.800   3.364  11.252 -0.0840  0.4867 -0.6782
 2413TIP3    H131434   1.775   3.405  11.169  1.7241 -0.6178 -1.8438
 2413TIP3    H231435   1.722   3.316  11.279 -1.3064  2.3288 -0.7340
 2414TIP3   OH231436   6.187   4.555  11.037 -0.2721 -1.0963 -0.2311
 2414TIP3    H131437   6.165   4.491  10.969  1.5737 -0.0025 -1.9682
 2414TIP3    H231438   6.190   4.639  10.992 -0.0014 -0.1521  1.4365
 2415TIP3   OH231439   3.355   1.733  11.006 -0.2146  0.2719 -0.1492
 2415TIP3    H131440   3.324   1.655  11.053  0.3823  0.5389  0.7119
 2415TIP3    H231441   3.448   1.737  11.025 -0.4145  1.7629  0.6831
 2416TIP3   OH231442   2.275   0.155  12.244  0.1528  0.6202  0.8156
 2416TIP3    H131443   2.265   0.195  12.158 -0.4735 -0.1349  0.5270
 2416TIP3    H231444   2.265   0.227  12.306 -2.5829  0.7050  0.3901
 2417TIP3   OH231445   5.329   0.032   9.854 -0.1297 -0.3210  0.2070
 2417TIP3    H131446   5.322   0.008   9.946 -0.1002 -0.9080  0.0576
 2417TIP3    H231447   5.240   0.055   9.829 -0.1848 -0.4170  0.3135
 2418TIP3   OH231448   6.172   3.984  10.787 -0.2951 -0.0110  0.5636
 2418TIP3    H131449   6.259   3.988  10.826  0.3271  0.4020 -0.8255
 2418TIP3    H231450   6.157   3.890  10.771  0.0860 -0.0468  0.4033
 2419TIP3   OH231451   1.527   3.053  10.709  0.2664  0.2985  0.2421
 2419TIP3    H131452   1.526   3.022  10.618  1.4811 -2.0097  0.9282
 2419TIP3    H231453   1.442   3.024  10.744  0.5440 -0.4497  0.3149
 2420TIP3   OH231454   3.271   4.756  10.745 -0.4540  0.3054  0.5174
 2420TIP3    H131455   3.260   4.714  10.831  1.4030 -1.5030 -0.0378
 2420TIP3    H231456   3.324   4.693  10.695 -0.0628  2.0689 -1.3870
 2421TIP3   OH231457   2.077   4.098  11.796  0.3815 -0.2976  0.0339
 2421TIP3    H131458   1.995   4.136  11.828 -1.0852 -2.6727 -0.6327
 2421TIP3    H231459   2.090   4.139  11.710  0.3707  0.6994  0.4920
 2422TIP3   OH231460   3.995   6.542   9.998 -1.0164 -0.1105 -0.0844
 2422TIP3    H131461   3.993   6.545   9.903 -0.4442 -0.7450 -0.1239
 2422TIP3    H231462   4.084   6.511  10.019 -0.4317  1.9343  0.7034
 2423TIP3   OH231463   3.077   1.116   9.589 -0.5650 -0.2153  0.7911
 2423TIP3    H131464   3.155   1.171   9.581 -1.4818  1.4636  2.5367
 2423TIP3    H231465   3.006   1.172   9.557 -1.3404 -0.9244  1.2615
 2424TIP3   OH231466   4.851   2.038  10.154  0.0868 -0.2959  0.0554
 2424TIP3    H131467   4.868   1.973  10.085  0.1362 -0.7151  0.4556
 2424TIP3    H231468   4.927   2.096  10.152 -0.3418  0.2598 -0.8660
 2425TIP3   OH231469   3.843   3.557  10.827  0.2502 -0.5801  0.0888
 2425TIP3    H131470   3.841   3.486  10.762 -2.5013  0.9154 -1.6618
 2425TIP3    H231471   3.800   3.519  10.904 -3.1887 -0.4058 -1.5311
 2426TIP3   OH231472   2.303   0.142  10.133 -0.8046 -0.5619 -0.2667
 2426TIP3    H131473   2.258   0.090  10.065 -0.2850 -1.3958  0.0138
 2426TIP3    H231474   2.394   0.145  10.104 -0.7069 -0.3578  0.0635
 2427TIP3   OH231475   0.570   0.021   9.844  0.4307 -0.0250 -0.2677
 2427TIP3    H131476   0.655   0.044   9.882  0.1989  0.8392 -0.2456
 2427TIP3    H231477   0.555   0.088   9.777 -0.1562 -0.2635 -0.3764
 2428TIP3   OH231478   1.659   4.140  10.674  0.0394  0.4725 -0.8514
 2428TIP3    H131479   1.602   4.146  10.750  0.8271 -1.5318 -0.0370
 2428TIP3    H231480   1.631   4.212  10.617 -2.0664  0.6466  0.3103
 2429TIP3   OH231481   3.549   6.086  11.478  0.1436 -0.3700  0.3563
 2429TIP3    H131482   3.569   6.124  11.564 -2.8593  1.2376  0.4596
 2429TIP3    H231483   3.488   6.015  11.497  0.2214 -0.6357 -0.3783
 2430TIP3   OH231484   2.630   1.284  12.061 -0.6447  0.1118  0.0929
 2430TIP3    H131485   2.646   1.377  12.079  1.7014 -0.3770  0.8276
 2430TIP3    H231486   2.697   1.259  11.998 -2.3980 -0.6957 -1.5430
 2431TIP3   OH231487   0.326   2.840  11.225  0.3062  0.3014 -0.1389
 2431TIP3    H131488   0.294   2.751  11.212  0.1586  0.0986  1.3861
 2431TIP3    H231489   0.385   2.834  11.300 -1.1807  1.7839  1.2452
 2432TIP3   OH231490   4.346   0.432  11.299  0.1696  0.1015  0.4423
 2432TIP3    H131491   4.435   0.416  11.329  1.0011 -1.4230 -2.4593
 2432TIP3    H231492   4.356   0.467  11.210 -2.1353  0.9271  0.4129
 2433TIP3   OH231493   0.273   0.993  10.739 -0.0564 -0.3303  0.0861
 2433TIP3    H131494   0.271   0.985  10.644 -1.6017  0.6241  0.0056
 2433TIP3    H231495   0.181   1.001  10.765  0.3973  0.7435  1.5221
 2434TIP3   OH231496   5.127   1.952   9.426 -0.1426 -0.2594  0.4559
 2434TIP3    H131497   5.178   2.015   9.477  1.7184  0.2898 -1.8813
 2434TIP3    H231498   5.051   2.002   9.395  0.1472  0.1862  0.4479
 2435TIP3   OH231499   6.212   1.309   9.037  0.3690  0.4254 -0.0326
 2435TIP3    H131500   6.230   1.341   9.126  0.9877  0.8966 -0.3209
 2435TIP3    H231501   6.296   1.316   8.992  0.7985 -2.4527  0.1330
 2436TIP3   OH231502   4.847   0.858  11.875  0.1496 -0.1037  0.2534
 2436TIP3    H131503   4.930   0.834  11.834  0.0862 -0.6762  0.4482
 2436TIP3    H231504   4.859   0.949  11.903  0.3377  0.1524 -0.6437
 2437TIP3   OH231505   1.548   1.420   9.300  0.1608  0.2849 -0.3560
 2437TIP3    H131506   1.456   1.396   9.306 -0.0033  1.1429  1.1464
 2437TIP3    H231507   1.585   1.393   9.385  1.3505 -0.2211 -1.0043
 2438TIP3   OH231508   1.191   4.269  11.404 -0.0575 -0.4531 -0.3633
 2438TIP3    H131509   1.282   4.242  11.391 -0.0009 -0.4093 -0.0748
 2438TIP3    H231510   1.140   4.212  11.346  0.2080 -0.0467 -0.9915
 2439TIP3   OH231511   1.499   5.499   9.287  0.3562  0.2350  0.3528
 2439TIP3    H131512   1.457   5.425   9.243  0.2884 -0.3814  1.4204
 2439TIP3    H231513   1.436   5.525   9.355  0.4108  1.2291  0.0399
 2440TIP3   OH231514   0.850   5.803   9.916 -0.4641 -0.9222 -0.5271
 2440TIP3    H131515   0.780   5.785   9.978 -0.2096 -0.8144 -0.2067
 2440TIP3    H231516   0.805   5.826   9.835 -0.8113  0.3368  0.0072
 2441TIP3   OH231517   4.862   3.827  12.335  0.4860 -0.0806  0.3909
 2441TIP3    H131518   4.852   3.917  12.366  0.9668  0.4655 -0.9392
 2441TIP3    H231519   4.895   3.837  12.245  0.7254 -1.5897  0.2930
 2442TIP3   OH231520   3.138   5.965  10.876  0.2226 -0.2062 -0.0011
 2442TIP3    H131521   3.106   5.947  10.788 -0.9187  0.8979  0.1739
 2442TIP3    H231522   3.094   5.900  10.931 -2.4497  1.7404  0.3510
 2443TIP3   OH231523   3.147   1.571  11.419 -0.3134 -0.0953 -0.4756
 2443TIP3    H131524   3.222   1.599  11.368 -0.2149  0.5283 -0.0051
 2443TIP3    H231525   3.184   1.524  11.494 -0.3551  0.5420 -0.0392
 2444TIP3   OH231526   1.842   4.058  10.132 -0.7246 -0.0859 -0.2109
 2444TIP3    H131527   1.903   4.004  10.182  1.5200  2.6414  0.2950
 2444TIP3    H231528   1.880   4.063  10.045 -0.2811  1.4361  0.0339
 2445TIP3   OH231529   3.088   4.878   9.428  0.5039  0.3452  0.2738
 2445TIP3    H131530   3.117   4.801   9.477 -0.5517 -0.0356  0.3187
 2445TIP3    H231531   3.021   4.844   9.368  0.6399  1.0863 -0.3045
 2446TIP3   OH231532   1.714   5.966   9.745  0.5981  0.0940  0.5175
 2446TIP3    H131533   1.769   5.986   9.820  0.7101  1.4424  0.0959
 2446TIP3    H231534   1.693   6.051   9.707  0.6120 -0.5542 -1.0244
 2447TIP3   OH231535   6.082   5.290  11.209  0.4305  0.2131 -0.0406
 2447TIP3    H131536   6.119   5.229  11.273  2.6903  1.1654 -0.3659
 2447TIP3    H231537   6.138   5.280  11.132  1.0393  2.8770 -0.0145
 2448TIP3   OH231538   6.207   1.891  11.894 -0.5494  0.0058  0.1019
 2448TIP3    H131539   6.247   1.815  11.935  1.6698  0.4266 -1.0702
 2448TIP3    H231540   6.158   1.935  11.964  0.9229 -0.6838  1.6194
 2449TIP3   OH231541   6.213   4.782  11.353 -0.5005  0.6541  0.0650
 2449TIP3    H131542   6.248   4.792  11.264  0.9254 -1.1831  0.3668
 2449TIP3    H231543   6.118   4.788  11.341 -0.3322  0.8211 -1.5210
 2450TIP3   OH231544   6.270   5.668   9.333  0.3916  0.1925 -0.5304
 2450TIP3    H131545   6.278   5.607   9.260 -0.9005  0.5882 -1.0213
 2450TIP3    H231546   6.285   5.615   9.411 -1.0929 -0.8664 -0.9262
 2451TIP3   OH231547   4.991   4.509  11.491  0.8682  0.2010 -0.0255
 2451TIP3    H131548   4.952   4.450  11.555 -0.1397  0.7760 -0.0917
 2451TIP3    H231549   5.043   4.570  11.543 -0.8909  1.4080  0.4117
 2452TIP3   OH231550   1.527   2.019  11.816  0.0345 -0.4614 -0.3631
 2452TIP3    H131551   1.512   2.104  11.774  1.1404 -0.3828 -0.6206
 2452TIP3    H231552   1.616   1.995  11.791  0.2539 -1.0201  0.8824
 2453TIP3   OH231553   3.478   5.360   9.838  0.3982 -0.2838  0.3162
 2453TIP3    H131554   3.419   5.426   9.802  0.8361  0.2569  0.5599
 2453TIP3    H231555   3.543   5.346   9.768 -0.0568 -0.9291  0.0206
 2454TIP3   OH231556   3.330   3.219  10.056  0.6777 -0.1873 -0.3815
 2454TIP3    H131557   3.364   3.193  10.142  0.8387 -1.6454 -0.8531
 2454TIP3    H231558   3.344   3.313  10.052 -1.5360  0.3698  2.1502
 2455TIP3   OH231559   0.036   1.285  10.290  0.6224  0.3036 -0.3563
 2455TIP3    H131560   0.100   1.356  10.299  0.5475  0.2825  0.4253
 2455TIP3    H231561  -0.009   1.303  10.208  1.6087  0.3389 -0.9097
 2456TIP3   OH231562   5.568   0.162  10.717  0.3085 -0.4086  0.9848
 2456TIP3    H131563   5.531   0.249  10.729  0.3124 -0.3556  0.6313
 2456TIP3    H231564   5.655   0.179  10.680 -0.2133 -0.5957 -0.3852
 2457TIP3   OH231565   2.560   3.217  10.679  0.0655 -0.7000 -0.8121
 2457TIP3    H131566   2.554   3.227  10.584  2.0338  0.3090 -0.8854
 2457TIP3    H231567   2.603   3.297  10.709 -0.8633 -0.8321  0.9983
 2458TIP3   OH231568   0.781   1.050  11.361  0.1549 -0.3856 -0.5972
 2458TIP3    H131569   0.841   1.117  11.328 -0.2652 -0.5049 -1.6717
 2458TIP3    H231570   0.814   1.028  11.448  1.5767 -0.3445 -1.1032
 2459TIP3   OH231571   6.620   0.565   9.224  0.3126 -0.3469 -0.0989
 2459TIP3    H131572   6.591   0.652   9.199 -0.3746 -1.3707 -3.2759
 2459TIP3    H231573   6.541   0.520   9.253  0.6631  0.0189  1.5230
 2460TIP3   OH231574   3.765   2.425  10.882 -0.0867 -0.0693 -0.6030
 2460TIP3    H131575   3.755   2.334  10.855  0.1374 -0.4437  0.4920
 2460TIP3    H231576   3.676   2.460  10.885 -0.3152 -0.6791  0.3049
 2461TIP3   OH231577   2.754   2.637  11.396 -0.0444 -0.3165  0.4018
 2461TIP3    H131578   2.813   2.711  11.382  0.4231 -0.3464  1.9860
 2461TIP3    H231579   2.755   2.623  11.491  0.6928 -3.0145  0.0885
 2462TIP3   OH231580   3.524   4.893  10.546  0.5918 -0.7392 -0.2619
 2462TIP3    H131581   3.437   4.933  10.538  0.4115 -1.4524 -2.9378
 2462TIP3    H231582   3.548   4.906  10.638 -0.2441  3.7121 -0.4646
 2463TIP3   OH231583   0.264   6.311  10.317 -0.1105 -0.0211 -0.5007
 2463TIP3    H131584   0.259   6.333  10.224  0.6264 -0.7012 -0.7142
 2463TIP3    H231585   0.187   6.256  10.333  0.7661 -1.5055 -1.1838
 2464TIP3   OH231586   4.528   0.984   9.594  0.5059  0.2473 -0.5375
 2464TIP3    H131587   4.581   0.904   9.586 -1.7939 -1.3862 -0.2049
 2464TIP3    H231588   4.454   0.959   9.648  0.2517  2.9570  0.5073
 2465TIP3   OH231589   6.591   4.030   9.322 -0.1615 -0.2526 -0.0801
 2465TIP3    H131590   6.648   3.953   9.319 -1.1109 -0.9461 -2.3613
 2465TIP3    H231591   6.638   4.097   9.271 -0.5012 -0.1911 -0.3184
 2466TIP3   OH231592   5.925   4.536  10.026  0.1411  0.0519 -0.6059
 2466TIP3    H131593   5.896   4.483   9.951  0.5383 -1.3894  0.2115
 2466TIP3    H231594   5.932   4.625   9.991 -2.2899 -0.0542 -1.6037
 2467TIP3   OH231595   4.862   3.610  11.432 -0.7215 -0.2346 -0.2411
 2467TIP3    H131596   4.838   3.639  11.520  0.1902  0.3910 -0.1854
 2467TIP3    H231597   4.916   3.680  11.397  1.0066 -1.5438 -0.3577
 2468TIP3   OH231598   5.840   5.060  11.331 -0.4064  0.3539 -0.9339
 2468TIP3    H131599   5.932   5.080  11.346 -1.0066  2.1388  0.8221
 2468TIP3    H231600   5.832   5.051  11.236  1.3810  1.1637 -1.1905
 2469TIP3   OH231601   3.547   5.408  10.940  0.3551  0.1085  0.1403
 2469TIP3    H131602   3.566   5.410  11.034  0.5165 -0.3888  0.1182
 2469TIP3    H231603   3.601   5.478  10.903 -0.7225  1.2132  0.5972
 2470TIP3   OH231604   5.948   6.433  10.637 -0.5240 -0.6709  0.2163
 2470TIP3    H131605   5.897   6.364  10.594  0.5717 -1.6231  0.4115
 2470TIP3    H231606   6.010   6.386  10.692  0.1604  0.4870  0.4603
 2471TIP3   OH231607   4.829   1.965  11.178 -0.1143 -0.2407 -0.0395
 2471TIP3    H131608   4.760   2.017  11.136  1.0169  1.0773 -0.3527
 2471TIP3    H231609   4.784   1.888  11.211 -1.8314  0.7790  0.1423
 2472TIP3   OH231610   1.202   3.205  11.045 -0.4198 -0.2161  0.3700
 2472TIP3    H131611   1.241   3.147  10.979 -3.9275  0.0375 -2.1842
 2472TIP3    H231612   1.170   3.146  11.113  1.9435 -0.6063  1.2283
 2473TIP3   OH231613   5.317   6.524  10.448 -0.0416 -0.0851 -0.0503
 2473TIP3    H131614   5.247   6.529  10.383 -1.7530  3.4372  1.7764
 2473TIP3    H231615   5.289   6.454  10.507 -2.4137  1.5387  0.8991
 2474TIP3   OH231616   4.245   5.178   9.791 -0.1022 -0.1522  0.5206
 2474TIP3    H131617   4.328   5.215   9.819 -0.8505  0.3995  2.0878
 2474TIP3    H231618   4.185   5.252   9.789 -0.0440  0.0203 -3.1958
 2475TIP3   OH231619   2.768   0.140   8.977 -0.1380  0.2116 -0.4875
 2475TIP3    H131620   2.805   0.114   8.893 -0.7743 -0.7600 -0.4870
 2475TIP3    H231621   2.827   0.101   9.042 -0.4935 -0.3379 -0.4887
 2476TIP3   OH231622   3.872   0.881   9.277 -0.6043  0.0321  0.3773
 2476TIP3    H131623   3.792   0.933   9.266 -1.4850 -1.1716  0.8525
 2476TIP3    H231624   3.861   0.807   9.218  0.2020 -0.1132  0.3966
 2477TIP3   OH231625   0.652   4.937  10.397 -0.0691  0.0173 -0.5692
 2477TIP3    H131626   0.592   4.868  10.424  0.3001  0.8153  2.7005
 2477TIP3    H231627   0.732   4.891  10.371  0.2842 -0.8782  1.8404
 2478TIP3   OH231628   3.479   6.539  11.188 -0.0485 -0.7706 -0.0498
 2478TIP3    H131629   3.441   6.511  11.104 -0.2842 -0.2492 -0.1187
 2478TIP3    H231630   3.572   6.549  11.170 -0.4656  2.0338 -1.0061
 2479TIP3   OH231631   4.536   3.447  10.177 -0.5587 -0.0164 -0.2701
 2479TIP3    H131632   4.499   3.457  10.265 -2.7018 -0.7255 -1.0243
 2479TIP3    H231633   4.461   3.454  10.118  0.7439 -0.1048 -2.0277
 2480TIP3   OH231634   3.014   1.289  12.268  0.2227  0.1479  0.8780
 2480TIP3    H131635   3.102   1.325  12.257 -0.4908  2.4073  2.0262
 2480TIP3    H231636   2.956   1.359  12.238 -1.2245 -1.5785 -0.5915
 2481TIP3   OH231637   1.586   2.591  11.215  0.3082 -0.1740  0.0955
 2481TIP3    H131638   1.501   2.628  11.191 -0.3499  0.4477  3.0086
 2481TIP3    H231639   1.607   2.531  11.143 -0.9406  2.1389 -2.3528
 2482TIP3   OH231640   0.247   5.344  10.563 -0.7369  0.0588  0.1608
 2482TIP3    H131641   0.307   5.271  10.582 -0.9142  0.2416  1.5333
 2482TIP3    H231642   0.182   5.306  10.505 -0.8585 -0.9155  0.8980
 2483TIP3   OH231643   4.208   5.063  11.957 -0.1644 -0.8287 -0.1453
 2483TIP3    H131644   4.148   4.988  11.961  0.5315 -1.3539  1.5294
 2483TIP3    H231645   4.248   5.066  12.044  1.1501  0.4095 -0.7477
 2484TIP3   OH231646   3.200   2.485   9.521 -0.2590 -0.0443 -0.4344
 2484TIP3    H131647   3.258   2.451   9.453  0.2340  2.2111 -1.2327
 2484TIP3    H231648   3.118   2.504   9.476 -0.3138  0.3759 -0.1629
 2485TIP3   OH231649   5.253   4.160  10.638  0.0474  0.5153 -0.2051
 2485TIP3    H131650   5.329   4.116  10.599  0.1805  0.6007 -0.0424
 2485TIP3    H231651   5.272   4.161  10.731  0.1030  1.0313 -0.2199
 2486TIP3   OH231652   5.539   2.542  12.230  0.3565  0.9916  0.0349
 2486TIP3    H131653   5.540   2.580  12.318  0.2009  1.5995 -0.2156
 2486TIP3    H231654   5.541   2.618  12.172 -0.0125  0.6088 -0.4867
 2487TIP3   OH231655   0.740   0.371   9.299 -0.1394 -0.2377  0.1179
 2487TIP3    H131656   0.779   0.402   9.380 -1.1605 -3.2924  1.9569
 2487TIP3    H231657   0.815   0.352   9.242  0.6612  0.6958  0.8399
 2488TIP3   OH231658   1.820   4.062  12.243 -0.2550  0.1334 -0.0769
 2488TIP3    H131659   1.737   4.110  12.240 -0.7798 -0.5988  1.6493
 2488TIP3    H231660   1.795   3.970  12.237  0.6384 -0.0432 -1.8252
 2489TIP3   OH231661   0.700   1.356   8.251  0.3130  0.5923 -0.6688
 2489TIP3    H131662   0.793   1.358   8.274  0.2454  3.3750 -0.3779
 2489TIP3    H231663   0.698   1.379   8.158 -0.0976  0.8919 -0.5882
 2490TIP3   OH231664   4.687   0.367   8.279  0.2316  0.2640  0.5335
 2490TIP3    H131665   4.706   0.457   8.306 -1.4452  0.4192  1.3229
 2490TIP3    H231666   4.772   0.324   8.278  0.7827  1.1537  2.8047
 2491TIP3   OH231667   3.919   5.429   9.353 -0.0192  0.2645  0.2564
 2491TIP3    H131668   3.962   5.400   9.272 -1.5940 -0.9153 -0.2045
 2491TIP3    H231669   3.957   5.373   9.421  0.8587  0.8401  0.2590
 2492TIP3   OH231670   2.465   6.230  10.669  0.0688  0.3173 -0.6139
 2492TIP3    H131671   2.532   6.189  10.614  2.5183  1.4211  1.3078
 2492TIP3    H231672   2.503   6.229  10.757 -3.2037 -0.4090  0.9101
 2493TIP3   OH231673   5.273   2.915  11.026  0.5122 -0.0036  0.3855
 2493TIP3    H131674   5.227   2.988  10.984 -0.4707 -0.5070  0.5629
 2493TIP3    H231675   5.252   2.923  11.119  1.4635  0.2371  0.5863
 2494TIP3   OH231676   4.743   1.826  10.921  0.6811  0.2800 -0.0237
 2494TIP3    H131677   4.813   1.829  10.856  1.3996  1.5962  0.7683
 2494TIP3    H231678   4.719   1.918  10.935  0.0278 -0.0292  1.0135
 2495TIP3   OH231679   3.831   1.350   9.378 -0.0498  0.4872  0.0513
 2495TIP3    H131680   3.910   1.403   9.366  0.4165  0.1002  1.2475
 2495TIP3    H231681   3.857   1.284   9.443 -1.0845 -0.2203 -0.2464
 2496TIP3   OH231682   1.229   4.487  10.850 -0.1488  0.1173 -0.0065
 2496TIP3    H131683   1.287   4.473  10.924  0.2819 -0.9017 -0.5151
 2496TIP3    H231684   1.197   4.576  10.861 -0.5520 -0.1964  1.7117
 2497TIP3   OH231685   1.417   4.130   9.454  0.3441  0.3595  0.1752
 2497TIP3    H131686   1.459   4.166   9.375  0.1559 -0.4090 -0.2865
 2497TIP3    H231687   1.445   4.039   9.456 -0.5399  0.0866  0.3869
 2498TIP3   OH231688   4.940   6.403   9.695  0.1439  0.1346  0.2565
 2498TIP3    H131689   4.851   6.374   9.716  0.7491 -1.3188  0.9450
 2498TIP3    H231690   4.939   6.413   9.599 -0.5359 -0.7125  0.1509
 2499TIP3   OH231691   0.277   6.694   9.492 -0.2525 -0.0467  0.3114
 2499TIP3    H131692   0.254   6.784   9.469 -1.3111 -0.1401  0.9559
 2499TIP3    H231693   0.227   6.676   9.572 -2.9130 -2.4003 -1.6948
 2500TIP3   OH231694   1.676   0.876  10.328 -0.2445  0.0100  0.1133
 2500TIP3    H131695   1.588   0.885  10.364  0.1195  1.9544  0.6099
 2500TIP3    H231696   1.725   0.950  10.363  0.3811  1.5751 -3.6121
 2501TIP3   OH231697   2.708   2.190   9.209 -0.5417 -0.3050 -0.0907
 2501TIP3    H131698   2.620   2.206   9.176 -0.4512  1.1545  0.3247
 2501TIP3    H231699   2.764   2.199   9.132 -0.8162 -2.2398 -0.5632
 2502TIP3   OH231700   3.463   6.688   9.575 -0.0498  0.2172 -0.1025
 2502TIP3    H131701   3.531   6.722   9.516 -0.3914 -0.0659 -0.6722
 2502TIP3    H231702   3.392   6.751   9.569 -0.1312  0.1280 -0.0874
 2503TIP3   OH231703   3.568   4.598  11.680 -0.7750 -0.5481 -0.1484
 2503TIP3    H131704   3.649   4.613  11.631 -1.5914  0.3637 -1.2725
 2503TIP3    H231705   3.529   4.685  11.689 -1.7935 -1.0174  0.0856
 2504TIP3   OH231706   3.000   4.815  10.409  0.4590  0.6517  0.6926
 2504TIP3    H131707   3.087   4.833  10.373 -0.5056  1.4748 -1.3748
 2504TIP3    H231708   2.965   4.746  10.354 -0.7467  1.3642  0.5283
 2505TIP3   OH231709   1.121   4.767  10.928 -0.2759  0.3534 -0.1893
 2505TIP3    H131710   1.161   4.850  10.952 -2.3125  1.5627 -0.7284
 2505TIP3    H231711   1.066   4.744  11.002  0.2881 -0.5532 -0.0349
 2506TIP3   OH231712   6.565   2.215   9.150 -0.3196  0.4329  0.0442
 2506TIP3    H131713   6.477   2.183   9.131  0.2779 -1.0791 -0.3681
 2506TIP3    H231714   6.582   2.184   9.239  0.1804 -0.2202 -0.2696
 2507TIP3   OH231715   1.932   2.014   8.721  0.4690 -0.4682 -0.0420
 2507TIP3    H131716   1.891   2.095   8.691  0.6540 -0.7399 -1.0785
 2507TIP3    H231717   2.024   2.022   8.695  0.7578 -0.4993  0.9334
 2508TIP3   OH231718   1.578   3.084   9.343  0.4151 -0.2376  0.0114
 2508TIP3    H131719   1.665   3.124   9.351  1.1299 -1.8470  0.8119
 2508TIP3    H231720   1.565   3.074   9.249  1.7333 -1.2430 -0.0873
 2509TIP3   OH231721   5.008   4.912   9.701 -0.3252  0.0567  0.1056
 2509TIP3    H131722   4.943   4.910   9.771 -0.3074 -2.2861  0.1425
 2509TIP3    H231723   5.084   4.954   9.740 -1.2653  1.4212  0.5445
 2510TIP3   OH231724   4.927   0.288  12.100  0.0626 -0.3040 -0.1816
 2510TIP3    H131725   4.898   0.358  12.041 -0.4260  0.2444  0.6840
 2510TIP3    H231726   4.848   0.236  12.116  0.1942 -0.4617 -0.0453
 2511TIP3   OH231727   0.862   3.728  12.155  0.0851  0.0480  0.0572
 2511TIP3    H131728   0.774   3.690  12.156 -0.3681  1.0679  0.4788
 2511TIP3    H231729   0.919   3.659  12.188 -0.7333 -0.2306  0.9320
 2512TIP3   OH231730   4.443   0.804  12.000 -0.3598 -0.1024 -0.3425
 2512TIP3    H131731   4.536   0.784  12.011 -0.6881 -0.6211  2.1980
 2512TIP3    H231732   4.438   0.900  12.001  0.2247 -0.0451 -1.6265
 2513TIP3   OH231733   1.540   0.094   9.325 -0.2042  0.1039 -0.4185
 2513TIP3    H131734   1.468   0.110   9.385 -0.3142 -0.6271 -0.3545
 2513TIP3    H231735   1.505   0.118   9.239  0.0996  1.5950 -0.1646
 2514TIP3   OH231736   2.117   0.906   9.221  0.3851  0.4199 -0.3524
 2514TIP3    H131737   2.037   0.866   9.254 -0.0033  1.5459  0.1279
 2514TIP3    H231738   2.181   0.835   9.220 -0.2318 -0.1702  0.6045
 2515TIP3   OH231739   5.065   2.798  11.426  0.0431  0.4297  0.0447
 2515TIP3    H131740   5.014   2.762  11.499 -1.7567 -0.4863 -1.5721
 2515TIP3    H231741   5.128   2.730  11.404 -0.2776  0.1741 -0.0807
 2516TIP3   OH231742   1.986   0.147  10.679  0.1877 -0.0993  0.3721
 2516TIP3    H131743   2.018   0.231  10.712  1.0511 -0.8559  1.5635
 2516TIP3    H231744   1.956   0.165  10.591  0.8738  1.3506  0.4109
 2517TIP3   OH231745   1.634   3.241  10.206 -0.0364  0.0178  0.2490
 2517TIP3    H131746   1.608   3.148  10.204  2.1126 -0.6434 -1.0552
 2517TIP3    H231747   1.730   3.238  10.203  0.0505  2.3002 -0.8727
 2518TIP3   OH231748   1.535   5.499  11.994 -0.1505  0.0397  0.3569
 2518TIP3    H131749   1.496   5.538  11.916  0.1115  2.2155  1.2447
 2518TIP3    H231750   1.495   5.412  12.000  0.0947 -0.3654 -2.3616
 2519TIP3   OH231751   4.292   5.616   9.820  0.0872 -0.1408 -0.2994
 2519TIP3    H131752   4.383   5.641   9.811 -0.0526 -0.0493 -1.6173
 2519TIP3    H231753   4.260   5.667   9.894  0.6643  1.1211 -0.8834
 2520TIP3   OH231754   5.954   0.147   9.125  0.3860 -0.1866  0.5140
 2520TIP3    H131755   5.935   0.140   9.032  1.1039  1.2059  0.2363
 2520TIP3    H231756   6.011   0.224   9.133  0.2981 -0.2404  2.1019
 2521TIP3   OH231757   2.217   5.543  11.724  0.4933  0.0418 -0.8558
 2521TIP3    H131758   2.173   5.480  11.781 -0.4469 -0.1620 -1.7835
 2521TIP3    H231759   2.310   5.522  11.734  0.4085  0.3738  1.0003
 2522TIP3   OH231760   5.576   0.856  11.308  0.5055  0.5382 -0.4104
 2522TIP3    H131761   5.539   0.862  11.396 -2.4640  0.3711 -1.5205
 2522TIP3    H231762   5.618   0.770  11.305 -0.6205 -0.0795  0.4590
 2523TIP3   OH231763   0.659   0.573  11.644  0.2284  0.2521  0.1459
 2523TIP3    H131764   0.747   0.560  11.680  1.4306  0.9598 -2.3470
 2523TIP3    H231765   0.674   0.618  11.561 -2.5378  0.6535 -0.1985
 2524TIP3   OH231766   0.059   6.191  10.832  0.3011 -0.0669 -0.3455
 2524TIP3    H131767   0.116   6.202  10.756  0.9303  0.6476  0.2132
 2524TIP3    H231768   0.114   6.216  10.907 -0.5184 -0.0917  0.2752
 2525TIP3   OH231769   0.782   5.744  11.401 -0.1996  0.4588  0.2867
 2525TIP3    H131770   0.711   5.751  11.338  1.7639  2.4571 -1.8760
 2525TIP3    H231771   0.805   5.651  11.401 -2.2691 -0.0923  0.4934
 2526TIP3   OH231772   5.155   3.318  10.278 -0.4549 -0.0079  0.4098
 2526TIP3    H131773   5.233   3.265  10.294 -0.3144 -0.2274 -0.9212
 2526TIP3    H231774   5.190   3.402  10.247 -0.7469 -0.2925 -0.7139
 2527TIP3   OH231775   6.478   5.569  11.260  0.3231 -0.5174  0.0344
 2527TIP3    H131776   6.509   5.568  11.170 -0.9214 -3.4043 -0.4795
 2527TIP3    H231777   6.537   5.509  11.307 -0.2288 -0.5866  0.6658
 2528TIP3   OH231778   0.214   4.576  11.288 -0.0006  0.6573  0.3172
 2528TIP3    H131779   0.176   4.564  11.201 -2.1026  0.8940  1.1677
 2528TIP3    H231780   0.159   4.641  11.331  1.4724  1.1389  1.5850
 2529TIP3   OH231781   4.383   5.062   8.757 -0.1465  0.1988 -0.1127
 2529TIP3    H131782   4.452   5.073   8.693 -0.8936  0.0910 -0.9558
 2529TIP3    H231783   4.408   4.984   8.807  0.7353  0.6238  0.1367
 2530TIP3   OH231784   5.849   1.385   9.284  0.1474  0.1448  0.5352
 2530TIP3    H131785   5.900   1.379   9.203 -1.0260  1.6384 -0.3692
 2530TIP3    H231786   5.774   1.441   9.261  0.5486  1.8604  3.0327
 2531TIP3   OH231787   5.923   6.097  12.076 -0.8064 -0.1258  0.8051
 2531TIP3    H131788   5.865   6.169  12.099  1.9720  2.3892  0.4964
 2531TIP3    H231789   6.012   6.132  12.088  0.7020 -3.0186 -0.7896
 2532TIP3   OH231790   4.698   0.639  11.767 -0.6798  0.0928 -0.1714
 2532TIP3    H131791   4.736   0.727  11.773 -1.5126  0.6042 -1.9735
 2532TIP3    H231792   4.654   0.627  11.851  1.7348  0.2556  1.2109
 2533TIP3   OH231793   1.821   0.515  11.693  0.6385 -0.5557 -0.3020
 2533TIP3    H131794   1.891   0.467  11.649  2.5429 -0.3100  2.2265
 2533TIP3    H231795   1.804   0.464  11.773  2.5939  2.6641  2.3952
 2534TIP3   OH231796   1.017   3.858  11.405  0.2611 -0.5819  0.0397
 2534TIP3    H131797   1.102   3.816  11.387  0.6039 -0.1678  0.6714
 2534TIP3    H231798   0.964   3.838  11.327  1.2483 -0.0228 -0.8034
 2535TIP3   OH231799   3.451   0.282  10.941  0.2326 -0.5898  0.3673
 2535TIP3    H131800   3.362   0.283  10.908  0.6652 -0.1953 -0.8478
 2535TIP3    H231801   3.478   0.374  10.944  0.3230 -0.6376  1.5383
 2536TIP3   OH231802   0.359   5.795   8.474  0.2684 -0.2822 -0.2737
 2536TIP3    H131803   0.320   5.708   8.467 -2.5477  0.8913 -0.4595
 2536TIP3    H231804   0.292   5.855   8.441  1.8696  2.0443  0.3710
 2537TIP3   OH231805   4.745   3.580  10.631  0.2060  0.2991 -0.0919
 2537TIP3    H131806   4.747   3.486  10.649 -1.0337  0.5122  1.3667
 2537TIP3    H231807   4.653   3.604  10.641  0.6979  1.9074  0.9293
 2538TIP3   OH231808   6.294   3.776   9.385 -0.1399 -0.3599  0.8675
 2538TIP3    H131809   6.235   3.769   9.310 -0.0889 -1.2660  0.8977
 2538TIP3    H231810   6.292   3.868   9.409 -0.4624 -0.1346 -0.0044
 2539TIP3   OH231811   5.916   1.238   9.550  0.2266  0.7004  0.0008
 2539TIP3    H131812   5.938   1.299   9.620  0.5843  0.4979  0.0710
 2539TIP3    H231813   5.910   1.292   9.471 -0.4267  0.9667  0.2281
 2540TIP3   OH231814   4.404   5.238  11.866 -0.5280  0.1680 -0.0746
 2540TIP3    H131815   4.391   5.223  11.772 -0.6662 -0.3164  0.0182
 2540TIP3    H231816   4.346   5.174  11.908  2.7643 -2.8092  0.3825
 2541TIP3   OH231817   2.639   2.752  10.974  0.2378  0.2207  0.2867
 2541TIP3    H131818   2.563   2.699  10.999 -0.7780  1.5097  0.0392
 2541TIP3    H231819   2.607   2.842  10.975  1.7223  0.7873 -0.0285
 2542TIP3   OH231820   1.358   3.869  11.121  0.7571  0.4106 -0.3945
 2542TIP3    H131821   1.450   3.865  11.098  0.3949  0.7626 -1.9877
 2542TIP3    H231822   1.312   3.829  11.047 -0.5861  3.2812 -1.2696
 2543TIP3   OH231823   6.047   1.561  10.754 -0.5096 -0.4505  0.4982
 2543TIP3    H131824   6.047   1.485  10.812 -4.4717 -1.5173 -0.5891
 2543TIP3    H231825   6.134   1.600  10.765  1.3747 -4.4954  1.9108
 2544TIP3   OH231826   3.727   4.889  11.076 -0.1760  0.2153 -0.0674
 2544TIP3    H131827   3.754   4.817  11.134  0.7510  1.3950  1.0159
 2544TIP3    H231828   3.711   4.963  11.134  0.0245  1.2275 -1.2451
 2545TIP3   OH231829   0.780   5.638  11.867 -0.3079  0.4592 -0.0090
 2545TIP3    H131830   0.846   5.704  11.886 -1.4816  1.8411 -0.5610
 2545TIP3    H231831   0.828   5.568  11.822  0.7421  1.5570 -0.6416
 2546TIP3   OH231832   3.343   6.019  12.309  0.3852  0.1546  0.0087
 2546TIP3    H131833   3.355   6.043  12.401 -2.0923 -0.7878  0.6525
 2546TIP3    H231834   3.319   6.101  12.265 -2.8273 -0.0641  1.1506
 2547TIP3   OH231835   4.193   1.171   9.619  0.0056 -0.7740  0.6517
 2547TIP3    H131836   4.147   1.194   9.700  0.9140 -0.0540  0.9768
 2547TIP3    H231837   4.135   1.107   9.577 -1.2852  0.0767  1.0532
 2548TIP3   OH231838   1.296   1.544  11.296  0.8864 -0.3578  0.1545
 2548TIP3    H131839   1.224   1.601  11.269  1.4185  0.0977 -0.3132
 2548TIP3    H231840   1.280   1.529  11.390  0.9469  0.8783  0.3799
 2549TIP3   OH231841   5.564   6.015  11.103  0.3307  0.0279  0.0626
 2549TIP3    H131842   5.537   5.935  11.148  2.3329  0.8458  2.9839
 2549TIP3    H231843   5.492   6.076  11.117 -0.8680 -0.9672 -1.5176
 2550TIP3   OH231844   0.923   1.301  10.200  0.2217 -0.4986 -0.7067
 2550TIP3    H131845   0.929   1.241  10.274 -1.1606  0.4426  0.2016
 2550TIP3    H231846   0.885   1.381  10.236 -0.5175 -0.0188 -2.4262
 2551TIP3   OH231847   6.518   1.500  10.732 -0.1007  0.0388 -0.2264
 2551TIP3    H131848   6.515   1.409  10.761  0.7148 -0.3419 -1.2660
 2551TIP3    H231849   6.582   1.500  10.661  2.3973  2.0083  1.8422
 2552TIP3   OH231850   0.864   6.092  11.213  0.1162 -0.1936 -0.3793
 2552TIP3    H131851   0.907   6.083  11.127  2.0343  0.4950  0.4575
 2552TIP3    H231852   0.936   6.090  11.276 -1.2897 -1.3205  1.3016
 2553TIP3   OH231853   3.991   5.466  11.433 -1.0448  0.3536  0.5221
 2553TIP3    H131854   4.001   5.372  11.450  1.5325  0.7078  1.5214
 2553TIP3    H231855   4.044   5.482  11.355  0.0589  1.2034  1.3991
 2554TIP3   OH231856   2.776   5.552  11.322 -0.1752 -0.1311 -0.6717
 2554TIP3    H131857   2.779   5.499  11.242  0.7756  1.2428 -1.5971
 2554TIP3    H231858   2.868   5.577  11.337 -0.4857  0.4971  0.2755
 2555TIP3   OH231859   3.986   1.990  12.084 -0.3311 -0.4941  0.4657
 2555TIP3    H131860   3.976   1.904  12.123 -1.8932 -0.2205  0.7177
 2555TIP3    H231861   3.944   1.983  11.998 -1.3318  0.2691  0.8819
 2556TIP3   OH231862   4.458   3.083  11.723 -0.1250  0.2315 -0.0687
 2556TIP3    H131863   4.436   3.071  11.630  0.9835  0.1928 -0.3410
 2556TIP3    H231864   4.453   3.178  11.737  1.0166  0.3836 -0.5354
 2557TIP3   OH231865   5.811   6.609  11.599  0.5208  0.1455 -0.2802
 2557TIP3    H131866   5.849   6.645  11.519  0.9287  2.0655  0.7197
 2557TIP3    H231867   5.744   6.673  11.624  1.1572  0.1633  1.4823
 2558TIP3   OH231868   1.024   0.056  11.902  0.5107  0.6401 -0.7752
 2558TIP3    H131869   1.088  -0.013  11.884  0.7760  0.2410  1.4058
 2558TIP3    H231870   0.954   0.042  11.838  0.5388 -1.7013 -0.3696
 2559TIP3   OH231871   1.827   2.847   8.631  0.3086 -0.0194 -0.2624
 2559TIP3    H131872   1.735   2.867   8.647 -0.1255 -0.9157 -1.4625
 2559TIP3    H231873   1.831   2.829   8.537  1.4073 -1.5062  0.0349
 2560TIP3   OH231874   2.268   1.296  11.361  0.1656  0.8736 -0.1470
 2560TIP3    H131875   2.187   1.261  11.400  0.8329  0.7422  1.2013
 2560TIP3    H231876   2.319   1.218  11.338  0.7405  0.9318  0.8689
 2561TIP3   OH231877   4.649   2.741   9.893  0.8009  0.2781 -0.4868
 2561TIP3    H131878   4.716   2.695   9.843  0.6668  0.5021 -0.8727
 2561TIP3    H231879   4.605   2.672   9.943  0.6138 -0.0125 -1.0477
 2562TIP3   OH231880   1.160   3.687   9.514 -0.5029 -0.2436 -0.1293
 2562TIP3    H131881   1.244   3.685   9.469 -0.3099 -0.4043  0.2319
 2562TIP3    H231882   1.122   3.771   9.490  0.7040  0.7986  1.4022
 2563TIP3   OH231883   1.746   5.281  10.535  0.0130 -0.0897 -0.2505
 2563TIP3    H131884   1.785   5.251  10.617 -0.8001 -0.1117  0.1420
 2563TIP3    H231885   1.658   5.243  10.536 -0.0093 -0.0747 -1.1278
 2564TIP3   OH231886   4.087   4.146   8.872 -0.4650 -0.1210 -0.0247
 2564TIP3    H131887   4.032   4.209   8.917 -1.3942 -0.3608 -0.7857
 2564TIP3    H231888   4.048   4.061   8.891  0.7452 -0.4917  0.9521
 2565TIP3   OH231889   2.380   2.921  10.539 -0.8363 -0.4518 -1.1837
 2565TIP3    H131890   2.338   2.966  10.612 -0.0075  0.1400 -1.0678
 2565TIP3    H231891   2.432   2.851  10.579  0.0346  0.2005 -1.1583
 2566TIP3   OH231892   4.854   1.140  11.824 -0.3879  0.1744  0.3260
 2566TIP3    H131893   4.786   1.153  11.758 -0.9990 -0.5309  0.8012
 2566TIP3    H231894   4.919   1.208  11.806 -0.4385 -0.1374 -1.1350
 2567TIP3   OH231895   2.630   5.104  10.080  0.0379  0.2329  0.1896
 2567TIP3    H131896   2.546   5.092  10.035  1.1333 -0.5727 -1.7770
 2567TIP3    H231897   2.618   5.062  10.165 -1.9212  1.2220  0.4511
 2568TIP3   OH231898   4.484   3.616  10.714  0.6962 -0.1116  0.0620
 2568TIP3    H131899   4.478   3.663  10.798 -2.3935 -0.7176  0.2748
 2568TIP3    H231900   4.451   3.678  10.650  0.3329 -0.6344 -0.2607
 2569TIP3   OH231901   3.903   5.868   9.678 -0.4242 -0.0578  0.2837
 2569TIP3    H131902   3.835   5.841   9.740 -0.3348 -1.0749 -0.0462
 2569TIP3    H231903   3.948   5.787   9.655  0.9008  0.5997  0.4737
 2570TIP3   OH231904   2.143   2.140  12.028  0.1120  0.3123 -0.0198
 2570TIP3    H131905   2.069   2.153  11.970  0.2317  1.1233  0.0059
 2570TIP3    H231906   2.109   2.084  12.098 -1.0467  2.2877  1.0656
 2571TIP3   OH231907   6.457   3.518  12.033 -0.5259  0.0949 -0.0724
 2571TIP3    H131908   6.386   3.568  11.993 -2.5061 -0.0029  3.0038
 2571TIP3    H231909   6.423   3.429  12.040 -1.0940  0.4281  3.2074
 2572TIP3   OH231910   4.054   5.273   9.520  0.1378 -0.0758  0.1649
 2572TIP3    H131911   4.060   5.180   9.545 -0.4233  0.3556  1.9911
 2572TIP3    H231912   4.122   5.316   9.572  0.6945  0.5011 -1.0064
 2573TIP3   OH231913   1.284   5.006  10.406 -0.1763  0.0820  0.4541
 2573TIP3    H131914   1.310   4.920  10.374 -0.9754 -0.2621  0.6959
 2573TIP3    H231915   1.224   4.987  10.479 -0.0557  0.8429  0.7594
 2574TIP3   OH231916   1.687   6.533   9.454 -0.4854  0.2784  1.0734
 2574TIP3    H131917   1.694   6.627   9.464 -0.5316  0.1994  1.8816
 2574TIP3    H231918   1.777   6.501   9.456 -0.5164  0.2262  1.5975
 2575TIP3   OH231919   0.788   3.559  10.596  0.3246  0.2817  0.2717
 2575TIP3    H131920   0.718   3.552  10.531  0.1957  2.0222  0.1907
 2575TIP3    H231921   0.768   3.491  10.661 -0.3349 -0.5257 -0.7454
 2576TIP3   OH231922   1.402   1.303  10.603  0.3928 -0.1856  0.7450
 2576TIP3    H131923   1.352   1.325  10.682 -1.6958 -0.7413 -0.3736
 2576TIP3    H231924   1.368   1.219  10.575  0.1904  0.5704 -1.4498
 2577TIP3   OH231925   0.524   0.326   8.915 -0.0935  0.3603 -0.5723
 2577TIP3    H131926   0.486   0.388   8.853 -1.7614  0.6064  0.6429
 2577TIP3    H231927   0.454   0.307   8.977  1.9441  1.4123  2.2662
 2578TIP3   OH231928   5.650   2.275  12.267 -0.7325  0.0543  0.1248
 2578TIP3    H131929   5.566   2.284  12.221 -0.4881  0.6830 -0.2122
 2578TIP3    H231930   5.683   2.364  12.274 -0.1269 -0.1819  0.3318
 2579TIP3   OH231931   3.439   3.102  11.633 -0.1332  0.1219 -0.3050
 2579TIP3    H131932   3.475   3.190  11.649 -0.4591  0.4155 -1.1220
 2579TIP3    H231933   3.487   3.046  11.693  1.1996  0.6185 -0.8600
 2580TIP3   OH231934   5.776   2.809  11.468  0.6122 -0.2495 -0.5387
 2580TIP3    H131935   5.807   2.899  11.461  1.2260 -0.5210 -1.6378
 2580TIP3    H231936   5.695   2.808  11.417  0.5563 -0.3001 -0.4492
 2581TIP3   OH231937   0.871   4.733  12.339  0.3336  0.0793 -1.0196
 2581TIP3    H131938   0.780   4.763  12.336  1.0773  2.5594 -1.6341
 2581TIP3    H231939   0.896   4.740  12.431 -0.9545 -3.8273 -0.2080
 2582TIP3   OH231940   4.268   4.693   9.335  0.1379 -0.3269 -0.5382
 2582TIP3    H131941   4.250   4.690   9.242 -1.0450  1.0319 -0.3949
 2582TIP3    H231942   4.362   4.708   9.341 -0.1102  2.2132 -1.6292
 2583TIP3   OH231943   2.480   3.124  10.982  0.1192  0.0587  0.2398
 2583TIP3    H131944   2.485   3.117  10.887 -0.5719 -0.1483  0.2195
 2583TIP3    H231945   2.405   3.182  10.998  0.4048  0.3222  0.6526
 2584TIP3   OH231946   1.021   5.843  11.258  0.1096 -0.0378 -0.1763
 2584TIP3    H131947   1.015   5.758  11.215  0.2155 -0.0795 -0.1086
 2584TIP3    H231948   0.930   5.867  11.277  0.0343  0.1364 -0.7243
 2585TIP3   OH231949   5.948   4.763   9.652  0.1089 -0.2970 -0.1678
 2585TIP3    H131950   5.896   4.684   9.639  1.0826 -1.2078  1.2365
 2585TIP3    H231951   6.001   4.745   9.730 -0.3854  2.1301  0.8409
 2586TIP3   OH231952   0.762   5.673  10.510  0.0836 -0.2368  0.4368
 2586TIP3    H131953   0.773   5.746  10.449  0.4163 -0.1515  0.5998
 2586TIP3    H231954   0.704   5.612  10.464  0.2543 -0.1266  0.0731
 2587TIP3   OH231955   3.644   1.001   9.148  0.0447  0.3369  0.2738
 2587TIP3    H131956   3.647   1.088   9.189 -1.1575  0.3281  0.4077
 2587TIP3    H231957   3.552   0.989   9.125  0.7363  0.6248 -3.0956
 2588TIP3   OH231958   3.376   5.325  12.180 -0.1380 -0.0899 -0.4888
 2588TIP3    H131959   3.318   5.392  12.218  0.7121 -0.2970  1.3070
 2588TIP3    H231960   3.404   5.273  12.256  1.8063 -0.4438 -1.4051
 2589TIP3   OH231961   0.485   4.240  10.480 -0.1161  0.0142 -0.2861
 2589TIP3    H131962   0.528   4.238  10.565 -1.3836 -0.5784  0.3723
 2589TIP3    H231963   0.547   4.197  10.420 -0.1762 -1.7671  0.8457
 2590TIP3   OH231964   5.365   2.357   9.368  0.0529  0.4039 -0.3842
 2590TIP3    H131965   5.298   2.418   9.399 -1.3091 -1.0110 -0.3997
 2590TIP3    H231966   5.448   2.403   9.382 -0.8284  1.7153  0.8344
 2591TIP3   OH231967   5.236   6.126  10.789 -0.2915  0.2570  0.2369
 2591TIP3    H131968   5.186   6.128  10.871 -1.4117  2.4542 -0.4149
 2591TIP3    H231969   5.226   6.037  10.757 -1.0230 -0.2512  1.7780
 2592TIP3   OH231970   0.789   0.760   9.195 -0.2253 -0.6248 -0.4733
 2592TIP3    H131971   0.707   0.806   9.217  0.8382  0.0489  2.5244
 2592TIP3    H231972   0.760   0.677   9.158 -2.2150  0.5419 -1.7461
 2593TIP3   OH231973   1.890   0.757   9.876 -0.3649  0.3340  0.1324
 2593TIP3    H131974   1.808   0.732   9.919 -0.7966 -1.7112 -1.6606
 2593TIP3    H231975   1.959   0.715   9.928 -0.7550 -0.7571 -0.2042
 2594TIP3   OH231976   1.497   3.237  11.685  0.3377 -0.1208  0.5197
 2594TIP3    H131977   1.516   3.330  11.697  2.7506 -0.2705 -1.1916
 2594TIP3    H231978   1.500   3.200  11.773  0.1111  1.2869  1.1506
 2595TIP3   OH231979   4.695   0.713  12.043 -0.0963 -0.7259  0.2919
 2595TIP3    H131980   4.747   0.772  11.989 -0.5681 -0.2697  0.3255
 2595TIP3    H231981   4.753   0.687  12.114  0.3799 -0.9626 -0.1734
 2596TIP3   OH231982   6.276   4.791  11.995  0.7555 -0.6499 -0.1571
 2596TIP3    H131983   6.267   4.715  12.051  0.0779 -0.1555  0.4240
 2596TIP3    H231984   6.232   4.767  11.914  0.7805 -0.9752 -0.0728
 2597TIP3   OH231985   2.156   0.376  10.206  0.0355  0.0475 -0.9777
 2597TIP3    H131986   2.215   0.431  10.258  0.2589  1.6977 -2.8478
 2597TIP3    H231987   2.213   0.313  10.164 -0.0237 -0.6422 -0.0633
 2598TIP3   OH231988   2.293   0.537   9.420 -0.4580  0.3192 -0.6162
 2598TIP3    H131989   2.343   0.564   9.497 -1.2980  0.4046 -0.0824
 2598TIP3    H231990   2.263   0.619   9.381 -3.5260  0.2797  1.3499
 2599TIP3   OH231991   3.812   1.646  12.344 -0.1108  0.2562 -0.1943
 2599TIP3    H131992   3.748   1.713  12.321 -0.4536 -0.0279 -0.0880
 2599TIP3    H231993   3.812   1.645  12.440 -1.0866 -0.7930 -0.1791
 2600TIP3   OH231994   5.567   5.741  10.655  0.1657 -0.6551 -0.4039
 2600TIP3    H131995   5.575   5.778  10.743 -0.4669 -2.8646  0.6776
 2600TIP3    H231996   5.473   5.726  10.644  0.3789 -1.9097 -0.7460
 2601TIP3   OH231997   2.132   1.688  11.597 -0.3765  0.8177  0.4797
 2601TIP3    H131998   2.179   1.769  11.615 -0.9440  0.8120  2.0870
 2601TIP3    H231999   2.138   1.679  11.502  3.2585  0.5672  0.5723
 2602TIP3   OH232000   0.800   0.620  10.846 -0.3439 -0.4342 -0.0908
 2602TIP3    H132001   0.799   0.636  10.940 -0.6159 -1.1758  0.0378
 2602TIP3    H232002   0.771   0.529  10.836 -0.1934 -0.4082 -0.8799
 2603TIP3   OH232003   0.660   2.017  10.680 -0.4360 -0.1769  0.0237
 2603TIP3    H132004   0.739   2.039  10.729 -0.2850  1.3510 -0.8393
 2603TIP3    H232005   0.690   1.955  10.613  0.4114  1.5415 -1.2774
 2604TIP3   OH232006   5.403   1.811  10.980 -0.2894  0.2810 -0.5319
 2604TIP3    H132007   5.333   1.821  11.045 -0.9654 -1.3921 -0.9466
 2604TIP3    H232008   5.393   1.887  10.922 -1.2147  0.5234 -0.0723
 2605TIP3   OH232009   0.408   4.382  11.253 -0.5631 -0.0403 -0.1972
 2605TIP3    H132010   0.473   4.437  11.210 -1.8481 -0.0539 -2.3056
 2605TIP3    H232011   0.325   4.426  11.237 -1.1294  0.0806  2.6048
 2606TIP3   OH232012   2.166   1.296   9.559  0.3075  0.8613  0.7978
 2606TIP3    H132013   2.189   1.287   9.651  0.5682 -0.5378  0.6098
 2606TIP3    H232014   2.218   1.229   9.514 -3.1832 -1.7077  0.2131
 2607TIP3   OH232015   6.475   1.379   9.723 -0.1114 -0.0545 -0.2144
 2607TIP3    H132016   6.460   1.407   9.633 -0.0631 -0.5700 -0.3899
 2607TIP3    H232017   6.445   1.452   9.777  3.3165  1.9185 -0.6747
 2608TIP3   OH232018   0.060   3.046   9.848  0.0738 -0.5849  0.0044
 2608TIP3    H132019   0.109   2.973   9.885  0.1051 -0.1721  0.8029
 2608TIP3    H232020  -0.004   3.005   9.791 -0.7463 -1.3414  1.3953
 2609TIP3   OH232021   1.775   0.070  10.440  0.0188 -0.3297  0.0545
 2609TIP3    H132022   1.865   0.093  10.417 -0.3523 -0.1174 -1.2640
 2609TIP3    H232023   1.737   0.036  10.359 -0.8894 -1.0772  0.7600
 2610TIP3   OH232024   2.489   0.772  11.083  0.4990  0.3524  0.1076
 2610TIP3    H132025   2.400   0.805  11.089  0.6667  0.5711  2.1649
 2610TIP3    H232026   2.479   0.678  11.067 -0.1216  0.2879  0.8330
 2611TIP3   OH232027   0.719   0.297  11.953 -0.0909 -0.0324  0.4098
 2611TIP3    H132028   0.799   0.340  11.984  0.0507 -1.0080  1.4641
 2611TIP3    H232029   0.721   0.308  11.858  0.2164  1.7714  0.5922
 2612TIP3   OH232030   3.305   2.596  11.997 -0.3297 -0.4431 -0.7352
 2612TIP3    H132031   3.395   2.565  11.986 -0.8795 -2.3543 -0.2654
 2612TIP3    H232032   3.300   2.676  11.945  2.3545  1.2087  1.2655
 2613TIP3   OH232033   3.686   5.002  11.974 -0.0254 -0.6057  0.3567
 2613TIP3    H132034   3.741   4.972  11.902  1.0333  0.5713  0.6366
 2613TIP3    H232035   3.693   5.097  11.971 -1.4315 -0.4578  0.9041
 2614TIP3   OH232036   1.271   2.918  10.072 -0.2444  0.0629  0.4385
 2614TIP3    H132037   1.234   2.869  10.145 -2.6850 -1.3607 -1.5760
 2614TIP3    H232038   1.306   2.851  10.013  2.9210  1.2423  0.8147
 2615TIP3   OH232039   4.468   1.750  10.231  0.3076  0.6545 -0.2190
 2615TIP3    H132040   4.479   1.815  10.300 -1.9056  0.3783  0.4827
 2615TIP3    H232041   4.550   1.752  10.182  1.9859  0.8378  2.4047
 2616TIP3   OH232042   0.639   1.716  10.700 -0.3152 -0.7336 -0.0564
 2616TIP3    H132043   0.616   1.807  10.720 -0.2118 -1.0487  1.6160
 2616TIP3    H232044   0.580   1.691  10.629 -0.8873  0.3824  0.0122
 2617TIP3   OH232045   1.852   0.665   8.930  0.5594 -0.5164  0.0134
 2617TIP3    H132046   1.888   0.733   8.874  1.5705 -2.1696 -1.4322
 2617TIP3    H232047   1.776   0.706   8.971  0.9992  1.3957 -0.9605
 2618TIP3   OH232048   2.373   2.954  11.498 -0.1156  0.3476 -0.0873
 2618TIP3    H132049   2.301   2.963  11.436  0.3696  3.3207 -0.3669
 2618TIP3    H232050   2.449   2.937  11.443 -0.0852  0.5353 -0.1053
 2619TIP3   OH232051   2.848   0.091   8.703  0.3926 -0.1418 -0.3831
 2619TIP3    H132052   2.767   0.132   8.672  0.8501  0.7832 -0.3871
 2619TIP3    H232053   2.908   0.096   8.628  1.5221  2.1455  0.5735
 2620TIP3   OH232054   2.180   2.146  11.246  0.4719  0.0200  0.2424
 2620TIP3    H132055   2.210   2.136  11.155 -0.4324 -0.8885  0.0317
 2620TIP3    H232056   2.164   2.240  11.255 -1.3214 -0.0978 -1.1829
 2621TIP3   OH232057   2.353   3.634   9.537  0.1930  0.9819 -0.2069
 2621TIP3    H132058   2.367   3.702   9.471 -0.7330  0.5113 -0.9140
 2621TIP3    H232059   2.258   3.623   9.541  0.3028 -2.4406 -2.4482
 2622TIP3   OH232060   3.632   1.799  10.543 -0.3271  0.2775  0.6499
 2622TIP3    H132061   3.555   1.746  10.561  0.3792 -0.0950  2.7741
 2622TIP3    H232062   3.686   1.792  10.621  0.9266  2.1852  0.0396
 2623TIP3   OH232063   6.468   3.603  10.961  0.1071 -0.2781 -0.4428
 2623TIP3    H132064   6.524   3.588  11.037  1.0900 -1.4927 -1.3684
 2623TIP3    H232065   6.419   3.521  10.951  0.9799 -0.6520 -1.9056
 2624TIP3   OH232066   3.194   6.221   8.942  0.4376 -0.6200  0.1267
 2624TIP3    H132067   3.285   6.202   8.920  0.1539 -1.0778 -0.6979
 2624TIP3    H232068   3.150   6.225   8.857 -0.2556 -0.1173  0.5066
 2625TIP3   OH232069   5.053   3.678   9.374  0.1109 -0.2226 -0.5396
 2625TIP3    H132070   5.101   3.704   9.453  1.0061  1.2002 -1.5095
 2625TIP3    H232071   4.961   3.676   9.402  0.3269  1.0586  0.3601
 2626TIP3   OH232072   2.110   4.258  12.256 -0.4963  0.1683 -0.0839
 2626TIP3    H132073   2.101   4.302  12.171 -2.3659  1.8289  0.8837
 2626TIP3    H232074   2.057   4.178  12.247 -1.6967  0.9418 -0.1355
 2627TIP3   OH232075   0.741   6.339   8.271  0.0409 -0.0759  0.4785
 2627TIP3    H132076   0.647   6.355   8.270  0.2368  1.3075 -1.0359
 2627TIP3    H232077   0.750   6.244   8.277 -1.4769 -0.2694  0.0389
 2628TIP3   OH232078   6.517   5.943   9.815  0.0343 -0.1969  0.2181
 2628TIP3    H132079   6.581   5.895   9.763  1.1915  0.5175  0.9329
 2628TIP3    H232080   6.507   6.026   9.768 -0.6934 -0.4610 -0.1091
 2629TIP3   OH232081   4.370   5.141  10.437 -0.0883  0.1564 -0.6103
 2629TIP3    H132082   4.300   5.199  10.465  0.4154  1.1178 -1.2911
 2629TIP3    H232083   4.429   5.196  10.385  1.1983 -0.6078 -0.0284
 2630TIP3   OH232084   0.592   5.580   8.740 -0.1649 -0.1254  0.0240
 2630TIP3    H132085   0.529   5.609   8.806 -0.3340  1.3793 -0.7458
 2630TIP3    H232086   0.564   5.492   8.716 -0.5545 -0.3874  1.3948
 2631TIP3   OH232087   2.552   2.759   9.090  0.4767 -0.6120  0.2473
 2631TIP3    H132088   2.478   2.766   9.150  0.8111 -0.6528  0.6682
 2631TIP3    H232089   2.531   2.818   9.018 -0.4233 -1.3503 -0.1150
 2632TIP3   OH232090   6.614   2.695  11.639 -0.1304 -0.6622 -0.5715
 2632TIP3    H132091   6.679   2.648  11.692  0.3057 -0.9667 -1.3507
 2632TIP3    H232092   6.591   2.633  11.570  1.1682  0.5891 -2.2020
 2633TIP3   OH232093   0.369   6.135   9.109  0.4238 -0.1583 -0.3336
 2633TIP3    H132094   0.286   6.183   9.111 -0.4952 -1.4661 -2.7166
 2633TIP3    H232095   0.429   6.192   9.061  0.0723 -0.3555 -1.0103
 2634TIP3   OH232096   2.282   1.057  10.037 -0.5134 -0.2882  0.1551
 2634TIP3    H132097   2.282   1.130  10.099 -1.4114  0.0992 -0.2906
 2634TIP3    H232098   2.223   1.084   9.967  0.6707 -0.6215 -1.0146
 2635TIP3   OH232099   0.231   4.960  10.839 -0.5577  0.0717 -0.0356
 2635TIP3    H132100   0.218   4.907  10.918 -0.7874 -0.7819 -0.6338
 2635TIP3    H232101   0.185   5.042  10.858 -2.4572 -0.9119 -0.0677
 2636TIP3   OH232102   4.007   1.394   9.105 -0.4368  0.1713 -0.5107
 2636TIP3    H132103   4.023   1.316   9.157  0.6245  0.7908  0.1244
 2636TIP3    H232104   4.081   1.399   9.044  0.9323  2.0234  1.1648
 2637TIP3   OH232105   5.727   5.580  11.572 -0.4253 -0.0863 -0.7071
 2637TIP3    H132106   5.768   5.617  11.494  1.4119  0.4500  0.4431
 2637TIP3    H232107   5.671   5.650  11.605 -0.2081  0.1552 -0.8466
 2638TIP3   OH232108   0.285   3.209  12.034  0.4160 -0.2600 -0.3511
 2638TIP3    H132109   0.327   3.130  12.066  1.9900  0.7029  0.0859
 2638TIP3    H232110   0.256   3.187  11.945  0.0120 -1.5756  0.0887
 2639TIP3   OH232111   6.163   1.823  10.927  0.1319  0.2055 -0.3686
 2639TIP3    H132112   6.217   1.806  11.005 -1.1164 -1.0171  0.2718
 2639TIP3    H232113   6.216   1.791  10.854  0.0872 -1.4754  0.2975
 2640TIP3   OH232114   6.198   0.927  11.318 -0.7632 -0.1601 -0.7386
 2640TIP3    H132115   6.288   0.940  11.348 -0.4137 -0.6128 -1.5756
 2640TIP3    H232116   6.175   1.009  11.274 -1.7355  1.0391  1.7828
 2641TIP3   OH232117   0.587   5.920   9.104  0.0282  0.0830  0.6112
 2641TIP3    H132118   0.520   5.984   9.128  2.1421  2.5377  0.4127
 2641TIP3    H232119   0.567   5.843   9.159 -1.8972  1.3473  1.8060
 2642TIP3   OH232120   0.942   0.431  12.061 -0.3662 -0.0038 -0.5827
 2642TIP3    H132121   0.976   0.365  12.121  0.2426  0.5861 -0.2545
 2642TIP3    H232122   0.877   0.478  12.111  1.3117  1.5806  0.2389
 2643TIP3   OH232123   1.636   2.082  10.444 -0.1798  0.1345  0.2717
 2643TIP3    H132124   1.711   2.128  10.408  0.8428 -2.7192 -1.6347
 2643TIP3    H232125   1.672   2.000  10.479 -2.2165 -0.6769  0.6538
 2644TIP3   OH232126   1.731   2.295  11.894 -0.1355  0.2424 -0.0113
 2644TIP3    H132127   1.700   2.382  11.867  0.0873  0.1290 -0.6631
 2644TIP3    H232128   1.818   2.288  11.855 -0.0232 -0.1476  0.3097
 2645TIP3   OH232129   0.252   5.183  10.308 -0.3893 -0.1629 -0.1899
 2645TIP3    H132130   0.325   5.142  10.355 -0.9905 -0.1919  0.7418
 2645TIP3    H232131   0.175   5.137  10.339 -0.8887  0.4215 -0.5452
 2646TIP3   OH232132   4.120   2.211   9.781 -0.1505 -0.4161 -0.5216
 2646TIP3    H132133   4.152   2.129   9.744 -1.4585 -1.0094 -0.4067
 2646TIP3    H232134   4.051   2.185   9.842  0.8682  0.6308  1.1722
 2647TIP3   OH232135   6.030   0.996  11.038  0.1548 -0.4538 -0.0077
 2647TIP3    H132136   6.011   1.020  10.948  0.9855  0.4508  0.0440
 2647TIP3    H232137   5.945   0.998  11.082 -0.4971 -2.2835 -1.0368
 2648TIP3   OH232138   4.330   1.138  12.250  0.3076 -0.0698 -0.2288
 2648TIP3    H132139   4.328   1.196  12.326  1.8306 -0.0664 -0.1650
 2648TIP3    H232140   4.240   1.105  12.243 -0.5288  2.0276 -0.0923
 2649TIP3   OH232141   4.091   4.674  10.107  0.2694  0.2032 -0.1728
 2649TIP3    H132142   4.143   4.621  10.046  1.0612  0.9158 -0.1355
 2649TIP3    H232143   4.155   4.730  10.151 -0.2507 -0.4172  1.4635
 2650TIP3   OH232144   5.987   5.709  11.958 -0.4091 -0.6141  0.1620
 2650TIP3    H132145   5.932   5.743  12.029 -0.5035  0.0796 -0.2364
 2650TIP3    H232146   6.046   5.647  12.001 -0.8599 -0.6401  0.7492
 2651TIP3   OH232147   0.246   2.384   9.761  0.4230  0.8764 -0.1218
 2651TIP3    H132148   0.314   2.377   9.829  0.8967 -0.3017 -0.6959
 2651TIP3    H232149   0.290   2.431   9.690  0.2381  1.2151 -0.0155
 2652TIP3   OH232150   0.077   3.497  10.965 -0.4843 -0.0589  0.4955
 2652TIP3    H132151  -0.004   3.462  11.003  0.1243 -1.6654  0.3899
 2652TIP3    H232152   0.145   3.435  10.992  0.5701  0.7659 -0.1717
 2653TIP3   OH232153   0.201   2.581   9.121  0.3486 -0.5771 -0.2207
 2653TIP3    H132154   0.203   2.632   9.040  0.1191  0.1753  0.2398
 2653TIP3    H232155   0.120   2.530   9.116 -0.2233  0.2901  0.0225
 2654TIP3   OH232156   3.710   2.014   8.968 -0.3919 -0.1223 -0.1511
 2654TIP3    H132157   3.777   2.016   9.036 -1.5152 -2.0874  1.1112
 2654TIP3    H232158   3.663   2.096   8.978 -0.9875 -0.6557  1.9987
 2655TIP3   OH232159   6.081   4.083  10.526  0.2917  0.3910 -0.1129
 2655TIP3    H132160   6.104   4.041  10.608  2.2000  0.6269 -0.4704
 2655TIP3    H232161   5.994   4.050  10.505  0.2455 -0.5480  1.4129
 2656TIP3   OH232162   0.144   4.798  11.726 -0.0592 -0.2845  0.0772
 2656TIP3    H132163   0.104   4.733  11.784  0.2385 -0.5453 -0.0129
 2656TIP3    H232164   0.237   4.796  11.748 -0.2733  1.4611  1.4421
 2657TIP3   OH232165   5.974   5.462   9.972 -0.5884  0.8133  0.3499
 2657TIP3    H132166   6.068   5.451   9.959 -0.9834 -0.8538 -1.4989
 2657TIP3    H232167   5.958   5.425  10.059  0.3528  0.5251  0.4131
 2658TIP3   OH232168   5.314   0.421  10.862  0.1256  1.0768 -0.2042
 2658TIP3    H132169   5.285   0.513  10.863  0.2310  1.1125  0.8892
 2658TIP3    H232170   5.402   0.424  10.823  0.6219  1.6153  0.9019
 2659TIP3   OH232171   5.578   0.024  11.403  0.3324 -0.3215 -0.2693
 2659TIP3    H132172   5.504   0.052  11.349  1.1428  0.0213 -1.2546
 2659TIP3    H232173   5.549  -0.057  11.444 -0.2905 -0.6533 -1.3274
 2660TIP3   OH232174   6.628   6.593  11.822 -0.4538 -0.0268 -0.2313
 2660TIP3    H132175   6.682   6.581  11.900 -0.1398  1.5787 -0.1651
 2660TIP3    H232176   6.691   6.591  11.750 -0.5064  0.2703 -0.2871
 2661TIP3   OH232177   2.306   6.245  11.864  0.5290  0.0863  0.6495
 2661TIP3    H132178   2.280   6.243  11.956  2.5503  1.6412  1.3292
 2661TIP3    H232179   2.401   6.254  11.866  0.5663  0.8074 -1.5948
 2662TIP3   OH232180   4.023   5.664  12.449 -0.0842 -0.0515  0.3528
 2662TIP3    H132181   4.075   5.681  12.527 -0.7782 -0.2562  0.8647
 2662TIP3    H232182   3.960   5.736  12.446 -1.0399 -0.8506  0.8312
 2663TIP3   OH232183   6.002   0.866   9.732 -0.1543 -0.3813  0.2372
 2663TIP3    H132184   6.027   0.924   9.660  1.4503 -1.6811 -0.3335
 2663TIP3    H232185   5.970   0.787   9.689 -0.3378 -0.7204  0.9782
 2664TIP3   OH232186   1.408   1.497  11.581 -0.2544  0.1269  0.3667
 2664TIP3    H132187   1.430   1.493  11.674 -1.0006 -0.6597  0.5115
 2664TIP3    H232188   1.477   1.552  11.543 -0.7913  1.7680  1.6252
 2665TIP3   OH232189   6.223   5.876   9.745 -0.0509  0.0208 -0.0687
 2665TIP3    H132190   6.318   5.886   9.752  0.0849 -1.8917  1.7669
 2665TIP3    H232191   6.188   5.964   9.755  1.5174  0.6577 -0.0517
 2666TIP3   OH232192   0.121   6.035   9.455  0.1295  0.3123 -0.1514
 2666TIP3    H132193   0.090   6.124   9.443  0.4438  0.2893 -1.1779
 2666TIP3    H232194   0.205   6.032   9.411  0.1648 -0.4683 -0.0480
 2667TIP3   OH232195   0.885   4.236  10.033  0.1167 -1.1275 -0.4100
 2667TIP3    H132196   0.907   4.294   9.960  1.5090 -1.4193 -0.2561
 2667TIP3    H232197   0.801   4.198  10.010  0.1844 -0.6386 -1.5021
 2668TIP3   OH232198   0.387   5.882   9.603  0.4697  0.2736  0.1721
 2668TIP3    H132199   0.403   5.909   9.513  2.1802 -0.8178  0.1032
 2668TIP3    H232200   0.431   5.948   9.657  2.2571 -0.7604  0.0737
 2669TIP3   OH232201   2.479   5.590  12.035  0.2750  0.2838 -0.9283
 2669TIP3    H132202   2.490   5.502  12.070 -1.3644  0.2108 -0.4963
 2669TIP3    H232203   2.550   5.601  11.972  0.3899 -1.4017 -1.1240
 2670TIP3   OH232204   0.320   2.830  10.931 -0.4057 -0.0110  0.0444
 2670TIP3    H132205   0.414   2.813  10.940 -0.4533 -1.1919 -1.2557
 2670TIP3    H232206   0.280   2.744  10.936 -1.2103  0.2408 -1.4178
 2671TIP3   OH232207   0.764   2.513   9.143  0.3839 -0.1383 -0.0329
 2671TIP3    H132208   0.830   2.579   9.160  1.2532 -1.2276  0.9747
 2671TIP3    H232209   0.764   2.457   9.221 -0.0723 -1.5261 -0.9769
 2672TIP3   OH232210   5.092   3.824  11.400  1.1548 -0.4218  0.3551
 2672TIP3    H132211   5.175   3.817  11.446  0.4292 -0.1937  1.7399
 2672TIP3    H232212   5.027   3.841  11.468  0.2509  1.5091 -0.8968
 2673TIP3   OH232213   1.596   1.738  11.608  0.2192 -0.5360  0.1150
 2673TIP3    H132214   1.603   1.765  11.516 -0.0861  1.6636  0.6865
 2673TIP3    H232215   1.687   1.737  11.639  0.2097  0.2414  0.1815
 2674TIP3   OH232216   4.246   6.401   8.483  0.7706  0.6198 -0.1977
 2674TIP3    H132217   4.275   6.492   8.470  0.0458  0.8257 -0.4420
 2674TIP3    H232218   4.288   6.353   8.411 -1.3264  1.3406 -2.0188
 2675TIP3   OH232219   4.383   6.641   8.470 -0.3554 -0.5959 -0.3835
 2675TIP3    H132220   4.462   6.648   8.416 -1.5677  0.0740 -2.1529
 2675TIP3    H232221   4.339   6.726   8.460 -1.5283 -1.1131  0.1976
 2676TIP3   OH232222   4.982   0.367   9.955 -0.4971 -0.2295 -0.1650
 2676TIP3    H132223   4.908   0.427   9.969  0.7839  0.9954  1.7834
 2676TIP3    H232224   5.031   0.407   9.882  0.2111  1.0406  0.9539
 2677TIP3   OH232225   0.657   4.112   9.955  0.0828  0.9230  0.0240
 2677TIP3    H132226   0.644   4.137   9.863 -1.3387 -0.8461 -0.3090
 2677TIP3    H232227   0.571   4.125   9.995 -0.8820 -3.4105 -0.2351
 2678TIP3   OH232228   2.654   0.096  11.215  0.0969  0.8624 -0.5120
 2678TIP3    H132229   2.738   0.079  11.257  0.9110  2.4161 -1.4283
 2678TIP3    H232230   2.589   0.063  11.277  1.3701 -0.9533 -0.0623
 2679TIP3   OH232231   3.097   1.187   8.615  0.6096  0.3382 -0.5375
 2679TIP3    H132232   3.132   1.170   8.527  0.5459 -0.6980 -0.3847
 2679TIP3    H232233   3.112   1.280   8.629  0.7017  0.5077 -1.6132
 2680TIP3   OH232234   4.194   1.733  10.167  0.2203 -0.0220  0.1607
 2680TIP3    H132235   4.171   1.768  10.080 -0.0188  0.8112  0.5486
 2680TIP3    H232236   4.290   1.736  10.169  0.2715 -0.8495 -0.3878
 2681TIP3   OH232237   4.618   4.868   9.084 -0.1092  0.3372 -0.0054
 2681TIP3    H132238   4.539   4.851   9.033  0.0344  0.6546 -0.3327
 2681TIP3    H232239   4.599   4.829   9.170  0.2770 -1.6334 -0.7655
 2682TIP3   OH232240   1.675   2.723  10.866  0.1347  0.0134  0.3816
 2682TIP3    H132241   1.580   2.736  10.873  0.2336  1.2886 -0.4344
 2682TIP3    H232242   1.712   2.789  10.924  0.5423 -0.4767  0.6897
 2683TIP3   OH232243   2.045   6.465  11.486  0.0904 -0.2970 -0.3317
 2683TIP3    H132244   1.989   6.391  11.509 -0.0601 -0.9472 -2.5935
 2683TIP3    H232245   2.125   6.425  11.452  1.3769  0.6290  1.3746
 2684TIP3   OH232246   5.092   0.408   9.080  0.0826  0.4679 -0.9580
 2684TIP3    H132247   5.085   0.313   9.084 -1.9496  0.6064  0.8021
 2684TIP3    H232248   5.044   0.439   9.157 -0.1828  2.9494 -2.0124
 2685TIP3   OH232249   0.297   0.265   9.055  0.4801 -0.2922 -0.0444
 2685TIP3    H132250   0.347   0.318   9.117  0.9403  1.6709 -1.9515
 2685TIP3    H232251   0.221   0.319   9.034 -0.9246 -1.9456  0.5257
 2686TIP3   OH232252   0.687   0.838   9.944 -0.6188  0.0145  0.1823
 2686TIP3    H132253   0.749   0.877   9.883 -0.1052  1.3590  1.4971
 2686TIP3    H232254   0.738   0.770   9.989  0.0893  1.4006  1.5608
 2687TIP3   OH232255   5.557   2.445  10.122  0.0692 -0.1841 -0.2562
 2687TIP3    H132256   5.472   2.432  10.079 -0.1496 -0.5866  0.2891
 2687TIP3    H232257   5.536   2.459  10.214  0.5720  0.1243 -0.1819
 2688TIP3   OH232258   3.630   5.840   9.519  0.6275  0.6799  0.1512
 2688TIP3    H132259   3.603   5.801   9.602 -0.3198  0.6112 -0.1768
 2688TIP3    H232260   3.717   5.804   9.503  1.5549  1.9710  1.9245
 2689TIP3   OH232261   1.432   0.965  10.062 -0.0695  0.4187 -0.1627
 2689TIP3    H132262   1.425   1.034  10.127 -2.2467  0.0027  0.1042
 2689TIP3    H232263   1.526   0.951  10.052  0.3500  1.4006  1.9110
 2690TIP3   OH232264   3.363   3.427  11.057 -0.0107  0.0723  0.2098
 2690TIP3    H132265   3.335   3.356  11.000  0.0514  0.0424  0.2160
 2690TIP3    H232266   3.322   3.505  11.020  0.2781  0.1004 -0.0565
 2691TIP3   OH232267   6.700   3.773  12.115  0.0577 -0.1128  0.9546
 2691TIP3    H132268   6.704   3.679  12.132 -1.0766 -0.2623  0.4790
 2691TIP3    H232269   6.608   3.796  12.129  0.5012  1.1104  1.9752
 2692TIP3   OH232270   5.557   4.283  10.713  0.3192  0.7326  0.6616
 2692TIP3    H132271   5.651   4.287  10.734 -0.0253  0.8728  2.2937
 2692TIP3    H232272   5.549   4.205  10.658  1.1995 -0.1729  1.7418
 2693TIP3   OH232273   4.001   6.127  10.345 -0.0713  0.1445  0.1018
 2693TIP3    H132274   3.962   6.178  10.274  0.2427  4.0162  2.3923
 2693TIP3    H232275   4.091   6.159  10.352  0.5637 -1.6848  0.9160
 2694TIP3   OH232276   1.325   6.678  10.007 -0.3452 -0.4587  0.6454
 2694TIP3    H132277   1.386   6.617  10.048 -1.0204 -0.3733  1.8049
 2694TIP3    H232278   1.349   6.676   9.914  2.9831  1.3270  1.3066
 2695TIP3   OH232279   6.615   5.552   9.865 -0.6139 -0.4787  0.0403
 2695TIP3    H132280   6.585   5.490   9.799 -0.3426 -0.9965  0.3994
 2695TIP3    H232281   6.598   5.509   9.949  2.9675 -1.7737  0.2837
 2696TIP3   OH232282   4.812   6.515  10.933 -0.0131 -0.8174 -0.5441
 2696TIP3    H132283   4.814   6.452  11.005 -1.2004  0.3744  0.5763
 2696TIP3    H232284   4.744   6.482  10.874 -0.9811 -0.3503  0.2875
 2697TIP3   OH232285   2.122   4.249  10.161 -0.1789  0.1892  0.6829
 2697TIP3    H132286   2.035   4.289  10.147  0.0731  0.8217  0.8782
 2697TIP3    H232287   2.182   4.323  10.160  0.4440 -0.3145 -0.1164
 2698TIP3   OH232288   2.490   6.548   9.926  0.4461 -0.4565 -0.1363
 2698TIP3    H132289   2.412   6.504   9.891 -0.2414  0.2427  0.4815
 2698TIP3    H232290   2.487   6.530  10.020  0.5019  0.3753  0.0294
 2699TIP3   OH232291   5.802   0.237  10.572  0.4337 -0.3564  0.7009
 2699TIP3    H132292   5.856   0.284  10.509 -0.4306  1.0209  0.9441
 2699TIP3    H232293   5.854   0.160  10.596 -0.0020 -2.0733 -3.1729
 2700TIP3   OH232294   4.638   0.412   9.866 -0.0759  0.0974  0.2888
 2700TIP3    H132295   4.709   0.458   9.911  0.5702 -0.3012 -0.3116
 2700TIP3    H232296   4.573   0.480   9.848 -0.0259  0.3949  1.1818
 2701TIP3   OH232297   6.688   5.289   9.292 -0.1100  0.1428 -0.1744
 2701TIP3    H132298   6.679   5.375   9.332 -1.4312 -0.2177  0.3470
 2701TIP3    H232299   6.663   5.228   9.361 -3.7201 -0.4721 -1.8004
 2702TIP3   OH232300   2.606   3.803  12.109 -0.1887  0.2015  0.4555
 2702TIP3    H132301   2.579   3.833  12.195 -2.4098  0.1630 -0.1582
 2702TIP3    H232302   2.608   3.882  12.055 -2.8161 -0.1871 -0.3646
 2703TIP3   OH232303   3.561   3.439   9.693  0.6864  0.2373 -0.2619
 2703TIP3    H132304   3.496   3.410   9.757  0.7694 -0.6495 -0.5695
 2703TIP3    H232305   3.518   3.509   9.644  0.1794  0.0582 -0.0677
 2704TIP3   OH232306   3.255   5.968   8.763 -0.0301 -0.1330  0.1559
 2704TIP3    H132307   3.241   6.057   8.731  0.5899  0.6858  2.0293
 2704TIP3    H232308   3.171   5.942   8.800  0.0544  0.0618  0.4874
 2705TIP3   OH232309   3.413   2.511  11.222 -0.1059  0.0418 -0.5586
 2705TIP3    H132310   3.323   2.543  11.218 -0.2249 -0.3940 -2.4307
 2705TIP3    H232311   3.404   2.417  11.242  0.0767  0.4116  1.4577
 2706TIP3   OH232312   6.157   3.714  10.773 -0.6188  0.0190 -0.1752
 2706TIP3    H132313   6.238   3.678  10.737  0.5337  3.2423 -1.1124
 2706TIP3    H232314   6.091   3.696  10.706  0.4801  1.7673 -1.8158
 2707TIP3   OH232315   3.087   0.266   9.272 -0.2312  0.3392 -0.1102
 2707TIP3    H132316   3.054   0.352   9.247  1.1444  1.0772  0.5513
 2707TIP3    H232317   3.027   0.205   9.229 -2.1226  1.6048  0.5949
 2708TIP3   OH232318   1.249   0.955   9.583 -0.5854 -0.1977  0.1201
 2708TIP3    H132319   1.232   0.951   9.489 -0.9310  0.0542  0.1710
 2708TIP3    H232320   1.217   1.041   9.610 -0.0953 -0.0968  0.3927
 2709TIP3   OH232321   5.193   0.980  10.993  0.0448  0.4769  0.6240
 2709TIP3    H132322   5.186   1.047  11.061 -0.6523  0.7367  0.3088
 2709TIP3    H232323   5.286   0.982  10.967  0.0583  1.2469  0.7043
 2710TIP3   OH232324   5.352   0.315  11.762 -0.3325 -0.0683 -0.0248
 2710TIP3    H132325   5.300   0.382  11.806 -1.6832 -0.7954 -0.4344
 2710TIP3    H232326   5.434   0.311  11.811 -0.8586  0.7759  0.9527
 2711TIP3   OH232327   5.535   0.442  10.726 -0.5382  0.3348 -0.1169
 2711TIP3    H132328   5.546   0.456  10.631  1.3745 -2.6076 -0.4614
 2711TIP3    H232329   5.597   0.503  10.766  1.3800 -0.9359 -1.0259
 2712TIP3   OH232330   4.629   1.247   9.860 -0.8875 -0.1695 -0.5944
 2712TIP3    H132331   4.581   1.298   9.795 -0.0141  1.5635  0.0358
 2712TIP3    H232332   4.568   1.238   9.933 -1.0500  0.0274 -0.7037
 2713TIP3   OH232333   2.803   6.611  12.098 -0.5092 -0.4065 -0.4680
 2713TIP3    H132334   2.744   6.539  12.118 -1.6468  0.7584  0.6023
 2713TIP3    H232335   2.756   6.689  12.128  2.0339  0.5061  1.5208
 2714TIP3   OH232336   2.506   1.414   8.386  0.1569  0.3846 -0.2192
 2714TIP3    H132337   2.536   1.431   8.476 -1.4477  0.0282  0.4105
 2714TIP3    H232338   2.582   1.375   8.343  1.8065  2.8699  0.2054
 2715TIP3   OH232339   2.979   0.404  11.135 -0.3165 -0.3215 -0.1925
 2715TIP3    H132340   2.928   0.378  11.212 -0.6052  2.8474  0.8285
 2715TIP3    H232341   2.926   0.472  11.094  0.7501 -0.6086 -2.1283
 2716TIP3   OH232342   5.763   5.070  10.798 -0.2465 -0.0850  0.0277
 2716TIP3    H132343   5.683   5.118  10.777  0.3340  1.1672  0.5879
 2716TIP3    H232344   5.796   5.041  10.714 -1.3057 -0.6675 -0.2087
 2717TIP3   OH232345   0.574   3.408  10.155 -0.1527 -0.2098 -0.1574
 2717TIP3    H132346   0.591   3.500  10.136  0.4693 -0.7385 -2.3480
 2717TIP3    H232347   0.604   3.361  10.078  0.8760 -2.4082  1.4855
 2718TIP3   OH232348   2.725   0.621  10.720 -0.0462  0.4095  0.1729
 2718TIP3    H132349   2.779   0.587  10.791  1.3846  0.7885 -0.6925
 2718TIP3    H232350   2.777   0.692  10.683 -0.7928  0.2570 -1.2122
 2719TIP3   OH232351   6.502   3.527  10.097 -0.3159 -0.4473 -0.0697
 2719TIP3    H132352   6.477   3.435  10.104 -0.6058 -0.4165 -0.6492
 2719TIP3    H232353   6.550   3.533  10.015 -0.6309 -0.0101 -0.2255
 2720TIP3   OH232354   0.519   1.949   8.893 -0.0179 -0.4015  0.3997
 2720TIP3    H132355   0.550   2.035   8.866  1.5299 -1.0976 -0.1911
 2720TIP3    H232356   0.436   1.965   8.936  0.5298  1.4546  0.8366
 2721TIP3   OH232357   1.026   4.103   9.141 -0.1723  0.3963  0.3242
 2721TIP3    H132358   1.046   4.143   9.225  0.8311  1.3336 -0.3363
 2721TIP3    H232359   0.930   4.097   9.139 -0.2774  1.6741  0.9423
 2722TIP3   OH232360   6.357   3.675  10.292 -0.3743  0.0006 -0.4356
 2722TIP3    H132361   6.420   3.614  10.330  0.1400  1.3444  1.0132
 2722TIP3    H232362   6.356   3.654  10.199  1.2479 -0.9276 -0.2869
 2723TIP3   OH232363   3.512   4.343  11.656 -0.3118 -0.1113  0.9708
 2723TIP3    H132364   3.564   4.323  11.578  0.1449 -0.5012  1.3675
 2723TIP3    H232365   3.505   4.439  11.656 -0.0151 -0.0864  0.6450
 2724TIP3   OH232366   0.889   0.021  11.659 -0.1596  0.3571 -0.1038
 2724TIP3    H132367   0.903   0.095  11.600 -0.0611  0.3591 -0.0776
 2724TIP3    H232368   0.948  -0.047  11.627  0.1109  0.4603  0.1715
 2725TIP3   OH232369   2.013   5.191   9.103  0.5301  0.1567  0.1760
 2725TIP3    H132370   2.105   5.199   9.130  0.3125 -2.2891  2.0008
 2725TIP3    H232371   2.009   5.108   9.055 -0.7454  0.1289  0.2912
 2726TIP3   OH232372   5.939   4.700  10.798 -0.1775 -0.1396  0.1741
 2726TIP3    H132373   5.863   4.733  10.846 -1.1000 -0.8585 -0.7189
 2726TIP3    H232374   5.905   4.624  10.749  0.4199  1.1136 -2.3738
 2727TIP3   OH232375   1.053   4.591  10.482 -0.0071 -0.4011  0.4904
 2727TIP3    H132376   1.065   4.521  10.418  1.5432 -1.4501  1.8603
 2727TIP3    H232377   1.027   4.545  10.563  1.6382  0.5045  1.5775
 2728TIP3   OH232378   0.646   3.240   9.909 -0.1650 -0.2958 -0.2610
 2728TIP3    H132379   0.600   3.158   9.894  1.0074 -1.2119  0.8852
 2728TIP3    H232380   0.729   3.231   9.863  0.2617 -0.0521  0.4355
 2729TIP3   OH232381   3.616   4.948  10.825 -0.0840 -0.1240 -0.2185
 2729TIP3    H132382   3.655   5.031  10.799 -0.2167 -0.0403 -0.1537
 2729TIP3    H232383   3.679   4.910  10.886  2.8431 -2.7388 -4.3395
 2730TIP3   OH232384   5.097   5.439  11.835  0.4124 -0.4360 -0.2642
 2730TIP3    H132385   5.177   5.429  11.785  0.2558 -3.2901 -0.0960
 2730TIP3    H232386   5.043   5.364  11.810 -0.5086 -0.8691  2.6259
 2731TIP3   OH232387   6.646   2.281  11.906 -0.7196 -0.4399 -0.3644
 2731TIP3    H132388   6.637   2.217  11.976 -1.0588  0.3151  0.2867
 2731TIP3    H232389   6.589   2.249  11.836  1.1449 -2.3052 -1.1628
 2732TIP3   OH232390   3.327   5.481   9.370 -0.1596 -0.0995 -0.3171
 2732TIP3    H132391   3.240   5.448   9.347  0.3557 -1.7709 -0.0158
 2732TIP3    H232392   3.330   5.569   9.334 -2.2571  0.2843  0.3590
 2733TIP3   OH232393   0.899   6.302  12.272  0.4257 -0.2332 -0.1583
 2733TIP3    H132394   0.843   6.260  12.337 -0.3822 -1.0658 -1.3319
 2733TIP3    H232395   0.899   6.242  12.198 -0.4936  1.6259 -1.7911
 2734TIP3   OH232396   5.802   4.419  11.737 -0.0972  0.0458  0.0748
 2734TIP3    H132397   5.819   4.512  11.748 -0.0791  0.2085 -1.2178
 2734TIP3    H232398   5.875   4.387  11.684  0.3096 -0.8803  1.1517
 2735TIP3   OH232399   1.443   5.213  11.602  0.2655  0.1141  0.0147
 2735TIP3    H132400   1.488   5.289  11.566  1.2145 -0.1471  0.6268
 2735TIP3    H232401   1.492   5.190  11.681 -0.4176 -0.7131  0.2211
 2736TIP3   OH232402   0.623   4.120  10.995  0.0039 -0.3951  0.0929
 2736TIP3    H132403   0.672   4.130  11.077 -0.1348  0.4050  0.0881
 2736TIP3    H232404   0.531   4.113  11.023  0.0441 -1.1890  0.0598
 2737TIP3   OH232405   6.230   2.476  11.103 -0.4800 -0.2252  0.4533
 2737TIP3    H132406   6.274   2.399  11.137  0.8620  0.5940  0.6377
 2737TIP3    H232407   6.291   2.513  11.040 -0.9429  0.8844  0.6297
 2738TIP3   OH232408   3.623   1.122  11.304  0.2697 -0.6718 -0.3741
 2738TIP3    H132409   3.706   1.095  11.341  0.0313  0.0635  0.7423
 2738TIP3    H232410   3.602   1.054  11.239 -0.4019 -3.3417  2.4049
 2739TIP3   OH232411   4.754   2.819  11.219  0.0115  0.4912  0.5888
 2739TIP3    H132412   4.764   2.769  11.300 -1.0549 -1.5862 -0.4793
 2739TIP3    H232413   4.718   2.903  11.248  0.7041  0.2419  2.3498
 2740TIP3   OH232414   0.796   1.299  11.117  0.6710 -0.7427 -0.4726
 2740TIP3    H132415   0.704   1.297  11.092  1.5134 -0.8674 -4.1705
 2740TIP3    H232416   0.832   1.216  11.085  2.1906 -0.4556  0.3722
 2741TIP3   OH232417   2.522   1.978  10.573 -0.6058  0.0479  0.1649
 2741TIP3    H132418   2.503   1.952  10.483 -1.0418  1.6621 -0.2303
 2741TIP3    H232419   2.617   1.967  10.582 -0.6308 -0.5866 -0.3245
 2742TIP3   OH232420   5.899   2.880  12.003  0.5775  0.3262  0.3314
 2742TIP3    H132421   5.829   2.818  11.983  0.8005  0.0451  0.4150
 2742TIP3    H232422   5.871   2.962  11.961  1.3884 -0.4161 -1.8152
 2743TIP3   OH232423   5.326   6.385  10.028 -0.0250 -0.0879  0.5498
 2743TIP3    H132424   5.301   6.400   9.937 -1.1801 -0.1211  0.8518
 2743TIP3    H232425   5.315   6.470  10.071 -1.2576 -0.4701  1.0431
 2744TIP3   OH232426   0.652   4.941  10.792  0.1346  0.0056 -0.2359
 2744TIP3    H132427   0.662   4.851  10.823 -0.0261  0.1743  0.3155
 2744TIP3    H232428   0.678   4.995  10.866  0.9283  0.4202 -0.8076
 2745TIP3   OH232429   4.031   0.094   9.676  0.1438 -0.0180  0.1786
 2745TIP3    H132430   4.027  -0.000   9.690 -2.7256  0.0484  0.3916
 2745TIP3    H232431   4.107   0.107   9.619  0.9650 -2.3479  0.6436
 2746TIP3   OH232432   0.802   2.098  10.411 -0.2807  0.3552  0.0225
 2746TIP3    H132433   0.775   2.026  10.353  0.6681  0.9673 -1.2280
 2746TIP3    H232434   0.724   2.152  10.419 -0.2606  0.6057 -1.2477
 2747TIP3   OH232435   5.632   2.206  10.560 -0.2261  0.7075  0.2297
 2747TIP3    H132436   5.663   2.198  10.650 -1.7913 -0.3246  0.7169
 2747TIP3    H232437   5.653   2.122  10.520 -1.7372  0.2130  0.3962
 2748TIP3   OH232438   2.539   2.879  11.691 -0.2545 -0.0796 -0.4084
 2748TIP3    H132439   2.480   2.821  11.739 -1.0340  1.4799  0.5795
 2748TIP3    H232440   2.483   2.920  11.625 -1.1049  3.4282  2.2014
 2749TIP3   OH232441   0.007   2.228   9.798 -0.0095  0.2213  0.5653
 2749TIP3    H132442   0.098   2.248   9.817  0.9954 -3.5073  0.6094
 2749TIP3    H232443   0.001   2.228   9.703 -0.2958  1.5298  0.5694
 2750TIP3   OH232444   5.893   4.856  10.433 -0.0736 -0.0506 -0.3209
 2750TIP3    H132445   5.855   4.944  10.432  0.3199  0.1307 -0.0805
 2750TIP3    H232446   5.840   4.807  10.496  1.0839  0.6839  1.3332
 2751TIP3   OH232447   6.414   2.822  11.901 -0.4425 -0.0025  0.3918
 2751TIP3    H132448   6.412   2.752  11.967 -0.8771 -0.6946 -0.3442
 2751TIP3    H232449   6.344   2.800  11.840 -1.3427  1.6919  0.7571
 2752TIP3   OH232450   3.814   4.476  11.307 -0.2311 -0.6172  0.1897
 2752TIP3    H132451   3.740   4.429  11.346 -2.2107  0.8837 -1.4964
 2752TIP3    H232452   3.806   4.458  11.213  0.5699  0.8650 -0.1853
 2753TIP3   OH232453   3.384   1.954   8.775  0.0935 -0.0543  0.4814
 2753TIP3    H132454   3.410   1.986   8.862 -0.8358 -0.3024  0.8627
 2753TIP3    H232455   3.466   1.948   8.726  0.5030  1.2207  0.9603
 2754TIP3   OH232456   1.835   5.807  11.258  0.3018  0.7093 -0.1959
 2754TIP3    H132457   1.825   5.736  11.321 -0.5921  0.0966 -1.0047
 2754TIP3    H232458   1.913   5.785  11.208  0.0291  0.2936 -0.4419
 2755TIP3   OH232459   4.006   5.531  10.002  0.2684  0.3050  0.4331
 2755TIP3    H132460   4.035   5.622  10.004 -0.4057  0.5199  0.4951
 2755TIP3    H232461   3.911   5.536   9.999  0.2241 -0.4010  0.5537
 2756TIP3   OH232462   4.973   6.445   9.415 -0.1590  0.1916 -0.7368
 2756TIP3    H132463   5.048   6.398   9.376 -1.0804 -1.7963 -0.2464
 2756TIP3    H232464   4.904   6.437   9.350 -0.5161  0.3629 -0.3800
 2757TIP3   OH232465   0.393   6.237  10.711 -0.4128 -0.0350 -0.1691
 2757TIP3    H132466   0.368   6.233  10.803  0.7103 -0.3418  0.1438
 2757TIP3    H232467   0.374   6.327  10.685  1.9521  0.9892  1.2281
 2758TIP3   OH232468   5.884   1.072   8.838 -0.0515  0.0215  0.3386
 2758TIP3    H132469   5.876   1.157   8.794  1.3616  0.2096  0.3851
 2758TIP3    H232470   5.828   1.013   8.787  0.6825  0.4885 -1.0809
 2759TIP3   OH232471   4.699   3.907  11.320 -0.6282 -0.0349 -0.2813
 2759TIP3    H132472   4.615   3.869  11.295 -1.9477  2.3434  0.1698
 2759TIP3    H232473   4.677   3.969  11.390  1.7910 -0.6344  1.1312
 2760TIP3   OH232474   2.451   6.507  11.076  0.0043  0.4543  0.2122
 2760TIP3    H132475   2.374   6.485  11.024  0.5096  1.9833 -1.2539
 2760TIP3    H232476   2.421   6.578  11.134  0.5857  2.0134 -1.3113
 2761TIP3   OH232477   0.636   3.068  11.560  0.4772 -0.4591 -0.0828
 2761TIP3    H132478   0.722   3.028  11.546  0.7507  0.1489 -0.1960
 2761TIP3    H232479   0.656   3.158  11.587 -0.1032 -0.6726  1.1189
 2762TIP3   OH232480   5.861   6.305   9.311  0.1615 -0.3649  0.0051
 2762TIP3    H132481   5.903   6.229   9.350  1.1152 -0.2148 -0.6883
 2762TIP3    H232482   5.931   6.351   9.265 -0.6416  0.2380 -0.6665
 2763TIP3   OH232483   3.065   3.295  12.114  0.0209  0.4941  0.2210
 2763TIP3    H132484   3.118   3.338  12.181  0.8096 -1.7349  1.1088
 2763TIP3    H232485   2.989   3.261  12.162 -0.9321  1.3950 -0.5854
 2764TIP3   OH232486   2.171   4.588  12.173  0.0608  0.2951  0.1706
 2764TIP3    H132487   2.187   4.681  12.188 -1.9709  0.5824  0.8273
 2764TIP3    H232488   2.085   4.572  12.211 -1.5008 -0.9501 -3.4360
 2765TIP3   OH232489   6.496   1.291  11.893 -0.1663 -0.1022  0.4305
 2765TIP3    H132490   6.409   1.253  11.883  0.2359 -0.4354 -2.7661
 2765TIP3    H232491   6.542   1.232  11.954 -1.0415 -2.0712 -0.7311
 2766TIP3   OH232492   4.234   0.097   9.391  0.1266 -0.1477  0.4272
 2766TIP3    H132493   4.148   0.118   9.353 -0.1377 -1.3606  0.3150
 2766TIP3    H232494   4.291   0.169   9.362 -0.3920 -0.3087 -1.1263
 2767TIP3   OH232495   1.127   1.915   8.556 -0.4388  0.1685 -0.3007
 2767TIP3    H132496   1.047   1.923   8.504 -1.4387  1.1919  1.3253
 2767TIP3    H232497   1.134   1.998   8.603  0.6120 -0.5797  0.9404
 2768TIP3   OH232498   4.858   1.787  10.617 -0.2391  0.0320  0.5025
 2768TIP3    H132499   4.941   1.831  10.599  0.0091 -0.5104  0.2827
 2768TIP3    H232500   4.882   1.695  10.630 -0.9404 -0.3979 -0.9401
 2769TIP3   OH232501   4.269   1.820  10.688 -0.5703 -0.0856 -0.7773
 2769TIP3    H132502   4.361   1.801  10.668 -0.2804  0.9479 -0.4516
 2769TIP3    H232503   4.223   1.797  10.607 -0.0534 -0.7549 -0.8968
 2770TIP3   OH232504   2.059   6.707   9.175 -0.1267 -0.7299  1.1024
 2770TIP3    H132505   2.126   6.746   9.231 -0.1267  0.9060  0.0282
 2770TIP3    H232506   2.073   6.748   9.090 -0.4572 -2.7642  0.0053
 2771TIP3   OH232507   1.687   0.905   8.177 -0.7066  0.1574  0.7101
 2771TIP3    H132508   1.592   0.903   8.166 -0.7123 -1.0921  0.9032
 2771TIP3    H232509   1.706   0.996   8.202 -1.9162  0.2667  1.3071
 2772TIP3   OH232510   0.847   2.671  10.973  0.0147 -0.1855 -0.2386
 2772TIP3    H132511   0.874   2.703  10.887  1.6503 -1.3086 -0.1764
 2772TIP3    H232512   0.900   2.593  10.988  0.2947  0.3874  2.1073
 2773TIP3   OH232513   1.571   1.392  10.367  0.0021  0.1520 -0.0912
 2773TIP3    H132514   1.524   1.407  10.449 -0.0487  0.8071 -0.2340
 2773TIP3    H232515   1.561   1.474  10.319 -1.5484 -0.8345 -1.5547
 2774TIP3   OH232516   5.890   0.306  11.806  0.4071  0.3323  0.1701
 2774TIP3    H132517   5.874   0.349  11.722 -0.1487 -0.5566 -0.1928
 2774TIP3    H232518   5.805   0.306  11.849  0.8549  1.4953  1.0857
 2775TIP3   OH232519   2.028   3.261  11.563 -0.5162 -0.2549 -0.5428
 2775TIP3    H132520   2.083   3.300  11.632  0.1981  1.5907 -2.0700
 2775TIP3    H232521   2.067   3.175  11.548  0.6665  0.1713 -0.1033
 2776TIP3   OH232522   1.708   6.399   9.938 -0.1279 -0.0251 -0.8283
 2776TIP3    H132523   1.721   6.305   9.926 -2.3035 -0.8553  2.1866
 2776TIP3    H232524   1.788   6.428   9.984 -0.0178 -0.6887 -0.5908
 2777TIP3   OH232525   2.830   4.196  10.600 -0.5634 -0.5218 -0.0942
 2777TIP3    H132526   2.745   4.207  10.556 -0.8005  0.7940  0.6317
 2777TIP3    H232527   2.832   4.266  10.665  1.7495  0.5083 -1.1483
 2778TIP3   OH232528   1.324   5.528   8.725 -0.1358  0.1577  0.1826
 2778TIP3    H132529   1.250   5.580   8.693 -1.2812 -2.1716 -1.2235
 2778TIP3    H232530   1.371   5.503   8.645 -0.5043 -2.1585  0.6440
 2779TIP3   OH232531   0.240   0.860  11.440 -0.0128 -0.3073  0.0837
 2779TIP3    H132532   0.262   0.917  11.513 -1.7386 -0.9540  1.1852
 2779TIP3    H232533   0.150   0.885  11.416 -0.1036 -1.2736 -0.6637
 2780TIP3   OH232534   4.525   2.209   9.933  0.0760  0.4350 -0.5866
 2780TIP3    H132535   4.562   2.124   9.906  2.3532  0.7013  1.3635
 2780TIP3    H232536   4.495   2.194  10.022 -0.2652  1.4824 -0.5160
 2781TIP3   OH232537   0.136   4.836  11.055 -0.4268  0.0527  0.1318
 2781TIP3    H132538   0.169   4.758  11.099 -0.2870 -0.6303 -1.1397
 2781TIP3    H232539   0.045   4.816  11.034 -0.3706  0.1976 -0.2653
 2782TIP3   OH232540   1.873   5.860   9.989 -0.0058  0.3195 -0.6052
 2782TIP3    H132541   1.888   5.777   9.944 -2.4388  0.6327 -2.2122
 2782TIP3    H232542   1.808   5.839  10.056  1.6503  0.3897  1.1014
 2783TIP3   OH232543   3.551   5.041   9.907 -0.2196  0.2361  0.2264
 2783TIP3    H132544   3.640   5.073   9.896  0.1116 -0.7616 -0.0915
 2783TIP3    H232545   3.523   5.017   9.818 -0.4311 -0.3850  0.4542
 2784TIP3   OH232546   1.133   6.274  11.748 -0.1481  0.1144  0.7561
 2784TIP3    H132547   1.149   6.353  11.801 -0.9381 -0.2951  1.6367
 2784TIP3    H232548   1.197   6.210  11.781  0.3007  0.2918  0.2392
 2785TIP3   OH232549   0.906   1.442   7.965  0.1439  0.8087  0.3201
 2785TIP3    H132550   0.957   1.361   7.968  0.8537  1.2138 -0.2685
 2785TIP3    H232551   0.816   1.413   7.952  0.4395  0.1264 -0.2826
 2786TIP3   OH232552   5.622   0.433   8.699  0.7479  0.1110 -0.0864
 2786TIP3    H132553   5.699   0.428   8.643 -0.9932 -0.0478 -2.6562
 2786TIP3    H232554   5.608   0.527   8.712  1.2272  0.1459  0.1780
 2787TIP3   OH232555   2.121   0.335   9.850 -0.4206  0.4056 -0.0797
 2787TIP3    H132556   2.089   0.396   9.784  0.1889  0.8277  0.0068
 2787TIP3    H232557   2.044   0.316   9.904 -1.1799 -0.7707 -1.5189
 2788TIP3   OH232558   3.616   3.341  11.508  0.7130 -0.0396  0.3927
 2788TIP3    H132559   3.544   3.340  11.571  0.9088 -0.5492  0.6150
 2788TIP3    H232560   3.662   3.423  11.525  0.8584 -0.2460  1.0241
 2789TIP3   OH232561   1.674   5.232   9.189 -0.4786 -0.7309  0.2660
 2789TIP3    H132562   1.712   5.250   9.103  1.9817 -0.5027  1.3047
 2789TIP3    H232563   1.581   5.221   9.172 -0.3028  0.7314 -2.2118
 2790TIP3   OH232564   5.868   5.012   9.608 -0.2476 -0.1077 -0.2734
 2790TIP3    H132565   5.951   5.049   9.578 -0.4105  0.5770  0.1209
 2790TIP3    H232566   5.888   4.919   9.624  0.0970 -0.2649 -1.5042
 2791TIP3   OH232567   5.818   1.154  10.155  0.9067 -0.3551 -0.1235
 2791TIP3    H132568   5.893   1.098  10.174  0.2447 -0.4467  2.5773
 2791TIP3    H232569   5.808   1.148  10.060  2.4943 -2.6803 -0.2436
 2792TIP3   OH232570   3.670   1.485   9.554 -0.4418 -0.0126 -0.8565
 2792TIP3    H132571   3.740   1.512   9.614 -1.8510  0.9250  0.4337
 2792TIP3    H232572   3.715   1.434   9.487  1.2349 -1.0564  0.9451
 2793TIP3   OH232573   5.829   0.889  12.083 -0.2115 -0.1502  0.4454
 2793TIP3    H132574   5.816   0.836  12.162 -1.0860 -2.1853 -0.9594
 2793TIP3    H232575   5.748   0.877  12.033  0.1111  1.5067 -0.5400
 2794TIP3   OH232576   1.924   3.371  12.261 -0.6183  0.1995 -0.3225
 2794TIP3    H132577   1.830   3.375  12.244 -0.4637  0.1219 -1.2159
 2794TIP3    H232578   1.958   3.453  12.223 -0.4312  0.6214  0.7200
 2795TIP3   OH232579   6.545   1.141  11.191 -0.0601 -0.2608 -0.3126
 2795TIP3    H132580   6.477   1.147  11.124  0.0580 -3.0973 -0.8127
 2795TIP3    H232581   6.558   1.231  11.220 -1.8452  0.7506 -2.3562
 2796TIP3   OH232582   5.184   1.753  11.485  0.0520  0.0283 -0.4328
 2796TIP3    H132583   5.217   1.839  11.460 -1.1242  1.2053  1.7342
 2796TIP3    H232584   5.111   1.736  11.426 -0.1394  0.8481 -0.4354
 2797TIP3   OH232585   1.317   2.475  11.498  0.0769  0.3841  0.8658
 2797TIP3    H132586   1.366   2.557  11.504 -1.2586  1.6015 -2.3253
 2797TIP3    H232587   1.239   2.488  11.552 -1.0466  2.0863 -1.0229
 2798TIP3   OH232588   2.014   1.171  10.589 -0.2247 -0.0663  0.0837
 2798TIP3    H132589   2.093   1.133  10.628 -0.8968 -0.6981  0.8593
 2798TIP3    H232590   1.942   1.133  10.639 -1.0105  0.7435 -0.4077
 2799TIP3   OH232591   5.227   3.126  11.576  0.5237  0.0571  0.4485
 2799TIP3    H132592   5.142   3.113  11.533  0.3475  0.9159  0.5118
 2799TIP3    H232593   5.291   3.106  11.508  0.2518  0.7554 -0.0210
 2800TIP3   OH232594   1.963   3.831  10.248  0.8139 -0.0630  0.3098
 2800TIP3    H132595   1.905   3.773  10.200  0.5513 -0.3388  0.9501
 2800TIP3    H232596   1.973   3.789  10.334 -1.3840  2.0363  1.7210
 2801TIP3   OH232597   2.601   5.841  11.230 -0.2224 -0.3727  0.2475
 2801TIP3    H132598   2.624   5.928  11.198 -2.0159 -0.1165 -0.4293
 2801TIP3    H232599   2.682   5.808  11.270  0.1127  2.1989  1.9056
 2802TIP3   OH232600   1.854   2.161  11.119  0.0856 -0.1406  0.2517
 2802TIP3    H132601   1.935   2.212  11.122  0.6384 -1.0046  2.1870
 2802TIP3    H232602   1.787   2.220  11.154  0.2206  0.0524  0.1853
 2803TIP3   OH232603   2.081   1.684   9.754  0.0050  0.7082 -0.8429
 2803TIP3    H132604   2.085   1.608   9.696  0.9223  1.1625 -1.3895
 2803TIP3    H232605   2.074   1.646   9.842 -2.0412  0.0162 -1.2489
 2804TIP3   OH232606   5.096   0.860  11.759 -0.5436  0.2469  0.0520
 2804TIP3    H132607   5.137   0.929  11.811  1.1607 -0.3033 -0.4807
 2804TIP3    H232608   5.148   0.857  11.678 -0.7795 -1.4198 -0.0755
 2805TIP3   OH232609   0.449   2.669  10.683  0.2028 -0.0877  0.0834
 2805TIP3    H132610   0.536   2.664  10.641  1.4972  1.7955  2.2978
 2805TIP3    H232611   0.455   2.610  10.758 -0.1201  0.6436  0.7017
 2806TIP3   OH232612   6.056   3.826  10.346  0.0477 -0.8971 -0.1071
 2806TIP3    H132613   6.031   3.741  10.382 -1.5470  0.2259  1.6305
 2806TIP3    H232614   6.113   3.865  10.413  0.7266 -0.5630 -0.8600
 2807TIP3   OH232615   1.245   0.309   9.687 -0.4714  0.0355  0.2556
 2807TIP3    H132616   1.330   0.317   9.730  0.0136  1.2356 -0.8354
 2807TIP3    H232617   1.259   0.244   9.618 -0.5159 -0.0053  0.2854
 2808TIP3   OH232618   4.688   0.111  10.094 -0.3602  0.1527  0.2378
 2808TIP3    H132619   4.710   0.075  10.180  0.4942  0.8972  0.3466
 2808TIP3    H232620   4.738   0.058  10.032  1.1029  1.2476  0.4168
 2809TIP3   OH232621   4.905   0.873   8.378  0.3689 -0.0876 -0.1821
 2809TIP3    H132622   4.999   0.861   8.387  0.3120  0.9424  2.7793
 2809TIP3    H232623   4.893   0.966   8.359 -0.0631 -0.3107 -1.0817
 2810TIP3   OH232624   3.871   0.562  11.472  0.3892  0.1058 -0.2813
 2810TIP3    H132625   3.940   0.601  11.418 -0.3770 -0.3576 -1.6597
 2810TIP3    H232626   3.884   0.600  11.559  0.9143  1.8660 -1.0792
 2811TIP3   OH232627   5.571   1.335  11.859  0.4393 -0.1744 -0.5159
 2811TIP3    H132628   5.638   1.345  11.926 -1.2391  0.9407  1.0663
 2811TIP3    H232629   5.587   1.408  11.799  2.2809 -1.4849 -1.7396
 2812TIP3   OH232630   0.706   2.978   8.874  0.0144  0.4819 -0.2880
 2812TIP3    H132631   0.734   3.050   8.930  0.3064  0.1552 -0.0095
 2812TIP3    H232632   0.612   2.994   8.860 -0.0297  0.6516  0.1693
 2813TIP3   OH232633   6.327   3.870  10.495 -0.0911  0.5344  0.5348
 2813TIP3    H132634   6.323   3.821  10.413 -0.8766  2.4988 -0.6817
 2813TIP3    H232635   6.332   3.803  10.563 -0.6480 -1.1879 -1.0383
 2814TIP3   OH232636   3.841   6.284  12.353  0.8619 -0.2436 -0.5083
 2814TIP3    H132637   3.752   6.299  12.385  1.1321  2.0459 -0.7012
 2814TIP3    H232638   3.860   6.194  12.379 -1.1237 -0.4575  0.4273
 2815TIP3   OH232639   3.252   1.404   9.136 -0.6578 -0.0211  0.6960
 2815TIP3    H132640   3.199   1.484   9.137 -0.5742  0.0324  0.8760
 2815TIP3    H232641   3.340   1.433   9.157 -0.3103  0.0559 -0.7477
 2816TIP3   OH232642   6.689   3.267  11.324 -0.6779 -0.7507  0.1385
 2816TIP3    H132643   6.707   3.327  11.396  1.4732 -1.1684  0.0026
 2816TIP3    H232644   6.694   3.323  11.246 -1.6390 -0.5699  0.1885
 2817TIP3   OH232645   1.084   4.161  10.195 -0.0799 -0.0721  0.0777
 2817TIP3    H132646   1.006   4.153  10.140 -0.2679 -0.4099  0.3841
 2817TIP3    H232647   1.130   4.078  10.182 -0.4696 -0.4328  0.9399
 2818TIP3   OH232648   4.722   1.716  10.091  0.1524 -0.1661  0.3984
 2818TIP3    H132649   4.750   1.666  10.168  0.4411 -0.5422  0.0509
 2818TIP3    H232650   4.803   1.734  10.043 -0.1880 -1.3258 -0.6563
 2819TIP3   OH232651   5.024   5.707  11.820 -0.2799  0.2010 -0.0009
 2819TIP3    H132652   4.939   5.692  11.779 -0.1887 -1.6794  0.4231
 2819TIP3    H232653   5.064   5.621  11.824  1.4082  0.9720  0.3620
 2820TIP3   OH232654   1.707   1.868   9.933  0.5489  0.1837 -0.7799
 2820TIP3    H132655   1.726   1.910  10.017  0.5734  0.5712 -0.9738
 2820TIP3    H232656   1.769   1.909   9.872 -0.7014  1.2751 -1.3709
 2821TIP3   OH232657   0.037   2.473  11.206  0.4328  0.1596  0.1941
 2821TIP3    H132658   0.059   2.566  11.201  0.0789  0.1912 -2.1628
 2821TIP3    H232659   0.079   2.434  11.129  0.6531 -1.6599  1.1752
 2822TIP3   OH232660   6.486   1.618  10.374 -0.2651 -0.1156 -0.0033
 2822TIP3    H132661   6.410   1.564  10.393  0.6240 -0.9910  1.1999
 2822TIP3    H232662   6.545   1.560  10.326  0.4928 -0.0603  0.8507
 2823TIP3   OH232663   2.197   6.114  10.072 -0.2524 -0.3063  0.5745
 2823TIP3    H132664   2.264   6.096  10.138 -0.4229  1.8577  1.4266
 2823TIP3    H232665   2.181   6.029  10.030  2.2362 -1.0936  1.0472
 2824TIP3   OH232666   6.445   1.001  11.409 -0.3121 -0.2051  0.0860
 2824TIP3    H132667   6.455   1.029  11.500 -0.5987  1.2091 -0.3064
 2824TIP3    H232668   6.481   1.072  11.357 -0.2711 -0.9451 -0.9269
 2825TIP3   OH232669   4.319   5.959  12.043  0.2814  0.0193 -0.6548
 2825TIP3    H132670   4.320   6.052  12.022 -0.4701 -0.0748 -1.1682
 2825TIP3    H232671   4.381   5.949  12.115  2.9993  0.3701 -2.7682
 2826TIP3   OH232672   3.794   5.557  12.021 -0.1181 -0.5114 -0.0004
 2826TIP3    H132673   3.879   5.514  12.008  0.9802  1.1027  1.3869
 2826TIP3    H232674   3.731   5.485  12.021  1.3779 -1.8839  0.0151
 2827TIP3   OH232675   1.125   4.528  11.343  0.1713  0.5306 -0.2357
 2827TIP3    H132676   1.132   4.436  11.368  0.3776  0.7734  0.6342
 2827TIP3    H232677   1.122   4.575  11.426  0.0446  1.3096 -0.6741
 2828TIP3   OH232678   3.472   2.256   9.761 -0.6493 -0.0556 -0.3393
 2828TIP3    H132679   3.453   2.257   9.667 -1.0072 -0.5938 -0.2730
 2828TIP3    H232680   3.394   2.219   9.801 -1.0464  1.4032  0.3070
 2829TIP3   OH232681   5.693   0.268   9.851 -0.1280  0.0254 -0.1129
 2829TIP3    H132682   5.785   0.261   9.828 -0.2448  1.4810 -1.1986
 2829TIP3    H232683   5.647   0.219   9.783 -0.2093  0.2221 -0.2013
 2830TIP3   OH232684   4.565   0.983  11.794  0.0702 -0.0075 -0.2120
 2830TIP3    H132685   4.562   1.034  11.875 -0.8495 -0.8557  0.3179
 2830TIP3    H232686   4.570   0.892  11.823 -1.8376 -0.4361 -1.0460
 2831TIP3   OH232687   5.278   0.850   9.416 -0.1390 -0.1335  0.2170
 2831TIP3    H132688   5.283   0.801   9.498 -1.1029 -0.5600  0.0452
 2831TIP3    H232689   5.365   0.887   9.404  1.4307 -3.6816 -0.7624
 2832TIP3   OH232690   3.569   4.991  11.529  0.1589 -0.6112 -0.2158
 2832TIP3    H132691   3.606   4.906  11.506 -0.2212 -1.1160  0.9680
 2832TIP3    H232692   3.645   5.049  11.537  0.4461 -0.9218 -0.6555
 2833TIP3   OH232693   4.879   0.645  10.282  0.5380  0.0735 -0.5448
 2833TIP3    H132694   4.948   0.682  10.227  0.4947 -1.5193 -1.7601
 2833TIP3    H232695   4.923   0.577  10.333  0.1199 -0.0702 -0.3666
 2834TIP3   OH232696   5.974   6.674  10.802 -0.0077  0.5435  0.5563
 2834TIP3    H132697   5.997   6.602  10.743  2.1670 -0.4341  2.4423
 2834TIP3    H232698   5.901   6.640  10.854 -0.6426  0.6808 -0.2279
 2835TIP3   OH232699   5.045   2.062  10.739 -0.2527  0.1399 -0.6162
 2835TIP3    H132700   5.036   2.044  10.833 -0.5868 -0.7599 -0.8113
 2835TIP3    H232701   4.956   2.059  10.705 -0.0886  0.0051 -1.0402
 2836TIP3   OH232702   5.759   4.725  12.115  0.0701 -0.0675 -0.6193
 2836TIP3    H132703   5.696   4.797  12.117  0.1884  0.0928 -1.8274
 2836TIP3    H232704   5.725   4.661  12.178  0.9126  1.7655  1.8265
 2837TIP3   OH232705   5.705   6.166   8.710  0.0337  0.1918  0.0887
 2837TIP3    H132706   5.610   6.154   8.704  0.3663 -1.8515 -3.3160
 2837TIP3    H232707   5.735   6.091   8.761 -0.1406  1.2315  1.8191
 2838TIP3   OH232708   4.134   0.680   9.472 -0.0985  0.4695  0.3447
 2838TIP3    H132709   4.128   0.614   9.541 -0.5063 -0.5365 -0.6165
 2838TIP3    H232710   4.223   0.668   9.436 -1.2930 -2.1328 -2.2100
 2839TIP3   OH232711   5.808   4.148  12.319 -0.9476 -0.7133  0.1347
 2839TIP3    H132712   5.877   4.112  12.263  0.1668  0.0925  0.9376
 2839TIP3    H232713   5.840   4.235  12.342 -2.3824 -0.2171  0.3097
 2840TIP3   OH232714   4.870   2.792  10.165  1.0344 -0.0960 -0.3687
 2840TIP3    H132715   4.876   2.856  10.235  1.2518  0.1806 -0.6355
 2840TIP3    H232716   4.790   2.816  10.118  0.2009 -1.0443  0.5177
 2841TIP3   OH232717   0.430   1.007  12.136  0.3940  0.5721 -0.5802
 2841TIP3    H132718   0.473   0.941  12.082  0.2590  0.8762 -1.0653
 2841TIP3    H232719   0.359   0.960  12.180  0.3845  0.3648 -0.8151
 2842TIP3   OH232720   4.186   0.729   9.163  0.0968 -0.9499 -0.5476
 2842TIP3    H132721   4.094   0.706   9.178 -0.3127 -1.1336 -2.9663
 2842TIP3    H232722   4.234   0.683   9.232 -1.6979  0.3679  1.7303
 2843TIP3   OH232723   2.845   2.042  11.986 -0.1603  0.0906 -0.0921
 2843TIP3    H132724   2.871   1.951  12.001 -1.6862 -0.0315  2.6749
 2843TIP3    H232725   2.751   2.037  11.966 -0.6967  1.0564  1.8466
 2844TIP3   OH232726   4.896   2.654  11.603 -0.0706 -0.1439 -0.6212
 2844TIP3    H132727   4.924   2.670  11.693 -1.1103 -0.4358 -0.2342
 2844TIP3    H232728   4.911   2.560  11.590  1.4781  0.1503 -1.2773
 2845TIP3   OH232729   5.608   5.755   9.441  0.0917  0.2242 -0.1050
 2845TIP3    H132730   5.640   5.681   9.492  2.1254  1.7309  0.9575
 2845TIP3    H232731   5.514   5.741   9.434  0.4825 -2.8768 -0.7255
 2846TIP3   OH232732   6.481   3.733  11.748  0.1648 -0.1179 -0.1352
 2846TIP3    H132733   6.497   3.639  11.751 -1.0047 -0.3634 -0.7838
 2846TIP3    H232734   6.416   3.743  11.678 -0.7701  1.0068  0.8598
 2847TIP3   OH232735   5.258   2.399  10.246 -0.2574  0.2649  0.3506
 2847TIP3    H132736   5.275   2.330  10.182 -0.2463 -0.1523  0.8008
 2847TIP3    H232737   5.194   2.360  10.306 -0.2893  0.6637  0.5768
 2848TIP3   OH232738   5.240   0.686  11.094 -0.0009  0.1601  0.2435
 2848TIP3    H132739   5.278   0.774  11.101  0.1015  0.3896 -2.2024
 2848TIP3    H232740   5.165   0.697  11.034 -0.6949 -1.2279  0.8057
 2849TIP3   OH232741   5.293   1.430  11.903  0.4195 -0.7265 -0.2365
 2849TIP3    H132742   5.384   1.405  11.888  0.4959  0.2427 -1.6456
 2849TIP3    H232743   5.284   1.437  11.998  1.1543 -3.1165  0.0510
 2850TIP3   OH232744   4.075   0.863  10.117 -0.3726  0.1370 -0.4598
 2850TIP3    H132745   4.080   0.854  10.212  0.7237  0.9295 -0.4303
 2850TIP3    H232746   4.000   0.921  10.102  0.1090  0.8692 -0.0255
 2851TIP3   OH232747   2.901   2.377  10.278  0.3865  0.4658  0.5371
 2851TIP3    H132748   2.856   2.403  10.198  0.8050  0.3941  0.2788
 2851TIP3    H232749   2.974   2.438  10.286  1.0795 -0.3053  0.1911
 2852TIP3   OH232750   6.253   4.631  10.337  0.4878 -0.2994 -0.2085
 2852TIP3    H132751   6.185   4.570  10.308  0.5270 -1.4364  1.9189
 2852TIP3    H232752   6.331   4.577  10.348  1.1211  0.5589 -0.3753
 2853TIP3   OH232753   4.618   2.506  11.880 -0.3947  0.1777 -0.2926
 2853TIP3    H132754   4.543   2.448  11.898 -0.9264  0.5420 -1.2723
 2853TIP3    H232755   4.582   2.576  11.825  0.5940  0.5528 -0.4831
 2854TIP3   OH232756   5.881   5.044  11.057  0.0471 -0.5774  0.5766
 2854TIP3    H132757   5.836   5.028  10.975  1.0435 -0.8077  0.0542
 2854TIP3    H232758   5.968   5.074  11.031  0.2454 -0.2802  1.5469
 2855TIP3   OH232759   3.845   2.971  12.174  0.0338  0.2152 -0.3599
 2855TIP3    H132760   3.871   2.881  12.194 -0.0914 -0.1292 -1.6749
 2855TIP3    H232761   3.781   2.963  12.104 -1.8284  1.2057  1.1305
 2856TIP3   OH232762   0.095   3.113  10.489 -0.8683  0.3974 -0.4056
 2856TIP3    H132763   0.086   3.168  10.412  1.9380  1.3414 -0.1549
 2856TIP3    H232764   0.181   3.072  10.480 -1.5524 -1.4956  0.9814
 2857TIP3   OH232765   3.341   3.793   9.273  0.0032  0.0504 -0.0473
 2857TIP3    H132766   3.310   3.874   9.313  0.0312 -0.7792  1.7350
 2857TIP3    H232767   3.290   3.785   9.193  0.1726  1.9424 -0.3986
 2858TIP3   OH232768   3.103   0.798  11.832  0.1777  0.5056 -0.0507
 2858TIP3    H132769   3.182   0.747  11.812 -0.2339 -0.5025  0.7750
 2858TIP3    H232770   3.107   0.874  11.774  0.2354 -1.0630 -2.2204
 2859TIP3   OH232771   1.268   0.581  10.953 -0.0172  0.2880 -0.5082
 2859TIP3    H132772   1.354   0.620  10.939 -0.3783  1.6389  0.8242
 2859TIP3    H232773   1.280   0.488  10.931  1.8074  0.4143 -0.1850
 2860TIP3   OH232774   0.160   4.577  10.496  0.5189  0.3516 -0.1638
 2860TIP3    H132775   0.086   4.522  10.471 -0.8480  2.2661 -0.4567
 2860TIP3    H232776   0.167   4.642  10.426  1.8448  0.8257  0.3758
 2861TIP3   OH232777   0.828   3.879   9.340 -0.1519  0.5342  0.4364
 2861TIP3    H132778   0.772   3.811   9.304  0.4208 -0.3176  1.0978
 2861TIP3    H232779   0.894   3.894   9.273 -0.7109  0.9880 -0.0223
 2862TIP3   OH232780   5.720   3.741  11.302 -0.1528 -0.4394 -0.1239
 2862TIP3    H132781   5.665   3.721  11.378 -0.3659 -2.0351 -0.6549
 2862TIP3    H232782   5.710   3.835  11.289  1.3119  0.2347  2.9031
 2863TIP3   OH232783   1.169   5.725  12.050 -0.5076  0.7453 -0.3511
 2863TIP3    H132784   1.088   5.767  12.080 -1.5274  0.1715 -2.1496
 2863TIP3    H232785   1.185   5.763  11.964  0.2712 -0.3101 -0.6897
 2864TIP3   OH232786   1.961   4.391  12.433  0.2122  0.0758 -0.0046
 2864TIP3    H132787   2.012   4.347  12.366 -0.4277 -0.1231 -0.3613
 2864TIP3    H232788   1.959   4.329  12.506 -1.3953 -0.8715 -0.8072
 2865TIP3   OH232789   4.022   0.962  10.660 -0.8835 -0.0652  0.1309
 2865TIP3    H132790   3.930   0.954  10.685 -1.0362  1.5518  0.2030
 2865TIP3    H232791   4.059   1.024  10.723 -0.2200  0.7390 -1.0137
 2866TIP3   OH232792   6.205   2.349  11.824  0.1905 -0.6957 -0.4231
 2866TIP3    H132793   6.295   2.381  11.812  0.0379 -0.5851 -1.3521
 2866TIP3    H232794   6.151   2.428  11.815 -0.0420 -0.8613 -0.4628
 2867TIP3   OH232795   4.525   6.082  11.312 -0.3502 -0.2402  0.6629
 2867TIP3    H132796   4.538   6.121  11.225 -1.7511 -1.7869 -0.3136
 2867TIP3    H232797   4.611   6.049  11.337  0.1651  0.6169  0.0793
 2868TIP3   OH232798   0.526   3.052  10.616 -0.1791  0.7389  0.3163
 2868TIP3    H132799   0.461   3.091  10.674 -1.9548 -1.4423 -0.0388
 2868TIP3    H232800   0.511   3.093  10.531 -0.8597  0.5239  0.3275
 2869TIP3   OH232801   5.705   4.187  11.520  0.2142  0.0237 -0.1633
 2869TIP3    H132802   5.711   4.244  11.596 -0.0181 -0.3212  0.1164
 2869TIP3    H232803   5.795   4.161  11.502  0.1398 -1.0084  0.8542
 2870TIP3   OH232804   1.514   0.913  11.607 -0.0896 -0.1567 -0.4476
 2870TIP3    H132805   1.588   0.868  11.649 -0.4842 -1.6473 -1.2573
 2870TIP3    H232806   1.474   0.964  11.677  0.1535 -1.4053  0.6409
 2871TIP3   OH232807   0.041   0.734  10.421  0.0258 -0.0851  0.0213
 2871TIP3    H132808   0.095   0.704  10.348 -0.0398 -0.1637  0.0046
 2871TIP3    H232809   0.012   0.653  10.463  0.3499 -0.0323  0.3465
 2872TIP3   OH232810   0.385   6.043   9.376 -0.0224 -0.3688  0.0088
 2872TIP3    H132811   0.397   6.067   9.284 -3.1164  1.1610 -0.1219
 2872TIP3    H232812   0.428   6.112   9.425  0.1122 -0.2285 -0.3044
 2873TIP3   OH232813   4.318   2.858  10.859 -0.0725 -0.3277  0.6493
 2873TIP3    H132814   4.298   2.899  10.943 -0.1853  0.0899  0.4194
 2873TIP3    H232815   4.331   2.931  10.798  0.4746 -0.6191  0.4079
 2874TIP3   OH232816   4.197   0.010  11.169 -0.0110 -0.0948  0.6342
 2874TIP3    H132817   4.168  -0.078  11.191  0.7371 -0.2043  1.2546
 2874TIP3    H232818   4.285   0.016  11.207  0.0481  0.8271  0.3781
 2875TIP3   OH232819   5.965   4.170  10.020 -0.1219 -0.0452  0.3111
 2875TIP3    H132820   5.877   4.204  10.032  0.1755  0.5409  0.9191
 2875TIP3    H232821   5.953   4.087   9.974 -0.9989 -0.0470  0.5226
 2876TIP3   OH232822   4.087   6.003   9.818 -0.7421  0.3891 -0.2548
 2876TIP3    H132823   4.022   5.970   9.756 -0.1820  0.0038 -0.6546
 2876TIP3    H232824   4.170   5.997   9.770 -0.1878 -0.6001  0.7893
 2877TIP3   OH232825   2.842   0.833  10.590 -0.0358 -0.1011  0.4597
 2877TIP3    H132826   2.882   0.813  10.505  0.6242 -0.9252  0.9518
 2877TIP3    H232827   2.843   0.929  10.594  1.0294 -0.0752  0.0391
 2878TIP3   OH232828   6.674   3.689   9.568  0.0725  0.1221 -0.8148
 2878TIP3    H132829   6.601   3.633   9.543  0.4831 -0.4590 -0.7135
 2878TIP3    H232830   6.690   3.743   9.491 -0.7429  0.5671 -0.6911
 2879TIP3   OH232831   1.909   3.023  11.770 -0.8260 -0.5295 -0.0332
 2879TIP3    H132832   1.981   3.016  11.707 -1.0732 -0.1614 -0.3599
 2879TIP3    H232833   1.940   3.084  11.837 -1.2027  0.4269 -0.7013
 2880TIP3   OH232834   0.742   0.500   9.020  0.2401 -0.2293 -0.1090
 2880TIP3    H132835   0.672   0.439   8.997 -0.8350  0.9024  0.0638
 2880TIP3    H232836   0.736   0.569   8.954  0.9339  0.0910  0.1533
 2881TIP3   OH232837   5.016   4.031   9.840  0.4676  0.1420 -0.0150
 2881TIP3    H132838   4.928   4.038   9.802  0.1858  0.6696  0.7107
 2881TIP3    H232839   5.028   3.937   9.857 -0.0278  0.0896  0.0474
 2882TIP3   OH232840   3.200   5.972  11.688 -0.1746  0.1649 -0.2822
 2882TIP3    H132841   3.171   6.052  11.645 -1.1957 -0.2162 -0.3285
 2882TIP3    H232842   3.272   5.940  11.634  0.6201  1.3286  0.0411
 2883TIP3   OH232843   5.915   5.947  11.835  0.4996  0.4322 -0.3284
 2883TIP3    H132844   5.943   5.860  11.865 -0.4034  0.3576  0.3376
 2883TIP3    H232845   5.934   6.005  11.908 -0.4959  0.4797 -0.0888
 2884TIP3   OH232846   1.034   1.626  10.913 -0.2532  0.0322  0.2228
 2884TIP3    H132847   1.083   1.683  10.853 -0.2501  1.0895  1.1832
 2884TIP3    H232848   0.980   1.687  10.964 -0.2309 -0.8261  1.3021
 2885TIP3   OH232849   0.704   3.956  12.031  0.4760 -0.1007  0.5349
 2885TIP3    H132850   0.783   4.003  12.060  0.8927  0.7362 -1.7471
 2885TIP3    H232851   0.699   3.880  12.089  1.6933  0.9848  2.1750
 2886TIP3   OH232852   4.913   6.301  10.483 -0.4175  0.0717  0.1414
 2886TIP3    H132853   4.999   6.293  10.524 -0.4162  0.1665  0.1565
 2886TIP3    H232854   4.851   6.289  10.555 -0.4114  2.1533  0.5427
 2887TIP3   OH232855   0.585   0.018  12.100  0.1569 -0.0957 -0.5442
 2887TIP3    H132856   0.654  -0.032  12.143  0.8466  1.7364  0.6045
 2887TIP3    H232857   0.631   0.088  12.053 -0.8542  1.3938  0.5636
 2888TIP3   OH232858   1.069   1.625   9.145 -1.0459  0.3960 -0.6616
 2888TIP3    H132859   1.079   1.556   9.079 -0.3318  0.0810 -0.2314
 2888TIP3    H232860   1.155   1.633   9.185 -1.1228  1.5357 -0.6949
 2889TIP3   OH232861   5.043   3.424   9.340  0.7973  0.2822  0.4697
 2889TIP3    H132862   4.978   3.415   9.410  1.3213 -0.1436  0.9120
 2889TIP3    H232863   5.081   3.511   9.353 -0.9581  1.3229 -0.9191
 2890TIP3   OH232864   5.330   5.335  11.724  0.3006 -0.1664  0.0305
 2890TIP3    H132865   5.410   5.365  11.768  0.2985  1.1640 -0.8549
 2890TIP3    H232866   5.361   5.293  11.644  0.3114 -2.7295  1.2458
 2891TIP3   OH232867   5.425   5.469  11.261  0.4932  0.1019 -0.4476
 2891TIP3    H132868   5.415   5.417  11.181 -0.5109 -1.7094  0.7960
 2891TIP3    H232869   5.485   5.419  11.315 -2.6219 -1.4214  1.9505
 2892TIP3   OH232870   1.035   3.327  10.134 -0.4674 -0.3561  0.7970
 2892TIP3    H132871   1.028   3.386  10.208  0.9116  0.2680  0.4563
 2892TIP3    H232872   1.035   3.384  10.057  1.9439 -0.6617  0.5074
 2893TIP3   OH232873   0.692   1.844   9.771 -0.1003  0.4130  0.4313
 2893TIP3    H132874   0.785   1.826   9.759 -0.2134 -0.8906  1.3569
 2893TIP3    H232875   0.690   1.932   9.808  1.0068 -0.7025  3.4157
 2894TIP3   OH232876   6.457   1.891   9.318  0.4887 -0.0932 -0.0695
 2894TIP3    H132877   6.427   1.867   9.406 -1.8374  1.4971 -0.3442
 2894TIP3    H232878   6.505   1.973   9.332 -0.3164  0.4302 -0.3131
 2895TIP3   OH232879   0.373   1.589  10.658 -0.2134  0.1272 -0.2896
 2895TIP3    H132880   0.338   1.519  10.713 -1.3897  0.8168 -0.1247
 2895TIP3    H232881   0.296   1.632  10.622  0.4332  2.2311  0.7168
 2896TIP3   OH232882   3.354   2.275  10.919  0.1834 -0.4024 -0.2785
 2896TIP3    H132883   3.289   2.298  10.985 -0.5705  0.0067 -1.1320
 2896TIP3    H232884   3.303   2.257  10.840  1.1500  0.9783 -1.2771
 2897TIP3   OH232885   4.537   3.928  12.328 -0.6947  0.0043  0.5905
 2897TIP3    H132886   4.527   3.836  12.302  0.7639  0.2699 -1.0630
 2897TIP3    H232887   4.478   3.976  12.269  0.3151  0.3255 -0.1827
 2898TIP3   OH232888   6.489   3.237   9.183  0.1229  0.3426 -0.9081
 2898TIP3    H132889   6.421   3.206   9.123  0.9225 -2.1798 -0.6454
 2898TIP3    H232890   6.518   3.320   9.145 -0.1133 -0.6464 -3.5093
 2899TIP3   OH232891   6.256   3.679   9.976  0.1006  0.0702  0.0944
 2899TIP3    H132892   6.280   3.593   9.943  0.8360  0.4813 -0.4734
 2899TIP3    H232893   6.180   3.663  10.032  0.2994 -0.9537  0.0869
 2900TIP3   OH232894   5.514   2.887   9.896 -0.2013  0.4960 -0.1968
 2900TIP3    H132895   5.474   2.877   9.809  0.7875 -3.5429 -0.3933
 2900TIP3    H232896   5.443   2.920   9.951 -2.4417 -1.6358 -1.5607
 2901TIP3   OH232897   5.120   2.543   9.730 -0.0333  0.2118 -0.5757
 2901TIP3    H132898   5.161   2.544   9.644  0.3843 -1.2680 -0.4221
 2901TIP3    H232899   5.029   2.570   9.714  0.5053  1.7677 -1.1764
 2902TIP3   OH232900   2.375   5.269  12.046 -0.0635  0.0047 -0.7224
 2902TIP3    H132901   2.341   5.180  12.034 -1.6128  0.4103  0.3686
 2902TIP3    H232902   2.356   5.314  11.964 -0.6291 -0.2650 -0.7456
 2903TIP3   OH232903   2.267   0.877  12.115 -0.1675  0.5206  0.4365
 2903TIP3    H132904   2.197   0.883  12.180 -0.1572  0.2118  0.4804
 2903TIP3    H232905   2.334   0.939  12.145  0.1490 -0.1297  1.1124
 2904TIP3   OH232906   1.515   2.569  10.175  0.1835  0.0314 -0.0848
 2904TIP3    H132907   1.573   2.614  10.112  0.6383  0.1109  0.3887
 2904TIP3    H232908   1.545   2.478  10.175  0.7923  0.2189  0.6961
 2905TIP3   OH232909   3.179   2.180   9.344 -0.0115  0.3223  0.4616
 2905TIP3    H132910   3.084   2.175   9.343 -0.0654  1.2009  0.4774
 2905TIP3    H232911   3.206   2.109   9.402 -0.6329 -0.1845  0.1432
 2906TIP3   OH232912   5.822   1.307   9.843  0.0534  0.2428  0.5342
 2906TIP3    H132913   5.794   1.390   9.881 -0.6731  0.2784 -0.0731
 2906TIP3    H232914   5.916   1.318   9.829  0.3641  0.2074  2.3629
 2907TIP3   OH232915   5.050   0.647  12.034 -0.2977 -0.1909 -0.3495
 2907TIP3    H132916   5.034   0.642  11.940 -0.4644  0.2318 -0.3456
 2907TIP3    H232917   5.110   0.721  12.044 -1.2844  0.5855 -0.0052
 2908TIP3   OH232918   4.650   1.732   9.505  0.4262  0.1484  0.1590
 2908TIP3    H132919   4.640   1.665   9.572  1.1306 -1.0146 -0.8450
 2908TIP3    H232920   4.712   1.795   9.542  0.9447 -0.5752  0.5428
 2909TIP3   OH232921   0.477   1.801   9.598  0.2809  0.2250 -1.2969
 2909TIP3    H132922   0.549   1.775   9.657 -1.2429  0.0975  0.6016
 2909TIP3    H232923   0.481   1.896   9.597  1.5155  0.2004 -2.6269
 2910TIP3   OH232924   3.908   1.964   9.835 -0.3826 -0.2614  0.2240
 2910TIP3    H132925   3.835   1.990   9.779 -0.1929 -0.9857 -0.3803
 2910TIP3    H232926   3.959   1.903   9.782  0.7143  0.2901  0.6120
 2911TIP3   OH232927   2.447   5.400  11.698 -0.4606 -0.2426  0.2459
 2911TIP3    H132928   2.515   5.353  11.747 -0.3433 -0.0989  0.2215
 2911TIP3    H232929   2.417   5.337  11.632  1.4916  0.5120 -1.5043
 2912TIP3   OH232930   2.416   4.696  10.613 -0.5996  0.4662 -0.3495
 2912TIP3    H132931   2.498   4.745  10.602  0.6095 -1.2429  0.5812
 2912TIP3    H232932   2.430   4.614  10.566 -0.7518 -0.9294  1.8935
 2913TIP3   OH232933   2.976   4.900   9.738 -0.1474  0.3192  0.3019
 2913TIP3    H132934   2.953   4.960   9.668  0.7840  2.1538  1.4847
 2913TIP3    H232935   2.942   4.942   9.817  0.8777 -0.5093  1.2144
 2914TIP3   OH232936   1.691   6.088  12.326 -0.1824 -0.7965  0.2171
 2914TIP3    H132937   1.681   6.027  12.253 -0.0976 -0.4585 -0.0809
 2914TIP3    H232938   1.780   6.075  12.357 -0.2947 -1.1077  0.4164
 2915TIP3   OH232939   5.043   3.539  12.145 -0.0279  0.2743  0.0843
 2915TIP3    H132940   5.121   3.512  12.097  0.1040 -0.7964  0.8691
 2915TIP3    H232941   5.074   3.552  12.235 -0.7312 -0.0505  0.3750
 2916TIP3   OH232942   4.202   2.362  11.188  0.0830 -0.6349 -0.3126
 2916TIP3    H132943   4.164   2.331  11.270  1.4577  1.0158  1.0423
 2916TIP3    H232944   4.274   2.301  11.170  1.0827  0.1355  0.8806
 2917TIP3   OH232945   1.683   1.157   9.232  0.0882 -0.2826 -0.2358
 2917TIP3    H132946   1.590   1.163   9.211 -0.1481 -1.2645  0.5000
 2917TIP3    H232947   1.688   1.101   9.309  1.2124  0.6414  0.4063
 2918TIP3   OH232948   4.453   6.596   9.289  0.0125  0.4346  0.4389
 2918TIP3    H132949   4.372   6.647   9.291  0.6076  1.4347 -0.3046
 2918TIP3    H232950   4.432   6.520   9.235 -0.2738  0.9837 -0.2378
 2919TIP3   OH232951   4.367   2.570  12.158  0.2337 -0.5496  0.1587
 2919TIP3    H132952   4.444   2.618  12.186 -0.4337  0.2813  0.6274
 2919TIP3    H232953   4.377   2.483  12.198  0.2372  0.0074  1.4003
 2920TIP3   OH232954   4.345   2.396   9.857 -0.1969  0.2176 -0.2602
 2920TIP3    H132955   4.431   2.354   9.860  0.5542  1.6034 -1.4637
 2920TIP3    H232956   4.287   2.327   9.825  0.8669 -0.1696 -1.4767
 2921TIP3   OH232957   1.032   3.524  12.145  0.7264 -0.4438  0.0068
 2921TIP3    H132958   1.118   3.558  12.120  1.1585 -1.1578  0.5010
 2921TIP3    H232959   1.048   3.435  12.174  0.1169  0.0142  1.8911
 2922TIP3   OH232960   1.746   3.641  10.184 -0.0415 -0.1598 -0.7433
 2922TIP3    H132961   1.689   3.664  10.110  0.4689  3.1412 -0.2646
 2922TIP3    H232962   1.719   3.700  10.254  1.1459 -1.5110  0.9306
 2923TIP3   OH232963   5.151   1.725  12.131  0.2349  0.8073 -0.0881
 2923TIP3    H132964   5.166   1.742  12.223  1.0733  1.8129 -0.3911
 2923TIP3    H232965   5.116   1.807  12.096 -1.1597  0.0943 -0.4531
 2924TIP3   OH232966   0.814   0.604  10.049  0.2000 -0.1341  0.6594
 2924TIP3    H132967   0.763   0.529  10.019  0.0265  0.7203 -1.4124
 2924TIP3    H232968   0.905   0.575  10.042  0.0957 -0.9301  2.2418
 2925TIP3   OH232969   1.047   3.998  10.900 -0.6742 -0.1969 -0.5927
 2925TIP3    H132970   1.048   3.946  10.820  1.3156 -3.1953  1.2205
 2925TIP3    H232971   1.139   4.019  10.916 -1.1590  1.3564  0.3393
 2926TIP3   OH232972   2.362   4.534  11.044  0.2735  0.8235  0.2989
 2926TIP3    H132973   2.399   4.614  11.081  0.3303  0.7656  0.3677
 2926TIP3    H232974   2.428   4.502  10.983  0.7635  0.1956  1.1411
 2927TIP3   OH232975   6.196   5.902   9.474  0.3806 -0.0528  0.2593
 2927TIP3    H132976   6.240   5.833   9.423  1.2092  2.1229 -2.2443
 2927TIP3    H232977   6.234   5.896   9.561  1.6820 -1.6658 -0.3675
 2928TIP3   OH232978   0.420   5.656  11.466 -0.0573  0.0254  0.8030
 2928TIP3    H132979   0.352   5.657  11.398 -1.0841 -2.0923  1.6967
 2928TIP3    H232980   0.375   5.626  11.545  1.3713  1.2288  2.1481
 2929TIP3   OH232981   0.550   0.728   9.603 -0.0940  0.1038 -0.0642
 2929TIP3    H132982   0.517   0.811   9.638  0.8804  0.4531  0.0390
 2929TIP3    H232983   0.631   0.751   9.558  1.3573 -1.0841  1.8158
 2930TIP3   OH232984   6.516   2.902  10.973  0.0790  0.0503  0.0595
 2930TIP3    H132985   6.599   2.949  10.978  0.3844 -0.5181  0.4565
 2930TIP3    H232986   6.492   2.886  11.065  0.3464 -1.1937 -0.0706
 2931TIP3   OH232987   5.301   3.844  10.503 -0.3615 -0.2782 -0.4291
 2931TIP3    H132988   5.374   3.897  10.534  0.2819 -1.7131  0.6196
 2931TIP3    H232989   5.231   3.861  10.567 -0.2064 -0.5545 -0.1821
 2932TIP3   OH232990   4.600   2.976   9.253 -0.3816  0.4118  0.0007
 2932TIP3    H132991   4.640   3.063   9.241  0.9218  0.0478  1.3664
 2932TIP3    H232992   4.522   2.978   9.199 -1.0475  2.8956  0.9016
 2933TIP3   OH232993   2.733   6.539  10.993  0.2215 -0.4830 -0.3380
 2933TIP3    H132994   2.657   6.547  11.051  1.0864 -0.2172  0.7886
 2933TIP3    H232995   2.807   6.564  11.048  1.1514 -0.9544 -1.3600
 2934TIP3   OH232996   4.092   5.456  11.762 -0.3500  0.2399  0.1490
 2934TIP3    H132997   4.011   5.407  11.747 -1.4309  1.9148  0.2134
 2934TIP3    H232998   4.154   5.420  11.699 -1.1495 -1.0448  0.0493
 2935TIP3   OH232999   5.378   6.253  11.112  0.0267 -0.7586  0.0923
 2935TIP3    H133000   5.395   6.268  11.019 -0.5864 -1.7888 -0.2092
 2935TIP3    H233001   5.390   6.338  11.153 -0.1768 -0.1824 -1.0045
 2936TIP3   OH233002   4.969   6.605  11.637  0.3597  0.0078  0.1142
 2936TIP3    H133003   4.942   6.663  11.565  0.6964 -1.4020 -1.2020
 2936TIP3    H233004   4.971   6.662  11.714  1.0181  1.8150 -1.1742
 2937TIP3   OH233005   5.633   4.789  10.734  0.1878 -0.0167  0.0351
 2937TIP3    H133006   5.651   4.700  10.763  2.0930  0.5900  0.8447
 2937TIP3    H233007   5.683   4.844  10.793 -1.9185  1.7072  0.3375
 2938TIP3   OH233008   5.668   6.515   9.328  0.3678  0.0698 -0.0242
 2938TIP3    H133009   5.726   6.445   9.299 -0.3580  0.5149 -2.8210
 2938TIP3    H233010   5.695   6.591   9.278  0.2112  1.4809  1.9244
 2939TIP3   OH233011   5.602   0.079  11.728  0.0245  0.0185  0.3935
 2939TIP3    H133012   5.626   0.121  11.645 -2.5201  1.5421  0.3122
 2939TIP3    H233013   5.601   0.150  11.792 -2.0188 -0.3161  0.7988
 2940TIP3   OH233014   2.124   4.828  12.286  0.5250  0.0553 -0.0623
 2940TIP3    H133015   2.160   4.890  12.223  0.6002  0.3964  0.3106
 2940TIP3    H233016   2.075   4.883  12.348 -1.4019 -0.4469 -1.0408
 2941TIP3   OH233017   2.526   0.340  10.400  0.1367 -0.2231 -0.2351
 2941TIP3    H133018   2.612   0.319  10.438  1.1556 -0.0246 -2.3014
 2941TIP3    H233019   2.546   0.382  10.317 -1.9960  0.0487 -0.6700
 2942TIP3   OH233020   3.734   0.329   9.943  0.3200 -0.0309 -0.7001
 2942TIP3    H133021   3.672   0.388   9.900 -2.0715 -1.1075  1.0085
 2942TIP3    H233022   3.679   0.275  10.001  2.9402 -0.7882  1.2702
 2943TIP3   OH233023   6.681   1.142   9.901 -0.2913 -0.0213  0.3606
 2943TIP3    H133024   6.639   1.154   9.987  0.7486 -3.1144  1.4493
 2943TIP3    H233025   6.644   1.060   9.868  2.2442 -1.0030 -0.2572
 2944TIP3   OH233026   3.794   2.526   9.933  0.2513  0.1565  0.0509
 2944TIP3    H133027   3.823   2.437   9.919  1.6043  0.3756  1.2529
 2944TIP3    H233028   3.872   2.573   9.961 -0.5985  1.5384  0.1946
 2945TIP3   OH233029   2.625   0.492  11.513  0.6639  0.1709  0.7842
 2945TIP3    H133030   2.575   0.501  11.432 -0.2400  0.3310  1.3467
 2945TIP3    H233031   2.627   0.580  11.550  1.6515  0.2329  0.6164
 2946TIP3   OH233032   5.014   0.769  11.337  0.0685  0.5232 -0.3647
 2946TIP3    H133033   4.948   0.766  11.406  1.9789 -0.5627  1.5010
 2946TIP3    H233034   4.971   0.816  11.265 -2.2963  0.8946  1.1958
 2947TIP3   OH233035   5.974   3.439  11.433 -0.3309  0.3193 -0.1807
 2947TIP3    H133036   5.960   3.533  11.448 -0.4413  0.3449 -0.4494
 2947TIP3    H233037   6.008   3.433  11.344 -1.3360  0.0211 -0.5614
 2948TIP3   OH233038   4.061   6.308  10.600 -0.2301 -0.3335 -0.5744
 2948TIP3    H133039   4.095   6.360  10.673 -2.1582  1.0582 -0.5757
 2948TIP3    H233040   4.099   6.221  10.612  0.4385  0.1760  1.4018
 2949TIP3   OH233041   1.498   5.775  11.170 -0.7377 -0.7861 -0.5585
 2949TIP3    H133042   1.410   5.793  11.138 -0.9590 -0.7732  0.0595
 2949TIP3    H233043   1.492   5.692  11.217 -0.5132 -0.5835 -0.1590
 2950TIP3   OH233044   0.917   4.527  12.132 -0.4318 -0.4970 -0.5900
 2950TIP3    H133045   1.004   4.525  12.091 -1.0203  1.3362 -2.0799
 2950TIP3    H233046   0.928   4.578  12.212 -0.0725 -0.5751 -0.5904
 2951TIP3   OH233047   4.593   1.542  10.431 -0.2404 -0.5622  0.2640
 2951TIP3    H133048   4.545   1.625  10.432  0.5969  0.1496 -3.3361
 2951TIP3    H233049   4.678   1.564  10.394  0.4272 -2.8523  0.2894
 2952TIP3   OH233050   1.055   3.482  11.543  0.3278 -0.2128  0.1789
 2952TIP3    H133051   1.006   3.555  11.580  0.3557 -0.8158  1.4838
 2952TIP3    H233052   1.003   3.454  11.468 -0.5652  0.0880  0.6648
 2953TIP3   OH233053   1.220   5.772   9.220 -0.5427  0.0019 -0.2319
 2953TIP3    H133054   1.248   5.852   9.264 -0.4950 -0.6718  1.0193
 2953TIP3    H233055   1.166   5.802   9.147  1.5279  1.2583 -1.3503
 2954TIP3   OH233056   1.099   5.812  10.386 -0.0485 -0.3696 -0.0462
 2954TIP3    H133057   1.107   5.724  10.349 -0.3064 -0.2003 -0.5231
 2954TIP3    H233058   1.009   5.837  10.365  0.8309  1.1147 -2.4497
 2955TIP3   OH233059   0.776   5.150  11.654 -1.1125 -0.4887  0.5336
 2955TIP3    H133060   0.710   5.177  11.590 -1.3497 -4.2009 -1.0873
 2955TIP3    H233061   0.730   5.086  11.710  0.4775 -1.4145  0.8384
 2956TIP3   OH233062   6.437   2.638   9.604  0.0643  0.1201  0.3959
 2956TIP3    H133063   6.430   2.568   9.539 -0.1886  0.3250  0.2006
 2956TIP3    H233064   6.517   2.618   9.652 -0.6959 -1.0386  1.2172
 2957TIP3   OH233065   3.282   2.589  10.050  1.1115  0.1328 -0.4880
 2957TIP3    H133066   3.376   2.598  10.065  1.3423 -1.8245 -0.6127
 2957TIP3    H233067   3.274   2.554   9.961  0.2197  0.6862 -0.6507
 2958TIP3   OH233068   2.938   6.624   9.477  0.1562  0.3617 -0.3785
 2958TIP3    H133069   2.967   6.695   9.421  1.8781  0.1702  0.2033
 2958TIP3    H233070   2.982   6.546   9.442  0.6076  0.1074  0.7132
 2959TIP3   OH233071   1.769   4.869  10.738 -0.5891 -0.1710 -0.1274
 2959TIP3    H133072   1.817   4.789  10.757 -1.1509 -0.6856 -0.8219
 2959TIP3    H233073   1.719   4.849  10.658  0.2779  1.2964 -1.0823
 2960TIP3   OH233074   6.281   0.992   9.979 -0.0242 -0.3633 -0.0621
 2960TIP3    H133075   6.360   0.939   9.966  2.1454  2.4778  0.2907
 2960TIP3    H233076   6.276   1.046   9.900 -1.6722 -0.4868 -0.0732
 2961TIP3   OH233077   1.342   5.166  10.206 -0.1338  0.1107  0.2236
 2961TIP3    H133078   1.427   5.211  10.205 -0.6694  1.1614  0.3212
 2961TIP3    H233079   1.332   5.134  10.295 -0.4933  1.2910  0.6184
 2962TIP3   OH233080   0.974   5.285  10.488  0.2098  0.0138 -0.2336
 2962TIP3    H133081   0.893   5.273  10.438 -0.9423  0.7380  1.3859
 2962TIP3    H233082   1.041   5.304  10.421 -0.7912 -1.2062 -1.6504
 2963TIP3   OH233083   4.591   6.502  10.241  0.5564  0.9216  0.0914
 2963TIP3    H133084   4.623   6.579  10.287  3.2855  0.5084 -0.9438
 2963TIP3    H233085   4.543   6.536  10.166 -0.8571  1.5595  1.2335
 2964TIP3   OH233086   0.689   0.185   9.495 -0.1777 -0.3155  0.5946
 2964TIP3    H133087   0.768   0.131   9.502 -0.1874 -0.4091  0.0482
 2964TIP3    H233088   0.706   0.243   9.420 -0.9052 -0.8303  0.0136
 2965TIP3   OH233089   0.999   3.878  10.652 -0.6304  0.7555 -1.2731
 2965TIP3    H133090   0.960   3.873  10.564 -0.8930 -0.6437 -1.1068
 2965TIP3    H233091   1.024   3.787  10.672  0.0526  1.1691 -0.1793
 2966TIP3   OH233092   1.705   0.003  10.161 -0.2883  0.3421 -0.0182
 2966TIP3    H133093   1.650   0.058  10.105 -0.9265 -1.1023 -0.8641
 2966TIP3    H233094   1.772  -0.033  10.102 -0.2307 -0.2448  0.3906
 2967TIP3   OH233095   1.439   1.561   8.899  0.0618  0.1641  0.3871
 2967TIP3    H133096   1.523   1.557   8.854 -0.0506  0.1128  0.1824
 2967TIP3    H233097   1.397   1.477   8.882  0.0887  0.0778  0.7246
 2968TIP3   OH233098   4.521   6.215  11.057 -0.1289  0.0276  0.1165
 2968TIP3    H133099   4.524   6.284  10.989 -0.2439 -0.3403 -0.2653
 2968TIP3    H233100   4.589   6.153  11.031  1.2054  0.8855  1.4454
 2969TIP3   OH233101   5.488   5.930  10.839  0.4558 -0.0881 -0.5270
 2969TIP3    H133102   5.483   6.008  10.784 -0.7025  1.7589  1.9767
 2969TIP3    H233103   5.532   5.959  10.918 -0.6827 -1.7467  0.7949
 2970TIP3   OH233104   4.618   1.751  11.632  0.1018  0.0012 -0.0204
 2970TIP3    H133105   4.578   1.785  11.711 -1.3940 -1.5925 -0.0559
 2970TIP3    H233106   4.691   1.697  11.662  0.6521  0.8213  0.1567
 2971TIP3   OH233107   1.908   0.743  10.518  0.8347  0.4598  0.2325
 2971TIP3    H133108   1.907   0.809  10.448 -0.5631 -0.1701 -0.3854
 2971TIP3    H233109   1.846   0.677  10.488  1.4968 -0.6630  1.2955
 2972TIP3   OH233110   3.815   3.864   9.526 -0.0564 -0.0213  0.0919
 2972TIP3    H133111   3.753   3.802   9.488 -1.0689  1.7742 -1.3553
 2972TIP3    H233112   3.898   3.844   9.482 -0.1799 -0.8210  0.1995
 2973TIP3   OH233113   1.504   2.532   9.199 -0.7748  0.6682 -0.3465
 2973TIP3    H133114   1.467   2.445   9.214  2.3950 -0.7000  0.0969
 2973TIP3    H233115   1.510   2.571   9.286  1.1607 -0.1846 -0.0553
 2974TIP3   OH233116   6.444   3.168   9.511 -0.3270 -0.6299 -0.6929
 2974TIP3    H133117   6.374   3.207   9.459  0.5911  0.0432 -1.4424
 2974TIP3    H233118   6.416   3.077   9.524 -1.0421 -0.5350 -1.5080
 2975TIP3   OH233119   4.935   3.951  10.382  0.0258 -0.1244 -0.2129
 2975TIP3    H133120   4.868   3.931  10.316  1.0869 -0.5156 -1.2079
 2975TIP3    H233121   4.979   3.867  10.398  1.4828  0.4623 -0.9622
 2976TIP3   OH233122   4.451   1.300  10.416  0.3843 -0.3312  0.2739
 2976TIP3    H133123   4.501   1.381  10.406  2.0269 -1.4234 -0.9576
 2976TIP3    H233124   4.376   1.310  10.357 -0.8485  1.2492  1.9918
 2977TIP3   OH233125   2.434   1.639   9.556 -0.0749 -0.5475 -0.6913
 2977TIP3    H133126   2.526   1.639   9.530  0.3902  1.2154  0.7409
 2977TIP3    H233127   2.419   1.728   9.589 -2.6672 -0.3802 -2.1299
 2978TIP3   OH233128   3.767   1.469  10.530  0.1133  0.2505  0.2825
 2978TIP3    H133129   3.860   1.466  10.555 -0.3171  0.8001  2.0546
 2978TIP3    H233130   3.722   1.499  10.609 -1.7848 -1.6731  0.0106
 2979TIP3   OH233131   1.905   2.145   8.973  0.0573  0.0691  0.0065
 2979TIP3    H133132   1.931   2.165   9.063  0.4493  0.0736 -0.1058
 2979TIP3    H233133   1.813   2.170   8.968 -0.0441 -0.1998  0.4903
 2980TIP3   OH233134   5.606   2.608  11.611  1.0208 -0.0399 -0.0639
 2980TIP3    H133135   5.636   2.652  11.531 -0.7174  1.9133  0.2497
 2980TIP3    H233136   5.527   2.561  11.584  0.3222  0.7789  0.5011
 2981TIP3   OH233137   4.201   1.398   8.327 -0.3601  0.1634  0.7735
 2981TIP3    H133138   4.288   1.376   8.358  0.0846  0.2515 -0.3688
 2981TIP3    H233139   4.157   1.438   8.402  0.3181 -0.5877  1.5747
 2982TIP3   OH233140   6.699   5.357  11.261 -0.0735  0.0020 -0.5857
 2982TIP3    H133141   6.743   5.272  11.251  1.7240  0.9387 -1.1345
 2982TIP3    H233142   6.655   5.351  11.346  0.1738 -1.4047 -0.5281
 2983TIP3   OH233143   4.309   4.763  11.293  0.1175  0.2608  0.0466
 2983TIP3    H133144   4.352   4.821  11.230 -0.2969  0.6216  0.0954
 2983TIP3    H233145   4.313   4.810  11.376 -1.4994  0.8869 -0.1915
 2984TIP3   OH233146   1.331   6.152  11.878 -0.3841  0.0908  0.2335
 2984TIP3    H133147   1.353   6.139  11.970 -1.2000  0.7099  0.5251
 2984TIP3    H233148   1.415   6.142  11.832  0.1002  0.1807  1.0780
 2985TIP3   OH233149   0.647   4.014  11.754  0.3056  0.0025 -0.6385
 2985TIP3    H133150   0.680   3.990  11.840 -0.0293 -2.5000 -1.1325
 2985TIP3    H233151   0.552   4.015  11.764  0.2852  0.2074 -0.8537
 2986TIP3   OH233152   5.612   1.635   9.721 -0.2533 -0.7699  0.0863
 2986TIP3    H133153   5.659   1.708   9.763 -2.7013  0.4917  0.8038
 2986TIP3    H233154   5.642   1.558   9.769  1.1898 -0.0498  0.4049
 2987TIP3   OH233155   2.379   0.455  12.211 -0.5301 -0.0334  0.1015
 2987TIP3    H133156   2.331   0.514  12.153 -1.5370 -0.1974  0.7387
 2987TIP3    H233157   2.431   0.401  12.152 -0.3803  0.7919 -0.5514
 2988TIP3   OH233158   4.111   1.175  10.857 -0.2140 -0.5377 -0.2178
 2988TIP3    H133159   4.082   1.238  10.923 -0.2371 -0.1831 -0.5695
 2988TIP3    H233160   4.182   1.127  10.901  0.3403  0.2625 -0.2186
 2989TIP3   OH233161   2.567   0.060   8.519  0.0690 -0.0803 -0.2348
 2989TIP3    H133162   2.483   0.057   8.563  0.2543  1.4262  0.2884
 2989TIP3    H233163   2.596   0.151   8.529  0.9417 -0.1303 -1.9281
 2990TIP3   OH233164   6.446   5.675  11.932  0.1957  0.1687 -0.3893
 2990TIP3    H133165   6.378   5.741  11.944 -1.1692 -1.3907  1.0083
 2990TIP3    H233166   6.526   5.718  11.961 -0.8910  0.8243  1.9009
 2991TIP3   OH233167   2.188   5.358  11.349 -0.1490 -0.2581  0.8921
 2991TIP3    H133168   2.154   5.444  11.324  1.3213  0.2367  0.4683
 2991TIP3    H233169   2.111   5.301  11.353 -1.1736  1.1210  1.4016
 2992TIP3   OH233170   1.283   0.320  10.864  0.1909  0.1448  0.8212
 2992TIP3    H133171   1.225   0.320  10.789  0.8123  1.8239  0.2938
 2992TIP3    H233172   1.315   0.230  10.870  1.4415  0.3059 -1.9961
 2993TIP3   OH233173   2.909   3.182  11.358  0.5501  0.4237  0.4149
 2993TIP3    H133174   2.987   3.212  11.310  0.7667  0.1608  0.6021
 2993TIP3    H233175   2.844   3.165  11.289  0.5362  0.9936  0.2858
 2994TIP3   OH233176   1.771   1.062  10.707 -0.0137  0.4693 -0.2998
 2994TIP3    H133177   1.692   1.014  10.681 -1.4183  1.7160  1.4480
 2994TIP3    H233178   1.739   1.143  10.746  2.0108  0.2952  2.0125
 2995TIP3   OH233179   5.131   5.842  10.347  0.0297 -0.1869 -0.2582
 2995TIP3    H133180   5.101   5.843  10.256 -1.9089 -2.8471  0.2285
 2995TIP3    H233181   5.081   5.771  10.388 -0.0422  1.6475  3.2080
 2996TIP3   OH233182   0.339   5.482   9.991 -0.3162  0.0398  0.0170
 2996TIP3    H133183   0.254   5.455   9.956 -0.0248  0.1430 -0.7867
 2996TIP3    H233184   0.402   5.434   9.938  0.1351  0.1574  0.4490
 2997TIP3   OH233185   3.267   3.587   8.986 -0.3810 -0.8634 -0.0963
 2997TIP3    H133186   3.186   3.542   9.008 -0.0614 -0.6771  1.5718
 2997TIP3    H233187   3.248   3.680   8.999  0.3037 -0.8705  1.0936
 2998TIP3   OH233188   0.611   5.169  11.435 -0.4344 -0.1787  0.6529
 2998TIP3    H133189   0.534   5.114  11.420 -0.1963 -0.1845 -0.6707
 2998TIP3    H233190   0.674   5.141  11.369 -0.1689  1.4189  0.1828
 2999TIP3   OH233191   3.136   0.653  10.555 -0.4219 -0.5069  0.4615
 2999TIP3    H133192   3.102   0.701  10.479 -1.5539 -0.4382  0.9904
 2999TIP3    H233193   3.227   0.634  10.533 -0.3500  0.6776 -0.3458
 3000TIP3   OH233194   6.115   1.538   8.573 -0.1561 -0.1740  0.3216
 3000TIP3    H133195   6.038   1.492   8.608  0.5849 -0.3367  1.7993
 3000TIP3    H233196   6.145   1.483   8.501 -1.4088 -0.1054 -0.2952
 3001TIP3   OH233197   4.105   2.437  11.719  0.1888 -0.5687  0.1809
 3001TIP3    H133198   4.107   2.507  11.654 -1.6898 -0.5675  0.0633
 3001TIP3    H233199   4.162   2.468  11.789  1.2086  0.0205 -0.8649
 3002TIP3   OH233200   1.781   2.625  11.574  0.3505 -0.1189 -0.0626
 3002TIP3    H133201   1.749   2.607  11.662  0.5237 -0.9032 -0.1515
 3002TIP3    H233202   1.794   2.720  11.572 -1.6226  0.1875  0.0872
 3003TIP3   OH233203   5.687   1.267  10.482  0.2801  0.2810 -0.1350
 3003TIP3    H133204   5.612   1.217  10.513 -0.4063  0.4151 -1.5059
 3003TIP3    H233205   5.685   1.348  10.533 -0.2403  0.0873  0.1559
 3004TIP3   OH233206   2.804   6.468   9.066 -0.5241 -0.0612  0.5062
 3004TIP3    H133207   2.880   6.410   9.063 -1.6032 -1.4802 -0.6334
 3004TIP3    H233208   2.840   6.555   9.049  0.5938 -0.9853 -2.4526
 3005TIP3   OH233209   4.210   0.741  11.178 -0.5758 -0.0359 -0.1567
 3005TIP3    H133210   4.255   0.667  11.138 -0.4735  0.0313 -0.1659
 3005TIP3    H233211   4.280   0.803  11.201 -0.4247 -0.8930  1.8919
 3006TIP3   OH233212   5.334   0.005   8.154 -0.3875  0.3506  0.0155
 3006TIP3    H133213   5.327   0.030   8.246  0.5193  0.4740  0.0598
 3006TIP3    H233214   5.413  -0.049   8.149 -0.7585 -0.1561 -0.5872
 3007TIP3   OH233215   2.004   4.984  10.375 -0.2707  0.2037  0.2925
 3007TIP3    H133216   2.037   4.940  10.297 -0.3250 -1.4184  1.1527
 3007TIP3    H233217   2.078   5.036  10.406  0.2630 -0.3943  0.0559
 3008TIP3   OH233218   4.158   4.261  12.063  0.7103  0.5320 -0.1537
 3008TIP3    H133219   4.072   4.299  12.080  0.5106 -0.5414  1.4979
 3008TIP3    H233220   4.140   4.182  12.012  0.6021 -0.1461  0.9006
 3009TIP3   OH233221   2.311   0.938  10.357 -0.1277  0.2141 -0.3340
 3009TIP3    H133222   2.404   0.948  10.336  0.1454 -0.7597  0.3326
 3009TIP3    H233223   2.286   0.855  10.315 -0.4434 -0.0113  0.2966
 3010TIP3   OH233224   5.712   6.273  10.060  0.1558  0.1210  0.6069
 3010TIP3    H133225   5.672   6.356  10.087  0.7532  0.4373  0.5579
 3010TIP3    H233226   5.762   6.295   9.981 -1.1159 -0.6771 -0.4587
 3011TIP3   OH233227   1.503   4.086  11.963  0.2235  0.6073 -0.5536
 3011TIP3    H133228   1.567   4.072  11.893  0.5852 -0.8914  0.0504
 3011TIP3    H233229   1.423   4.045  11.931  0.9846 -2.1061  0.7623
 3012TIP3   OH233230   1.173   6.205   9.792  0.0598 -0.2954 -0.5850
 3012TIP3    H133231   1.225   6.209   9.872  0.2922 -1.3466 -0.6715
 3012TIP3    H233232   1.085   6.180   9.822  0.2719 -1.2089 -0.6935
 3013TIP3   OH233233   5.736   1.558   9.968 -0.5188 -0.6224  0.5945
 3013TIP3    H133234   5.778   1.640   9.941 -0.3879 -0.7174  0.5076
 3013TIP3    H233235   5.719   1.570  10.061 -3.5348  0.8418  0.0035
 3014TIP3   OH233236   6.568   2.542  11.427 -0.4706 -0.3260 -0.0893
 3014TIP3    H133237   6.505   2.488  11.475 -1.6834  0.3565 -0.8483
 3014TIP3    H233238   6.572   2.503  11.340  1.6635 -1.5181  0.4844
 3015TIP3   OH233239   1.721   0.960   9.423 -0.1994 -0.4411 -0.1865
 3015TIP3    H133240   1.749   0.900   9.493 -0.8785 -0.5855 -0.0271
 3015TIP3    H233241   1.649   0.913   9.380 -1.9237  0.9460  1.0317
 3016TIP3   OH233242   6.588   6.368   9.237 -0.1437  0.2626 -0.0490
 3016TIP3    H133243   6.506   6.404   9.271 -0.8680 -1.3310 -0.0565
 3016TIP3    H233244   6.609   6.424   9.162  0.3013  2.4228  1.5758
 3017TIP3   OH233245   1.294   2.516   9.910  0.9182 -0.3821 -0.1032
 3017TIP3    H133246   1.222   2.530   9.972 -0.6877 -0.2408 -1.9162
 3017TIP3    H233247   1.329   2.430   9.933 -0.1138 -0.6474  0.5435
 3018TIP3   OH233248   2.087   5.258  12.250 -0.5724 -0.3003 -0.0897
 3018TIP3    H133249   2.097   5.353  12.245 -0.7169 -0.1844  1.3940
 3018TIP3    H233250   1.993   5.244  12.263 -0.5792 -0.6599 -0.5012
 3019TIP3   OH233251   1.477   6.212   8.890 -0.2515 -0.4142 -0.0911
 3019TIP3    H133252   1.571   6.197   8.901 -0.3696 -1.0116  0.1176
 3019TIP3    H233253   1.471   6.264   8.810  0.5027  2.4560  1.5592
 3020TIP3   OH233254   5.424   6.276   9.238  0.1936  0.3163 -0.8218
 3020TIP3    H133255   5.477   6.197   9.250  0.9314  0.9229  0.0219
 3020TIP3    H233256   5.476   6.331   9.179  1.2092  1.4967  1.0739
 3021TIP3   OH233257   2.289   4.435   9.873  0.1106  0.2597 -0.0024
 3021TIP3    H133258   2.288   4.389   9.789 -2.8104 -1.1146  0.6390
 3021TIP3    H233259   2.271   4.526   9.851 -2.2054 -0.3359 -0.8624
 3022TIP3   OH233260   1.303   4.619   9.481  0.4197  0.0992  0.0301
 3022TIP3    H133261   1.291   4.711   9.459  1.7809  0.6462  1.3376
 3022TIP3    H233262   1.386   4.595   9.440 -0.8075 -1.1446 -1.8897
 3023TIP3   OH233263   2.891   5.737  10.016 -0.6077 -0.2617 -0.1667
 3023TIP3    H133264   2.890   5.773  10.105 -2.8414  0.9160 -0.6193
 3023TIP3    H233265   2.902   5.642  10.030 -1.3152 -0.1506  1.3923
 3024TIP3   OH233266   6.005   5.357  10.832 -0.2062  0.3269 -0.2120
 3024TIP3    H133267   6.071   5.414  10.792  0.3756  1.2435  1.9127
 3024TIP3    H233268   6.050   5.275  10.849  0.3255  0.8335  0.9150
 3025TIP3   OH233269   4.512   5.714  11.825 -0.2004 -0.0045 -0.1229
 3025TIP3    H133270   4.456   5.707  11.903 -0.2917  0.5658 -0.1335
 3025TIP3    H233271   4.451   5.727  11.753 -0.1457 -1.0318 -0.3663
 3026TIP3   OH233272   4.733   3.879   9.808 -0.1288  0.3593 -0.0266
 3026TIP3    H133273   4.647   3.858   9.844 -1.5473  2.1840 -2.1347
 3026TIP3    H233274   4.776   3.794   9.800 -0.8809 -0.4096  2.9330
 3027TIP3   OH233275   0.294   1.989  10.369  0.5136  0.1019 -0.0049
 3027TIP3    H133276   0.323   2.040  10.445 -0.2839  0.4281  0.0894
 3027TIP3    H233277   0.362   1.924  10.357  1.1818  0.7212  0.3344
 3028TIP3   OH233278   4.354   0.644   8.425  0.0636  0.5220  0.0524
 3028TIP3    H133279   4.310   0.574   8.376  0.7478  0.4095 -0.4178
 3028TIP3    H233280   4.284   0.706   8.447 -0.7962 -0.9371  1.6413
 3029TIP3   OH233281   6.198   2.854  10.190 -0.5200  0.0497  0.2581
 3029TIP3    H133282   6.274   2.812  10.230  0.3089  2.0205  0.9089
 3029TIP3    H233283   6.125   2.795  10.209  0.4595 -0.7896  1.6308
 3030TIP3   OH233284   6.016   1.680  10.375 -0.4017 -0.2908 -0.2123
 3030TIP3    H133285   5.968   1.684  10.458  0.5649 -0.3778  0.3668
 3030TIP3    H233286   6.071   1.758  10.376  0.4675 -0.8928 -0.2251
 3031TIP3   OH233287   0.888   3.106  10.141  0.0514 -0.1879 -0.0390
 3031TIP3    H133288   0.868   3.073  10.053 -1.5993 -0.8081  0.5213
 3031TIP3    H233289   0.919   3.195  10.127  2.1142 -1.0447 -1.4114
 3032TIP3   OH233290   3.033   2.994  10.132 -0.2424 -0.0094  0.0814
 3032TIP3    H133291   2.995   2.947  10.057 -0.6931  0.2478  0.1462
 3032TIP3    H233292   2.969   3.062  10.153 -0.6107 -0.7121  1.3425
 3033TIP3   OH233293   4.941   5.922   9.333 -0.5503  0.4278  0.9217
 3033TIP3    H133294   4.939   5.859   9.260 -2.3457  0.9425  0.4832
 3033TIP3    H233295   5.022   5.902   9.379  0.1390 -0.5764 -0.6439
 3034TIP3   OH233296   6.354   5.369  10.367  0.6821  0.5897 -0.3496
 3034TIP3    H133297   6.375   5.450  10.415  2.4548 -0.8666  1.5402
 3034TIP3    H233298   6.370   5.299  10.431 -0.8008 -1.2766 -1.9144
 3035TIP3   OH233299   6.467   5.125  10.707  0.1449  0.3290  0.2411
 3035TIP3    H133300   6.476   5.032  10.686 -0.5395 -0.6399  3.6651
 3035TIP3    H233301   6.557   5.158  10.703  0.4521 -0.5263 -0.6527
 3036TIP3   OH233302   5.845   3.787  11.042  0.0429  0.3071 -0.1370
 3036TIP3    H133303   5.940   3.793  11.033  0.3308 -2.6080  0.0766
 3036TIP3    H233304   5.832   3.743  11.126 -1.6386  2.5462  0.8869
 3037TIP3   OH233305   2.052   2.439  11.558 -0.2380  0.1484 -0.1381
 3037TIP3    H133306   2.044   2.534  11.551 -2.3042  0.0815  0.4493
 3037TIP3    H233307   2.099   2.425  11.640  4.3189  0.6201 -2.3892
 3038TIP3   OH233308   5.635   4.709  10.451 -0.3628  0.2598 -0.0274
 3038TIP3    H133309   5.673   4.680  10.534  1.0238  0.5939 -0.5181
 3038TIP3    H233310   5.663   4.644  10.387 -1.0165  0.2613 -0.3204
 3039TIP3   OH233311   1.326   3.431  10.985 -0.4038 -0.8819 -0.1025
 3039TIP3    H133312   1.305   3.354  11.038  0.8820 -0.4415  1.1131
 3039TIP3    H233313   1.371   3.395  10.908  1.4812 -1.3305  1.1260
 3040TIP3   OH233314   0.029   5.258  11.742  0.2763  0.8716  0.4683
 3040TIP3    H133315   0.009   5.269  11.835  1.9609  0.2346  0.9482
 3040TIP3    H233316  -0.028   5.187  11.713  1.7095 -0.8972  1.7664
 3041TIP3   OH233317   5.943   6.392  10.324 -0.2370  0.2060  0.1011
 3041TIP3    H133318   5.876   6.458  10.310  0.1888  1.2889  2.6770
 3041TIP3    H233319   6.006   6.407  10.253 -0.7894  1.6970 -0.1137
 3042TIP3   OH233320   5.583   0.300   8.250 -0.0801 -0.2097 -0.1033
 3042TIP3    H133321   5.653   0.363   8.236 -0.5511 -0.2550 -3.2684
 3042TIP3    H233322   5.627   0.224   8.289  1.0052  0.8910  0.9143
 3043TIP3   OH233323   3.683   1.065  10.949 -0.3860  0.5769  0.6226
 3043TIP3    H133324   3.726   1.050  10.865 -0.7892  2.3715  0.0595
 3043TIP3    H233325   3.591   1.048  10.932 -0.5093  1.2404  0.6160
 3044TIP3   OH233326   5.735   3.793  10.767 -0.1969 -0.3006 -0.3431
 3044TIP3    H133327   5.677   3.867  10.749 -2.1415 -2.0563 -1.8391
 3044TIP3    H233328   5.752   3.798  10.861 -1.4925  1.1914 -0.1473
 3045TIP3   OH233329   0.684   3.929  11.491 -0.2425 -0.3222 -0.1096
 3045TIP3    H133330   0.704   3.955  11.581 -0.0048  1.3825 -0.5995
 3045TIP3    H233331   0.630   3.851  11.499 -0.3840 -0.0915  1.5137
 3046TIP3   OH233332   0.920   0.106  12.145  0.2426 -1.0746  0.1159
 3046TIP3    H133333   0.961   0.055  12.075  1.3416 -1.7709  1.2249
 3046TIP3    H233334   0.857   0.046  12.185  0.1628 -0.9314  0.2071
 3047TIP3   OH233335   2.544   1.764  10.989 -0.4107  0.2893  0.1645
 3047TIP3    H133336   2.504   1.680  11.012 -1.6142  0.3176 -1.5899
 3047TIP3    H233337   2.604   1.743  10.917  0.2138  0.7522  0.5440
 3048TIP3   OH233338   0.884   3.363  11.361  0.1564 -0.3145  0.5595
 3048TIP3    H133339   0.821   3.403  11.300 -0.7236 -0.8082  1.1195
 3048TIP3    H233340   0.885   3.271  11.337  0.4806 -0.3547  0.7282
 3049TIP3   OH233341   6.698   1.635  11.980 -0.0329  0.1326  0.0432
 3049TIP3    H133342   6.641   1.695  12.027  1.1988  1.6274 -0.2889
 3049TIP3    H233343   6.756   1.598  12.048  0.7671  1.1550 -0.0677
 3050TIP3   OH233344   5.626   2.725  10.659 -0.2054  0.6201 -0.5178
 3050TIP3    H133345   5.678   2.675  10.596  1.1292  0.4120  0.7182
 3050TIP3    H233346   5.579   2.658  10.710 -0.0177  0.7083 -0.2260
 3051TIP3   OH233347   5.315   3.566  10.568  0.6892  0.4080  0.0433
 3051TIP3    H133348   5.293   3.654  10.535  1.4863  1.7307  2.7694
 3051TIP3    H233349   5.352   3.581  10.655  1.8539 -2.5927  0.1863
 3052TIP3   OH233350   6.206   2.269   9.905 -0.4215  0.0610 -0.0649
 3052TIP3    H133351   6.269   2.314   9.848  0.4545 -1.8625 -0.7076
 3052TIP3    H233352   6.204   2.179   9.872 -0.2086 -1.0508  2.6701
 3053TIP3   OH233353   2.986   5.825  11.049 -0.3408  0.3507  0.4677
 3053TIP3    H133354   3.035   5.749  11.079  0.1476  0.4002 -0.1936
 3053TIP3    H233355   2.937   5.853  11.126 -1.1588 -1.1068  0.5018
 3054TIP3   OH233356   2.569   4.088   9.244  0.1040 -0.1639  0.2370
 3054TIP3    H133357   2.510   4.081   9.169  2.2262 -1.1377 -1.4030
 3054TIP3    H233358   2.575   3.999   9.279  0.7713 -0.1151  0.2547
 3055TIP3   OH233359   4.359   6.260  12.167  0.6684 -0.5130  0.4135
 3055TIP3    H133360   4.356   6.349  12.203 -1.2683  0.0787 -1.0390
 3055TIP3    H233361   4.301   6.263  12.091  1.4162 -2.7627 -0.3208
 3056TIP3   OH233362   5.953   5.913  10.288 -0.0963  0.3596  0.2546
 3056TIP3    H133363   5.888   5.982  10.296 -0.7619 -0.0829 -1.0477
 3056TIP3    H233364   6.001   5.934  10.208 -0.4309 -0.7616 -0.2687
 3057TIP3   OH233365   1.534   3.602  11.246 -0.3893 -0.3229  0.4345
 3057TIP3    H133366   1.465   3.542  11.275 -1.3033 -1.1987 -3.0053
 3057TIP3    H233367   1.585   3.550  11.184  1.5232  1.2452  0.6132
 3058TIP3   OH233368   2.636   4.240  11.573 -1.0224  0.5637  0.2249
 3058TIP3    H133369   2.574   4.168  11.571  0.1786 -0.7366  3.3780
 3058TIP3    H233370   2.582   4.319  11.583 -2.2570 -0.0390 -1.3456
 3059TIP3   OH233371   3.814   1.718  12.009  0.5017 -0.7232 -0.5099
 3059TIP3    H133372   3.756   1.666  12.065  1.3540 -0.5299  0.5760
 3059TIP3    H233373   3.758   1.790  11.979  0.4585  0.2026  1.5760
 3060TIP3   OH233374   4.871   3.133  12.161  0.0494 -0.3111 -0.0445
 3060TIP3    H133375   4.927   3.060  12.188 -0.2289 -0.4689  0.1084
 3060TIP3    H233376   4.921   3.178  12.093  0.8150  0.1650  0.8092
 3061TIP3   OH233377   4.576   5.509   9.738  0.4369 -0.7632 -0.3252
 3061TIP3    H133378   4.537   5.515   9.826  0.5572  0.5511 -0.3327
 3061TIP3    H233379   4.599   5.417   9.728  1.4319 -0.7502  1.4641
 3062TIP3   OH233380   5.886   0.819   8.988  0.6053  0.5802 -1.0000
 3062TIP3    H133381   5.828   0.860   9.052 -0.8332 -1.1174 -1.1306
 3062TIP3    H233382   5.921   0.893   8.937 -2.5213  1.6921 -1.7912
 3063TIP3   OH233383   3.484   6.691  11.877  0.0706  0.1279  0.3184
 3063TIP3    H133384   3.570   6.722  11.851 -0.2657 -0.1185 -1.1972
 3063TIP3    H233385   3.437   6.677  11.794 -1.2412 -0.2487  1.0868
 3064TIP3   OH233386   1.667   1.395   9.003 -0.1990 -0.0582  0.0358
 3064TIP3    H133387   1.583   1.437   8.985  0.2542  0.9844  0.2896
 3064TIP3    H233388   1.678   1.402   9.098 -0.4783 -1.4848  0.1958
 3065TIP3   OH233389   5.084   3.859  10.693  0.1739 -0.2961  0.0899
 3065TIP3    H133390   5.039   3.819  10.768 -2.7990 -0.0921 -1.4318
 3065TIP3    H233391   5.120   3.941  10.728 -2.6050  0.6477  1.0489
 3066TIP3   OH233392   6.692   6.301  12.152  0.0740 -0.1616  0.2539
 3066TIP3    H133393   6.757   6.271  12.216 -0.2773  0.2701  0.8329
 3066TIP3    H233394   6.686   6.396  12.168 -2.4696 -0.5000  1.9189
 3067TIP3   OH233395   5.924   4.779  11.397 -0.1020  0.6639  0.0355
 3067TIP3    H133396   5.876   4.857  11.425 -1.7093 -0.0800 -0.4768
 3067TIP3    H233397   5.869   4.706  11.427  1.3141 -0.2898  0.4255
 3068TIP3   OH233398   2.265   6.169   9.404  0.0376 -0.4578 -0.2124
 3068TIP3    H133399   2.225   6.255   9.415  0.0793 -0.4032 -0.4802
 3068TIP3    H233400   2.272   6.157   9.309  2.2454  0.3043 -0.2132
 3069TIP3   OH233401   1.923   0.867   9.590  0.0152  0.1315  0.7135
 3069TIP3    H133402   1.904   0.833   9.678  0.8733  1.0407  1.2630
 3069TIP3    H233403   2.012   0.839   9.572 -0.8083 -1.7820 -0.7418
 3070TIP3   OH233404   2.293   1.284  12.033  0.1532  0.0915 -0.2989
 3070TIP3    H133405   2.247   1.366  12.050 -0.9659 -0.5832  0.0847
 3070TIP3    H233406   2.337   1.298  11.950 -0.6125  0.8373 -0.6000
 3071TIP3   OH233407   1.003   4.220   9.757 -0.0573  0.1400 -0.3414
 3071TIP3    H133408   0.960   4.166   9.691  1.1821 -2.0990  0.5739
 3071TIP3    H233409   1.044   4.158   9.816  2.5355  2.0747  0.0989
 3072TIP3   OH233410   5.236   1.127  11.207 -0.7057 -0.6481  0.1331
 3072TIP3    H133411   5.217   1.164  11.293 -1.1748 -1.4866  0.3936
 3072TIP3    H233412   5.331   1.117  11.205 -0.7256 -0.9560  0.6886
 3073TIP3   OH233413   3.416   2.834  11.113  0.1292 -0.0621 -0.5434
 3073TIP3    H133414   3.404   2.904  11.178  2.9236  0.6289 -0.6379
 3073TIP3    H233415   3.445   2.759  11.164  0.8284  0.0179 -0.8120
 3074TIP3   OH233416   1.516   5.456  11.508  0.0126  0.3381  0.2679
 3074TIP3    H133417   1.518   5.480  11.415 -2.9614  1.6459  0.4257
 3074TIP3    H233418   1.599   5.488  11.542  0.6417  0.9668 -1.6929
 3075TIP3   OH233419   4.545   5.056  12.224  0.2997 -0.1155  0.0510
 3075TIP3    H133420   4.521   4.964  12.235 -2.3534  0.2172 -2.0665
 3075TIP3    H233421   4.592   5.059  12.141  0.5913  0.4219  0.2277
 3076TIP3   OH233422   6.332   6.231  11.104 -0.3093 -0.3480  0.1121
 3076TIP3    H133423   6.312   6.261  11.016  0.0746  0.4273  0.2817
 3076TIP3    H233424   6.407   6.173  11.093 -1.3868 -1.7293 -0.2818
 3077TIP3   OH233425   0.315   0.088  11.275  0.0236  0.3949  0.1946
 3077TIP3    H133426   0.329   0.024  11.345  0.2731  1.5894  1.2690
 3077TIP3    H233427   0.326   0.037  11.195 -0.1242 -0.9859  0.9994
 3078TIP3   OH233428   4.339   1.751   9.489  0.4113  0.1380 -0.2551
 3078TIP3    H133429   4.249   1.719   9.476  0.8924 -0.6560 -1.8038
 3078TIP3    H233430   4.390   1.709   9.420  2.0522  0.3265  0.7902
 3079TIP3   OH233431   5.890   1.553  11.151  0.8547 -0.2040 -1.0454
 3079TIP3    H133432   5.888   1.461  11.123  1.5404 -0.3165 -0.7380
 3079TIP3    H233433   5.855   1.601  11.077 -2.2317 -0.9402 -0.2252
 3080TIP3   OH233434   2.349   0.025   8.664  0.1945 -0.0278 -0.2950
 3080TIP3    H133435   2.331  -0.022   8.746  0.5399  0.3471 -0.0010
 3080TIP3    H233436   2.291   0.101   8.667  1.4563  0.9436  0.4449
 3081TIP3   OH233437   3.745   5.966  10.367  0.1959 -0.7079  0.9372
 3081TIP3    H133438   3.824   6.018  10.385  1.1587 -2.5313  2.3781
 3081TIP3    H233439   3.694   6.019  10.307  0.7489  2.2417  2.8791
 3082TIP3   OH233440   2.341   5.831  12.442 -0.1182 -1.0522 -0.0895
 3082TIP3    H133441   2.319   5.803  12.531  0.5640  0.2309  0.5112
 3082TIP3    H233442   2.415   5.777  12.417 -0.0392 -1.1272  0.2999
 3083TIP3   OH233443   3.459   3.880  10.303  0.5289 -0.0573  0.2729
 3083TIP3    H133444   3.421   3.877  10.391  2.0546  2.5447  1.1057
 3083TIP3    H233445   3.501   3.965  10.297 -0.0994  0.1598 -3.2685
 3084TIP3   OH233446   1.920   0.688  11.290 -0.5578  0.1025  0.3304
 3084TIP3    H133447   1.840   0.737  11.269  0.7958  1.3980 -2.1596
 3084TIP3    H233448   1.976   0.752  11.333 -0.7103 -0.7396  1.8360
 3085TIP3   OH233449   3.209   0.682  10.170 -0.1703 -0.0638  0.0539
 3085TIP3    H133450   3.257   0.657  10.249 -0.5957 -0.4925  0.1771
 3085TIP3    H233451   3.276   0.683  10.102 -0.3413 -3.0249 -0.2790
 3086TIP3   OH233452   3.799   2.892  10.697  0.8161 -0.0418  0.0349
 3086TIP3    H133453   3.728   2.839  10.734 -0.0826  1.4295  0.4883
 3086TIP3    H233454   3.858   2.828  10.657  1.7539 -1.7694  3.7574
 3087TIP3   OH233455   0.461   2.834  11.468  0.3578  0.4344 -0.4080
 3087TIP3    H133456   0.521   2.903  11.495  1.4807 -0.1827 -1.2277
 3087TIP3    H233457   0.505   2.753  11.493 -0.1659 -0.0308 -0.9551
 3088TIP3   OH233458   3.388   4.515  10.303 -0.0200 -0.8456  0.3202
 3088TIP3    H133459   3.460   4.573  10.327  0.2874 -0.3655 -1.6229
 3088TIP3    H233460   3.420   4.427  10.325  1.1515 -0.6294 -0.4253
 3089TIP3   OH233461   3.244   3.175  10.876 -0.1364 -0.4940 -0.1206
 3089TIP3    H133462   3.189   3.242  10.838 -0.2704 -0.0602  0.8066
 3089TIP3    H233463   3.279   3.126  10.801  0.7023  1.1746 -0.8580
 3090TIP3   OH233464   3.361   5.736  12.236 -0.2141 -0.4380  0.1080
 3090TIP3    H133465   3.371   5.676  12.310 -2.2149 -0.3522  0.5190
 3090TIP3    H233466   3.352   5.822  12.276 -0.0159 -0.2179 -0.3178
 3091TIP3   OH233467   1.454   1.950  12.088  0.3256 -0.0971 -0.0457
 3091TIP3    H133468   1.468   2.034  12.132 -1.0599 -0.4214  1.0662
 3091TIP3    H233469   1.468   1.970  11.995 -0.2585  1.4309  0.1528
 3092TIP3   OH233470   4.001   5.101  10.333 -0.5299 -0.1614  0.0690
 3092TIP3    H133471   3.948   5.180  10.333  0.1889  0.3429  0.5329
 3092TIP3    H233472   4.072   5.120  10.272  0.3755  0.0883  1.1567
 3093TIP3   OH233473   5.992   3.395  12.052  0.0520  0.1137  0.1967
 3093TIP3    H133474   5.914   3.419  12.002  0.0619 -1.6450 -0.7122
 3093TIP3    H233475   5.958   3.369  12.138 -0.5107 -1.6524 -0.5296
 3094TIP3   OH233476   5.548   4.233  12.070 -0.3761  0.6191  0.2045
 3094TIP3    H133477   5.455   4.211  12.057 -0.0698 -0.3904 -0.4100
 3094TIP3    H233478   5.589   4.212  11.987  0.7519 -0.9348  1.0997
 3095TIP3   OH233479   4.081   4.709   9.551  0.0886 -0.2608  0.3106
 3095TIP3    H133480   4.136   4.698   9.473  0.9263 -2.6665  1.1273
 3095TIP3    H233481   4.141   4.692   9.624 -0.8381  1.2460  1.4576
 3096TIP3   OH233482   5.750   0.973  11.124 -0.2586  0.2369 -0.5444
 3096TIP3    H133483   5.681   0.984  11.190 -0.4701  1.5260 -0.9465
 3096TIP3    H233484   5.774   0.881  11.130 -0.0376  0.3882  1.5557
 3097TIP3   OH233485   2.300   3.070  10.751 -0.0638 -0.3193 -1.0039
 3097TIP3    H133486   2.216   3.089  10.793  1.5091 -1.0075  2.8928
 3097TIP3    H233487   2.344   3.155  10.746 -0.3686 -0.1917 -1.5820
 3098TIP3   OH233488   6.301   0.984   8.052  0.0002 -0.1387 -0.1285
 3098TIP3    H133489   6.241   0.925   8.007 -1.6043  2.0225 -1.0092
 3098TIP3    H233490   6.388   0.951   8.029 -0.8097 -0.9183 -2.3337
 3099TIP3   OH233491   5.304   5.195  10.443  0.2537  0.3322  0.8824
 3099TIP3    H133492   5.389   5.152  10.455  0.9121  2.1255  3.2692
 3099TIP3    H233493   5.325   5.287  10.431 -1.3551  0.7612  1.1345
 3100TIP3   OH233494   1.789   2.787  10.169  0.2414 -0.4642  0.0766
 3100TIP3    H133495   1.857   2.763  10.232 -0.7011 -1.1636  0.8535
 3100TIP3    H233496   1.719   2.824  10.223 -1.2907 -2.5983 -0.3218
 3101TIP3   OH233497   6.299   1.664  10.753 -0.6899 -0.4295  0.0109
 3101TIP3    H133498   6.323   1.713  10.674  1.7727 -0.2106  0.8159
 3101TIP3    H233499   6.355   1.587  10.753  1.1365  0.7381  2.6575
 3102TIP3   OH233500   3.076   2.159  10.466 -0.5611 -0.4380 -0.5135
 3102TIP3    H133501   3.006   2.124  10.412  0.5310  0.5921 -2.7632
 3102TIP3    H233502   3.075   2.253  10.449 -0.4563  0.0236  1.6979
 3103TIP3   OH233503   6.662   6.701   9.527  0.1542  0.1924 -0.3847
 3103TIP3    H133504   6.641   6.791   9.501 -0.1394  0.6710  1.3254
 3103TIP3    H233505   6.711   6.665   9.454  0.3301  1.7712 -1.0849
 3104TIP3   OH233506   0.132   0.064  10.471 -0.1410 -0.4509 -0.4312
 3104TIP3    H133507   0.039   0.067  10.492 -0.3520 -1.6808 -1.0744
 3104TIP3    H233508   0.144  -0.021  10.427  1.5792 -1.0712  1.1074
 3105TIP3   OH233509   3.382   3.315  12.024  0.1596  0.5321 -0.0452
 3105TIP3    H133510   3.331   3.384  12.066  0.0449  0.8145 -0.6403
 3105TIP3    H233511   3.318   3.245  12.008  0.8686 -1.1822  3.5863
 3106TIP3   OH233512   6.570   1.036  10.368 -1.0085 -0.1775 -0.1364
 3106TIP3    H133513   6.599   0.945  10.358  2.8021  0.7078  0.9776
 3106TIP3    H233514   6.569   1.070  10.278  0.1683 -0.7076 -0.3801
 3107TIP3   OH233515   6.610   3.548   9.854  0.0690 -0.1263  0.7227
 3107TIP3    H133516   6.644   3.475   9.801 -2.6968 -2.4495  1.9069
 3107TIP3    H233517   6.539   3.584   9.802 -0.0557  0.2423  1.1467
 3108TIP3   OH233518   6.409   4.003  10.963  0.3182  0.0516 -0.0035
 3108TIP3    H133519   6.383   3.938  11.028  3.2942  0.0548  1.3484
 3108TIP3    H233520   6.503   3.989  10.951  0.2357  1.3310 -2.9318
 3109TIP3   OH233521   5.370   1.953  11.948 -0.4645  0.4233 -0.9377
 3109TIP3    H133522   5.378   1.956  12.044 -0.6068  1.4153 -0.9443
 3109TIP3    H233523   5.450   1.993  11.916  0.0469 -0.8393 -1.2685
 3110TIP3   OH233524   2.700   2.516   9.119 -0.0429 -0.9286 -0.2947
 3110TIP3    H133525   2.638   2.454   9.080 -2.1993  0.3270  0.9224
 3110TIP3    H233526   2.655   2.601   9.115  2.3782  0.3992 -0.9620
 3111TIP3   OH233527   4.371   3.845  11.657 -0.6449  0.5774 -0.3827
 3111TIP3    H133528   4.393   3.844  11.750 -0.8532  0.0546 -0.3356
 3111TIP3    H233529   4.411   3.765  11.622 -0.8336  0.6117 -0.6800
 3112TIP3   OH233530   4.336   4.466  10.520  0.2550 -0.3708  0.0253
 3112TIP3    H133531   4.289   4.539  10.480 -0.1799 -0.1938  0.8387
 3112TIP3    H233532   4.359   4.409  10.446  0.9932  0.7993 -0.6610
 3113TIP3   OH233533   6.703   0.420  10.110 -0.1411 -0.3829  1.0209
 3113TIP3    H133534   6.687   0.453  10.198 -0.2394 -0.3633  0.9948
 3113TIP3    H233535   6.617   0.395  10.077 -0.1344 -0.1894  0.8503
 3114TIP3   OH233536   2.938   1.467  10.745 -0.2055  0.8207 -0.4022
 3114TIP3    H133537   2.918   1.377  10.719 -1.9029  0.2297  2.5155
 3114TIP3    H233538   2.904   1.520  10.673 -0.3125 -0.7808 -1.6053
 3115TIP3   OH233539   2.184   5.631   9.194  1.0034  0.4134 -0.0896
 3115TIP3    H133540   2.119   5.573   9.233 -0.9314 -0.0468 -3.6025
 3115TIP3    H233541   2.153   5.719   9.215  0.4041  0.1781  0.0255
 3116TIP3   OH233542   4.753   0.772  10.552 -0.3730 -0.5816  0.1141
 3116TIP3    H133543   4.785   0.787  10.463  1.8990 -0.4241  0.8832
 3116TIP3    H233544   4.732   0.859  10.585 -0.2127 -0.5247  0.0676
 3117TIP3   OH233545   4.368   4.452  12.004  0.6819  0.0907  0.2486
 3117TIP3    H133546   4.291   4.402  12.028  0.9432  0.2536  1.5125
 3117TIP3    H233547   4.399   4.490  12.086  1.0158  1.5880 -0.5147
 3118TIP3   OH233548   2.042   5.221  10.651 -0.0090  0.2698 -0.0809
 3118TIP3    H133549   2.059   5.310  10.680  1.1590  0.4906 -1.3571
 3118TIP3    H233550   1.962   5.195  10.698 -0.3732  1.9790  0.2943
 3119TIP3   OH233551   1.222   4.860   9.368 -0.2075  0.3823 -0.2681
 3119TIP3    H133552   1.166   4.849   9.291 -1.1693  1.7250  0.1940
 3119TIP3    H233553   1.165   4.899   9.434  1.5483  3.2920 -0.2706
 3120TIP3   OH233554   6.171   0.475  10.590 -0.5331 -0.0289 -0.0057
 3120TIP3    H133555   6.245   0.515  10.637 -0.1522 -0.2168 -0.4329
 3120TIP3    H233556   6.193   0.486  10.498 -1.9432  1.6029 -0.1946
 3121TIP3   OH233557   6.582   5.766  10.248 -0.5459 -0.0158 -0.4871
 3121TIP3    H133558   6.567   5.672  10.259 -1.0049  0.1629  0.4578
 3121TIP3    H233559   6.621   5.773  10.160 -2.3966 -0.8719 -1.4294
 3122TIP3   OH233560   5.034   4.195  11.422  0.3165 -0.8344  0.1878
 3122TIP3    H133561   5.089   4.253  11.368  0.3146 -0.6792  0.3507
 3122TIP3    H233562   4.955   4.246  11.438  0.3406 -0.8586  0.3831
 3123TIP3   OH233563   6.623   3.381   9.627  0.3249  0.2033  0.0501
 3123TIP3    H133564   6.718   3.382   9.620  0.2969 -1.3543 -1.0033
 3123TIP3    H233565   6.594   3.450   9.567  0.7757  1.1732  0.9061
 3124TIP3   OH233566   0.514   3.003   9.895 -0.1492 -0.6463  0.8009
 3124TIP3    H133567   0.540   2.911   9.904 -1.7448 -1.4476 -1.7973
 3124TIP3    H233568   0.510   3.019   9.801  3.3622  3.2023  0.9915
 3125TIP3   OH233569   2.214   4.614   9.074  0.3156 -0.3808 -0.2266
 3125TIP3    H133570   2.214   4.542   9.138  1.0225  1.7968  2.3943
 3125TIP3    H233571   2.298   4.657   9.087 -0.4809  1.5185 -1.0376
 3126TIP3   OH233572   3.089   1.230  10.605  0.2146  0.5630 -0.3446
 3126TIP3    H133573   3.146   1.295  10.564  0.0301  0.8729 -0.1030
 3126TIP3    H233574   3.070   1.168  10.534 -0.7460  1.5193 -0.9504
 3127TIP3   OH233575   4.748   6.067  11.057 -0.6492  0.2907  0.0975
 3127TIP3    H133576   4.770   6.030  11.142  1.1215  0.2940 -0.3070
 3127TIP3    H233577   4.706   5.996  11.010 -1.1830  0.1342  0.8010
 3128TIP3   OH233578   0.107   1.761  11.568  0.3958 -0.4083  0.2471
 3128TIP3    H133579   0.102   1.856  11.554 -1.1951 -0.7764 -2.3862
 3128TIP3    H233580   0.160   1.751  11.647  1.4681  2.6305  0.0414
 3129TIP3   OH233581   4.383   0.274  10.850  0.0357 -0.5674  0.1322
 3129TIP3    H133582   4.290   0.255  10.863  0.0070 -0.4137  0.1432
 3129TIP3    H233583   4.427   0.225  10.920 -0.2575  2.0944  2.3450
 3130TIP3   OH233584   6.307   6.277  10.819  0.6400  0.2653  0.2401
 3130TIP3    H133585   6.258   6.343  10.868  0.4324  0.1411  0.2033
 3130TIP3    H233586   6.240   6.233  10.766  0.9299  0.7319 -0.5307
 3131TIP3   OH233587   0.475   2.826  11.952 -0.4588 -0.6717 -0.1704
 3131TIP3    H133588   0.471   2.891  11.881 -0.6353 -0.9275 -0.3968
 3131TIP3    H233589   0.398   2.770  11.938 -1.1165 -0.0693  0.8616
 3132TIP3   OH233590   6.557   0.878   8.022  0.9985  0.5113 -1.0621
 3132TIP3    H133591   6.609   0.799   8.023  1.7226  0.9852 -0.4423
 3132TIP3    H233592   6.601   0.937   8.083 -1.8346 -0.0707  1.7962
 3133TIP3   OH233593   2.925   5.148   9.621 -0.4448  0.0727 -0.1617
 3133TIP3    H133594   3.000   5.154   9.680 -1.5297 -0.5330  1.3188
 3133TIP3    H233595   2.863   5.213   9.653 -0.8814  0.0225 -0.8831
 3134TIP3   OH233596   3.990   4.231   9.921  0.0514  0.1079  0.0019
 3134TIP3    H133597   3.930   4.292   9.879 -0.2927 -1.4244 -1.9009
 3134TIP3    H233598   4.077   4.268   9.904 -0.1014 -0.2768 -1.8423
 3135TIP3   OH233599   3.885   2.840  11.692 -0.3672  0.1610  0.3066
 3135TIP3    H133600   3.903   2.907  11.626  0.5464  0.4037  0.7827
 3135TIP3    H233601   3.829   2.883  11.756 -2.3502 -0.4533 -0.9364
 3136TIP3   OH233602   1.413   3.408  10.203  0.4345  0.1638 -0.0077
 3136TIP3    H133603   1.489   3.351  10.211  0.3815 -0.1355 -1.3465
 3136TIP3    H233604   1.342   3.351  10.172  0.3439  0.9019 -1.2202
 3137TIP3   OH233605   1.200   0.057  10.816 -0.2149 -0.2036  1.1492
 3137TIP3    H133606   1.236   0.047  10.904  4.5169  2.4901 -0.1386
 3137TIP3    H233607   1.247  -0.006  10.763 -1.0061  0.0609  0.0974
 3138TIP3   OH233608   5.459   3.575  10.344  0.3829  0.2850  0.2989
 3138TIP3    H133609   5.380   3.544  10.387  0.4822  1.2899  1.2620
 3138TIP3    H233610   5.478   3.659  10.386  2.3089 -0.2153  0.5527
 3139TIP3   OH233611   2.150   0.080   9.691 -0.2952 -0.6289 -0.2125
 3139TIP3    H133612   2.055   0.097   9.685 -0.2714 -0.8157 -1.3605
 3139TIP3    H233613   2.190   0.159   9.654  0.1070  0.5296  2.5066
 3140TIP3   OH233614   6.585   5.076  11.606 -0.6947 -0.6391  0.3873
 3140TIP3    H133615   6.591   5.009  11.538  1.4380  0.3835 -0.5272
 3140TIP3    H233616   6.542   5.032  11.680 -1.1925 -2.3845 -0.8797
 3141TIP3   OH233617   1.058   2.107  10.565 -0.3867  0.4454  0.1843
 3141TIP3    H133618   1.112   2.168  10.513  0.3496 -0.8223 -0.5816
 3141TIP3    H233619   0.978   2.096  10.512 -0.2548  0.2753  0.0184
 3142TIP3   OH233620   0.536   3.031  10.284 -0.1887  0.2253 -0.4247
 3142TIP3    H133621   0.460   3.089  10.290 -0.0715  0.4247 -0.7979
 3142TIP3    H233622   0.592   3.073  10.218  0.5098  0.3876  0.2600
 3143TIP3   OH233623   0.093   1.808   9.879  0.1157  0.4062 -0.5167
 3143TIP3    H133624   0.015   1.793   9.825 -0.2025 -4.2526  0.7587
 3143TIP3    H233625   0.162   1.759   9.834  1.2693  1.1338  0.4201
 3144TIP3   OH233626   0.424   1.911  11.285 -0.8550  0.1515  0.0756
 3144TIP3    H133627   0.468   1.924  11.201 -2.3394 -0.2855 -0.8179
 3144TIP3    H233628   0.466   1.834  11.323 -1.3958 -0.7913 -1.1693
 3145TIP3   OH233629   2.242   2.537  10.092  0.2390  0.3352 -0.1774
 3145TIP3    H133630   2.252   2.469  10.026 -0.0747  0.1845 -0.0733
 3145TIP3    H233631   2.224   2.489  10.173  0.5579  0.5206  0.0051
 3146TIP3   OH233632   6.471   3.369  10.684  0.4528 -0.5311  0.2858
 3146TIP3    H133633   6.412   3.389  10.757  0.2468 -0.2278  0.0421
 3146TIP3    H233634   6.547   3.329  10.725 -0.0763 -1.2702  0.5738
 3147TIP3   OH233635   2.028   3.016  10.808  0.7535 -0.1875 -0.2663
 3147TIP3    H133636   2.074   3.062  10.878 -1.7898 -0.6547  1.8823
 3147TIP3    H233637   1.945   3.063  10.799  0.5561 -0.8121 -2.2376
 3148TIP3   OH233638   6.483   1.139  10.120  0.2601 -0.2954 -0.8200
 3148TIP3    H133639   6.442   1.226  10.118 -0.1063 -0.4544 -0.3414
 3148TIP3    H233640   6.416   1.080  10.086  0.6358 -0.3477 -1.4921
 3149TIP3   OH233641   1.861   2.629   9.689 -0.4813  0.4197  0.4853
 3149TIP3    H133642   1.887   2.694   9.753 -0.8768  1.9054 -0.7797
 3149TIP3    H233643   1.934   2.568   9.684 -0.0916  0.7728  1.6968
 3150TIP3   OH233644   3.159   3.861  10.066  0.5261  0.5847  0.1273
 3150TIP3    H133645   3.166   3.874  10.160  0.8718  0.3850  0.1337
 3150TIP3    H233646   3.071   3.826  10.053  0.6239  0.2220  0.4254
 3151TIP3   OH233647   2.832   1.190   7.940  0.0435  0.0600  0.1864
 3151TIP3    H133648   2.814   1.264   7.997 -3.0973  1.5303 -2.3994
 3151TIP3    H233649   2.928   1.185   7.937  0.3382  2.2394  2.5490
 3152TIP3   OH233650   0.203   4.959  10.461  0.1227 -0.4281  0.1269
 3152TIP3    H133651   0.149   5.003  10.526 -0.3654 -0.1638 -0.4461
 3152TIP3    H233652   0.282   4.933  10.509  0.3850  0.9885  0.5140
 3153TIP3   OH233653   5.715   5.508  10.251  0.0636 -0.2112 -0.2769
 3153TIP3    H133654   5.783   5.562  10.290 -0.1382  0.0878 -0.3299
 3153TIP3    H233655   5.689   5.557  10.172 -0.3289 -0.2352 -0.1630
 3154TIP3   OH233656   2.304   6.355   8.795  0.0594  0.0522 -0.3209
 3154TIP3    H133657   2.281   6.448   8.792 -3.0289 -0.5486  0.9373
 3154TIP3    H233658   2.316   6.336   8.888 -0.8716 -1.0831 -0.4097
 3155TIP3   OH233659   3.098   5.093  10.220  0.0213 -0.2195 -0.0132
 3155TIP3    H133660   3.057   5.006  10.213 -1.4799  0.4267  0.3833
 3155TIP3    H233661   3.162   5.095  10.148 -1.9703 -0.5864 -1.8974
 3156TIP3   OH233662   4.144   5.878   9.459  0.0402 -0.2525 -0.0984
 3156TIP3    H133663   4.202   5.875   9.383 -0.4121 -1.2788 -0.4120
 3156TIP3    H233664   4.067   5.926   9.428 -0.0353 -0.4475 -0.2152
 3157TIP3   OH233665   6.676   3.768  10.057 -0.0169 -0.2413 -0.1671
 3157TIP3    H133666   6.633   3.683  10.052  0.4973 -0.5962  0.9596
 3157TIP3    H233667   6.675   3.789  10.151 -0.9149  1.4061 -0.5089
 3158TIP3   OH233668   6.277   5.937  11.995  0.3375 -0.1362 -0.3421
 3158TIP3    H133669   6.207   5.985  12.040 -1.0311 -2.5450  0.2318
 3158TIP3    H233670   6.358   5.977  12.028 -0.7097  1.1025  0.8397
 3159TIP3   OH233671   2.439   1.530  11.110  0.1318 -0.7604  0.2683
 3159TIP3    H133672   2.433   1.533  11.206  1.3442 -0.8111  0.3609
 3159TIP3    H233673   2.508   1.466  11.093 -0.6958 -1.4110 -0.6703
 3160TIP3   OH233674   5.462   4.873  11.378  0.5814 -0.0619  0.1564
 3160TIP3    H133675   5.407   4.807  11.419  0.8806 -0.3276  0.1336
 3160TIP3    H233676   5.519   4.904  11.448  0.2075  0.4189  0.2476
 3161TIP3   OH233677   4.111   5.776  10.019 -0.1680  0.1200  0.3164
 3161TIP3    H133678   4.162   5.814  10.090  0.3793  0.4222 -0.2395
 3161TIP3    H233679   4.061   5.849   9.983  1.9674  0.6965 -1.7053
 3162TIP3   OH233680   3.438   6.455   9.766 -0.0353 -0.0214 -0.3918
 3162TIP3    H133681   3.398   6.535   9.731 -0.4669  0.1657  0.5091
 3162TIP3    H233682   3.532   6.468   9.754 -0.1135  0.5203 -0.4543
 3163TIP3   OH233683   2.736   5.848  12.443 -0.3609 -0.0809  1.2483
 3163TIP3    H133684   2.694   5.921  12.489 -1.6838  0.1426 -0.2109
 3163TIP3    H233685   2.723   5.868  12.350  1.1143 -1.1384  0.7683
 3164TIP3   OH233686   5.122   2.481  10.639  0.0111 -0.1652 -0.2984
 3164TIP3    H133687   5.211   2.516  10.639 -0.9478  2.7075 -2.2749
 3164TIP3    H233688   5.088   2.503  10.726  0.9913 -0.7338  0.2511
 3165TIP3   OH233689   5.325   2.433  10.846  0.3043  0.1757 -0.1594
 3165TIP3    H133690   5.336   2.522  10.879 -1.0357  0.5926 -0.7712
 3165TIP3    H233691   5.236   2.409  10.872  0.4992 -0.8183 -0.3847
 3166TIP3   OH233692   3.202   3.045  11.475 -0.4231 -0.1266 -0.3571
 3166TIP3    H133693   3.288   3.042  11.516 -0.7694 -0.4299  0.3514
 3166TIP3    H233694   3.144   3.079  11.543 -0.6610  1.2598 -1.2031
 3167TIP3   OH233695   0.651   1.447  11.552  0.5283 -0.6481  0.6375
 3167TIP3    H133696   0.714   1.384  11.516 -0.7799 -2.8791  1.9755
 3167TIP3    H233697   0.623   1.408  11.634 -1.6840  0.8500  0.6843
 3168TIP3   OH233698   2.492   1.563  10.305  0.4054 -0.4405 -0.1463
 3168TIP3    H133699   2.517   1.471  10.298  0.3777 -0.5686  1.1923
 3168TIP3    H233700   2.414   1.571  10.250 -1.2154 -1.8788  1.7901
 3169TIP3   OH233701   1.222   1.046   8.968 -0.2747  0.2751  0.1919
 3169TIP3    H133702   1.134   1.039   8.931  0.5984 -0.1484 -1.9549
 3169TIP3    H233703   1.279   1.007   8.902  1.8126  2.7704  0.3396
 3170TIP3   OH233704   6.360   3.973  11.710 -0.0107 -0.0761  0.5863
 3170TIP3    H133705   6.425   3.907  11.735  0.6095  0.2300 -0.1769
 3170TIP3    H233706   6.412   4.045  11.675 -0.6805  0.8283  1.3941
 3171TIP3   OH233707   1.900   5.189  11.047  0.2893 -0.3232 -0.5669
 3171TIP3    H133708   1.981   5.202  11.096 -0.0066 -0.1953 -0.0946
 3171TIP3    H233709   1.866   5.106  11.080 -0.4428  0.2686  0.2366
 3172TIP3   OH233710   5.055   0.643   8.518 -0.3781  0.1347  0.5039
 3172TIP3    H133711   5.005   0.567   8.487 -0.1133 -0.4194  1.3832
 3172TIP3    H233712   5.081   0.689   8.438 -0.1629 -0.9571 -0.0798
 3173TIP3   OH233713   3.484   3.931  10.563 -0.3979  0.6175  0.0464
 3173TIP3    H133714   3.578   3.918  10.571 -0.8058 -2.3104  1.5001
 3173TIP3    H233715   3.469   4.021  10.592  1.9503  1.3012 -0.6839
 3174TIP3   OH233716   6.285   1.335  10.181 -0.1785  0.3880  0.1590
 3174TIP3    H133717   6.316   1.334  10.272 -1.2922 -2.0345  0.5832
 3174TIP3    H233718   6.196   1.369  10.187 -0.8847 -1.3888  0.2675
 3175TIP3   OH233719   2.165   3.929  10.113 -0.2971 -0.5411  0.1485
 3175TIP3    H133720   2.104   3.903  10.183 -0.0741  0.4266  0.7229
 3175TIP3    H233721   2.163   4.024  10.114  2.2323 -0.4338  1.0840
 3176TIP3   OH233722   1.884   2.262   8.595  0.2781  0.1448 -0.0834
 3176TIP3    H133723   1.866   2.287   8.504 -0.1605  1.0851  0.2565
 3176TIP3    H233724   1.915   2.343   8.636  3.7916 -0.9635 -0.2232
 3177TIP3   OH233725   2.872   2.986   9.766 -0.4249  0.3424  0.0434
 3177TIP3    H133726   2.855   2.896   9.738 -1.7997  0.7298 -0.4649
 3177TIP3    H233727   2.942   3.017   9.709 -2.3508  0.7143 -2.2687
 3178TIP3   OH233728   5.741   2.995  10.036  0.2536 -0.1477  0.3158
 3178TIP3    H133729   5.672   2.948   9.989  0.8996 -1.0470  0.2408
 3178TIP3    H233730   5.822   2.970   9.991  0.5105  2.4832 -0.9314
 3179TIP3   OH233731   1.254   1.055  12.171 -0.0901  0.4535 -0.3188
 3179TIP3    H133732   1.164   1.043  12.141 -0.3057  2.6547 -0.6955
 3179TIP3    H233733   1.254   1.022  12.261 -0.8523 -0.9933 -0.8222
 3180TIP3   OH233734   4.831   5.748  10.930 -0.5363 -0.2652  0.1234
 3180TIP3    H133735   4.800   5.688  10.998  0.0569 -0.2874  0.3779
 3180TIP3    H233736   4.925   5.752  10.942 -0.4319 -0.2185 -0.6639
 3181TIP3   OH233737   0.198   3.431  11.761  0.2022  0.4634 -0.8948
 3181TIP3    H133738   0.209   3.510  11.708  0.6670  2.0408  1.3949
 3181TIP3    H233739   0.153   3.462  11.840  0.9353 -1.4543  0.3273
 3182TIP3   OH233740   4.024   4.951  12.280  0.1995 -0.1981  0.1922
 3182TIP3    H133741   4.110   4.986  12.258 -0.1670  0.4759 -0.2029
 3182TIP3    H233742   4.042   4.867  12.322  1.1309  0.6106  1.4946
 3183TIP3   OH233743   0.144   6.602  10.248 -0.0118 -0.0950  0.0096
 3183TIP3    H133744   0.235   6.577  10.234 -0.3747 -0.8181 -1.2756
 3183TIP3    H233745   0.132   6.681  10.195 -0.0247  0.2362  0.5054
 3184TIP3   OH233746   2.166   2.682  10.995  0.1180 -0.2465  0.1938
 3184TIP3    H133747   2.162   2.631  10.914 -0.7989  0.0702  0.0266
 3184TIP3    H233748   2.238   2.743  10.982 -0.0675 -0.1555 -0.4088
 3185TIP3   OH233749   1.959   4.674  11.052  0.0103 -0.0212  0.2847
 3185TIP3    H133750   1.929   4.675  10.961  1.5292 -0.5878 -0.2517
 3185TIP3    H233751   2.036   4.732  11.052 -0.9802  1.3572  1.6017
 3186TIP3   OH233752   6.094   2.186  11.278 -0.5461  0.3720 -0.5826
 3186TIP3    H133753   6.093   2.094  11.306  0.7957  1.0458  1.9801
 3186TIP3    H233754   6.116   2.182  11.185  1.6631 -1.8596 -0.0704
 3187TIP3   OH233755   0.785   3.773  11.267  0.6165  0.4049 -0.0458
 3187TIP3    H133756   0.752   3.841  11.326  1.0297 -0.4448  1.1952
 3187TIP3    H233757   0.727   3.699  11.280  0.4143  0.3617 -1.0917
 3188TIP3   OH233758   0.484   3.027  12.125 -0.2099 -0.1545  0.3543
 3188TIP3    H133759   0.488   2.977  12.043  1.7620  0.5617 -0.0425
 3188TIP3    H233760   0.477   2.961  12.194  0.2574 -0.8609 -0.2707
 3189TIP3   OH233761   0.710   5.930   9.722  0.2532  0.1123  0.1101
 3189TIP3    H133762   0.698   5.987   9.647  0.5940 -1.1220 -0.9124
 3189TIP3    H233763   0.637   5.951   9.780 -1.3115 -0.4594 -1.5711
 3190TIP3   OH233764   2.406   1.193  10.487 -0.0766 -0.0016 -0.1898
 3190TIP3    H133765   2.478   1.130  10.484 -0.4217 -0.5715  1.9238
 3190TIP3    H233766   2.350   1.162  10.558 -2.2515  0.6262 -1.5223
 3191TIP3   OH233767   1.366   0.115   9.535 -0.0442  0.3176 -0.4690
 3191TIP3    H133768   1.411   0.086   9.615  1.1866 -1.9382 -1.8802
 3191TIP3    H233769   1.309   0.042   9.512 -2.3515  1.9781 -0.3237
 3192TIP3   OH233770   5.434   4.039  10.260 -0.7762 -0.4367  0.5978
 3192TIP3    H133771   5.487   3.962  10.242 -2.3119 -1.5304  0.5928
 3192TIP3    H233772   5.453   4.061  10.351 -0.6651 -1.0977  0.7370
 3193TIP3   OH233773   3.645   3.325  12.060  0.0956 -0.6386  0.1256
 3193TIP3    H133774   3.554   3.302  12.043  0.1900 -0.9679  0.0740
 3193TIP3    H233775   3.645   3.357  12.151  0.2231 -2.2202  0.7104
 3194TIP3   OH233776   0.556   5.498  10.417  0.2959 -0.0124 -0.0327
 3194TIP3    H133777   0.482   5.464  10.368 -0.8198  1.6472  0.4253
 3194TIP3    H233778   0.551   5.454  10.502 -0.6500  0.6771  0.2778
 3195TIP3   OH233779   5.894   1.375   8.679 -0.4868  0.1933  0.5260
 3195TIP3    H133780   5.820   1.435   8.666 -0.9947 -0.6747 -0.8745
 3195TIP3    H233781   5.891   1.318   8.602  2.2222  0.7353 -0.0787
 3196TIP3   OH233782   6.454   5.307  11.998 -0.0397  0.1841  0.6242
 3196TIP3    H133783   6.387   5.332  11.934 -0.0474  0.4335  0.7305
 3196TIP3    H233784   6.439   5.214  12.013  0.1349  0.0605  0.0565
 3197TIP3   OH233785   4.260   6.220   9.648 -0.0932  0.0316 -0.0119
 3197TIP3    H133786   4.325   6.275   9.605  0.0296 -1.0420 -1.3035
 3197TIP3    H233787   4.178   6.239   9.601  0.4448 -2.7172 -2.4107
 3198TIP3   OH233788   5.135   4.929  10.092 -0.1345  0.2664 -0.2442
 3198TIP3    H133789   5.040   4.944  10.094 -0.3230 -0.9612  1.1014
 3198TIP3    H233790   5.173   5.016  10.105 -1.0906  0.6668 -0.0583
 3199TIP3   OH233791   3.187   5.015  10.818  0.2152  0.2386 -0.0516
 3199TIP3    H133792   3.225   4.927  10.816  1.7184  0.8548  0.2643
 3199TIP3    H233793   3.110   5.009  10.761  0.5332 -1.1720 -0.3634
 3200TIP3   OH233794   2.201   0.386   9.216 -0.1616  0.1757 -0.0638
 3200TIP3    H133795   2.250   0.437   9.281 -2.0570  2.1443 -0.0792
 3200TIP3    H233796   2.192   0.444   9.141 -3.0770  0.1968  0.2184
 3201TIP3   OH233797   6.096   3.321  10.029  0.0665 -0.1356  0.1981
 3201TIP3    H133798   6.181   3.349   9.994  0.2980 -1.2263 -0.1591
 3201TIP3    H233799   6.114   3.300  10.121 -0.3339  1.8056  0.7748
 3202TIP3   OH233800   4.954   4.453   9.817 -0.2275 -0.3108 -0.3871
 3202TIP3    H133801   4.909   4.503   9.886  2.5704  0.0888  1.3313
 3202TIP3    H233802   4.993   4.379   9.863 -0.3889 -1.5035 -2.0774
 3203TIP3   OH233803   5.783   0.483   9.022  0.3684 -0.1969  0.2182
 3203TIP3    H133804   5.840   0.559   9.008  0.2113 -0.1519 -0.1921
 3203TIP3    H233805   5.820   0.415   8.966  0.1983 -0.2580  0.1781
 3204TIP3   OH233806   2.828   6.268  11.041  0.1424  0.1309  0.8534
 3204TIP3    H133807   2.826   6.313  11.125  1.0278 -0.0895  1.0014
 3204TIP3    H233808   2.858   6.334  10.978  0.2403  0.0883  0.8547
 3205TIP3   OH233809   2.061   1.440  11.737  0.8187  0.3990  0.0283
 3205TIP3    H133810   2.039   1.369  11.677 -0.0681  0.9538 -0.3186
 3205TIP3    H233811   2.092   1.510  11.680 -1.6437  1.5566  0.0119
 3206TIP3   OH233812   1.347   6.544  10.481 -0.3220 -0.0958 -0.4022
 3206TIP3    H133813   1.300   6.582  10.407 -0.6352 -0.2185 -0.2688
 3206TIP3    H233814   1.429   6.511  10.443 -0.0738  0.6403 -0.5291
 3207TIP3   OH233815   2.568   5.620  11.524  0.1627 -0.2410  0.2200
 3207TIP3    H133816   2.563   5.529  11.555 -0.8935 -0.0305  0.7007
 3207TIP3    H233817   2.611   5.613  11.438  0.6136 -1.1264  0.4950
 3208TIP3   OH233818   1.661   5.367  11.744  0.1997 -0.2435  0.0673
 3208TIP3    H133819   1.735   5.347  11.687  0.3755  0.7131 -0.0523
 3208TIP3    H233820   1.690   5.443  11.795 -0.3555 -0.4292  0.6815
 3209TIP3   OH233821   4.093   1.629   9.365 -0.1667 -0.6226  0.0900
 3209TIP3    H133822   4.123   1.540   9.379 -0.3175 -0.6961 -0.0458
 3209TIP3    H233823   4.108   1.645   9.272  0.4080 -0.2976  0.2329
 3210TIP3   OH233824   2.948   3.881   9.802  0.0184 -0.5325  0.4604
 3210TIP3    H133825   2.936   3.849   9.891  1.0584 -2.3180  0.0202
 3210TIP3    H233826   3.008   3.817   9.762 -0.1691  0.4018 -1.4080
 3211TIP3   OH233827   0.260   3.076  11.441 -0.1428 -0.2179 -0.0123
 3211TIP3    H133828   0.235   3.111  11.527 -0.2418  0.0230 -0.1377
 3211TIP3    H233829   0.327   3.011  11.460  0.0096  0.0081  0.2288
 3212TIP3   OH233830   3.262   6.308  10.347 -0.0266 -0.1916 -0.5353
 3212TIP3    H133831   3.183   6.338  10.303 -0.1881  2.0446  1.1008
 3212TIP3    H233832   3.330   6.370  10.320  0.1931  0.3518  1.1600
 3213TIP3   OH233833   4.182   2.355  10.087 -0.1366  0.2512  0.3699
 3213TIP3    H133834   4.184   2.384  10.179  1.4071  0.1914  0.3856
 3213TIP3    H233835   4.232   2.421  10.040 -0.7727  0.1865 -0.4129
 3214TIP3   OH233836   6.372   0.494   9.091 -0.1628 -0.0108  0.1710
 3214TIP3    H133837   6.457   0.471   9.053 -0.2117 -1.7263  0.9930
 3214TIP3    H233838   6.356   0.584   9.061  0.5751 -0.6508 -2.4019
 3215TIP3   OH233839   3.247   4.816  10.261  0.3733 -0.1578 -0.3635
 3215TIP3    H133840   3.332   4.820  10.306  0.7571  2.2312 -1.1542
 3215TIP3    H233841   3.270   4.807  10.169 -0.3150 -1.5222 -0.4148
 3216TIP3   OH233842   2.982   0.643  11.430  0.3613 -0.0722 -0.0343
 3216TIP3    H133843   2.908   0.670  11.484  1.1033 -0.0933  1.0308
 3216TIP3    H233844   2.987   0.548  11.441  1.0372  0.0267  0.5646
 3217TIP3   OH233845   2.897   1.630  10.156  0.1649 -0.1920 -0.1142
 3217TIP3    H133846   2.803   1.645  10.146  0.4945  1.7043 -0.8500
 3217TIP3    H233847   2.930   1.713  10.190  1.6282 -0.6907 -0.2865
 3218TIP3   OH233848   4.659   2.011  10.346  0.3002  0.3404 -0.5887
 3218TIP3    H133849   4.731   2.018  10.283  0.9221  0.9553  0.1667
 3218TIP3    H233850   4.589   2.063  10.307  0.9817  1.4588 -0.3837
 3219TIP3   OH233851   2.781   1.082  11.167  0.3462  0.0306  0.5173
 3219TIP3    H133852   2.726   1.056  11.241  0.4341 -3.0950 -0.3945
 3219TIP3    H233853   2.738   1.160  11.132 -1.7961 -0.5528  1.6490
 3220TIP3   OH233854   0.498   2.133  11.821  1.0895  0.0062  0.7542
 3220TIP3    H133855   0.453   2.054  11.794  1.6975 -0.7303  1.8094
 3220TIP3    H233856   0.590   2.108  11.827  1.3014  0.8083  1.0342
 3221TIP3   OH233857   2.363   3.548  11.568 -0.3094 -0.0020  0.0341
 3221TIP3    H133858   2.404   3.560  11.482 -0.8544  2.2415  0.0363
 3221TIP3    H233859   2.346   3.637  11.600 -1.2934 -0.7993  1.9124
 3222TIP3   OH233860   2.819   5.683   8.616 -0.0924  0.2848 -0.2601
 3222TIP3    H133861   2.836   5.650   8.704 -1.2490 -0.8016 -0.4131
 3222TIP3    H233862   2.905   5.685   8.574  0.1842 -1.5514  0.1200
 3223TIP3   OH233863   3.399   1.582   9.551 -0.1417 -0.9159  0.4036
 3223TIP3    H133864   3.484   1.548   9.524 -0.1748 -1.1226  0.5598
 3223TIP3    H233865   3.420   1.647   9.619  0.1547  1.5457 -1.8584
 3224TIP3   OH233866   1.486   3.817  12.249  0.3729 -0.2023  0.5228
 3224TIP3    H133867   1.573   3.834  12.213  0.1173  0.3553  0.1625
 3224TIP3    H233868   1.493   3.730  12.288  0.8150 -0.5941 -0.3998
 3225TIP3   OH233869   4.331   4.293   8.733  0.0905 -0.1748 -0.3958
 3225TIP3    H133870   4.237   4.306   8.717  0.0308 -1.0116 -0.7563
 3225TIP3    H233871   4.337   4.204   8.768  0.9178 -0.7559 -1.9436
 3226TIP3   OH233872   5.619   4.496  12.186 -0.0026  0.2618  0.4121
 3226TIP3    H133873   5.630   4.444  12.107  0.2332 -0.7288  1.0676
 3226TIP3    H233874   5.591   4.433  12.253  1.9120  0.6192  1.6568
 3227TIP3   OH233875   1.997   4.257  10.459  0.6127  0.1586 -0.6064
 3227TIP3    H133876   1.959   4.263  10.372  1.8928  0.3689 -1.1819
 3227TIP3    H233877   2.088   4.286  10.448  0.9090 -0.1557  0.7238
 3228TIP3   OH233878   4.664   2.429  10.592 -0.0421 -0.0883  0.5690
 3228TIP3    H133879   4.639   2.521  10.603 -0.5745 -0.0624 -0.7225
 3228TIP3    H233880   4.759   2.429  10.600 -0.1740  0.2074  2.8845
 3229TIP3   OH233881   4.609   3.033  10.563  0.1886  0.1797 -0.0201
 3229TIP3    H133882   4.680   2.993  10.613  0.9641  1.0742 -0.3667
 3229TIP3    H233883   4.631   3.016  10.471 -0.4688 -0.2206 -0.1088
 3230TIP3   OH233884   3.151   0.759   9.499 -0.2345 -0.1830  0.2008
 3230TIP3    H133885   3.174   0.761   9.592 -1.5451  2.0367  0.5444
 3230TIP3    H233886   3.236   0.755   9.454  0.6963  2.6705  1.4824
 3231TIP3   OH233887   4.581   4.538   9.864  0.4160 -0.1369  0.1051
 3231TIP3    H133888   4.569   4.451   9.902 -1.4507  0.3532  0.7482
 3231TIP3    H233889   4.530   4.536   9.783 -0.2074  0.5559  0.4684
 3232TIP3   OH233890   2.540   3.313  11.648 -0.3773 -0.2297  0.2319
 3232TIP3    H133891   2.510   3.285  11.561 -1.3945  1.6251 -0.0680
 3232TIP3    H233892   2.484   3.387  11.670  0.0257 -0.4917  2.3896
 3233TIP3   OH233893   4.572   1.003  10.264  0.1201  0.3427 -0.2116
 3233TIP3    H133894   4.554   0.910  10.256 -1.8442  0.4663  1.8952
 3233TIP3    H233895   4.668   1.009  10.259  0.3262 -1.8274  0.0507
 3234TIP3   OH233896   6.653   4.212  11.135  0.4876  0.0388 -0.4897
 3234TIP3    H133897   6.570   4.257  11.123 -0.7652 -1.6869  1.2360
 3234TIP3    H233898   6.654   4.144  11.068 -1.0973 -2.0455  1.4565
 3235TIP3   OH233899   4.815   1.597  11.752 -0.3106  0.6225 -0.7305
 3235TIP3    H133900   4.811   1.505  11.727 -3.3754  0.3468  0.3314
 3235TIP3    H233901   4.841   1.596  11.844  1.0255  0.9508 -1.0873
 3236TIP3   OH233902   4.745   4.575  10.993 -0.1506  0.3884 -0.4480
 3236TIP3    H133903   4.837   4.588  11.018 -0.4244  0.7141  0.4045
 3236TIP3    H233904   4.696   4.635  11.049 -1.0261 -0.9194  0.2340
 3237TIP3   OH233905   3.755   0.138   9.108  0.3477  1.0136  0.4608
 3237TIP3    H133906   3.788   0.105   9.024  0.9659 -1.3259  1.5372
 3237TIP3    H233907   3.686   0.200   9.083 -0.2932 -0.4520 -1.7985
 3238TIP3   OH233908   3.733   6.704  10.334 -0.4571  0.2064 -0.1615
 3238TIP3    H133909   3.702   6.694  10.244  1.1037 -1.8221 -0.5593
 3238TIP3    H233910   3.725   6.616  10.371  1.5248  0.3680  0.7694
 3239TIP3   OH233911   2.469   3.552  11.089 -0.5416  0.4809 -0.5658
 3239TIP3    H133912   2.461   3.647  11.079 -0.0583  0.7611  1.2687
 3239TIP3    H233913   2.499   3.521  11.004 -0.0760  2.0568 -1.0060
 3240TIP3   OH233914   1.289   6.086  10.749 -0.1045 -0.1021 -0.1584
 3240TIP3    H133915   1.332   6.131  10.821  0.3532 -0.3484 -0.2787
 3240TIP3    H233916   1.338   6.005  10.738  0.6204  0.5077 -1.5855
 3241TIP3   OH233917   1.380   5.271   9.185 -0.2532  0.2426 -0.2240
 3241TIP3    H133918   1.350   5.340   9.127 -1.6726  0.2251  0.4483
 3241TIP3    H233919   1.352   5.190   9.143 -1.5356  0.2398  0.5663
 3242TIP3   OH233920   2.422   1.519  11.381 -0.3184  0.4498  0.4754
 3242TIP3    H133921   2.346   1.460  11.389 -0.0319 -0.4405 -2.2493
 3242TIP3    H233922   2.476   1.497  11.457 -0.5026 -2.4571 -0.0948
 3243TIP3   OH233923   5.552   0.676   8.783  0.3089 -0.3745  0.3832
 3243TIP3    H133924   5.528   0.656   8.874 -1.2176  0.8567  0.2830
 3243TIP3    H233925   5.472   0.711   8.744  1.0574 -0.4883 -1.3311
 3244TIP3   OH233926   0.416   4.144  10.067  0.1212 -0.4139  0.5960
 3244TIP3    H133927   0.369   4.090  10.130 -1.1011 -1.0764 -0.8181
 3244TIP3    H233928   0.433   4.226  10.113 -1.9378 -0.3621  1.3645
 3245TIP3   OH233929   1.395   3.132  12.270  0.0255 -0.5570  0.2639
 3245TIP3    H133930   1.307   3.129  12.232  0.0117 -0.1828  0.2620
 3245TIP3    H233931   1.380   3.142  12.364  0.0531 -1.9717  0.4403
 3246TIP3   OH233932   3.012   0.815  10.814 -0.1985 -0.0536  0.3075
 3246TIP3    H133933   2.963   0.807  10.732 -1.5982 -0.4161  1.1521
 3246TIP3    H233934   2.953   0.861  10.873  1.6887  2.3831  0.4499
 3247TIP3   OH233935   6.228   0.079   8.679 -0.2426 -0.0451 -0.2598
 3247TIP3    H133936   6.257  -0.012   8.690  0.0790 -0.0109 -0.8053
 3247TIP3    H233937   6.274   0.127   8.747 -0.3783 -0.2840  0.0033
 3248TIP3   OH233938   2.617   0.472   8.844  0.2754  0.1481  0.4919
 3248TIP3    H133939   2.547   0.536   8.831  0.3247  0.2221  0.5905
 3248TIP3    H233940   2.580   0.408   8.906  0.6356  0.7190  1.3144
 3249TIP3   OH233941   0.744   0.290  11.673  0.1822 -0.3190 -0.1872
 3249TIP3    H133942   0.784   0.321  11.591 -1.4793 -1.4051 -1.4792
 3249TIP3    H233943   0.798   0.215  11.699  0.2575 -0.4610 -0.7332
 3250TIP3   OH233944   2.224   0.151   9.370 -0.4434 -0.0039  0.3577
 3250TIP3    H133945   2.294   0.158   9.435  0.8879 -0.4064 -0.9667
 3250TIP3    H233946   2.221   0.237   9.329 -1.4659  0.3321  1.0945
 3251TIP3   OH233947   0.017   3.877  10.598 -0.2703  0.4671  0.7937
 3251TIP3    H133948  -0.022   3.806  10.647 -0.3540  0.1061  0.2196
 3251TIP3    H233949  -0.054   3.940  10.585 -0.1647  0.7201  1.4064
 3252TIP3   OH233950   4.694   5.718   9.212 -0.4423  0.2216 -0.0120
 3252TIP3    H133951   4.655   5.631   9.202 -0.1278  0.1044 -0.2289
 3252TIP3    H233952   4.670   5.745   9.300 -0.0202 -0.3474  0.2823
 3253TIP3   OH233953   5.124   1.237  10.384  0.3540 -0.5473 -0.0430
 3253TIP3    H133954   5.215   1.265  10.390  0.3550 -0.5336 -0.1151
 3253TIP3    H233955   5.084   1.268  10.466 -0.0866  1.3270 -0.8961
 3254TIP3   OH233956   4.173   3.744  12.434  0.5524  0.4655 -0.1870
 3254TIP3    H133957   4.205   3.825  12.473  0.2529  1.0039 -1.0152
 3254TIP3    H233958   4.248   3.685  12.436  0.4078  0.2780  1.6453
 3255TIP3   OH233959   2.669   5.530  10.640 -0.4314  0.2276 -0.3450
 3255TIP3    H133960   2.705   5.454  10.594 -2.5133  0.0445 -1.7723
 3255TIP3    H233961   2.600   5.563  10.583 -0.0325  2.8368  0.5529
 3256TIP3   OH233962   1.780   0.942  11.472 -0.2948  0.1634  0.4750
 3256TIP3    H133963   1.702   0.972  11.519 -2.0415 -2.7393 -0.3017
 3256TIP3    H233964   1.836   0.902  11.538 -0.3175  0.6372  0.7810
 3257TIP3   OH233965   3.233   0.675  10.909  0.2145  0.3128 -0.3598
 3257TIP3    H133966   3.237   0.694  11.003 -0.0071 -0.2025 -0.2452
 3257TIP3    H233967   3.149   0.711  10.881  0.2042  0.3147 -0.3262
 3258TIP3   OH233968   2.169   5.944  10.866  0.0591 -0.0547 -0.5043
 3258TIP3    H133969   2.225   5.910  10.936 -0.5490  1.0819  0.5786
 3258TIP3    H233970   2.087   5.894  10.874 -0.0445  0.1409 -0.3468
 3259TIP3   OH233971   6.598   6.513   8.998 -0.2318 -0.7619  0.1300
 3259TIP3    H133972   6.558   6.497   8.913  2.0105 -1.8735 -0.7895
 3259TIP3    H233973   6.551   6.589   9.033 -2.1985 -1.1912 -1.3977
 3260TIP3   OH233974   4.976   1.565   9.588 -0.4951 -0.1418 -0.1681
 3260TIP3    H133975   4.923   1.517   9.524  1.2157 -0.8732 -1.1186
 3260TIP3    H233976   5.060   1.576   9.545 -0.2484  2.1530  0.7675
 3261TIP3   OH233977   5.791   6.079   9.708  0.1194  0.7139  0.3387
 3261TIP3    H133978   5.713   6.063   9.655 -0.0745  1.2264  0.4568
 3261TIP3    H233979   5.854   6.119   9.648 -0.2112  1.5804  0.5543
 3262TIP3   OH233980   3.730   1.696   9.877  0.3367  0.2339 -0.0432
 3262TIP3    H133981   3.824   1.715   9.877  0.5887 -0.6796 -2.1099
 3262TIP3    H233982   3.721   1.618   9.932  1.0170 -0.4294 -0.8356
 3263TIP3   OH233983   5.228   5.363   9.895  0.0154  0.3128  0.3050
 3263TIP3    H133984   5.224   5.300   9.823 -1.6389 -1.5117  1.8949
 3263TIP3    H233985   5.137   5.385   9.914  0.1551 -1.0849  3.2678
 3264TIP3   OH233986   2.158   1.876   9.210  0.0154  0.2807  0.8508
 3264TIP3    H133987   2.172   1.969   9.192  0.4843 -0.0608 -0.7301
 3264TIP3    H233988   2.064   1.869   9.229 -0.0475  1.0541  0.8539
 3265TIP3   OH233989   2.947   1.198  10.905  0.5880  0.7270  0.1807
 3265TIP3    H133990   2.987   1.257  10.969  1.0544 -0.5875  1.1661
 3265TIP3    H233991   2.956   1.111  10.945 -0.3114  0.0223 -1.0927
 3266TIP3   OH233992   5.146   0.166  10.075 -0.3583  0.4122  0.0813
 3266TIP3    H133993   5.088   0.234  10.039 -0.0749  1.0074  0.7410
 3266TIP3    H233994   5.092   0.087  10.074 -0.1288  0.2062 -2.3580
 3267TIP3   OH233995   0.397   4.150  11.742  0.1886 -0.1186 -0.0606
 3267TIP3    H133996   0.385   4.194  11.658 -0.1352  1.1426  0.6144
 3267TIP3    H233997   0.459   4.206  11.789 -0.1121 -0.4681  0.7639
 3268TIP3   OH233998   2.034   0.185  10.392  0.0617 -0.3871 -0.0440
 3268TIP3    H133999   2.122   0.200  10.426 -0.3251  1.2450  0.3343
 3268TIP3    H234000   2.030   0.239  10.313 -1.4071  1.6458  1.3389
 3269TIP3   OH234001   2.162   3.628   9.098 -0.0657  0.2270  0.2951
 3269TIP3    H134002   2.192   3.568   9.029 -0.1710 -2.3283  2.3045
 3269TIP3    H234003   2.072   3.649   9.074 -0.0857 -0.5832 -0.3908
 3270TIP3   OH234004   3.157   5.414  11.413  0.2427  0.6035 -0.2506
 3270TIP3    H134005   3.098   5.355  11.459 -1.4888  1.8127 -0.7848
 3270TIP3    H234006   3.186   5.365  11.336 -0.4770  0.1361 -0.2293
 3271TIP3   OH234007   1.656   4.423   9.562 -0.3249  0.3646  0.1678
 3271TIP3    H134008   1.746   4.454   9.556 -0.2271  0.1963  0.6921
 3271TIP3    H234009   1.608   4.475   9.497  0.2196  0.1778 -0.3964
 3272TIP3   OH234010   0.633   1.689   9.044  0.9421  0.5075  0.2051
 3272TIP3    H134011   0.705   1.742   9.079  0.8044  0.0507  1.2226
 3272TIP3    H234012   0.559   1.707   9.102  0.7992 -0.5227  0.3637
 3273TIP3   OH234013   2.015   0.417  11.509 -0.3655  0.3891 -0.2762
 3273TIP3    H134014   2.058   0.332  11.516 -0.9924  0.0995  0.1164
 3273TIP3    H234015   1.979   0.420  11.421  0.3385  0.5840 -0.5684
 3274TIP3   OH234016   2.662   1.093  11.736 -0.1299  0.3726 -0.1688
 3274TIP3    H134017   2.720   1.130  11.803 -1.8255 -0.9232  2.1844
 3274TIP3    H234018   2.690   1.002  11.727 -0.5341  0.2744 -0.4697
 3275TIP3   OH234019   4.487   1.043  10.855 -0.2050  0.4554  0.5522
 3275TIP3    H134020   4.581   1.046  10.838 -0.1059 -1.1720  0.6370
 3275TIP3    H234021   4.448   1.102  10.790  0.8894  1.4966  0.8091
 3276TIP3   OH234022   1.265   4.988  11.013 -0.0020  0.4546 -0.1225
 3276TIP3    H134023   1.257   5.074  10.972 -0.2272 -0.0929 -1.2675
 3276TIP3    H234024   1.332   4.999  11.081  0.0780  1.4878 -0.3639
 3277TIP3   OH234025   3.587   1.583  11.745  0.6065 -0.1017 -0.2260
 3277TIP3    H134026   3.554   1.660  11.699 -0.1866 -0.5733 -0.4583
 3277TIP3    H234027   3.682   1.587  11.733  0.6370  1.1939  0.3370
 3278TIP3   OH234028   3.360   6.269  11.864 -0.0516 -0.1687 -0.0148
 3278TIP3    H134029   3.425   6.205  11.833 -0.5804 -0.4536 -0.5826
 3278TIP3    H234030   3.362   6.339  11.799  0.6040  0.4568  0.6666
 3279TIP3   OH234031   0.109   4.329  11.363 -0.3576  0.2577  0.6808
 3279TIP3    H134032   0.063   4.290  11.289 -1.2591  2.0736  0.2341
 3279TIP3    H234033   0.152   4.406  11.327  2.0146 -0.6500  1.3686
 3280TIP3   OH234034   2.832   5.711  10.545  0.1536 -0.2790 -0.5177
 3280TIP3    H134035   2.925   5.690  10.540  0.7137  1.2734  1.7009
 3280TIP3    H234036   2.796   5.648  10.607 -0.0433 -0.2062 -0.5574
 3281TIP3   OH234037   2.683   5.807   9.093 -0.1223 -0.0069  0.2409
 3281TIP3    H134038   2.596   5.769   9.090  0.3259 -1.0120 -1.2697
 3281TIP3    H234039   2.740   5.740   9.056  0.9995  1.3442 -0.5922
 3282TIP3   OH234040   2.977   3.042  11.652  0.3707  0.0310  0.1094
 3282TIP3    H134041   2.904   3.007  11.702 -0.5292  1.0975 -0.4102
 3282TIP3    H234042   2.975   3.137  11.668  0.8523  0.2382 -0.9101
 3283TIP3   OH234043   1.051   2.138   9.728 -0.4258 -0.0927  0.3885
 3283TIP3    H134044   1.083   2.171   9.811  0.3962 -0.9594  0.4309
 3283TIP3    H234045   1.033   2.216   9.676  1.1880  0.4487  0.5915
 3284TIP3   OH234046   2.809   0.909  10.957  0.2757 -1.0094  0.2677
 3284TIP3    H134047   2.715   0.913  10.938  0.2221  0.1023  0.6923
 3284TIP3    H234048   2.820   0.961  11.036  1.5970  1.1107 -1.2045
 3285TIP3   OH234049   0.914   1.615   8.342 -0.1479 -0.2013  0.3675
 3285TIP3    H134050   0.925   1.530   8.300  0.3251 -0.1126  0.3070
 3285TIP3    H234051   0.961   1.676   8.285 -0.8100  0.1649  0.1991
 3286TIP3   OH234052   1.723   4.895  11.830  0.4038  0.1067  0.2492
 3286TIP3    H134053   1.666   4.822  11.855  0.9898 -0.1223  0.9696
 3286TIP3    H234054   1.805   4.878  11.877  0.4072  1.4442  0.7671
 3287TIP3   OH234055   4.910   5.368  10.721  0.4600 -0.1493  0.6766
 3287TIP3    H134056   4.915   5.453  10.678 -3.5778  0.0116  0.1534
 3287TIP3    H234057   4.971   5.313  10.673  2.2954  2.0922  0.2819
 3288TIP3   OH234058   5.743   6.506   8.838 -0.3706 -0.0277 -0.4415
 3288TIP3    H134059   5.697   6.487   8.756 -0.5722 -0.2700 -0.2733
 3288TIP3    H234060   5.791   6.587   8.821  0.3892 -0.6022 -1.1372
 3289TIP3   OH234061   2.480   1.329   9.124  0.2469  0.2111  0.3694
 3289TIP3    H134062   2.491   1.330   9.029 -0.0817  0.5400  0.3321
 3289TIP3    H234063   2.549   1.270   9.155  0.5937  0.3896 -0.0406
 3290TIP3   OH234064   0.864   1.922   8.841  0.1078 -0.6405  0.3357
 3290TIP3    H134065   0.841   2.012   8.864  0.7942  0.0296 -1.4382
 3290TIP3    H234066   0.862   1.875   8.925 -0.9830  0.8400  1.1963
 3291TIP3   OH234067   4.069   4.193  11.735  0.5611 -0.0718  0.5213
 3291TIP3    H134068   4.039   4.209  11.646 -2.8285 -1.0824  1.3530
 3291TIP3    H234069   4.048   4.274  11.782  0.0818 -0.4051  0.8909
 3292TIP3   OH234070   2.019   1.875  10.079  0.0710  0.5783 -0.1350
 3292TIP3    H134071   1.970   1.914  10.006 -0.0144 -0.0216 -0.4073
 3292TIP3    H234072   1.988   1.784  10.082  0.7806  0.3407  0.0404
 3293TIP3   OH234073   0.059   0.615  10.964  0.2673  0.3878 -0.5063
 3293TIP3    H134074   0.018   0.696  10.994 -1.5186 -1.0755  1.3825
 3293TIP3    H234075   0.003   0.585  10.893 -1.8089 -1.2932  1.6652
 3294TIP3   OH234076   1.120   2.681  11.182 -0.3374 -0.0454 -0.4359
 3294TIP3    H134077   1.098   2.591  11.206  0.7720 -0.3091 -0.3463
 3294TIP3    H234078   1.183   2.672  11.110  1.8221  0.5595  1.2588
 3295TIP3   OH234079   2.338   0.688  10.087  0.5461 -0.6917  0.0583
 3295TIP3    H134080   2.307   0.735  10.010  1.5611 -1.5504 -0.8989
 3295TIP3    H234081   2.329   0.595  10.065  1.3285 -0.9554  0.7677
 3296TIP3   OH234082   4.609   2.470  10.297 -0.2543 -0.0218  0.1840
 3296TIP3    H134083   4.572   2.513  10.375 -0.6245  0.3302 -0.1789
 3296TIP3    H234084   4.702   2.459  10.317 -0.1109  1.1178  0.2163
 3297TIP3   OH234085   3.948   1.504   9.675  0.2568 -0.7175 -0.5461
 3297TIP3    H134086   3.982   1.515   9.764  1.5253  3.0543 -1.3101
 3297TIP3    H234087   4.027   1.500   9.620 -0.5039 -0.3584 -1.7006
 3298TIP3   OH234088   0.283   0.202  10.949 -0.0373  0.0026  0.0436
 3298TIP3    H134089   0.368   0.164  10.973 -1.0124 -1.3248  1.5875
 3298TIP3    H234090   0.241   0.133  10.897  0.9758  1.8224 -3.5625
 3299TIP3   OH234091   3.450   6.455  10.939 -0.4576 -0.6433  0.2877
 3299TIP3    H134092   3.432   6.371  10.897 -1.6431  0.6410 -1.8872
 3299TIP3    H234093   3.504   6.503  10.876 -1.8403  1.1433  0.3950
 3300TIP3   OH234094   2.956   6.250   9.068 -0.3693 -0.1286  0.4848
 3300TIP3    H134095   2.920   6.184   9.009 -0.6562 -0.7012  1.2840
 3300TIP3    H234096   3.051   6.244   9.056 -0.4708  0.6189 -0.8089
 3301TIP3   OH234097   6.425   6.297   8.883 -0.5855  0.3420  0.1346
 3301TIP3    H134098   6.510   6.255   8.873 -0.7595 -0.1710  0.7198
 3301TIP3    H234099   6.369   6.254   8.819 -0.8586 -0.6093  0.9807
 3302TIP3   OH234100   2.711   0.987   8.777  0.0009 -0.2875 -0.2670
 3302TIP3    H134101   2.794   1.018   8.813 -0.9575  1.2499  0.7913
 3302TIP3    H234102   2.729   0.972   8.685  1.7082 -1.0479  0.1528
 3303TIP3   OH234103   0.321   0.682  10.980 -0.0838  0.4854  0.4657
 3303TIP3    H134104   0.349   0.594  11.004 -1.5878  0.4309  2.2573
 3303TIP3    H234105   0.228   0.672  10.957 -0.3316  1.6191  0.8839
 3304TIP3   OH234106   6.680   3.731  10.343  0.2552 -0.0522  0.0141
 3304TIP3    H134107   6.606   3.683  10.382  0.2329 -0.7617 -0.8574
 3304TIP3    H234108   6.730   3.762  10.418  1.3301 -3.0876  0.6976
 3305TIP3   OH234109   2.021   6.123  12.309 -0.2221 -0.2189  0.3121
 3305TIP3    H134110   2.116   6.117  12.298  0.3202  1.6079  3.1257
 3305TIP3    H234111   2.001   6.216  12.293 -1.5222 -0.5252  0.0449
 3306TIP3   OH234112   0.612   5.622  12.096  0.2457 -0.0256  0.7146
 3306TIP3    H134113   0.657   5.636  12.013  0.2256 -1.6044  0.4082
 3306TIP3    H234114   0.573   5.707  12.117  0.3063  0.4120 -0.8572
 3307TIP3   OH234115   4.587   5.623  12.182  0.3740  0.3576  0.7420
 3307TIP3    H134116   4.562   5.531  12.193 -0.3081  0.2268 -1.5059
 3307TIP3    H234117   4.665   5.619  12.126 -1.8221  1.1890 -2.6329
 3308TIP3   OH234118   1.497   0.355  11.850  0.1537 -0.5692  0.1380
 3308TIP3    H134119   1.543   0.333  11.769  3.1920  0.0035  1.5395
 3308TIP3    H234120   1.541   0.301  11.916  0.0335  1.3651  1.8722
 3309TIP3   OH234121   2.101   5.757  11.169  0.2990  0.4414  0.2488
 3309TIP3    H134122   2.128   5.712  11.249  0.8322 -0.5896 -0.4924
 3309TIP3    H234123   2.157   5.835  11.165  0.2973  0.4775  0.8406
 3310TIP3   OH234124   1.647   0.124  10.684  0.9564  0.0286 -0.0343
 3310TIP3    H134125   1.706   0.105  10.611 -0.7791 -1.0045 -1.2200
 3310TIP3    H234126   1.560   0.103  10.651  0.1262 -0.6692  2.4165
 3311TIP3   OH234127   3.707   0.202  11.592  0.1321 -0.1553 -0.2702
 3311TIP3    H134128   3.630   0.253  11.566 -0.5547 -0.8547  0.3334
 3311TIP3    H234129   3.698   0.119  11.546  0.5934 -0.1983 -0.2864
 3312TIP3   OH234130   0.747   4.719   9.736  0.2544 -0.2001  0.4063
 3312TIP3    H134131   0.833   4.686   9.762  0.4195 -0.7470 -0.7452
 3312TIP3    H234132   0.759   4.750   9.646 -0.7556 -0.3148  0.2172
 3313TIP3   OH234133   4.449   4.909   9.795  0.4024  0.4057  0.0765
 3313TIP3    H134134   4.465   4.898   9.889 -1.1576  1.5959  0.5235
 3313TIP3    H234135   4.445   5.003   9.782 -0.5980  0.2396 -0.9685
 3314TIP3   OH234136   2.886   4.861  10.932  0.1736 -0.4155  0.0503
 3314TIP3    H134137   2.897   4.775  10.974  2.5683 -0.4037 -0.3815
 3314TIP3    H234138   2.949   4.861  10.860 -1.7778  0.6789 -1.7806
 3315TIP3   OH234139   1.588   5.375   9.620  0.0814  0.1753 -0.4283
 3315TIP3    H134140   1.554   5.325   9.546 -0.1819 -0.6411  0.2278
 3315TIP3    H234141   1.575   5.467   9.595 -2.0846 -0.0832 -0.4761
 3316TIP3   OH234142   2.495   5.887  10.860 -0.2244  0.5557  0.0184
 3316TIP3    H134143   2.478   5.954  10.926 -0.6721  0.8417 -0.3820
 3316TIP3    H234144   2.478   5.930  10.777 -1.4174 -0.3078 -0.2109
 3317TIP3   OH234145   0.861   6.150  11.570 -0.2920  0.4919  0.3014
 3317TIP3    H134146   0.945   6.146  11.523  0.0183 -1.0018  0.9202
 3317TIP3    H234147   0.841   6.058  11.590 -1.6030  0.9173  0.9977
 3318TIP3   OH234148   3.902   5.778  11.883 -0.0220  0.2009  0.3172
 3318TIP3    H134149   3.905   5.733  11.799 -1.8986  1.9777 -0.7952
 3318TIP3    H234150   3.841   5.727  11.936  0.4510 -0.4096  0.2847
 3319TIP3   OH234151   6.366   3.200  10.424 -0.4766  0.4662 -0.3592
 3319TIP3    H134152   6.411   3.249  10.493 -1.2177  0.4885  0.1188
 3319TIP3    H234153   6.407   3.114  10.425  0.1693  0.7644 -0.5458
 3320TIP3   OH234154   5.857   2.483  11.713 -0.1631 -0.0839  0.0505
 3320TIP3    H134155   5.828   2.482  11.804 -0.9439 -0.7346 -0.1931
 3320TIP3    H234156   5.781   2.514  11.664 -0.4987 -1.8284 -0.6004
 3321TIP3   OH234157   5.451   1.710   9.480 -0.1735  0.3649  0.1562
 3321TIP3    H134158   5.503   1.659   9.417  0.2834  0.6187  0.3253
 3321TIP3    H234159   5.475   1.675   9.565 -2.9607 -2.0315  0.1204
 3322TIP3   OH234160   2.919   4.203  11.309  0.4745  0.1137  0.2227
 3322TIP3    H134161   2.908   4.298  11.303 -1.8917 -0.1120 -0.0349
 3322TIP3    H234162   2.942   4.188  11.401 -1.7169  0.7949  0.9412
 3323TIP3   OH234163   1.029   6.496  10.793  0.8730  0.7057  0.0330
 3323TIP3    H134164   1.041   6.521  10.884  2.0735 -1.1514  0.4337
 3323TIP3    H234165   1.117   6.479  10.761  0.2579 -2.3163 -0.3316
 3324TIP3   OH234166   0.536   3.298  12.180  0.1741  0.1236 -0.4608
 3324TIP3    H134167   0.450   3.340  12.186 -0.4597 -1.0899 -0.7416
 3324TIP3    H234168   0.517   3.206  12.161  1.5120 -0.3455  0.2948
 3325TIP3   OH234169   0.281   2.649  11.828  0.1285 -0.0720  0.3967
 3325TIP3    H134170   0.334   2.571  11.811 -0.5302 -0.6360  0.8793
 3325TIP3    H234171   0.197   2.615  11.860  0.3944  0.8621  2.2307
 3326TIP3   OH234172   1.044   1.035  10.055  0.0191  0.2906 -0.0142
 3326TIP3    H134173   1.075   1.123  10.074  0.9158  0.0819 -0.4585
 3326TIP3    H234174   0.954   1.034  10.086 -0.5414  1.8656 -1.4475
 3327TIP3   OH234175   5.733   3.456  10.378 -0.0041 -0.2379 -0.1797
 3327TIP3    H134176   5.675   3.450  10.453  1.2203 -1.3795  0.7130
 3327TIP3    H234177   5.676   3.483  10.306 -1.1545  1.1338  1.1790
 3328TIP3   OH234178   4.990   1.241  11.062 -0.1193  0.2458 -0.7992
 3328TIP3    H134179   5.030   1.218  10.978  0.5762 -0.8776 -0.1850
 3328TIP3    H234180   5.058   1.223  11.127 -0.7954  0.6761  0.0491
 3329TIP3   OH234181   2.739   5.957  10.615 -0.2262 -0.2950 -0.3220
 3329TIP3    H134182   2.744   5.963  10.711 -3.3782  0.2208 -0.0539
 3329TIP3    H234183   2.782   5.874  10.594  0.0508 -0.7027  1.6154
 3330TIP3   OH234184   2.054   3.539  11.274  0.4934 -0.3367 -0.5619
 3330TIP3    H134185   1.990   3.524  11.344  0.9183  0.7595  0.0913
 3330TIP3    H234186   2.007   3.593  11.210  0.7244  0.3880 -0.1277
 3331TIP3   OH234187   2.828   0.690  11.701  0.1822 -0.1133 -0.1286
 3331TIP3    H134188   2.911   0.735  11.714  0.8936 -1.6656  1.1072
 3331TIP3    H234189   2.798   0.669  11.790 -1.5440  0.4055 -0.5478
 3332TIP3   OH234190   5.094   3.017  11.264  0.1470  0.3118 -0.4373
 3332TIP3    H134191   5.103   2.928  11.297  1.2020  0.1102 -1.1955
 3332TIP3    H234192   5.014   3.051  11.304 -0.4005 -1.0655 -0.3381
 3333TIP3   OH234193   3.026   5.922  12.339  0.2019  0.3599  0.9087
 3333TIP3    H134194   3.085   5.882  12.276  0.8825  0.9826  1.1313
 3333TIP3    H234195   3.016   5.857  12.409 -0.6204 -0.3637  0.1356
 3334TIP3   OH234196   4.018   2.899   9.891 -0.4757 -0.1825  0.2180
 3334TIP3    H134197   3.968   2.897   9.809  0.5202 -0.1449 -0.4074
 3334TIP3    H234198   4.102   2.937   9.867 -0.7195  1.3178  1.5910
 3335TIP3   OH234199   6.182   3.762  12.049  0.1558  0.0492 -0.0931
 3335TIP3    H134200   6.088   3.772  12.058 -0.0053 -0.3663 -1.1517
 3335TIP3    H234201   6.194   3.669  12.030  0.9496 -0.2967  1.8949
 3336TIP3   OH234202   3.915   0.626   9.171  0.2736  0.1309  0.1219
 3336TIP3    H134203   3.836   0.589   9.132  0.1822  1.3947 -1.0074
 3336TIP3    H234204   3.954   0.555   9.220  0.6756 -1.8088 -2.7493
 3337TIP3   OH234205   4.994   1.826   9.689  0.2493  0.3858  0.1978
 3337TIP3    H134206   5.089   1.828   9.701  0.1240  0.6206  1.2105
 3337TIP3    H234207   4.976   1.737   9.659  0.7708  0.3109  0.0933
 3338TIP3   OH234208   2.634   3.717  10.076 -0.1395 -0.4529 -0.1299
 3338TIP3    H134209   2.635   3.809  10.103  1.1459 -0.4970  0.0286
 3338TIP3    H234210   2.550   3.684  10.107 -0.9038  0.8289 -0.7561
 3339TIP3   OH234211   2.011   3.848  11.303 -0.3965 -0.0114  0.1219
 3339TIP3    H134212   2.099   3.816  11.283 -0.9922 -2.3035  0.8519
 3339TIP3    H234213   2.009   3.937  11.268  2.0508 -0.0605 -0.3005
 3340TIP3   OH234214   1.104   5.906   8.992 -0.4535 -1.1115  0.0891
 3340TIP3    H134215   1.091   5.997   9.019  0.8046 -0.5796 -0.9996
 3340TIP3    H234216   1.084   5.906   8.898  1.3957 -1.5139 -0.3440
 3341TIP3   OH234217   5.971   6.177  10.494 -0.0442  0.2837 -0.1721
 3341TIP3    H134218   5.909   6.107  10.515 -0.2013  0.3363 -0.4576
 3341TIP3    H234219   5.925   6.232  10.431 -0.2545  1.1500  0.7105
 3342TIP3   OH234220   0.865   1.781  11.099  0.4869  0.0373  0.1198
 3342TIP3    H134221   0.942   1.770  11.156 -0.6589  1.2966  2.0152
 3342TIP3    H234222   0.806   1.710  11.123 -0.2833  0.9576  1.0455
 3343TIP3   OH234223   2.145   2.937  12.009 -0.0547 -0.2648  0.0469
 3343TIP3    H134224   2.237   2.919  12.029  0.0034 -0.7546 -0.6464
 3343TIP3    H234225   2.123   3.013  12.063  0.7675 -0.1242  0.1875
 3344TIP3   OH234226   2.108   5.518  11.068  0.1816 -0.1988  0.2570
 3344TIP3    H134227   2.130   5.606  11.099 -1.1113  0.2667 -0.0874
 3344TIP3    H234228   2.016   5.506  11.093  0.5878 -1.8270  1.1086
 3345TIP3   OH234229   4.256   0.222  12.294 -0.0264  0.4190  0.0138
 3345TIP3    H134230   4.280   0.155  12.230  1.5108  0.9642 -0.0322
 3345TIP3    H234231   4.202   0.284  12.245  1.1316  0.8271 -0.7889
 3346TIP3   OH234232   3.312   5.236  11.704  0.0714  0.3210 -0.1532
 3346TIP3    H134233   3.390   5.277  11.742  0.8585 -1.1788 -0.0866
 3346TIP3    H234234   3.240   5.265  11.761  0.6752  1.1406  0.2162
 3347TIP3   OH234235   2.780   6.476   9.643  0.6753 -0.2299  0.5869
 3347TIP3    H134236   2.748   6.423   9.570  2.4422 -2.7529  1.5000
 3347TIP3    H234237   2.851   6.529   9.605  1.6343 -1.5800  0.4054
 3348TIP3   OH234238   3.619   6.130   9.400 -0.3432 -0.4906 -0.0083
 3348TIP3    H134239   3.580   6.214   9.425  0.2533  0.2063 -1.2820
 3348TIP3    H234240   3.577   6.066   9.457 -1.4504  0.5606  0.4141
 3349TIP3   OH234241   2.188   5.737   9.516 -0.2343 -0.4216  0.5097
 3349TIP3    H134242   2.113   5.684   9.543 -1.1375 -0.5043 -1.9284
 3349TIP3    H234243   2.171   5.823   9.554 -1.7759 -0.3436 -0.2647
 3350TIP3   OH234244   0.080   5.772  10.030 -0.2370 -0.0301 -0.9566
 3350TIP3    H134245   0.162   5.792   9.985 -0.7827 -0.3059 -2.0987
 3350TIP3    H234246   0.048   5.692   9.989  0.1573 -1.3630  1.1909
 3351TIP3   OH234247   0.105   0.136  12.027  0.2052  0.0451 -0.2199
 3351TIP3    H134248   0.159   0.156  11.950  2.7190  0.9285  1.6296
 3351TIP3    H234249   0.064   0.219  12.050  0.0893 -0.0323 -0.1503
 3352TIP3   OH234250   1.247   2.881   9.226  0.3991  0.2168 -0.3741
 3352TIP3    H134251   1.328   2.873   9.175 -0.0580 -0.3277 -1.0394
 3352TIP3    H234252   1.184   2.919   9.164  0.3383  1.3575  0.3592
 3353TIP3   OH234253   3.485   0.360   9.302  0.0511  0.1415 -0.2665
 3353TIP3    H134254   3.447   0.441   9.266  1.5263  0.0481 -2.2221
 3353TIP3    H234255   3.546   0.390   9.369 -1.4174  0.4394  0.9888
 3354TIP3   OH234256   5.657   5.539   9.625 -0.4423  0.1968  0.2782
 3354TIP3    H134257   5.717   5.497   9.687  0.4430  0.3486 -0.4464
 3354TIP3    H234258   5.571   5.536   9.668  0.0478 -0.1980  1.2576
 3355TIP3   OH234259   2.185   4.614  11.830  0.3345  0.4959  0.1067
 3355TIP3    H134260   2.107   4.637  11.882 -2.6713 -1.0217 -3.2952
 3355TIP3    H234261   2.246   4.578  11.894 -1.8122  1.5010  2.9716
 3356TIP3   OH234262   4.675   5.328  11.874  0.6747  0.1336 -0.6406
 3356TIP3    H134263   4.592   5.285  11.893  0.8952  0.4346  1.2835
 3356TIP3    H234264   4.651   5.413  11.838  0.2159 -0.7825 -2.6185
 3357TIP3   OH234265   1.854   2.165  10.306  0.3971 -0.2420 -0.9012
 3357TIP3    H134266   1.923   2.098  10.306 -0.9521 -1.7852 -3.5629
 3357TIP3    H234267   1.864   2.209  10.222 -0.8728  0.6040 -0.6272
 3358TIP3   OH234268   4.221   4.036  10.414 -0.2966 -0.2340 -0.1013
 3358TIP3    H134269   4.236   4.018  10.507 -1.2972  1.0689  0.3403
 3358TIP3    H234270   4.134   4.001  10.396 -1.4680  2.2154  0.3077
 3359TIP3   OH234271   2.237   2.354  11.753  0.2500  0.2523 -0.0776
 3359TIP3    H134272   2.299   2.426  11.759  0.7096  0.1040 -2.1901
 3359TIP3    H234273   2.285   2.286  11.705  0.4936 -2.2578  3.3054
 3360TIP3   OH234274   4.970   6.461  11.882 -0.0628 -0.0445 -0.0296
 3360TIP3    H134275   5.064   6.460  11.865  0.3031 -0.7383  1.7639
 3360TIP3    H234276   4.947   6.553  11.887  0.6780  0.1313  0.2444
 3361TIP3   OH234277   1.902   6.533  11.813 -0.7089 -0.0157 -0.2119
 3361TIP3    H134278   1.972   6.480  11.776 -2.1257 -0.9502 -1.6959
 3361TIP3    H234279   1.858   6.475  11.875 -1.7322 -0.3513 -1.2068
 3362TIP3   OH234280   4.558   4.907  10.348 -0.1470  0.2718 -0.3762
 3362TIP3    H134281   4.503   4.982  10.325 -0.6698  0.8620  2.4828
 3362TIP3    H234282   4.579   4.919  10.441  2.6914 -1.3121 -0.6881
 3363TIP3   OH234283   1.864   6.381  10.431 -0.1263  0.4189  0.1012
 3363TIP3    H134284   1.942   6.436  10.433 -0.6475  1.2420 -1.0254
 3363TIP3    H234285   1.896   6.296  10.401  0.4020  0.6306  0.0585
 3364TIP3   OH234286   2.177   4.832  11.117 -0.0321 -0.0916  0.2038
 3364TIP3    H134287   2.269   4.806  11.106 -0.6611 -1.6783 -1.9192
 3364TIP3    H234288   2.177   4.926  11.100  1.0964 -0.2077 -0.5807
 3365TIP3   OH234289   3.566   6.047  12.101  0.3785 -0.1552  0.3025
 3365TIP3    H134290   3.606   5.966  12.134 -1.8373 -0.1118  3.6142
 3365TIP3    H234291   3.476   6.022  12.081  0.4203  0.9456 -1.4181
 3366TIP3   OH234292   5.950   2.252  10.385 -0.2172 -0.1798 -0.1934
 3366TIP3    H134293   5.922   2.271  10.475  1.4218 -1.0402  0.5478
 3366TIP3    H234294   6.016   2.319  10.366 -0.7156  0.1266 -0.8354
 3367TIP3   OH234295   1.277   5.046  11.457 -0.2705 -0.0252 -0.4803
 3367TIP3    H134296   1.330   5.088  11.525  1.2205 -2.6686  0.1491
 3367TIP3    H234297   1.187   5.061  11.485  0.2461  1.2978  0.5765
 3368TIP3   OH234298   6.132   0.608  11.671  0.0921  0.0960  0.1614
 3368TIP3    H134299   6.161   0.517  11.680  1.1590  0.5470  1.6959
 3368TIP3    H234300   6.131   0.642  11.760  2.1298  2.3015 -0.5481
 3369TIP3   OH234301   0.226   0.921  11.074 -0.3626 -0.1776  0.2042
 3369TIP3    H134302   0.223   0.975  10.994 -0.4865 -0.4198  0.0451
 3369TIP3    H234303   0.244   0.833  11.043  0.4492 -0.1292  0.5138
 3370TIP3   OH234304   1.439   4.022  10.003  0.1993  0.4195 -0.3662
 3370TIP3    H134305   1.484   3.941   9.979 -2.7917 -1.9558  1.2127
 3370TIP3    H234306   1.471   4.042  10.091 -0.2097 -0.0306 -0.1073
 3371TIP3   OH234307   3.433   4.194  10.630 -0.3043  0.3369  0.2958
 3371TIP3    H134308   3.351   4.204  10.678  0.4098  1.9332  1.2533
 3371TIP3    H234309   3.419   4.239  10.547 -0.9521 -0.9312 -0.3206
 3372TIP3   OH234310   0.619   2.710   9.915 -0.2709 -0.1261  0.0560
 3372TIP3    H134311   0.705   2.745   9.890 -0.2632 -1.1043 -1.4454
 3372TIP3    H234312   0.637   2.657   9.993  0.0365  1.5749  1.2034
 3373TIP3   OH234313   4.872   6.555  10.525  0.2424  0.1365  0.0709
 3373TIP3    H134314   4.898   6.475  10.479  0.1507 -0.0932  0.4129
 3373TIP3    H234315   4.953   6.606  10.531 -0.0512  0.8830 -1.7155
 3374TIP3   OH234316   4.072   4.564  12.097 -0.2159  0.6172 -0.3301
 3374TIP3    H134317   3.995   4.578  12.042  0.3380  0.9356 -1.0494
 3374TIP3    H234318   4.137   4.626  12.063  1.3211 -1.5738 -1.6244
 3375TIP3   OH234319   6.338   1.861   9.567 -0.2628  0.2159  0.4746
 3375TIP3    H134320   6.310   1.811   9.644 -0.9505 -0.4770 -0.2146
 3375TIP3    H234321   6.256   1.882   9.521  0.2413 -1.0209 -1.0708
 3376TIP3   OH234322   0.790   2.695   9.536 -0.2017 -0.4218 -0.4320
 3376TIP3    H134323   0.839   2.756   9.482 -0.2595  0.2286  0.2200
 3376TIP3    H234324   0.791   2.734   9.623  1.1781 -2.1706  0.4082
 3377TIP3   OH234325   3.134   5.003  11.945 -0.5450  0.2881 -0.2773
 3377TIP3    H134326   3.161   4.923  11.900 -1.8378 -0.0701 -0.4590
 3377TIP3    H234327   3.215   5.052  11.958  0.1485 -0.6482 -0.9516
 3378TIP3   OH234328   4.945   0.856  11.096 -0.2195 -0.0647  0.1847
 3378TIP3    H134329   4.866   0.837  11.045  0.0962 -0.3697 -0.1960
 3378TIP3    H234330   5.003   0.898  11.033  0.8163 -1.9218 -0.1642
 3379TIP3   OH234331   3.263   5.076  11.490 -0.1533  0.4893 -0.0641
 3379TIP3    H134332   3.349   5.055  11.454 -0.2392  0.4737 -0.2652
 3379TIP3    H234333   3.281   5.133  11.565 -0.0385  1.9755 -1.1645
 3380TIP3   OH234334   4.617   0.461  11.303  0.1278 -0.0618 -0.1752
 3380TIP3    H134335   4.641   0.527  11.238  0.0894  1.5761  1.4142
 3380TIP3    H234336   4.666   0.383  11.277  0.2040  0.5692 -2.0828
 3381TIP3   OH234337   5.177   6.031   8.769 -0.0723 -0.1494 -0.7427
 3381TIP3    H134338   5.128   5.985   8.702 -3.1545  0.8636  0.6562
 3381TIP3    H234339   5.176   5.972   8.844  0.6532 -0.0074 -0.6135
 3382TIP3   OH234340   4.799   6.127   9.050 -0.0774 -0.3575 -0.0839
 3382TIP3    H134341   4.870   6.178   9.012 -0.1332 -1.2750 -1.4800
 3382TIP3    H234342   4.737   6.193   9.082  2.0421  0.5281  2.6569
 3383TIP3   OH234343   3.765   2.629   9.675 -0.2076  0.0758  0.3144
 3383TIP3    H134344   3.766   2.576   9.755 -0.1376  1.1056  1.0190
 3383TIP3    H234345   3.678   2.615   9.637  0.2971 -1.6450 -0.2999
 3384TIP3   OH234346   1.948   3.204  11.979 -0.2745 -0.0711  0.1112
 3384TIP3    H134347   1.926   3.296  11.967 -0.2647 -0.2001 -1.0287
 3384TIP3    H234348   2.005   3.202  12.056 -0.4329  0.8431  0.2569
 3385TIP3   OH234349   4.121   1.419   8.598 -0.1608 -0.2416 -0.4703
 3385TIP3    H134350   4.040   1.467   8.617  0.5968  1.1434 -0.6353
 3385TIP3    H234351   4.166   1.413   8.682  0.7573  1.2836 -0.8315
 3386TIP3   OH234352   5.462   0.547  11.174 -0.6896 -0.2062 -0.1629
 3386TIP3    H134353   5.458   0.559  11.269 -5.2765 -1.4531  0.0197
 3386TIP3    H234354   5.383   0.588  11.140  0.8548  0.3526 -3.5724
 3387TIP3   OH234355   5.770   3.804  10.266  0.1187  0.2240  0.1739
 3387TIP3    H134356   5.863   3.783  10.265 -0.6715 -4.5402 -1.4901
 3387TIP3    H234357   5.736   3.759  10.343 -1.0324  0.4763 -0.1629
 3388TIP3   OH234358   1.895   2.572   8.692 -0.2730  0.2618  0.4266
 3388TIP3    H134359   1.950   2.621   8.631 -1.2309 -0.2465 -0.8823
 3388TIP3    H234360   1.854   2.638   8.746  1.5580  0.6630  1.4171
 3389TIP3   OH234361   4.028   6.500   8.913  0.5590 -0.1723  0.2257
 3389TIP3    H134362   4.016   6.519   8.819  1.8661 -0.3613  0.0037
 3389TIP3    H234363   4.086   6.569   8.944 -0.5074  0.3583  1.1085
 3390TIP3   OH234364   3.029   5.075  11.263  0.0058  0.2338  0.6724
 3390TIP3    H134365   3.018   5.124  11.182  0.3146  1.1076  1.1436
 3390TIP3    H234366   3.107   5.113  11.303  1.0822 -1.5619  0.4109
 3391TIP3   OH234367   2.153   0.205  11.506  0.4569 -0.0429 -0.1142
 3391TIP3    H134368   2.142   0.116  11.473  0.8669 -0.2597  0.3215
 3391TIP3    H234369   2.147   0.196  11.601  0.0101  0.4677 -0.0906
 3392TIP3   OH234370   1.584   6.327  12.182 -0.2337 -0.2568  0.4000
 3392TIP3    H134371   1.636   6.303  12.259  0.4539  0.0096  0.0307
 3392TIP3    H234372   1.523   6.254  12.171 -0.5333 -0.1598  1.3610
 3393TIP3   OH234373   4.460   5.095  10.125 -0.6537 -0.2380  0.0106
 3393TIP3    H134374   4.534   5.043  10.094  0.3638  0.2172  1.5723
 3393TIP3    H234375   4.500   5.175  10.160 -2.0300  0.7405 -0.5680
 3394TIP3   OH234376   4.226   4.762  12.392  0.3168 -0.0359  0.0985
 3394TIP3    H134377   4.136   4.730  12.388  0.6820 -1.4890  1.9475
 3394TIP3    H234378   4.246   4.766  12.485  2.0194  0.6983 -0.2533
 3395TIP3   OH234379   3.082   6.353   9.443 -0.6956 -0.4041 -0.4598
 3395TIP3    H134380   3.136   6.326   9.368 -3.3485 -1.0855 -2.2811
 3395TIP3    H234381   3.089   6.282   9.505 -0.8912 -1.3491 -1.4850
 3396TIP3   OH234382   3.228   4.301  11.827 -0.1229 -0.4362  0.2744
 3396TIP3    H134383   3.208   4.345  11.744 -1.9788  0.3383  1.0671
 3396TIP3    H234384   3.248   4.211  11.802  3.7852  0.6529 -1.4117
 3397TIP3   OH234385   4.415   2.957  10.354  0.5734  0.6793  0.1420
 3397TIP3    H134386   4.409   2.956  10.259  0.5055  0.4506  0.1480
 3397TIP3    H234387   4.383   3.044  10.380  1.7657  1.2172 -0.1227
 3398TIP3   OH234388   2.754   5.088  10.688  0.0824 -0.5248 -0.5186
 3398TIP3    H134389   2.792   5.173  10.712 -1.3982 -0.0041  0.1284
 3398TIP3    H234390   2.684   5.109  10.626  0.7036 -1.4386 -1.5719
 3399TIP3   OH234391   0.690   5.652   9.058 -0.1889 -0.0382  0.1323
 3399TIP3    H134392   0.676   5.717   8.990  0.1877  2.6622  2.4642
 3399TIP3    H234393   0.768   5.681   9.105 -0.2738 -1.8976  1.5841
 3400TIP3   OH234394   0.904   3.074   9.332 -0.5233 -0.0807 -0.2441
 3400TIP3    H134395   0.869   3.046   9.416  0.7381 -0.9899  0.0135
 3400TIP3    H234396   0.867   3.161   9.318 -0.1787  0.4116  1.6208
 3401TIP3   OH234397   3.870   1.567  11.694 -0.1099 -0.1471  0.4680
 3401TIP3    H134398   3.905   1.589  11.608 -0.1704 -2.1587 -0.1164
 3401TIP3    H234399   3.945   1.574  11.753  0.0750  0.6053  0.1565
 3402TIP3   OH234400   3.640   0.030   9.358  0.1346  0.1626  0.5738
 3402TIP3    H134401   3.637   0.071   9.272  0.3902 -2.5384 -0.8435
 3402TIP3    H234402   3.689  -0.051   9.344 -0.0775 -0.5191  3.2142
 3403TIP3   OH234403   2.014   1.473  11.263  0.1503 -0.2753 -0.3841
 3403TIP3    H134404   2.038   1.382  11.283  0.4735 -0.2161 -0.5008
 3403TIP3    H234405   1.969   1.468  11.179  0.5394 -0.2749 -0.5929
 3404TIP3   OH234406   6.119   6.373   9.544 -0.1129 -0.6515  0.2639
 3404TIP3    H134407   6.076   6.458   9.551  0.0206 -0.5450 -0.1764
 3404TIP3    H234408   6.050   6.313   9.514  0.2810 -0.2479 -1.5863
 3405TIP3   OH234409   2.097   3.596   9.567  0.6975  0.3948 -0.3351
 3405TIP3    H134410   2.057   3.600   9.654  2.1421  0.9433  0.3279
 3405TIP3    H234411   2.023   3.586   9.507 -0.3648  0.6324  0.8998
 3406TIP3   OH234412   5.999   0.559  10.801  0.3353  0.5695  0.6818
 3406TIP3    H134413   6.052   0.523  10.730 -1.1720 -0.5800  0.0857
 3406TIP3    H234414   5.970   0.644  10.768  0.6985  0.6067  0.4521
 3407TIP3   OH234415   1.194   0.837  10.140 -0.5929  0.2324 -0.2543
 3407TIP3    H134416   1.133   0.906  10.115  0.7605  1.6232  0.1035
 3407TIP3    H234417   1.276   0.861  10.097  0.2002 -0.5489  0.7588
 3408TIP3   OH234418   5.105   5.891  11.163  0.1048 -0.1487  0.2680
 3408TIP3    H134419   5.177   5.843  11.122 -0.0253 -0.8289  0.8137
 3408TIP3    H234420   5.149   5.956  11.218  0.2861  0.1266 -0.1910
 3409TIP3   OH234421   3.520   2.564   9.561  0.2151 -0.6179  0.3307
 3409TIP3    H134422   3.553   2.535   9.476 -0.3465 -0.2049 -0.0411
 3409TIP3    H234423   3.485   2.652   9.544  2.2197  0.4813  1.5055
 3410TIP3   OH234424   5.267   6.066  10.454  0.3807 -0.4220 -0.3924
 3410TIP3    H134425   5.306   6.091  10.370 -1.5403  0.0729 -1.1781
 3410TIP3    H234426   5.225   5.982  10.436  0.6947 -0.7356  0.3200
 3411TIP3   OH234427   2.961   2.291  11.950  0.2901 -0.0972 -0.3448
 3411TIP3    H134428   3.010   2.293  12.032 -0.6420 -0.7476  0.2568
 3411TIP3    H234429   2.897   2.221  11.962 -0.9000  0.8190 -1.0289
 3412TIP3   OH234430   2.029   0.991  11.222  0.6093  0.4874 -0.0053
 3412TIP3    H134431   1.959   0.980  11.157  1.3582 -0.5356 -0.6609
 3412TIP3    H234432   1.987   1.040  11.293 -0.1652  1.8728 -1.3477
 3413TIP3   OH234433   3.356   6.238  11.223  0.3307  0.6644 -0.7810
 3413TIP3    H134434   3.342   6.309  11.286 -0.2504  0.4740 -0.6829
 3413TIP3    H234435   3.421   6.272  11.162  0.4998  1.0558 -0.3897
 3414TIP3   OH234436   1.818   5.450  11.054 -0.3747  0.6607 -0.9768
 3414TIP3    H134437   1.863   5.366  11.050 -2.3274 -0.5461  0.4399
 3414TIP3    H234438   1.747   5.442  10.990 -1.9128  0.2922  0.6828
 3415TIP3   OH234439   5.408   5.456  10.063 -0.9599  0.1174  0.2348
 3415TIP3    H134440   5.332   5.419  10.017 -0.5951  1.5422 -1.5954
 3415TIP3    H234441   5.484   5.427  10.013 -0.5989  2.3503 -0.5953
 3416TIP3   OH234442   5.566   1.171  11.276 -0.3872  0.7195  0.3765
 3416TIP3    H134443   5.568   1.260  11.312  3.1294 -0.1191  2.7307
 3416TIP3    H234444   5.628   1.122  11.329 -1.3212 -2.9307 -1.5611
 3417TIP3   OH234445   1.042   6.115  10.654  0.2796 -0.2244 -0.1602
 3417TIP3    H134446   1.135   6.137  10.647  0.1319  0.4950  0.0289
 3417TIP3    H234447   1.040   6.019  10.658  0.8962 -0.3572 -1.9469
 3418TIP3   OH234448   0.198   5.565  11.616  0.0872 -0.0651  0.4822
 3418TIP3    H134449   0.127   5.557  11.552  1.6457  0.2988 -1.3705
 3418TIP3    H234450   0.170   5.637  11.673 -0.3612  1.1378 -1.1677
 3419TIP3   OH234451   1.663   6.283   8.184  0.0268 -0.0138  0.4030
 3419TIP3    H134452   1.569   6.285   8.165  0.1194 -1.6401 -0.3818
 3419TIP3    H234453   1.668   6.252   8.274 -0.1842 -0.6402  0.2061
 3420TIP3   OH234454   5.355   2.257  11.583  0.5275  0.1024 -0.0152
 3420TIP3    H134455   5.446   2.247  11.556  0.9843  0.9694  1.0996
 3420TIP3    H234456   5.341   2.351  11.588 -0.1552 -0.0220  0.6926
 3421TIP3   OH234457   5.117   3.146  10.973  0.1488 -0.1890  0.1138
 3421TIP3    H134458   5.200   3.189  10.952 -1.5472  2.9798 -0.7173
 3421TIP3    H234459   5.068   3.149  10.891 -1.6533  0.1504  1.1636
 3422TIP3   OH234460   2.769   2.720  11.750  0.7559 -0.3377  0.2985
 3422TIP3    H134461   2.764   2.777  11.826  2.3127 -1.7836  1.5608
 3422TIP3    H234462   2.701   2.753  11.691 -0.7005  0.6552  2.4004
 3423TIP3   OH234463   2.831   0.921  11.471  0.2715 -0.1861 -0.1075
 3423TIP3    H134464   2.769   0.921  11.398  0.5103  0.1039 -0.3179
 3423TIP3    H234465   2.788   0.871  11.540 -0.6258  0.8436  0.1156
 3424TIP3   OH234466   1.374   5.959   8.796 -0.1385  0.2423  0.5766
 3424TIP3    H134467   1.365   6.052   8.816 -1.2401 -0.1349  1.9535
 3424TIP3    H234468   1.285   5.925   8.801  0.0607 -0.6738 -1.1808
 3425TIP3   OH234469   6.415   1.386   8.831 -0.3385 -0.1009  0.1682
 3425TIP3    H134470   6.449   1.303   8.865  1.1412 -0.3072 -1.6543
 3425TIP3    H234471   6.387   1.366   8.742  0.3131  1.3862 -0.4095
 3426TIP3   OH234472   6.260   2.559  10.073  0.6617 -0.4285 -0.6112
 3426TIP3    H134473   6.355   2.560  10.086  0.5248  0.0216  0.5309
 3426TIP3    H234474   6.241   2.471  10.040  1.4950 -0.4543 -1.0435
 3427TIP3   OH234475   1.648   1.840   8.726  0.2485  0.4130  0.4381
 3427TIP3    H134476   1.657   1.932   8.702 -1.3946  0.5777  0.2889
 3427TIP3    H234477   1.640   1.794   8.642  0.7653  0.1679  0.5209
 3428TIP3   OH234478   5.880   0.642  11.420  0.4011 -0.3883  0.4124
 3428TIP3    H134479   5.817   0.645  11.348  1.4669  1.4588 -0.5086
 3428TIP3    H234480   5.964   0.664  11.380  1.5431 -2.0539  1.7479
 3429TIP3   OH234481   0.468   5.132  10.527 -0.2038  0.0183 -0.2209
 3429TIP3    H134482   0.536   5.198  10.539  0.6757 -0.4641 -2.1960
 3429TIP3    H234483   0.504   5.052  10.566  0.1604 -0.0982 -0.7788
 3430TIP3   OH234484   2.642   0.071  10.579 -0.1604 -0.1723 -0.1603
 3430TIP3    H134485   2.634   0.024  10.662  2.4200  0.5278  0.5975
 3430TIP3    H234486   2.561   0.052  10.532 -0.9429 -2.0245  1.7809
 3431TIP3   OH234487   0.688   2.372  11.663  0.9199  1.0406 -0.2452
 3431TIP3    H134488   0.678   2.421  11.744  1.8233 -1.0056  1.2042
 3431TIP3    H234489   0.630   2.296  11.673  1.7737  0.2485 -1.0634
 3432TIP3   OH234490   2.091   5.545  12.220  0.3071  0.1737 -0.1575
 3432TIP3    H134491   2.049   5.605  12.282 -1.3317  0.8561 -1.8266
 3432TIP3    H234492   2.165   5.595  12.186  0.7268  0.1029  0.6286
 3433TIP3   OH234493   1.746   4.995  12.436  0.2805 -0.0350 -0.4321
 3433TIP3    H134494   1.747   5.003  12.531 -3.6661  1.8633 -0.3751
 3433TIP3    H234495   1.714   4.906  12.420 -2.3130  0.7065  0.2003
 3434TIP3   OH234496   3.500   1.768   9.717 -0.0007 -0.0567  0.0945
 3434TIP3    H134497   3.569   1.722   9.764  1.1506  2.1331  0.6760
 3434TIP3    H234498   3.543   1.805   9.640 -0.5169  1.1689  0.3614
 3435TIP3   OH234499   1.267   5.864  11.372 -0.0320  0.4658  0.4137
 3435TIP3    H134500   1.314   5.783  11.350  0.4319  1.1384 -1.1529
 3435TIP3    H234501   1.178   5.850  11.340  0.3414  0.9969 -0.8820
 3436TIP3   OH234502   2.837   6.029   8.929 -0.0176 -0.2723  0.4795
 3436TIP3    H134503   2.918   5.982   8.948  1.0344  1.3256  0.1615
 3436TIP3    H234504   2.793   5.975   8.863  1.0583 -0.8896  0.2391
 3437TIP3   OH234505   0.469   5.642   9.705  0.3576 -0.2122  0.3395
 3437TIP3    H134506   0.428   5.704   9.644 -0.4825  0.3803  1.4521
 3437TIP3    H234507   0.452   5.556   9.668  0.1269  0.1503 -0.4127
 3438TIP3   OH234508   0.547   2.321  11.043  0.1798  0.5920  0.1131
 3438TIP3    H134509   0.635   2.349  11.068 -0.5008  1.6101  1.5357
 3438TIP3    H234510   0.532   2.362  10.958  1.1036  0.3354 -0.1804
 3439TIP3   OH234511   4.898   1.619  12.080 -0.5330 -0.0080  0.1708
 3439TIP3    H134512   4.992   1.629  12.068 -0.7973  1.4785 -0.8706
 3439TIP3    H234513   4.890   1.553  12.149  1.2635 -0.0042  0.4336
 3440TIP3   OH234514   1.158   0.754  11.543 -0.3158 -0.4832  0.0860
 3440TIP3    H134515   1.174   0.848  11.536 -1.8116 -0.3157 -1.6274
 3440TIP3    H234516   1.245   0.715  11.539  0.2116  0.7377 -1.3048
 3441TIP3   OH234517   1.908   3.450  10.054  0.4492 -0.3664 -0.2616
 3441TIP3    H134518   1.943   3.389  10.119 -0.0700  0.5173  0.9039
 3441TIP3    H234519   1.892   3.531  10.104 -0.3669  0.2047 -1.4046
 3442TIP3   OH234520   5.814   3.095  11.499  0.2248 -0.7650 -0.6178
 3442TIP3    H134521   5.723   3.115  11.521  0.6888  1.1656 -0.2878
 3442TIP3    H234522   5.861   3.178  11.513  1.8524 -1.4428 -1.8032
 3443TIP3   OH234523   4.049   1.598   9.927 -0.0554 -0.0326  0.0808
 3443TIP3    H134524   4.055   1.607  10.022  1.6396  0.6453 -0.0651
 3443TIP3    H234525   4.122   1.541   9.903  0.3792  0.9243 -0.9484
 3444TIP3   OH234526   5.467   1.088  11.803 -0.2870  0.3961 -0.3753
 3444TIP3    H134527   5.524   1.035  11.858  0.4148  0.2213 -1.2399
 3444TIP3    H234528   5.506   1.175  11.804 -0.4436  0.4671 -0.3522
 3445TIP3   OH234529   4.336   0.860  10.006 -0.5166  0.0448  0.1523
 3445TIP3    H134530   4.245   0.858  10.035 -1.5301 -0.2076 -2.6776
 3445TIP3    H234531   4.349   0.950   9.974  0.7543  0.5190  1.8613
 3446TIP3   OH234532   5.080   4.683  10.993 -0.4176 -0.5117  0.0808
 3446TIP3    H134533   5.132   4.696  11.072 -2.1946 -1.2648  1.4214
 3446TIP3    H234534   5.112   4.600  10.957  0.7720  0.0989 -0.3478
 3447TIP3   OH234535   0.808   5.264  10.705  0.9396 -0.0485 -0.0680
 3447TIP3    H134536   0.864   5.264  10.627  2.5222  2.3624  0.9589
 3447TIP3    H234537   0.855   5.209  10.767  0.4424 -0.7402 -0.2953
 3448TIP3   OH234538   0.625   6.111  11.054 -0.0774 -0.0631  0.0226
 3448TIP3    H134539   0.701   6.089  11.108 -0.0535 -1.0731 -0.4036
 3448TIP3    H234540   0.658   6.175  10.991  0.9870 -1.9905 -1.4885
 3449TIP3   OH234541   5.745   1.697  10.236  0.0497 -0.3571  0.5084
 3449TIP3    H134542   5.812   1.638  10.270 -0.7916 -0.8554  1.3379
 3449TIP3    H234543   5.789   1.782  10.230  0.6786 -0.6051  1.3380
 3450TIP3   OH234544   2.336   4.041  11.859  0.3572  0.3550  0.3228
 3450TIP3    H134545   2.243   4.051  11.837 -0.1452 -2.5189  0.7056
 3450TIP3    H234546   2.340   4.061  11.952 -0.7748 -3.1880  1.3026
 3451TIP3   OH234547   5.349   6.193  10.210 -0.4974 -0.1133 -0.4592
 3451TIP3    H134548   5.371   6.261  10.146  0.9773 -0.2587 -0.1491
 3451TIP3    H234549   5.415   6.125  10.196  0.3829  0.2151  1.7291
 3452TIP3   OH234550   2.469   2.499  11.708  0.3793 -0.3152  0.1675
 3452TIP3    H134551   2.536   2.434  11.688  0.1678 -1.1131  1.9006
 3452TIP3    H234552   2.470   2.558  11.633  2.7837 -0.4911 -0.0241
 3453TIP3   OH234553   6.464   3.128  11.462 -0.7442  0.6440 -0.8727
 3453TIP3    H134554   6.553   3.162  11.460 -1.4564  2.7906  0.4752
 3453TIP3    H234555   6.474   3.035  11.484  1.1475  0.8182 -0.8708
 3454TIP3   OH234556   3.888   4.962   9.317 -0.1484  0.0418 -0.1472
 3454TIP3    H134557   3.866   5.020   9.244 -0.9843  2.1689  1.6719
 3454TIP3    H234558   3.933   4.888   9.277  0.6422  1.7721 -2.6679
 3455TIP3   OH234559   4.495   5.224  11.570 -0.5665  0.1541  0.1450
 3455TIP3    H134560   4.523   5.136  11.595  0.0879  0.1027 -0.7047
 3455TIP3    H234561   4.570   5.260  11.523 -1.1979  0.7827 -0.4077
 3456TIP3   OH234562   6.114   5.437  10.275  0.2631  0.3469  0.1453
 3456TIP3    H134563   6.203   5.415  10.304 -0.0044  0.9153  1.4571
 3456TIP3    H234564   6.076   5.352  10.250  0.9384  0.0053  0.2444
 3457TIP3   OH234565   0.176   3.356   9.761  0.2446 -0.2093  0.1780
 3457TIP3    H134566   0.245   3.390   9.817  0.2538  0.0786 -0.0026
 3457TIP3    H234567   0.132   3.290   9.814  1.6632 -1.5569 -0.2444
 3458TIP3   OH234568   6.662   5.061  10.361  0.0016  0.5251 -0.5223
 3458TIP3    H134569   6.646   5.150  10.392 -1.4850  0.4446 -0.9642
 3458TIP3    H234570   6.673   5.009  10.441 -0.9705  0.8053 -0.1941
 3459TIP3   OH234571   2.521   6.314  11.280  0.1400  0.3414 -0.0393
 3459TIP3    H134572   2.554   6.365  11.354  2.3653 -1.1397  0.0633
 3459TIP3    H234573   2.546   6.365  11.203 -1.8819  1.7137  0.1100
 3460TIP3   OH234574   4.805   3.710  11.701 -0.4248  0.3691  0.5290
 3460TIP3    H134575   4.710   3.709  11.689 -0.7219  0.0896  2.5839
 3460TIP3    H234576   4.818   3.684  11.792  1.6541  0.0403  0.1823
 3461TIP3   OH234577   1.090   0.549  11.161 -0.1981 -0.2946 -0.6370
 3461TIP3    H134578   1.140   0.561  11.080  0.1060  2.1255 -0.1836
 3461TIP3    H234579   1.131   0.474  11.204  2.1733  0.7319 -0.9489
 3462TIP3   OH234580   3.795   2.374  10.556  0.5061 -0.5213 -0.4294
 3462TIP3    H134581   3.735   2.301  10.574  0.2037 -0.1971 -0.1019
 3462TIP3    H234582   3.739   2.451  10.560  1.0649 -0.1554  0.4832
 3463TIP3   OH234583   4.512   3.847  10.881 -0.0269  0.3798 -0.2866
 3463TIP3    H134584   4.597   3.884  10.858  1.4670 -0.8317  2.7372
 3463TIP3    H234585   4.459   3.922  10.906  1.1395  0.9799  0.4933
 3464TIP3   OH234586   1.715   3.017   9.567  0.1148 -0.2805  0.5050
 3464TIP3    H134587   1.674   3.006   9.482  2.1627 -1.0560 -0.4436
 3464TIP3    H234588   1.663   2.962   9.626 -0.9321 -0.2471 -0.3636
 3465TIP3   OH234589   2.432   5.710   9.070 -0.6433  0.2098  0.3652
 3465TIP3    H134590   2.469   5.631   9.029 -2.5737  0.8607 -2.9538
 3465TIP3    H234591   2.350   5.681   9.108 -0.5035  0.2980  0.7394
 3466TIP3   OH234592   1.569   2.167   8.246  0.7028  0.1757  0.5253
 3466TIP3    H134593   1.499   2.174   8.312  0.5640 -0.1698  0.4136
 3466TIP3    H234594   1.527   2.192   8.164  0.8805  0.6221  0.5669
 3467TIP3   OH234595   0.769   3.185  11.006 -0.1323 -0.1580 -0.2604
 3467TIP3    H134596   0.849   3.141  10.976 -1.2799 -2.5434 -0.0466
 3467TIP3    H234597   0.739   3.133  11.080 -1.7714  0.8057 -0.2047
 3468TIP3   OH234598   0.470   6.659  10.883  0.5406 -0.0033 -0.1408
 3468TIP3    H134599   0.477   6.724  10.952 -0.2134 -1.3820  1.2899
 3468TIP3    H234600   0.560   6.642  10.856  0.7392  1.6646 -0.6044
 3469TIP3   OH234601   3.188   4.769  11.817  0.5833  0.2143  0.3253
 3469TIP3    H134602   3.278   4.781  11.787  1.2970 -2.3804  1.1574
 3469TIP3    H234603   3.195   4.706  11.889 -2.0703 -1.7770 -0.9938
 3470TIP3   OH234604   4.287   0.151   9.016  0.1486  0.0872 -0.0488
 3470TIP3    H134605   4.260   0.178   8.928 -0.5119  1.5072  0.5438
 3470TIP3    H234606   4.338   0.226   9.049  1.6491 -1.0106  0.2682
 3471TIP3   OH234607   3.042   0.261   9.879 -0.1918 -0.3808  0.1953
 3471TIP3    H134608   3.064   0.352   9.897 -0.0429 -0.5842  1.0906
 3471TIP3    H234609   3.115   0.211   9.915 -1.1351 -0.9525  1.4151
 3472TIP3   OH234610   4.659   6.515  12.094 -0.7513  0.4415  0.2601
 3472TIP3    H134611   4.594   6.494  12.161 -1.3937  1.2469 -0.0959
 3472TIP3    H234612   4.633   6.602  12.062 -0.9535 -0.2907 -1.6447
 3473TIP3   OH234613   5.923   2.528   8.981  0.1008 -0.8441 -0.0933
 3473TIP3    H134614   5.857   2.587   8.944  0.9362  1.6065  2.0045
 3473TIP3    H234615   5.874   2.470   9.039 -0.4471 -0.1581  0.1541
 3474TIP3   OH234616   4.509   0.889  11.503 -0.2040 -0.1227 -0.3498
 3474TIP3    H134617   4.441   0.951  11.477 -0.5063 -0.8016 -1.2499
 3474TIP3    H234618   4.462   0.808  11.523  0.2430 -0.2752  0.1131
 3475TIP3   OH234619   5.697   2.124  11.229 -0.2059 -0.5549  0.0368
 3475TIP3    H134620   5.756   2.053  11.203  1.2405 -0.2764  2.2928
 3475TIP3    H234621   5.671   2.102  11.318 -1.3639  0.7269  0.0436
 3476TIP3   OH234622   1.077   3.248  12.207  0.0863 -0.0715  0.2238
 3476TIP3    H134623   1.014   3.243  12.136 -0.4854 -1.1051  0.7830
 3476TIP3    H234624   1.075   3.161  12.248  1.6995 -0.0666  0.3986
 3477TIP3   OH234625   1.866   5.891  10.812 -0.1071  0.0609  0.0593
 3477TIP3    H134626   1.832   5.976  10.841  1.1330  0.1992  1.2089
 3477TIP3    H234627   1.807   5.827  10.852  0.3529  0.3260  1.2116
 3478TIP3   OH234628   6.205   1.127   9.567  0.1944  0.1285 -0.2300
 3478TIP3    H134629   6.148   1.059   9.530 -0.1289 -0.1637  0.7493
 3478TIP3    H234630   6.163   1.209   9.542  0.5212 -0.0352 -1.3249
 3479TIP3   OH234631   3.839   5.629  11.657  0.3591 -0.5459  0.3485
 3479TIP3    H134632   3.757   5.581  11.672 -1.1814  0.4247 -3.6630
 3479TIP3    H234633   3.892   5.569  11.605  0.6998  0.0904 -0.0469
 3480TIP3   OH234634   0.507   3.691  10.765  0.2901 -0.2236  0.1929
 3480TIP3    H134635   0.428   3.701  10.712  0.6367  1.6477 -0.0396
 3480TIP3    H234636   0.579   3.691  10.702  0.5351 -1.1610  0.4564
 3481TIP3   OH234637   6.452   4.832  11.493  0.1996 -0.6792  0.0280
 3481TIP3    H134638   6.363   4.816  11.460 -0.2062 -1.7953  1.5629
 3481TIP3    H234639   6.479   4.749  11.531  0.7789  0.4001  2.1361
 3482TIP3   OH234640   6.278   5.862  11.126  0.3952 -0.0802  0.3071
 3482TIP3    H134641   6.349   5.828  11.071  1.0422  1.1174  0.3614
 3482TIP3    H234642   6.310   5.947  11.156 -0.2669 -0.3626  1.9073
 3483TIP3   OH234643   6.221   3.525  11.910 -0.2700 -0.1238 -0.7824
 3483TIP3    H134644   6.174   3.451  11.948 -2.6791  1.2266 -0.9018
 3483TIP3    H234645   6.219   3.509  11.816 -0.9170  0.1439 -0.8183
 3484TIP3   OH234646   2.054   3.107  10.461 -0.1960  0.3320 -0.1367
 3484TIP3    H134647   2.098   3.052  10.525 -1.2033  0.5844  0.8035
 3484TIP3    H234648   2.120   3.172  10.435  1.0526 -1.3513 -1.3719
 3485TIP3   OH234649   2.443   5.008   8.824 -0.6625  0.1957  0.2395
 3485TIP3    H134650   2.520   5.029   8.770 -0.4150 -0.2631  0.4069
 3485TIP3    H234651   2.421   5.091   8.867 -0.6760  0.4932 -0.3288
 3486TIP3   OH234652   1.965   4.030   9.887 -0.2230 -0.0667  0.6020
 3486TIP3    H134653   2.054   4.023   9.851 -0.8763 -0.4594 -1.0156
 3486TIP3    H234654   1.934   3.940   9.893 -0.0659 -0.0461  2.4629
 3487TIP3   OH234655   5.715   2.177  10.246 -0.5976 -0.1217  0.1522
 3487TIP3    H134656   5.667   2.120  10.306 -1.0548  0.2729  0.1704
 3487TIP3    H234657   5.791   2.206  10.297  0.6837 -2.1866 -0.4699
 3488TIP3   OH234658   1.380   0.119  10.553 -0.0922  0.3084  0.3216
 3488TIP3    H134659   1.328   0.158  10.483  1.4936  2.5850  0.3110
 3488TIP3    H234660   1.357   0.026  10.551 -2.0127  0.7542 -1.4876
 3489TIP3   OH234661   6.342   5.039  11.114 -0.2598  0.3080  0.0527
 3489TIP3    H134662   6.425   5.011  11.074  0.6629  0.1689  1.9668
 3489TIP3    H234663   6.356   5.132  11.134 -0.3785  0.1680  0.8059
 3490TIP3   OH234664   1.578   5.943  10.219  0.0481 -0.3868  0.8605
 3490TIP3    H134665   1.511   6.003  10.250 -0.2877  0.3681 -1.1674
 3490TIP3    H234666   1.529   5.870  10.181  0.3734 -0.3014  0.2578
 3491TIP3   OH234667   2.282   5.154   9.136 -0.0606  0.9803  0.1020
 3491TIP3    H134668   2.310   5.071   9.175 -1.6172  0.1127 -0.5053
 3491TIP3    H234669   2.354   5.181   9.080  0.1748 -0.3608 -0.2664
 3492TIP3   OH234670   0.694   4.673  11.371  0.0853 -0.2937 -0.2350
 3492TIP3    H134671   0.706   4.711  11.458  0.2047 -0.9789  0.0553
 3492TIP3    H234672   0.702   4.579  11.385 -2.4245 -0.6099 -0.5502
 3493TIP3   OH234673   5.507   4.834  11.102  0.1536 -0.2072 -0.4067
 3493TIP3    H134674   5.509   4.860  11.194  0.1844 -0.1852 -0.4136
 3493TIP3    H234675   5.456   4.902  11.059  0.0294 -0.2861 -0.3840
 3494TIP3   OH234676   3.753   3.944  10.562  0.3986  0.0783  0.0263
 3494TIP3    H134677   3.783   4.018  10.510  0.5214 -0.5174 -0.7699
 3494TIP3    H234678   3.775   3.968  10.652  2.3239  0.1609 -0.4040
 3495TIP3   OH234679   1.897   0.225  10.045 -0.1784 -0.3647  0.4064
 3495TIP3    H134680   1.805   0.219  10.019 -0.3261  1.5873  0.2907
 3495TIP3    H234681   1.894   0.263  10.133  0.5079 -1.4704  0.9310
 3496TIP3   OH234682   2.334   4.188  11.059 -0.2727 -0.5492 -0.0398
 3496TIP3    H134683   2.285   4.130  11.001 -0.9684  0.0123 -0.0240
 3496TIP3    H234684   2.414   4.208  11.010  1.0388 -3.1945  0.7938
 3497TIP3   OH234685   3.783   3.054  11.894  0.3362 -0.1926 -0.6046
 3497TIP3    H134686   3.723   3.126  11.915  1.2150  1.0461 -2.0885
 3497TIP3    H234687   3.857   3.068  11.953  0.5380  0.2050 -0.9392
 3498TIP3   OH234688   5.423   6.703  10.938  0.2911 -0.2875  0.1156
 3498TIP3    H134689   5.501   6.757  10.956  0.6042  0.2011 -2.3609
 3498TIP3    H234690   5.350   6.757  10.969  0.7481  0.6723 -0.4077
 3499TIP3   OH234691   0.256   2.698  10.458 -0.0651 -0.6110  0.0689
 3499TIP3    H134692   0.319   2.647  10.510 -1.1560  0.6877  2.8679
 3499TIP3    H234693   0.282   2.789  10.472  0.6583 -0.2059 -3.2411
 3500TIP3   OH234694   5.176   1.692   9.437 -0.4804  0.6517 -0.0420
 3500TIP3    H134695   5.270   1.676   9.435 -0.2544  1.7779  0.5767
 3500TIP3    H234696   5.168   1.786   9.455 -1.7244  0.3214  1.3504
 3501TIP3   OH234697   5.852   0.689  12.286  0.5735  0.2149  0.4917
 3501TIP3    H134698   5.889   0.649  12.208  1.1768  1.4575  0.1054
 3501TIP3    H234699   5.855   0.620  12.352 -0.9559 -1.2021 -0.8435
 3502TIP3   OH234700   0.881   0.102   8.972 -0.2646  0.1540  0.0567
 3502TIP3    H134701   0.945   0.051   8.922  1.5103  2.7987 -0.6253
 3502TIP3    H234702   0.811   0.121   8.909 -0.4281 -0.5381  0.0217
 3503TIP3   OH234703   1.543   6.639  11.098 -0.3192  0.0550 -0.2693
 3503TIP3    H134704   1.541   6.545  11.118 -0.4756  0.0035 -0.5203
 3503TIP3    H234705   1.601   6.645  11.022  0.2540  0.2446  0.1784
 3504TIP3   OH234706   0.998   1.372   8.251 -0.6978 -0.5132 -0.0286
 3504TIP3    H134707   1.028   1.341   8.165 -1.8343 -0.4537 -0.4703
 3504TIP3    H234708   1.059   1.334   8.313 -0.1203 -0.9354 -0.8350
 3505TIP3   OH234709   4.216   5.102  11.092  0.3058  0.1430  0.0085
 3505TIP3    H134710   4.275   5.058  11.153 -0.5939 -0.2974  0.5787
 3505TIP3    H234711   4.132   5.103  11.137 -0.2509  0.2821 -1.0150
 3506TIP3   OH234712   3.837   3.460   8.834  0.4112 -0.2802 -0.2079
 3506TIP3    H134713   3.888   3.387   8.871 -1.3403 -1.2703  0.3849
 3506TIP3    H234714   3.763   3.470   8.895 -0.6791  0.3721 -1.5949
 3507TIP3   OH234715   2.453   2.934  12.011 -0.1220  0.2385 -0.1796
 3507TIP3    H134716   2.518   2.879  11.967 -0.6569 -1.3106  0.8878
 3507TIP3    H234717   2.431   3.001  11.946  1.4577 -0.0697 -1.0765
 3508TIP3   OH234718   4.947   4.113   9.295 -0.0832  0.7322 -0.4667
 3508TIP3    H134719   4.884   4.046   9.321 -0.9645  1.9974  0.7911
 3508TIP3    H234720   4.901   4.196   9.309  1.2063  1.6390 -1.3566
 3509TIP3   OH234721   4.800   4.579   9.620  0.2722  0.3717  0.0598
 3509TIP3    H134722   4.766   4.491   9.608  0.4974  0.1501  0.9759
 3509TIP3    H234723   4.865   4.571   9.690  0.4169  1.2277  0.0387
 3510TIP3   OH234724   2.002   3.433  10.934 -0.0713  0.0296 -0.2147
 3510TIP3    H134725   1.967   3.347  10.961 -0.4212  0.4359  0.6775
 3510TIP3    H234726   1.927   3.492  10.942  0.1422  0.3995 -0.9419
 3511TIP3   OH234727   4.328   5.785  11.591 -0.2089  0.0230  0.3439
 3511TIP3    H134728   4.303   5.733  11.514 -1.2675  0.2567  0.5135
 3511TIP3    H234729   4.318   5.876  11.564 -0.6398  0.1071  0.7708
 3512TIP3   OH234730   3.474   5.236   9.435  0.7182  0.1517 -0.8336
 3512TIP3    H134731   3.411   5.195   9.375  0.2732  0.1180 -0.3411
 3512TIP3    H234732   3.462   5.330   9.422  0.3680  0.1478 -0.5308
 3513TIP3   OH234733   0.924   2.183  11.594  0.6309 -0.1171  0.3596
 3513TIP3    H134734   0.847   2.235  11.570  0.6004 -0.6821 -0.8293
 3513TIP3    H234735   0.949   2.215  11.681  0.6998  1.9862 -0.3860
 3514TIP3   OH234736   3.145   4.532  10.437 -0.5961 -0.1398 -0.0444
 3514TIP3    H134737   3.208   4.546  10.366 -1.2544 -0.0130 -0.6226
 3514TIP3    H234738   3.085   4.465  10.403  0.5120 -1.9562  1.3633
 3515TIP3   OH234739   1.265   6.505  11.830  1.3941  0.3910 -0.2579
 3515TIP3    H134740   1.297   6.555  11.905  0.5247  1.0056 -0.2818
 3515TIP3    H234741   1.344   6.475  11.785  1.9170  0.4874  0.5921
 3516TIP3   OH234742   0.372   2.325   8.912 -0.0090 -0.2545  0.0628
 3516TIP3    H134743   0.467   2.336   8.908  0.6313 -3.5873  2.1569
 3516TIP3    H234744   0.348   2.292   8.825  0.2975  2.5300 -1.1786
 3517TIP3   OH234745   1.726   3.609  11.821 -0.1039 -0.0742  0.1499
 3517TIP3    H134746   1.690   3.591  11.908  1.6884  0.2469  1.0106
 3517TIP3    H234747   1.797   3.671  11.837  1.2165 -1.1072 -1.3318
 3518TIP3   OH234748   3.243   6.035   9.444  0.7844  0.1542 -0.2892
 3518TIP3    H134749   3.252   6.061   9.536 -0.0494  1.0074 -0.4352
 3518TIP3    H234750   3.150   6.046   9.425  0.0020 -4.3526  0.0168
 3519TIP3   OH234751   0.345   5.059  11.703  0.4392 -0.8756 -0.4206
 3519TIP3    H134752   0.311   5.019  11.783 -1.0065  1.4142  0.1977
 3519TIP3    H234753   0.300   5.012  11.633 -0.7740 -0.7372  0.2415
 3520TIP3   OH234754   5.384   0.761   9.831 -0.1583 -0.0934  0.5334
 3520TIP3    H134755   5.459   0.770   9.772 -1.0785  0.2404 -0.6306
 3520TIP3    H234756   5.422   0.748   9.917  1.2348 -0.1528 -0.0718
 3521TIP3   OH234757   4.659   5.513  10.550 -0.3326  0.0072 -0.2462
 3521TIP3    H134758   4.735   5.534  10.605  0.0611 -1.1923 -0.3086
 3521TIP3    H234759   4.686   5.436  10.500 -1.9164 -1.0511  0.4562
 3522TIP3   OH234760   3.319   2.788  10.870  0.1704  0.3496 -0.3375
 3522TIP3    H134761   3.357   2.701  10.857 -0.0259  0.0311  1.0699
 3522TIP3    H234762   3.344   2.813  10.959 -1.3376  0.9327 -0.0428
 3523TIP3   OH234763   3.208   3.975  12.198 -0.2948 -0.5623 -0.2868
 3523TIP3    H134764   3.239   3.942  12.114 -1.6327 -3.6396  0.3061
 3523TIP3    H234765   3.117   3.947  12.203 -0.9335  1.5087  1.2855
 3524TIP3   OH234766   5.618   1.203   8.745  0.1882  0.0930 -1.0972
 3524TIP3    H134767   5.533   1.233   8.713  0.3639  1.0315 -0.7230
 3524TIP3    H234768   5.596   1.148   8.820 -0.1237 -0.3912 -1.5351
 3525TIP3   OH234769   6.583   5.394  11.000  0.2572 -0.0142 -0.7652
 3525TIP3    H134770   6.646   5.369  10.933  0.4231 -4.5610  0.7671
 3525TIP3    H234771   6.631   5.389  11.082 -1.2147 -0.1029  0.1357
 3526TIP3   OH234772   0.397   1.242   9.231  0.0740  0.4336  0.3765
 3526TIP3    H134773   0.327   1.294   9.192  0.8571  0.3853 -1.1741
 3526TIP3    H234774   0.354   1.161   9.259 -0.6370  0.7447  0.1919
 3527TIP3   OH234775   4.277   0.892   8.657 -0.6956 -0.0688 -0.3003
 3527TIP3    H134776   4.197   0.900   8.606  0.6090  0.4995 -2.3532
 3527TIP3    H234777   4.284   0.799   8.677 -0.5809 -0.5216 -2.3271
 3528TIP3   OH234778   1.251   3.240   9.216  0.8651  0.4376  0.0903
 3528TIP3    H134779   1.340   3.271   9.199  0.4407  1.3251 -0.6270
 3528TIP3    H234780   1.242   3.162   9.162  0.6384  1.3665 -1.2896
 3529TIP3   OH234781   5.220   3.867  10.249  0.8751 -0.7237  0.5650
 3529TIP3    H134782   5.300   3.916  10.235  1.3251 -1.4786  0.4423
 3529TIP3    H234783   5.211   3.862  10.344  0.4230  0.2265  0.5829
 3530TIP3   OH234784   1.540   1.372   8.168  0.1480  0.2973 -0.2669
 3530TIP3    H134785   1.621   1.415   8.140 -0.5514  1.7904 -0.0746
 3530TIP3    H234786   1.479   1.384   8.095  0.3014 -1.4978 -0.7370
 3531TIP3   OH234787   2.290   1.925  11.628  0.4982  0.0080  0.5395
 3531TIP3    H134788   2.288   1.919  11.724  2.6658  0.0863  0.6336
 3531TIP3    H234789   2.293   2.018  11.610  1.8078 -0.0293  0.4883
 3532TIP3   OH234790   4.193   0.815  11.910 -0.0177  0.3010  0.3185
 3532TIP3    H134791   4.282   0.783  11.929 -0.2112 -1.3055 -1.2472
 3532TIP3    H234792   4.148   0.739  11.873 -2.0829  1.0883  1.1072
 3533TIP3   OH234793   1.663   3.820  10.370 -0.3048  0.1223 -0.5686
 3533TIP3    H134794   1.624   3.899  10.333  1.8693  0.2035 -2.9246
 3533TIP3    H234795   1.601   3.750  10.346 -1.0644  0.7644 -0.5464
 3534TIP3   OH234796   4.993   2.165  11.354 -0.2526 -0.0194 -0.4508
 3534TIP3    H134797   5.033   2.247  11.326 -0.4220  0.0547 -0.4767
 3534TIP3    H234798   4.959   2.125  11.274  0.8307 -0.6661 -0.6066
 3535TIP3   OH234799   0.535   0.038  10.329 -0.4351  0.4293 -0.0880
 3535TIP3    H134800   0.527  -0.057  10.317 -0.9053  0.3572  0.6780
 3535TIP3    H234801   0.587   0.068  10.255 -2.3780 -0.0800 -1.7586
 3536TIP3   OH234802   3.119   1.885  10.130  0.2771 -0.0102  0.1662
 3536TIP3    H134803   3.192   1.900  10.070 -0.6559  0.2936 -0.9361
 3536TIP3    H234804   3.160   1.867  10.214  1.6238 -0.2919 -0.5270
 3537TIP3   OH234805   3.683   5.349   9.674 -0.7740  0.5695  0.6976
 3537TIP3    H134806   3.646   5.360   9.587  0.2012  0.1971  0.2228
 3537TIP3    H234807   3.741   5.273   9.667  1.4539  2.1221  0.9069
 3538TIP3   OH234808   0.340   1.243  10.404 -0.3701  0.6861  0.5268
 3538TIP3    H134809   0.351   1.167  10.347  0.3630  0.2814  1.2077
 3538TIP3    H234810   0.318   1.315  10.344 -1.4193 -0.1279 -0.0821
 3539TIP3   OH234811   0.746   5.191  10.086 -0.2321  0.1215 -0.3311
 3539TIP3    H134812   0.669   5.137  10.066 -0.5414  0.7402 -0.8562
 3539TIP3    H234813   0.755   5.248  10.010 -0.2559  1.2133  0.4664
 3540TIP3   OH234814   0.476   0.874  10.520 -0.7301 -0.2582  0.4578
 3540TIP3    H134815   0.523   0.791  10.524 -0.7876 -0.3767 -1.0373
 3540TIP3    H234816   0.427   0.871  10.438 -2.8993  0.1146  1.6644
 3541TIP3   OH234817   6.519   0.225   9.373  0.0517  0.8476  0.2179
 3541TIP3    H134818   6.544   0.240   9.282 -1.7369  1.0944 -0.2620
 3541TIP3    H234819   6.499   0.312   9.407 -0.8628  0.5853  0.3607
 3542TIP3   OH234820   3.371   6.069  10.963  0.0664 -0.7307  0.2401
 3542TIP3    H134821   3.292   6.034  10.923 -1.1441 -0.2078  2.0538
 3542TIP3    H234822   3.353   6.069  11.057  1.1633  1.9052  0.5390
 3543TIP3   OH234823   5.716   0.874  10.389  0.1816  0.4217  0.8035
 3543TIP3    H134824   5.704   0.888  10.483  0.8661  1.8676  0.6948
 3543TIP3    H234825   5.810   0.859  10.379  0.2213  1.0094  0.2663
 3544TIP3   OH234826   1.145   6.326  11.182 -0.2853  0.7472  0.5747
 3544TIP3    H134827   1.211   6.371  11.131 -0.4276 -0.2473 -0.5205
 3544TIP3    H234828   1.081   6.295  11.118 -0.0929 -1.1759  1.2421
 3545TIP3   OH234829   0.213   5.858  11.209 -0.1377  0.3766  0.9678
 3545TIP3    H134830   0.175   5.940  11.240 -0.0139  0.7878  0.0621
 3545TIP3    H234831   0.297   5.883  11.172  0.2473 -0.2785  1.3747
 3546TIP3   OH234832   0.989   4.110  11.153  0.3593 -0.4880  0.2357
 3546TIP3    H134833   0.996   4.058  11.073 -0.5413 -0.2594 -0.0065
 3546TIP3    H234834   0.974   4.199  11.122 -2.4620 -0.7448  0.5998
 3547TIP3   OH234835   0.152   1.367   9.151  0.0644  0.4506 -0.2800
 3547TIP3    H134836   0.115   1.406   9.071 -0.8481 -0.4652 -0.3218
 3547TIP3    H234837   0.167   1.442   9.209 -0.9342  0.9525 -0.6482
 3548TIP3   OH234838   4.600   0.721  10.256 -0.4633  0.1153 -0.0255
 3548TIP3    H134839   4.552   0.644  10.286  0.0877  0.0400  0.7219
 3548TIP3    H234840   4.691   0.691  10.252 -0.2108  0.7939  0.5234
 3549TIP3   OH234841   6.424   6.376   9.976  0.3680  0.7338 -0.4052
 3549TIP3    H134842   6.407   6.400  10.067 -1.3646 -0.3853 -0.4011
 3549TIP3    H234843   6.504   6.322   9.981 -1.7588 -2.6645  1.0973
 3550TIP3   OH234844   5.026   2.683  11.846  1.0709 -0.3013  0.5230
 3550TIP3    H134845   5.087   2.609  11.834  1.6321  0.0720  1.0229
 3550TIP3    H234846   4.954   2.646  11.897  1.0199 -0.6746  0.1870
 3551TIP3   OH234847   0.985   2.538  10.585  0.5344  0.2191 -0.3047
 3551TIP3    H134848   0.988   2.557  10.491  1.7265  1.0365 -0.1189
 3551TIP3    H234849   1.071   2.564  10.618  0.7320 -1.5945  0.7457
 3552TIP3   OH234850   2.388   0.828  10.716  0.7140 -0.2305  0.0243
 3552TIP3    H134851   2.412   0.745  10.756  1.1173  1.0497  2.7429
 3552TIP3    H234852   2.329   0.805  10.644  1.1013 -2.8472  0.4522
 3553TIP3   OH234853   0.903   1.708  11.805  0.8214 -0.0831 -0.5923
 3553TIP3    H134854   0.986   1.677  11.770  0.8007 -0.4588 -0.3200
 3553TIP3    H234855   0.879   1.643  11.871  0.6121  0.3414 -0.2433
 3554TIP3   OH234856   3.168   2.422  10.385 -0.1953  0.1305 -0.3328
 3554TIP3    H134857   3.176   2.515  10.363  0.9641  1.2083  3.8082
 3554TIP3    H234858   3.257   2.388  10.378 -0.3709 -0.3114 -0.4498
 3555TIP3   OH234859   1.142   4.842  10.576  0.0767  0.2360 -0.3115
 3555TIP3    H134860   1.148   4.747  10.568 -1.0650  0.3027 -3.3653
 3555TIP3    H234861   1.048   4.860  10.579  0.2858  1.2605  1.0069
 3556TIP3   OH234862   3.219   4.557  12.043  0.1936  0.2077  0.4262
 3556TIP3    H134863   3.297   4.500  12.040  1.4037  1.8074  0.1558
 3556TIP3    H234864   3.223   4.596  12.130  0.3902  1.2149 -0.0272
 3557TIP3   OH234865   0.835   0.014   9.252  0.2771 -0.2776  0.4810
 3557TIP3    H134866   0.840   0.026   9.157 -1.7648  0.2755  0.4129
 3557TIP3    H234867   0.789  -0.070   9.263 -1.2719  0.5978  0.9420
 3558TIP3   OH234868   0.469   5.300  11.623  0.1850  0.5395  0.2645
 3558TIP3    H134869   0.395   5.241  11.637  1.4936 -0.9363  1.3629
 3558TIP3    H234870   0.523   5.255  11.558  1.9739 -0.3325  2.2277
 3559TIP3   OH234871   2.042   1.017  10.359  0.3212  0.4103 -0.6709
 3559TIP3    H134872   2.133   0.989  10.368  0.1964 -0.4331 -1.7995
 3559TIP3    H234873   2.032   1.088  10.422  2.0278  1.1815 -1.2313
 3560TIP3   OH234874   0.807   4.351  10.266  0.2340  0.6671 -0.1675
 3560TIP3    H134875   0.821   4.273  10.212  1.9819  1.2964 -0.6888
 3560TIP3    H234876   0.841   4.327  10.352 -1.5612  0.0342  0.4123
 3561TIP3   OH234877   5.976   2.425  10.925  0.4939 -0.0381  0.2892
 3561TIP3    H134878   5.895   2.410  10.974  0.2741  1.7405  0.5419
 3561TIP3    H234879   6.045   2.422  10.991  0.5024 -0.3509  0.2674
 3562TIP3   OH234880   1.946   1.007   8.967  0.0969  0.2248 -0.2811
 3562TIP3    H134881   1.955   0.956   8.887  0.3333  1.0976 -0.8211
 3562TIP3    H234882   1.863   0.977   9.005 -0.0160 -0.1884 -0.8436
 3563TIP3   OH234883   2.793   2.410  10.020  0.5120  0.2744  0.3770
 3563TIP3    H134884   2.719   2.362  10.057  1.3128  0.0336  1.7103
 3563TIP3    H234885   2.756   2.458   9.946 -0.7022 -0.8602  0.2223
 3564TIP3   OH234886   1.924   6.026  11.399  0.1566 -0.4755 -0.0272
 3564TIP3    H134887   1.877   5.953  11.358  0.0568 -0.6031  0.3088
 3564TIP3    H234888   1.937   6.089  11.328 -0.2387 -0.5828 -0.1975
 3565TIP3   OH234889   1.422   2.285   9.910  0.4564 -0.2210  0.2524
 3565TIP3    H134890   1.384   2.199   9.928  2.6504 -1.0691  1.1288
 3565TIP3    H234891   1.467   2.275   9.826  1.0685 -0.0697  0.5533
 3566TIP3   OH234892   2.590   1.990  12.213 -0.0920  0.2831  0.4606
 3566TIP3    H134893   2.542   1.938  12.278  0.3918  0.3601  0.8848
 3566TIP3    H234894   2.552   2.078  12.221 -0.6043  0.1073  0.0516
 3567TIP3   OH234895   4.013   0.668   9.879 -0.3484 -0.0609 -0.1697
 3567TIP3    H134896   4.042   0.748   9.923 -0.5742 -0.3228  0.4657
 3567TIP3    H234897   3.998   0.606   9.950  1.5997 -1.2717 -0.7460
 3568TIP3   OH234898   5.870   1.033  11.697 -0.1856  0.5565 -0.3353
 3568TIP3    H134899   5.929   0.978  11.645  0.1047  1.4320 -0.9421
 3568TIP3    H234900   5.923   1.061  11.772  0.3337  1.7204 -1.1194
 3569TIP3   OH234901   6.533   2.177  11.486  0.3078  0.1632 -0.0562
 3569TIP3    H134902   6.520   2.147  11.576 -2.2446 -3.0959 -1.3231
 3569TIP3    H234903   6.462   2.240  11.472 -0.1706 -0.3846 -0.1540
 3570TIP3   OH234904   4.079   4.634  11.000  0.5802 -0.6620  0.1104
 3570TIP3    H134905   4.094   4.706  10.940  0.2598 -1.1833 -0.6083
 3570TIP3    H234906   4.167   4.600  11.019  0.6529 -0.7921 -0.4416
 3571TIP3   OH234907   4.995   0.133   9.030 -0.0762  0.1785 -0.1045
 3571TIP3    H134908   4.939   0.136   9.108  0.9997  1.3677  0.6737
 3571TIP3    H234909   4.991   0.042   9.001  0.3110 -0.5692  1.9739
 3572TIP3   OH234910   5.296   3.487  12.006  0.2048  0.0643  0.2847
 3572TIP3    H134911   5.298   3.561  11.945  0.6200 -0.3539 -0.2152
 3572TIP3    H234912   5.373   3.499  12.062  0.2123  0.0737  0.2723
 3573TIP3   OH234913   0.959   3.210  10.755 -0.0488  0.5629 -0.3502
 3573TIP3    H134914   1.022   3.146  10.723 -0.2628  0.2930 -0.2438
 3573TIP3    H234915   1.012   3.279  10.794  0.1717 -0.0895  0.5506
 3574TIP3   OH234916   1.050   5.063  11.217 -0.0891 -0.1011 -0.1208
 3574TIP3    H134917   1.119   5.034  11.156  0.1491 -0.5297  0.3401
 3574TIP3    H234918   1.024   4.983  11.263 -2.6527 -0.4414 -1.9870
 3575TIP3   OH234919   1.371   2.517  11.827 -0.2021  0.3223 -0.3363
 3575TIP3    H134920   1.311   2.568  11.773 -0.7155 -0.5781 -0.6359
 3575TIP3    H234921   1.420   2.583  11.877 -1.7695  1.0733  0.2853
 3576TIP3   OH234922   4.795   5.986  11.325 -0.0465 -0.0173  0.1853
 3576TIP3    H134923   4.874   6.022  11.367 -0.0244 -0.7395  0.7908
 3576TIP3    H234924   4.812   5.892  11.320 -0.7473 -0.1399  0.0403
 3577TIP3   OH234925   1.925   4.605   9.980  0.1795  0.3139  0.1562
 3577TIP3    H134926   1.852   4.667   9.970 -0.5973 -0.7706 -1.3397
 3577TIP3    H234927   1.882   4.520   9.990  1.2377 -0.0954  1.5286
 3578TIP3   OH234928   3.918   4.735  11.219  0.2364  0.5754  0.0462
 3578TIP3    H134929   3.957   4.729  11.132  0.8643 -0.0851  0.3685
 3578TIP3    H234930   3.903   4.644  11.245 -0.4653  0.7861  0.4021
 3579TIP3   OH234931   6.124   3.908  11.795  0.2768  0.3789 -0.0126
 3579TIP3    H134932   6.213   3.923  11.764  0.2664  1.0393  0.2575
 3579TIP3    H234933   6.131   3.832  11.853  0.6944  0.5204  0.1296
 3580TIP3   OH234934   1.715   3.138  11.546 -0.2062  0.2485  0.2923
 3580TIP3    H134935   1.775   3.208  11.571 -0.6500  1.7355 -2.3737
 3580TIP3    H234936   1.645   3.143  11.611  1.3064  0.1394  1.9839
 3581TIP3   OH234937   3.967   1.341  11.850 -0.5429 -0.4075  0.5009
 3581TIP3    H134938   4.022   1.264  11.838 -0.1208  0.0735 -0.8496
 3581TIP3    H234939   3.922   1.352  11.766  0.5488  1.6697  0.1091
 3582TIP3   OH234940   5.319   2.769  10.559  0.0229 -0.1150 -0.3833
 3582TIP3    H134941   5.399   2.748  10.511 -0.8212 -1.2599 -1.3595
 3582TIP3    H234942   5.248   2.752  10.497 -1.0176  0.3285  0.6329
 3583TIP3   OH234943   2.305   0.839   9.828 -0.1840 -0.1698  0.0926
 3583TIP3    H134944   2.365   0.892   9.776  1.0274 -1.0346  0.5652
 3583TIP3    H234945   2.297   0.886   9.911 -0.8191  0.3589 -0.2569
 3584TIP3   OH234946   2.588   1.637  11.958 -0.1460  0.3917 -0.1074
 3584TIP3    H134947   2.564   1.560  12.010  1.5149 -0.4875 -0.5561
 3584TIP3    H234948   2.538   1.628  11.877 -0.9011  0.4613  0.3437
 3585TIP3   OH234949   2.289   0.765  11.320 -0.9448 -0.3282  0.2561
 3585TIP3    H134950   2.214   0.768  11.261 -0.9594  1.0057  0.3290
 3585TIP3    H234951   2.255   0.724  11.400 -1.2469 -0.9364 -0.1731
 3586TIP3   OH234952   5.834   6.469  11.881 -0.3444  0.0320 -0.8267
 3586TIP3    H134953   5.817   6.529  11.808  1.9015  1.2708 -0.3988
 3586TIP3    H234954   5.869   6.390  11.840 -0.0819  0.3220 -1.1654
 3587TIP3   OH234955   0.405   2.407  11.817  0.1004  0.1299  0.3250
 3587TIP3    H134956   0.409   2.322  11.859  0.3343 -0.6374 -1.1935
 3587TIP3    H234957   0.398   2.388  11.724  3.0712  1.7343 -0.3456
 3588TIP3   OH234958   0.642   5.546   9.876 -0.9056 -0.3815  0.2357
 3588TIP3    H134959   0.587   5.583   9.807 -0.1656  0.0802 -0.1220
 3588TIP3    H234960   0.611   5.587   9.956 -1.9262 -1.0919  0.2260
 3589TIP3   OH234961   2.574   1.056   9.340  0.1374  0.3931 -0.2128
 3589TIP3    H134962   2.645   1.099   9.388  0.5318 -0.6365  0.1447
 3589TIP3    H234963   2.614   0.978   9.302 -0.2322  1.0253 -2.0123
 3590TIP3   OH234964   3.710   0.439   9.510  0.1004 -0.0455 -0.3137
 3590TIP3    H134965   3.752   0.393   9.583  1.5333 -1.5434 -1.9888
 3590TIP3    H234966   3.758   0.521   9.501  0.3202 -0.1355  0.0292
 3591TIP3   OH234967   1.090   0.675  12.343  0.4118 -1.0402  0.1108
 3591TIP3    H134968   1.043   0.701  12.264  0.3256  2.0432  1.0652
 3591TIP3    H234969   1.023   0.634  12.398 -0.3085 -0.2005 -0.1145
 3592TIP3   OH234970   4.896   4.840  11.552  0.2384 -0.4405  0.5009
 3592TIP3    H134971   4.900   4.747  11.573  3.2659 -0.6183 -0.4296
 3592TIP3    H234972   4.878   4.883  11.636 -2.6709 -1.8587  0.7040
 3593TIP3   OH234973   1.633   6.169   9.341  0.0023 -0.2112  0.1777
 3593TIP3    H134974   1.551   6.144   9.298 -1.1525  2.0091  0.9330
 3593TIP3    H234975   1.659   6.250   9.296  1.4960 -0.5678  0.3443
 3594TIP3   OH234976   2.813   5.570   9.032 -0.6366 -0.1257  0.4762
 3594TIP3    H134977   2.853   5.501   8.979 -1.1952 -2.1825  2.5788
 3594TIP3    H234978   2.719   5.557   9.022 -0.7485  0.1716  1.1065
 3595TIP3   OH234979   3.667   2.235   9.358 -0.5064 -0.1572  0.6792
 3595TIP3    H134980   3.639   2.327   9.365 -1.1244 -0.3039  0.2406
 3595TIP3    H234981   3.718   2.232   9.277 -0.7405 -0.2583  0.5341
 3596TIP3   OH234982   0.298   4.223  10.894 -0.0533  0.4203  0.0109
 3596TIP3    H134983   0.311   4.187  10.982  1.3879  0.1123 -0.3039
 3596TIP3    H234984   0.290   4.146  10.838 -1.4696  0.6140 -0.0798
 3597TIP3   OH234985   3.045   0.518   9.960  0.0985  0.4656 -0.2070
 3597TIP3    H134986   2.991   0.588   9.923 -1.2853  0.0461  0.9349
 3597TIP3    H234987   3.098   0.561  10.026 -1.2650  0.3680  1.0010
 3598TIP3   OH234988   5.600   5.058   9.735 -0.2957  0.1671 -0.6099
 3598TIP3    H134989   5.687   5.074   9.698  1.6372 -1.3260  2.8459
 3598TIP3    H234990   5.573   4.974   9.698 -0.3504  0.6711 -1.7555
 3599TIP3   OH234991   6.463   3.215   9.808 -0.5084 -0.2285 -0.3275
 3599TIP3    H134992   6.500   3.270   9.739 -2.0837 -0.4691 -1.4171
 3599TIP3    H234993   6.489   3.126   9.784 -1.6007 -0.3837 -1.0227
 3600TIP3   OH234994   2.625   1.735  10.095 -0.4064 -0.1719 -0.2656
 3600TIP3    H134995   2.606   1.720  10.187  0.0214 -1.2119 -0.3408
 3600TIP3    H234996   2.543   1.714  10.050 -0.4557 -0.1709 -0.1754
 3601TIP3   OH234997   3.526   1.893  11.244  0.5223 -0.0182 -0.0814
 3601TIP3    H134998   3.540   1.954  11.172  1.2129  0.0672  0.1243
 3601TIP3    H234999   3.614   1.865  11.271  0.2060 -2.1493 -1.0539
 3602TIP3   OH235000   3.105   6.532  10.817 -0.6898  0.1871 -0.4073
 3602TIP3    H135001   3.159   6.518  10.739 -2.5970 -1.9115 -1.5005
 3602TIP3    H235002   3.138   6.469  10.881 -0.4576  0.4427 -0.2744
 3603TIP3   OH235003   5.917   2.398  11.311 -0.3834 -0.1194  0.4041
 3603TIP3    H135004   5.968   2.316  11.311  1.5193  0.9796 -1.0106
 3603TIP3    H235005   5.855   2.387  11.239  0.6188  0.0477 -0.5264
 3604TIP3   OH235006   1.009   5.584  11.154  0.2729  0.0091 -0.1106
 3604TIP3    H135007   0.948   5.577  11.080 -1.0168  2.0443  0.7084
 3604TIP3    H235008   0.990   5.506  11.207 -2.1807  0.9178  0.4889
 3605TIP3   OH235009   1.815   5.575  11.855 -0.0110 -0.0848  0.2680
 3605TIP3    H135010   1.858   5.659  11.840 -1.9167  0.7013 -1.3016
 3605TIP3    H235011   1.746   5.594  11.919  0.8354 -0.9419  1.4678
 3606TIP3   OH235012   1.891   5.863  11.863  0.0547  0.6867 -0.0280
 3606TIP3    H135013   1.825   5.910  11.813  1.0270  1.6537 -0.4335
 3606TIP3    H235014   1.974   5.887  11.822  0.7746  0.5351  1.2845
 3607TIP3   OH235015   4.475   1.158   9.010  0.0040  0.4136 -0.3050
 3607TIP3    H135016   4.493   1.131   8.920 -0.9929  1.9219 -1.0063
 3607TIP3    H235017   4.416   1.091   9.044 -0.2949  0.2799 -1.0797
 3608TIP3   OH235018   3.431   2.104   9.180 -0.5004 -0.3242 -0.1526
 3608TIP3    H135019   3.508   2.142   9.138 -0.3262 -0.4515  0.0507
 3608TIP3    H235020   3.462   2.073   9.265 -0.6447 -0.8810 -0.2969
 3609TIP3   OH235021   3.834   0.337  11.224  0.0785 -0.6752  0.0959
 3609TIP3    H135022   3.902   0.271  11.230 -0.4910 -1.1635  1.5900
 3609TIP3    H235023   3.829   0.374  11.313 -2.6404 -1.7439  0.4687
 3610TIP3   OH235024   6.200   2.407  10.532  0.0509 -0.0715 -0.0638
 3610TIP3    H135025   6.256   2.355  10.474  1.8931  0.0948  1.4959
 3610TIP3    H235026   6.260   2.463  10.580 -1.5403  0.6436  1.1869
 3611TIP3   OH235027   6.022   4.142  11.121  0.2590  0.3564 -0.6597
 3611TIP3    H135028   6.099   4.141  11.178  0.5129  1.5147 -0.9468
 3611TIP3    H235029   6.058   4.144  11.032 -0.1346 -1.7109 -0.9041
 3612TIP3   OH235030   2.060   0.879  12.267 -0.3606 -0.0040  0.2802
 3612TIP3    H135031   1.979   0.847  12.226 -0.4193  0.3213  0.1407
 3612TIP3    H235032   2.030   0.939  12.335 -0.2043  1.2495 -0.7276
 3613TIP3   OH235033   5.418   4.512   9.688  0.0486 -0.6468  0.5914
 3613TIP3    H135034   5.388   4.509   9.779 -0.9178 -1.2870  0.2675
 3613TIP3    H235035   5.458   4.427   9.673  1.3875 -0.0790  0.7793
 3614TIP3   OH235036   3.385   3.624  11.378 -0.2819  0.0959  0.5811
 3614TIP3    H135037   3.396   3.537  11.339  0.3020  0.1112  0.7001
 3614TIP3    H235038   3.291   3.640  11.375 -0.2932 -0.0499 -0.5074
 3615TIP3   OH235039   2.874   4.841  11.315  0.5898 -0.0490  0.3747
 3615TIP3    H135040   2.936   4.913  11.331  0.1550 -0.1444  2.8644
 3615TIP3    H235041   2.929   4.763  11.312  0.7548  0.0476  0.8572
 3616TIP3   OH235042   2.229   5.887   9.845  0.0959 -0.4045  0.2847
 3616TIP3    H135043   2.258   5.903   9.755 -0.1959 -2.0476 -0.1483
 3616TIP3    H235044   2.308   5.856   9.890  0.3120  0.7153  0.6878
 3617TIP3   OH235045   4.012   2.148  11.672  0.4075 -0.0753 -0.1940
 3617TIP3    H135046   3.963   2.222  11.708  2.3879  0.6763  1.1501
 3617TIP3    H235047   4.082   2.188  11.621  0.6885 -1.0438 -0.5909
 3618TIP3   OH235048   3.442   3.345  11.746 -0.5205  0.2363  0.2815
 3618TIP3    H135049   3.448   3.332  11.840 -0.8765 -0.1421  0.2547
 3618TIP3    H235050   3.362   3.396  11.734 -0.9438 -0.4493  0.1209
 3619TIP3   OH235051   2.436   5.357  10.448  0.1857 -0.0911 -0.1497
 3619TIP3    H135052   2.530   5.371  10.451  0.2972 -0.9897  1.7794
 3619TIP3    H235053   2.401   5.411  10.519 -0.4404 -1.6874  0.8133
 3620TIP3   OH235054   5.683   1.163   8.473 -0.5003 -0.5479  0.0577
 3620TIP3    H135055   5.765   1.210   8.466 -1.6784  1.6838  0.3163
 3620TIP3    H235056   5.660   1.169   8.566 -1.3025 -0.4873 -0.1373
 3621TIP3   OH235057   2.081   1.437   9.932  0.3005  0.5578  0.1755
 3621TIP3    H135058   2.152   1.419   9.870  1.3709  1.9498  0.9186
 3621TIP3    H235059   2.016   1.369   9.917  2.1799 -1.2711  0.0304
 3622TIP3   OH235060   3.979   2.690  10.601 -0.1618  0.9281  0.6011
 3622TIP3    H135061   4.023   2.700  10.517 -1.4625  1.5141 -0.0445
 3622TIP3    H235062   4.050   2.681  10.664  0.8442  0.4974 -0.5461
 3623TIP3   OH235063   6.441   4.349  11.926 -0.5497  0.0167  0.5409
 3623TIP3    H135064   6.516   4.343  11.866 -0.7402  0.6566  0.2357
 3623TIP3    H235065   6.467   4.295  12.001 -0.4351 -1.0653 -0.2437
 3624TIP3   OH235066   6.277   2.952   8.880 -0.0273  0.0776  0.7447
 3624TIP3    H135067   6.341   2.884   8.901 -0.0800 -0.2645 -0.1246
 3624TIP3    H235068   6.240   2.924   8.796 -2.6884 -0.7436  2.0811
 3625TIP3   OH235069   4.296   0.030   9.996 -0.2425 -0.0342  0.0169
 3625TIP3    H135070   4.322   0.041   9.905 -1.3884 -1.4581 -0.5221
 3625TIP3    H235071   4.279  -0.064  10.005 -0.0620  0.0692  1.7243
 3626TIP3   OH235072   1.326   1.321   8.814 -0.5936 -0.3960 -0.2287
 3626TIP3    H135073   1.270   1.289   8.884  0.3307  1.1357  1.3116
 3626TIP3    H235074   1.312   1.261   8.741 -2.4838 -1.3559  0.8651
 3627TIP3   OH235075   3.383   1.630  11.306  0.4980  0.2028  0.3830
 3627TIP3    H135076   3.406   1.717  11.271 -0.4070  1.0804  1.8647
 3627TIP3    H235077   3.467   1.591  11.330  0.8076  1.6731  1.9181
 3628TIP3   OH235078   6.533   2.291  10.916 -0.7451  0.2079 -0.1770
 3628TIP3    H135079   6.563   2.225  10.978  1.4699 -0.3750 -1.7418
 3628TIP3    H235080   6.461   2.249  10.869 -0.1381 -0.6791 -0.3479
 3629TIP3   OH235081   0.614   4.811  12.377  0.1243 -0.0244  0.6813
 3629TIP3    H135082   0.648   4.896  12.405  0.5981  0.5636 -1.4987
 3629TIP3    H235083   0.529   4.831  12.339  0.2375 -0.5109  0.1568
 3630TIP3   OH235084   1.796   1.549   9.299 -0.6767 -0.0161 -0.5834
 3630TIP3    H135085   1.720   1.506   9.339  0.3324 -1.0245  0.2883
 3630TIP3    H235086   1.780   1.642   9.315 -1.2834 -0.2696  0.4207
 3631TIP3   OH235087   0.766   3.005   9.558 -0.4875  0.2308  0.0249
 3631TIP3    H135088   0.785   3.003   9.652 -1.6961  0.6726  0.2905
 3631TIP3    H235089   0.711   3.083   9.547  0.6077  0.8584 -1.2441
 3632TIP3   OH235090   2.244   6.647  11.567 -0.0925  0.1579  0.3017
 3632TIP3    H135091   2.302   6.572  11.579 -0.0063 -0.0529 -1.2256
 3632TIP3    H235092   2.156   6.609  11.564 -0.0523  0.1056 -0.4264
 3633TIP3   OH235093   3.210   3.558   9.350 -0.6012  0.5097  0.3969
 3633TIP3    H135094   3.245   3.647   9.337  0.2395  0.1811  0.3368
 3633TIP3    H235095   3.119   3.572   9.373  0.1428  1.5472  3.0661
 3634TIP3   OH235096   0.714   6.479   9.273  0.4157 -0.2494  0.2461
 3634TIP3    H135097   0.687   6.470   9.364  0.4537 -0.5225  0.2327
 3634TIP3    H235098   0.799   6.435   9.268  0.4027 -0.2569  0.0757
 3635TIP3   OH235099   1.549   0.624  12.157 -0.3830  0.5388  0.3353
 3635TIP3    H135100   1.515   0.707  12.123 -0.6547  1.0748  1.8060
 3635TIP3    H235101   1.476   0.562  12.147  0.1748  0.1560 -1.7501
 3636TIP3   OH235102   3.072   2.298  11.349 -0.0163  0.2382  0.6166
 3636TIP3    H135103   2.979   2.297  11.325 -0.0588  1.9798  0.5578
 3636TIP3    H235104   3.082   2.378  11.401  1.5485  0.3141  0.2404
 3637TIP3   OH235105   0.058   5.436  10.800  0.2750  0.1086  0.7579
 3637TIP3    H135106   0.052   5.525  10.765 -0.8273  0.3031  1.3864
 3637TIP3    H235107   0.101   5.385  10.731 -0.4497  0.8028 -0.2209
 3638TIP3   OH235108   2.396   5.263  10.867  0.2666 -0.0397 -0.0239
 3638TIP3    H135109   2.307   5.298  10.858  0.2988  0.0498  0.0027
 3638TIP3    H235110   2.449   5.339  10.891  0.8406  0.4534 -2.6076
 3639TIP3   OH235111   4.453   6.499  11.113 -0.3385 -0.0785  0.0847
 3639TIP3    H135112   4.383   6.463  11.168  0.4124  1.1574  1.9730
 3639TIP3    H235113   4.530   6.445  11.134  0.1494  0.8997  0.9387
 3640TIP3   OH235114   3.992   4.010  11.341  0.4219  0.3988 -0.3601
 3640TIP3    H135115   4.038   4.001  11.258 -0.2308  1.4427 -0.8449
 3640TIP3    H235116   3.925   3.942  11.339 -0.0413  0.8649 -1.0024
 3641TIP3   OH235117   6.037   6.317   9.944  0.3814 -0.0306  0.2318
 3641TIP3    H135118   5.978   6.358   9.880  0.3226 -0.6328 -0.1111
 3641TIP3    H235119   6.054   6.385  10.008 -0.0175  0.4114 -0.1234
 3642TIP3   OH235120   3.277   6.332   9.273 -0.5889 -0.5333  0.2530
 3642TIP3    H135121   3.294   6.269   9.202  1.2165 -0.1951  0.3495
 3642TIP3    H235122   3.363   6.347   9.312 -0.9018  2.2439  0.0326
 3643TIP3   OH235123   6.296   3.389  10.916 -0.0185 -0.5713 -0.8824
 3643TIP3    H135124   6.307   3.303  10.956  0.0070 -0.3460 -0.4064
 3643TIP3    H235125   6.203   3.395  10.897 -0.6013  0.4968  1.8444
 3644TIP3   OH235126   1.087   2.348  10.209  0.4311 -0.0399 -0.0210
 3644TIP3    H135127   1.084   2.425  10.152  0.0249 -0.8421 -1.1176
 3644TIP3    H235128   1.007   2.354  10.262  0.5548  0.4448  0.1174
 3645TIP3   OH235129   2.562   0.726   9.145 -0.4890  0.2690  0.4556
 3645TIP3    H135130   2.541   0.780   9.070 -0.3516 -0.9595 -0.4965
 3645TIP3    H235131   2.647   0.759   9.175 -0.5919  0.8236  0.1488
 3646TIP3   OH235132   4.428   2.698   9.146  1.2860 -0.3211  0.4267
 3646TIP3    H135133   4.415   2.788   9.117  2.6780 -0.1431  0.3122
 3646TIP3    H235134   4.344   2.655   9.129  0.2629  1.1816  1.4072
 3647TIP3   OH235135   3.560   0.037  10.949 -0.3120 -0.2802 -0.1293
 3647TIP3    H135136   3.532   0.125  10.921  0.5415  0.4350  1.1625
 3647TIP3    H235137   3.603   0.000  10.872  0.6810  1.0644 -0.2667
 3648TIP3   OH235138   4.984   3.843  12.114  0.1335 -0.0394 -0.6670
 3648TIP3    H135139   4.980   3.859  12.020  0.1705  0.2091 -0.6260
 3648TIP3    H235140   5.038   3.765  12.122 -2.2428 -1.8544 -1.0474
 3649TIP3   OH235141   2.386   2.860  10.951  0.5913 -0.0561 -0.6532
 3649TIP3    H135142   2.394   2.950  10.983  0.3701 -0.5163  0.7665
 3649TIP3    H235143   2.352   2.869  10.862  0.8610  1.2687 -0.6419
 3650TIP3   OH235144   1.632   2.195   8.819  0.6168 -0.4985  0.0535
 3650TIP3    H135145   1.705   2.200   8.758  0.9646  0.9461  0.5361
 3650TIP3    H235146   1.563   2.248   8.777 -0.1725 -1.8454 -0.4000
 3651TIP3   OH235147   0.108   0.447  10.604 -0.0621  0.1533 -0.2298
 3651TIP3    H135148   0.155   0.380  10.653 -0.1473  0.3376  0.1029
 3651TIP3    H235149   0.027   0.461  10.653 -1.9649 -2.3441 -2.3428
 3652TIP3   OH235150   5.497   1.337   9.348 -0.7783  0.1519 -0.2041
 3652TIP3    H135151   5.536   1.410   9.299  1.9733 -0.6019  0.6895
 3652TIP3    H235152   5.541   1.340   9.434 -0.7310 -2.4151 -0.0795
 3653TIP3   OH235153   6.409   5.471   9.480  0.1877 -0.0165  0.0780
 3653TIP3    H135154   6.501   5.466   9.507  0.5377 -0.5827 -1.1698
 3653TIP3    H235155   6.373   5.385   9.501  0.2838 -0.2283 -0.6095
 3654TIP3   OH235156   0.309   4.495  11.764 -0.3836 -0.4978  0.4747
 3654TIP3    H135157   0.222   4.466  11.735 -0.4600 -0.6260  0.8363
 3654TIP3    H235158   0.312   4.474  11.857  0.5845 -1.8136  0.1581
 3655TIP3   OH235159   4.464   0.292  10.068  0.3854  0.7019  0.3029
 3655TIP3    H135160   4.531   0.226  10.086  1.2870  1.1124 -1.3385
 3655TIP3    H235161   4.503   0.347  10.000 -0.3334  2.9532  1.6228
 3656TIP3   OH235162   2.696   3.979   9.762 -0.1122  0.3395 -0.3170
 3656TIP3    H135163   2.664   3.904   9.712  1.9857  1.2148 -3.2284
 3656TIP3    H235164   2.788   3.959   9.779 -0.3244  0.8641  1.8403
 3657TIP3   OH235165   0.450   0.543  10.708 -0.1371 -0.2107  0.0922
 3657TIP3    H135166   0.383   0.503  10.651 -2.1564  0.8997  1.5348
 3657TIP3    H235167   0.408   0.622  10.742  1.7207  0.2114  1.5779
 3658TIP3   OH235168   1.427   2.127  11.059 -0.4721 -0.1487  0.2181
 3658TIP3    H135169   1.400   2.069  11.130  0.6915 -0.2068  0.6214
 3658TIP3    H235170   1.378   2.207  11.074 -4.5549 -1.8890 -2.0780
 3659TIP3   OH235171   6.360   3.724  11.448 -0.1031  0.5611 -0.2440
 3659TIP3    H135172   6.455   3.730  11.451 -0.0824  0.2399 -0.1982
 3659TIP3    H235173   6.341   3.678  11.367 -0.1746 -0.1711  0.1855
 3660TIP3   OH235174   1.942   6.546   8.974 -0.2123  0.1025 -0.2855
 3660TIP3    H135175   1.951   6.609   9.045  0.6204 -1.5250  1.1424
 3660TIP3    H235176   1.939   6.599   8.894 -3.5260  2.1423  1.0170
 3661TIP3   OH235177   2.553   3.085  12.244 -0.1601 -0.0727 -0.7083
 3661TIP3    H135178   2.464   3.077  12.278  0.0667 -0.7798 -0.2647
 3661TIP3    H235179   2.549   3.044  12.157  0.0326 -1.3455 -0.1359
 3662TIP3   OH235180   1.640   4.565  10.225 -0.5756 -0.6075  1.0116
 3662TIP3    H135181   1.675   4.558  10.314  1.5449 -1.2713  0.1792
 3662TIP3    H235182   1.678   4.645  10.190  1.0766 -1.8657 -0.2605
 3663TIP3   OH235183   6.181   0.420  11.347  0.3481  0.3209  0.1318
 3663TIP3    H135184   6.147   0.479  11.414 -0.0721  1.6991 -1.2410
 3663TIP3    H235185   6.119   0.347  11.344  0.4264  0.1853  1.2717
 3664TIP3   OH235186   2.182   6.139   9.121  0.5676 -0.0661 -0.4205
 3664TIP3    H135187   2.179   6.095   9.037 -1.0994  2.4124 -1.7897
 3664TIP3    H235188   2.099   6.116   9.163  0.8682 -0.3332  0.0382
 3665TIP3   OH235189   1.820   2.886  11.505 -0.5217 -0.1133 -0.1000
 3665TIP3    H135190   1.804   2.883  11.410 -0.6442  0.7206 -0.1142
 3665TIP3    H235191   1.803   2.978  11.529  1.8429  0.2800  0.3052
 3666TIP3   OH235192   5.986   1.134  10.721 -0.1899  0.1078  0.2067
 3666TIP3    H135193   6.013   1.146  10.631  0.0441  0.7273  0.3563
 3666TIP3    H235194   5.891   1.150  10.720 -0.6311 -2.1527 -0.3316
 3667TIP3   OH235195   0.410   2.385   9.974  0.0659 -0.5369 -0.5907
 3667TIP3    H135196   0.501   2.356   9.976  0.4675  0.6923  1.1909
 3667TIP3    H235197   0.373   2.355  10.057 -0.5141  0.8471 -0.3185
 3668TIP3   OH235198   5.723   5.267  11.061  0.3912 -0.5606 -0.3765
 3668TIP3    H135199   5.780   5.191  11.055 -1.4697 -2.0730  0.0140
 3668TIP3    H235200   5.732   5.311  10.977  1.9814 -0.8305 -0.3715
 3669TIP3   OH235201   2.393   5.806   9.354  0.1154 -0.1315  0.6994
 3669TIP3    H135202   2.432   5.759   9.280 -1.2197 -1.1863  0.6151
 3669TIP3    H235203   2.318   5.752   9.379 -0.6627  1.2746  1.5110
 3670TIP3   OH235204   2.883   4.615  10.281  0.1862 -0.5923  0.0387
 3670TIP3    H135205   2.869   4.572  10.197  0.1556 -0.9435  0.2211
 3670TIP3    H235206   2.913   4.545  10.339  1.3536 -0.1168  0.0215
 3671TIP3   OH235207   4.047   4.333  10.341 -0.1462  0.1821  0.0530
 3671TIP3    H135208   4.082   4.274  10.274  0.1304  0.8813 -0.4343
 3671TIP3    H235209   4.081   4.419  10.316 -1.4120  0.7242  0.1277
 3672TIP3   OH235210   3.602   0.536  10.092 -0.0499  0.4442 -0.5448
 3672TIP3    H135211   3.563   0.462  10.138 -0.6195  1.1545  0.1333
 3672TIP3    H235212   3.579   0.613  10.144  2.5759  0.8849  0.1127
 3673TIP3   OH235213   3.971   5.747   8.923 -0.4344  0.7506 -0.3952
 3673TIP3    H135214   4.025   5.814   8.881  0.3995  0.8979  0.8664
 3673TIP3    H235215   4.034   5.680   8.949 -0.9603  0.5830  0.4583
 3674TIP3   OH235216   0.301   0.442  10.409  0.6766 -0.1797  0.1959
 3674TIP3    H135217   0.230   0.453  10.472  0.4200 -1.0739  0.0691
 3674TIP3    H235218   0.296   0.351  10.381  0.3365  0.3502 -1.6488
 3675TIP3   OH235219   6.398   2.129  11.859 -0.3951 -0.1879 -0.2635
 3675TIP3    H135220   6.323   2.180  11.890  1.0302  1.0976  1.2313
 3675TIP3    H235221   6.361   2.044  11.837 -2.3432  0.5033  0.0845
 3676TIP3   OH235222   2.347   1.206   9.369 -0.2962 -0.0557 -0.6576
 3676TIP3    H135223   2.383   1.283   9.324 -2.6195 -0.1034 -2.8124
 3676TIP3    H235224   2.403   1.134   9.339  0.2045  0.3854 -0.8097
 3677TIP3   OH235225   5.269   0.426  10.352  0.8549 -0.4406 -0.0791
 3677TIP3    H135226   5.302   0.472  10.429 -0.0749  0.4448 -0.1797
 3677TIP3    H235227   5.174   0.425  10.364  0.8700 -3.2473  0.4117
 3678TIP3   OH235228   4.107   2.325  11.441  0.0502  0.4664 -0.3454
 3678TIP3    H135229   4.094   2.409  11.484 -2.5866  0.3863 -0.8084
 3678TIP3    H235230   4.019   2.290  11.428  1.0144 -2.1427 -0.6582
 3679TIP3   OH235231   6.139   0.464   9.722 -0.1506 -0.6243 -0.3883
 3679TIP3    H135232   6.082   0.491   9.794 -0.5899 -0.4540 -0.7919
 3679TIP3    H235233   6.079   0.437   9.652  0.2013  1.2801 -1.5055
 3680TIP3   OH235234   1.795   1.460  11.513  0.2616 -0.2699 -0.6312
 3680TIP3    H135235   1.836   1.544  11.531  0.6482 -0.5347 -0.2729
 3680TIP3    H235236   1.789   1.456  11.417  1.4424 -0.4073 -0.7117
 3681TIP3   OH235237   3.022   0.478  10.765  0.1551 -0.7285  0.5388
 3681TIP3    H135238   3.064   0.543  10.709  0.0684 -0.5220  0.7123
 3681TIP3    H235239   2.928   0.485  10.744  0.0239 -0.0790  1.2896
 3682TIP3   OH235240   4.299   1.429  10.203 -0.1171  1.1807  0.3606
 3682TIP3    H135241   4.209   1.400  10.194  0.3131 -0.1569  0.1465
 3682TIP3    H235242   4.296   1.523  10.190 -1.0804  0.8352 -2.6944
 3683TIP3   OH235243   0.318   2.459  11.242  0.1306  0.0598 -0.4347
 3683TIP3    H135244   0.304   2.364  11.242  1.0103 -0.0766  0.0516
 3683TIP3    H235245   0.274   2.489  11.322 -0.3884  0.1064 -0.7333
 3684TIP3   OH235246   3.398   0.342   8.839 -0.0490 -0.0049  0.1417
 3684TIP3    H135247   3.303   0.344   8.850 -0.1011  1.1590 -0.3558
 3684TIP3    H235248   3.411   0.304   8.752 -0.1723  1.4486 -0.5553
 3685TIP3   OH235249   1.019   3.469  10.377  0.1308  0.2234 -0.4605
 3685TIP3    H135250   0.942   3.478  10.434  0.4903  0.8401 -0.0691
 3685TIP3    H235251   1.090   3.446  10.436  0.4872  0.7762 -0.6731
 3686TIP3   OH235252   1.701   4.033  11.752  0.2204 -0.0436 -0.7093
 3686TIP3    H135253   1.747   4.079  11.682 -0.1317 -1.6038 -2.0224
 3686TIP3    H235254   1.649   3.967  11.707  2.8238 -3.6878  1.1405
 3687TIP3   OH235255   5.695   4.367  11.110 -0.3720  0.1225 -0.0832
 3687TIP3    H135256   5.742   4.299  11.061  0.2985 -0.0246  0.7583
 3687TIP3    H235257   5.760   4.406  11.168 -0.8882  1.0962 -0.1303
 3688TIP3   OH235258   3.371   5.523   9.650 -0.3072  0.0319 -0.3783
 3688TIP3    H135259   3.277   5.523   9.667 -0.6945  1.3150 -2.2112
 3688TIP3    H235260   3.379   5.501   9.558  1.2055 -0.1973 -0.2137
 3689TIP3   OH235261   4.360   1.916  11.588  0.2412  0.0571  0.3506
 3689TIP3    H135262   4.280   1.895  11.637 -0.9297  0.4876 -1.3102
 3689TIP3    H235263   4.416   1.839  11.599  0.3167  0.3829  2.8569
 3690TIP3   OH235264   4.275   5.373  12.248  0.3548  0.6910  0.5269
 3690TIP3    H135265   4.365   5.404  12.246  0.1231  1.3625 -0.1919
 3690TIP3    H235266   4.232   5.421  12.176 -0.9551  1.5991  1.8552
 3691TIP3   OH235267   4.112   6.001  11.757  0.5171  0.4613 -0.3215
 3691TIP3    H135268   4.093   6.089  11.726  1.1416  0.6410 -0.2049
 3691TIP3    H235269   4.080   5.944  11.687  0.3128  0.7876 -0.4968
 3692TIP3   OH235270   0.143   6.541   9.186 -0.0542 -0.1854 -0.0545
 3692TIP3    H135271   0.066   6.598   9.183  1.2796  1.6679 -1.1012
 3692TIP3    H235272   0.217   6.601   9.182  1.4450 -2.0303 -2.1483
 3693TIP3   OH235273   0.532   0.723   8.734  0.2429 -0.3540  0.3601
 3693TIP3    H135274   0.510   0.638   8.771  2.5860 -0.7522  1.0147
 3693TIP3    H235275   0.460   0.743   8.675 -1.3272 -1.8664  1.6531
 3694TIP3   OH235276   4.768   3.909   9.093 -0.5447  0.4993  0.2315
 3694TIP3    H135277   4.859   3.883   9.081 -0.6566 -0.3014  0.9807
 3694TIP3    H235278   4.730   3.838   9.145 -1.4771  1.0526  0.3265
 3695TIP3   OH235279   2.280   0.242  11.988  0.1560  0.5108  0.6776
 3695TIP3    H135280   2.275   0.166  11.930  1.4962 -0.4144  1.6998
 3695TIP3    H235281   2.261   0.317  11.931  2.1547 -0.2703 -1.1858
 3696TIP3   OH235282   4.222   0.472  10.077  0.3839  0.6268  0.1325
 3696TIP3    H135283   4.308   0.498  10.044  0.0995  0.0672 -1.0948
 3696TIP3    H235284   4.178   0.431  10.002 -0.3019 -0.6541  1.1764
 3697TIP3   OH235285   3.852   2.901   9.671 -0.1305 -0.4502  0.5420
 3697TIP3    H135286   3.806   2.818   9.660 -2.5804  0.8312  0.3403
 3697TIP3    H235287   3.869   2.931   9.582  1.5928 -1.1168  0.6130
 3698TIP3   OH235288   4.051   2.339  10.926  0.2507  0.1072  0.2539
 3698TIP3    H135289   4.100   2.375  10.999  0.6798  2.7746 -1.2053
 3698TIP3    H235290   3.969   2.388  10.925  0.5155  0.6143 -1.3391
 3699TIP3   OH235291   2.802   6.462   8.124 -0.5385  0.2796 -0.9430
 3699TIP3    H135292   2.804   6.531   8.191 -0.5786 -0.5867 -0.0342
 3699TIP3    H235293   2.843   6.503   8.048 -1.4467  1.6406 -0.7529
 3700TIP3   OH235294   2.983   1.684  11.736 -0.5290  0.1481 -0.1183
 3700TIP3    H135295   2.991   1.712  11.644 -0.2060  1.8385  0.3973
 3700TIP3    H235296   3.026   1.599  11.738  0.6583  0.6798 -1.2802
 3701TIP3   OH235297   1.159   4.012   9.878 -0.1056 -0.9286  0.0640
 3701TIP3    H135298   1.244   3.996   9.839 -0.1871 -1.9691  0.2917
 3701TIP3    H235299   1.174   4.005   9.972 -0.2371 -0.0703  0.1571
 3702TIP3   OH235300   0.452   5.376   9.593 -0.1513 -0.0341 -1.1315
 3702TIP3    H135301   0.463   5.317   9.668  1.0325  0.7375 -0.6656
 3702TIP3    H235302   0.364   5.358   9.562 -1.2548  0.6386  1.3514
 3703TIP3   OH235303   6.069   6.401  10.964 -0.2077  0.4178 -0.0729
 3703TIP3    H135304   6.057   6.323  10.909  0.0607  0.0437  0.3906
 3703TIP3    H235305   5.995   6.457  10.942 -0.9950 -0.4233  0.3502
 3704TIP3   OH235306   5.197   4.392  11.253  0.4589  0.0581  0.1211
 3704TIP3    H135307   5.119   4.447  11.250 -0.8866 -1.6070  2.0139
 3704TIP3    H235308   5.268   4.449  11.223 -1.1121  2.3219  0.4905
 3705TIP3   OH235309   2.400   6.451   9.334 -0.6315  0.8778 -0.3752
 3705TIP3    H135310   2.358   6.469   9.419  0.1203  0.1120  0.1724
 3705TIP3    H235311   2.490   6.481   9.346 -0.5326  0.7981 -0.9260
 3706TIP3   OH235312   1.738   4.806  10.149 -0.3686 -1.1204  0.1338
 3706TIP3    H135313   1.683   4.821  10.072 -0.0917 -0.3738  0.0802
 3706TIP3    H235314   1.730   4.886  10.200 -1.2891 -1.9443  1.3560
 3707TIP3   OH235315   1.529   6.429  11.713  0.0581  0.4572 -0.3298
 3707TIP3    H135316   1.600   6.405  11.772 -1.8113 -1.4519  1.3368
 3707TIP3    H235317   1.497   6.345  11.679 -0.7115  1.3398 -1.9033
 3708TIP3   OH235318   0.322   2.349  10.246 -0.1626  0.3616  0.0295
 3708TIP3    H135319   0.350   2.360  10.337 -0.7124  1.7586  0.0551
 3708TIP3    H235320   0.227   2.336  10.252 -0.1190 -0.1432 -0.3194
 3709TIP3   OH235321   4.660   5.492  11.448  0.2693 -0.2384 -0.0514
 3709TIP3    H135322   4.655   5.435  11.371 -0.1950 -0.1580 -0.0802
 3709TIP3    H235323   4.753   5.517  11.452  0.0034  1.2220 -1.6633
 3710TIP3   OH235324   1.932   3.203  10.204  0.9913 -0.3098  0.7381
 3710TIP3    H135325   1.896   3.115  10.208  1.2866 -0.4732 -0.0130
 3710TIP3    H235326   2.023   3.193  10.233  1.8705 -0.7678 -1.9023
 3711TIP3   OH235327   3.723   4.093  11.861  0.7342 -0.3839  0.2175
 3711TIP3    H135328   3.750   4.052  11.779  3.3370  1.8016 -0.1539
 3711TIP3    H235329   3.771   4.044  11.928  1.4367  0.0838  0.0660
 3712TIP3   OH235330   0.233   1.281   9.639  0.4874 -0.6063 -0.0573
 3712TIP3    H135331   0.292   1.353   9.615 -0.2183 -0.1515 -0.4725
 3712TIP3    H235332   0.173   1.274   9.565 -1.3172  0.3715  1.2481
 3713TIP3   OH235333   3.625   3.139  10.666  0.4843  0.3706  0.2493
 3713TIP3    H135334   3.692   3.095  10.717  0.9438  0.8648  0.0768
 3713TIP3    H235335   3.542   3.103  10.699  0.8477 -2.8334 -1.8436
 3714TIP3   OH235336   1.417   5.056   9.971  0.3000  0.2867  0.0070
 3714TIP3    H135337   1.400   5.139   9.926 -2.3899  0.2750  0.7754
 3714TIP3    H235338   1.381   5.069  10.059  3.4063 -0.4274  1.5052
 3715TIP3   OH235339   3.701   5.105  11.262  0.5419  0.0183 -0.1259
 3715TIP3    H135340   3.693   5.192  11.225 -1.0882  0.7162  1.6989
 3715TIP3    H235341   3.742   5.118  11.347  0.4383 -1.0158  0.1008
 3716TIP3   OH235342   5.247   3.245  12.110  0.3871 -0.3556 -0.5917
 3716TIP3    H135343   5.161   3.222  12.073 -0.2896  0.1243  0.6320
 3716TIP3    H235344   5.279   3.316  12.055  0.2704 -0.9118 -1.4005
 3717TIP3   OH235345   4.603   4.145   9.243 -0.5347  0.2878 -0.2889
 3717TIP3    H135346   4.667   4.212   9.267 -0.2139 -0.0239 -0.2636
 3717TIP3    H235347   4.656   4.072   9.210 -0.7448 -0.7060  1.4553
 3718TIP3   OH235348   2.814   3.171  12.175 -0.6964 -0.0647  0.1577
 3718TIP3    H135349   2.735   3.143  12.221 -1.0338  2.4302  1.2290
 3718TIP3    H235350   2.783   3.202  12.090 -0.8734  0.8303  0.5434
 3719TIP3   OH235351   2.366   6.130  10.990  0.1180 -0.0917  0.1682
 3719TIP3    H135352   2.298   6.177  11.038  0.2133 -0.7461  0.9677
 3719TIP3    H235353   2.440   6.191  10.987 -0.4770  0.6079 -0.6754
 3720TIP3   OH235354   1.027   4.057  12.029  0.0579 -0.0243  0.0204
 3720TIP3    H135355   1.076   4.014  12.099  0.4010 -0.1480 -0.2900
 3720TIP3    H235356   1.093   4.103  11.978 -0.4272  1.7709  0.9585
 3721TIP3   OH235357   2.852   1.244  11.902  0.5264  0.1685  0.2043
 3721TIP3    H135358   2.867   1.152  11.922 -0.6113 -0.1055 -0.1656
 3721TIP3    H235359   2.929   1.289  11.938  0.8495 -0.8559  0.8251
 3722TIP3   OH235360   0.768   0.293  11.167 -0.1919  0.6369  0.3278
 3722TIP3    H135361   0.763   0.199  11.150 -1.1992  0.8081 -0.4859
 3722TIP3    H235362   0.828   0.326  11.101 -0.8577  0.7326 -0.2404
 3723TIP3   OH235363   1.121   0.268   9.291  0.9127 -0.4925  0.4460
 3723TIP3    H135364   1.093   0.339   9.233  0.9546  0.0721  1.0942
 3723TIP3    H235365   1.216   0.279   9.297  1.5855 -3.0226 -2.5714
 3724TIP3   OH235366   6.678   3.945  10.994  0.3033 -0.0035 -0.4838
 3724TIP3    H135367   6.661   3.861  11.036 -0.3256  0.0850 -0.5561
 3724TIP3    H235368   6.759   3.931  10.944 -0.1469 -0.7646 -1.0189
 3725TIP3   OH235369   1.838   1.926  10.776  0.0982  1.0583  0.2683
 3725TIP3    H135370   1.920   1.934  10.825  0.0091 -1.4607  1.0046
 3725TIP3    H235371   1.770   1.936  10.843 -0.0337 -1.7698  0.6909
 3726TIP3   OH235372   3.641   5.393  11.210 -0.4228 -0.0928  0.0376
 3726TIP3    H135373   3.708   5.461  11.215  0.5125 -1.0150  0.2791
 3726TIP3    H235374   3.609   5.383  11.299  0.5776 -1.0622  0.3129
 3727TIP3   OH235375   0.436   2.676   9.706 -0.1648  0.1275 -0.1733
 3727TIP3    H135376   0.473   2.698   9.792 -0.1031 -1.6290  0.3035
 3727TIP3    H235377   0.503   2.623   9.664 -0.4555  0.4393 -1.0503
 3728TIP3   OH235378   1.491   4.972   9.410  0.2998 -0.1751  0.2651
 3728TIP3    H135379   1.401   4.941   9.406  0.4263 -0.4343 -1.4494
 3728TIP3    H235380   1.532   4.937   9.331  1.4840  1.1942  0.2269
 3729TIP3   OH235381   0.856   6.092  10.165 -0.0611 -0.5823 -0.1237
 3729TIP3    H135382   0.768   6.107  10.199  0.2494 -0.6027  0.7126
 3729TIP3    H235383   0.866   6.157  10.095 -0.4762 -0.0897  0.2645
 3730TIP3   OH235384   6.340   5.518  11.673 -0.1349  0.3588  0.2516
 3730TIP3    H135385   6.336   5.608  11.640 -0.4251  0.5835  0.8868
 3730TIP3    H235386   6.393   5.524  11.753 -2.7210  0.5419  2.0831
 3731TIP3   OH235387   3.491   4.672  12.190  0.0684  0.1561 -0.0784
 3731TIP3    H135388   3.536   4.588  12.188  0.0491  0.0081  2.7413
 3731TIP3    H235389   3.401   4.650  12.214 -0.5626  0.8192 -1.6952
 3732TIP3   OH235390   1.769   5.921  11.587  0.1459  0.2944 -0.2935
 3732TIP3    H135391   1.810   5.841  11.553 -0.4494 -0.6810  1.1777
 3732TIP3    H235392   1.825   5.992  11.554  2.0532 -0.8721  0.2450
 3733TIP3   OH235393   1.306   3.012  10.869  0.6271  0.0649 -0.1196
 3733TIP3    H135394   1.328   2.928  10.909  1.6569 -0.7908 -2.2693
 3733TIP3    H235395   1.225   2.994  10.820  1.2654  0.0759 -1.2064
 3734TIP3   OH235396   2.613   2.250  11.682  0.4100 -0.1650 -0.1318
 3734TIP3    H135397   2.706   2.271  11.686  0.6826 -1.0546 -1.2727
 3734TIP3    H235398   2.596   2.201  11.762  0.8834  0.1343  0.1571
 3735TIP3   OH235399   3.472   5.628  10.006 -0.0664  0.0404  0.2642
 3735TIP3    H135400   3.434   5.691  10.069  1.3507  0.3739  0.8253
 3735TIP3    H235401   3.439   5.543  10.035 -2.4708  0.5039 -0.8342
 3736TIP3   OH235402   3.171   3.824   9.043 -0.7160 -0.1246  0.3420
 3736TIP3    H135403   3.188   3.914   9.015 -0.4412 -1.5192 -5.1818
 3736TIP3    H235404   3.079   3.810   9.023 -0.8893 -0.9612  1.6303
 3737TIP3   OH235405   5.509   1.722  10.088  0.2497 -0.3681  0.0223
 3737TIP3    H135406   5.456   1.645  10.106 -0.7747  0.2381 -0.3205
 3737TIP3    H235407   5.578   1.720  10.155  0.6713 -1.9441 -0.4250
 3738TIP3   OH235408   2.493   3.236   9.233  0.1878 -0.1583 -0.2086
 3738TIP3    H135409   2.550   3.207   9.162 -0.7188 -0.9768 -0.6094
 3738TIP3    H235410   2.496   3.332   9.228  1.3399 -0.1840 -0.3582
 3739TIP3   OH235411   6.089   5.540  10.598 -0.4722  0.0272 -0.5841
 3739TIP3    H135412   6.070   5.633  10.610 -0.5978 -0.0778  0.0789
 3739TIP3    H235413   6.023   5.509  10.537 -1.8087 -0.0877  0.8469
 3740TIP3   OH235414   6.500   4.586   9.339  0.0199 -0.1775 -0.3768
 3740TIP3    H135415   6.432   4.539   9.290  1.7185 -2.1306 -1.0221
 3740TIP3    H235416   6.503   4.541   9.424 -0.8156  1.2141  0.4294
 3741TIP3   OH235417   2.238   3.787  11.593  0.7918 -0.2717  0.3136
 3741TIP3    H135418   2.270   3.779  11.503 -0.6665 -1.1055 -0.1616
 3741TIP3    H235419   2.193   3.872  11.595  1.6188  0.1778  0.5454
 3742TIP3   OH235420   3.879   0.799  12.137 -0.0777 -0.4931  0.3752
 3742TIP3    H135421   3.963   0.807  12.090  0.7119 -0.8274  1.6667
 3742TIP3    H235422   3.880   0.709  12.171 -0.9474 -0.4825  0.4285
 3743TIP3   OH235423   2.891   1.964   9.071  0.5196 -0.4718 -0.0537
 3743TIP3    H135424   2.895   2.044   9.019 -1.2151  0.1649  0.7167
 3743TIP3    H235425   2.977   1.960   9.115  1.6381 -0.5121 -2.1294
 3744TIP3   OH235426   5.511   0.663  10.058  0.3450  0.4492 -0.4263
 3744TIP3    H135427   5.536   0.570  10.054 -1.0627 -0.0165  0.7083
 3744TIP3    H235428   5.594   0.710  10.050  1.2924 -0.9468  0.6421
 3745TIP3   OH235429   0.509   5.327   8.728  0.1566 -0.2643  0.0792
 3745TIP3    H135430   0.442   5.273   8.771 -0.6714  0.9716  0.4099
 3745TIP3    H235431   0.590   5.278   8.741 -0.7066 -1.9671 -0.6184
 3746TIP3   OH235432   1.225   1.033  10.882 -0.3811 -0.4645  0.3891
 3746TIP3    H135433   1.182   0.947  10.887 -0.5310 -0.4948 -1.1250
 3746TIP3    H235434   1.170   1.085  10.824  0.0903  0.4486  0.7384
 3747TIP3   OH235435   4.005   0.962  11.074  0.3531  0.7215 -0.6200
 3747TIP3    H135436   4.061   0.973  10.997 -0.1453 -1.6015 -1.3864
 3747TIP3    H235437   3.991   0.868  11.080 -1.9362  1.0803  0.6767
 3748TIP3   OH235438   2.260   2.359  10.860  0.8571  0.4042  0.2492
 3748TIP3    H135439   2.175   2.314  10.861  1.1252 -0.1263 -0.4326
 3748TIP3    H235440   2.312   2.311  10.925  2.4058 -2.8587 -3.0214
 3749TIP3   OH235441   4.349   2.498  10.587  0.0207  0.0073 -0.1303
 3749TIP3    H135442   4.427   2.503  10.642 -1.1117 -0.3982  1.5886
 3749TIP3    H235443   4.279   2.535  10.641 -1.5290 -2.1677 -0.5035
 3750TIP3   OH235444   2.769   1.839  10.329  0.2083 -0.0570 -0.5121
 3750TIP3    H135445   2.840   1.875  10.276  1.4687  0.3270  1.3725
 3750TIP3    H235446   2.790   1.864  10.419 -1.9977 -0.4751  0.1772
 3751TIP3   OH235447   4.197   2.627  10.780  0.2599  0.7535 -0.2991
 3751TIP3    H135448   4.258   2.699  10.797  2.5903 -1.5853  2.1980
 3751TIP3    H235449   4.154   2.612  10.863 -0.4382 -0.5106 -0.8697
 3752TIP3   OH235450   4.487   3.237   9.782  0.1684  0.4794 -0.5729
 3752TIP3    H135451   4.421   3.269   9.720  0.2535 -0.7604 -1.3367
 3752TIP3    H235452   4.460   3.272   9.867  0.1108  2.3090 -1.3150
 3753TIP3   OH235453   0.113   0.357  11.086 -0.0486  0.1920 -0.0504
 3753TIP3    H135454   0.171   0.317  11.021 -2.5830  0.9083 -2.9649
 3753TIP3    H235455   0.117   0.451  11.068 -1.1733  0.3576  0.4650
 3754TIP3   OH235456   3.141   0.358  11.491  0.1170  0.1878  0.4462
 3754TIP3    H135457   3.047   0.357  11.507  0.1497  0.5024  0.6493
 3754TIP3    H235458   3.180   0.322  11.571  0.2098  0.6854  0.6245
 3755TIP3   OH235459   3.070   1.778  10.451 -0.2238 -0.2309  0.1094
 3755TIP3    H135460   3.162   1.800  10.432 -0.5604  1.5699  0.3887
 3755TIP3    H235461   3.061   1.794  10.545 -1.0505  0.5389 -0.0889
 3756TIP3   OH235462   2.811   5.386   9.683  0.0378  0.2855  0.4229
 3756TIP3    H135463   2.834   5.402   9.591  0.8081  0.1558  0.5861
 3756TIP3    H235464   2.721   5.418   9.691 -0.4931 -0.8412 -0.6746
 3757TIP3   OH235465   3.927   3.613  11.542 -0.0239 -0.3485  0.4820
 3757TIP3    H135466   3.915   3.674  11.469  0.9963 -0.6105  0.0887
 3757TIP3    H235467   3.847   3.623  11.594  0.3086  1.6423  0.6670
 3758TIP3   OH235468   0.489   2.049  11.025 -0.5107  0.0873  0.2298
 3758TIP3    H135469   0.578   2.027  10.999 -0.6706 -0.8058  0.3944
 3758TIP3    H235470   0.489   2.144  11.035  0.1941  0.1885 -0.6167
 3759TIP3   OH235471   4.153   0.404  11.783 -0.1469 -0.2539 -0.4345
 3759TIP3    H135472   4.069   0.372  11.749 -1.0185  2.0664 -0.6018
 3759TIP3    H235473   4.213   0.396  11.709 -0.4070 -1.1282 -0.5683
 3760TIP3   OH235474   0.318   3.230   8.769 -0.1226  0.2197 -0.2146
 3760TIP3    H135475   0.225   3.252   8.775  0.1859  1.3467  1.0097
 3760TIP3    H235476   0.320   3.135   8.759 -1.4026  0.1240  0.2801
 3761TIP3   OH235477   4.805   5.354  10.346  0.2995  0.0152  0.2254
 3761TIP3    H135478   4.827   5.264  10.371  1.3091  0.1612 -0.0759
 3761TIP3    H235479   4.889   5.393  10.323 -0.0488  1.2184  0.9000
 3762TIP3   OH235480   1.024   0.934  12.073  0.7628 -0.0165  0.3998
 3762TIP3    H135481   0.982   0.978  11.999  1.0931  0.6448  0.5972
 3762TIP3    H235482   1.083   0.870  12.033 -1.1679 -1.7184  0.1078
 3763TIP3   OH235483   4.979   6.691   9.537 -0.4304 -0.1276  0.0407
 3763TIP3    H135484   4.898   6.738   9.518 -1.4697 -1.4416  1.0763
 3763TIP3    H235485   4.970   6.608   9.492 -0.3571 -0.9015  1.3974
 3764TIP3   OH235486   0.784   5.576  10.977 -0.0225  0.2823  0.4409
 3764TIP3    H135487   0.698   5.619  10.980  0.3919  1.1044  0.8001
 3764TIP3    H235488   0.804   5.568  10.884 -0.7962 -0.5425  0.3379
 3765TIP3   OH235489   6.079   6.441   9.258 -0.1054  0.0918 -0.1404
 3765TIP3    H135490   6.153   6.385   9.281 -2.1896 -3.0111 -0.4519
 3765TIP3    H235491   6.095   6.463   9.166  0.6133 -0.1988 -0.0994
 3766TIP3   OH235492   1.178   5.559  11.482 -0.4298  0.3817  0.2136
 3766TIP3    H135493   1.216   5.585  11.398 -1.0384  1.5062  0.2633
 3766TIP3    H235494   1.084   5.570  11.470 -0.4187  2.5007  1.6448
 3767TIP3   OH235495   4.247   2.847  11.778 -0.1308  0.5878  0.0135
 3767TIP3    H135496   4.170   2.838  11.721  0.6948  0.8118 -1.1738
 3767TIP3    H235497   4.245   2.939  11.805  0.7327  1.1230 -1.5755
 3768TIP3   OH235498   0.842   6.627  10.468 -0.3756  0.1548 -0.2245
 3768TIP3    H135499   0.769   6.581  10.510  0.9139 -0.7584  1.0804
 3768TIP3    H235500   0.882   6.678  10.538  0.0615  0.9312 -1.0110
 3769TIP3   OH235501   2.774   0.266   9.846  0.4199  0.0542  0.2881
 3769TIP3    H135502   2.746   0.333   9.909  1.9352  2.1712 -1.1195
 3769TIP3    H235503   2.854   0.229   9.885  1.4141  1.4329 -0.3594
 3770TIP3   OH235504   4.450   5.712   8.979 -0.1728  0.1447 -0.4433
 3770TIP3    H135505   4.420   5.684   8.892  2.6673  2.4918 -2.4128
 3770TIP3    H235506   4.507   5.642   9.009 -1.2307 -0.7204 -0.4009
 3771TIP3   OH235507   3.010   3.322  11.715 -0.7303  0.0927 -0.0047
 3771TIP3    H135508   3.081   3.385  11.706  0.0729 -1.0444 -2.5124
 3771TIP3    H235509   2.944   3.367  11.768  0.9109  1.9809  0.5580
 3772TIP3   OH235510   3.436   4.848  11.748  0.0475 -0.1388  0.3084
 3772TIP3    H135511   3.436   4.901  11.668 -1.0181  0.1275  0.4627
 3772TIP3    H235512   3.470   4.907  11.815 -1.2960  0.4488  0.5138
 3773TIP3   OH235513   4.565   0.490  12.195  0.0977 -0.2034  0.3667
 3773TIP3    H135514   4.656   0.518  12.202  0.0512 -0.1756  0.8938
 3773TIP3    H235515   4.516   0.556  12.244 -0.3525  0.4916 -0.9649
 3774TIP3   OH235516   1.104   4.235   9.366  0.9026  0.3578 -0.1028
 3774TIP3    H135517   1.183   4.228   9.419  0.9915  1.2257 -0.1210
 3774TIP3    H235518   1.054   4.306   9.405 -0.0440 -0.4110  0.1268
 3775TIP3   OH235519   4.635   1.191   8.679 -0.2581  0.4872  0.4157
 3775TIP3    H135520   4.540   1.179   8.670 -0.1754  0.5213 -0.6084
 3775TIP3    H235521   4.663   1.228   8.595  0.9430 -1.2705 -0.0031
 3776TIP3   OH235522   5.382   5.926   9.913  0.1482  0.2383  0.1500
 3776TIP3    H135523   5.365   5.865   9.985  1.7227 -0.9725 -0.4649
 3776TIP3    H235524   5.467   5.965   9.934  1.4380 -1.3512 -1.8198
 3777TIP3   OH235525   0.032   5.923  10.757  0.3759  0.9055 -0.3439
 3777TIP3    H135526  -0.038   5.941  10.819  0.0413  2.1642 -1.0598
 3777TIP3    H235527   0.067   6.010  10.735 -0.7388  0.6860 -3.3126
 3778TIP3   OH235528   3.046   5.857   8.954 -0.0857 -0.0355 -0.3475
 3778TIP3    H135529   3.028   5.783   8.896 -0.6199  0.0781 -0.3299
 3778TIP3    H235530   3.048   5.819   9.042  0.8382 -0.2270 -0.4366
 3779TIP3   OH235531   4.228   3.860  11.405 -0.0866 -0.3204  0.4609
 3779TIP3    H135532   4.163   3.924  11.435  0.8232  0.6725  0.3813
 3779TIP3    H235533   4.285   3.846  11.480  0.7338  0.2959 -0.0227
 3780TIP3   OH235534   5.722   0.058   9.223  0.3696  0.2051 -0.5044
 3780TIP3    H135535   5.797   0.107   9.190 -0.2423  1.9824  0.6158
 3780TIP3    H235536   5.692   0.107   9.300 -0.2867 -1.9377  0.7183
 3781TIP3   OH235537   6.066   4.464   9.739  0.3212  0.2146 -0.3659
 3781TIP3    H135538   6.074   4.385   9.794  0.4937  1.2114  1.1028
 3781TIP3    H235539   6.153   4.476   9.702  0.5444  0.2287  0.1529
 3782TIP3   OH235540   2.676   4.542  11.793  0.4381  0.6096 -0.5151
 3782TIP3    H135541   2.754   4.517  11.842  0.0288  0.2865 -0.0242
 3782TIP3    H235542   2.616   4.468  11.804  0.5622  0.2578 -1.9928
 3783TIP3   OH235543   3.110   4.119  10.473 -0.1464 -0.0605 -0.5956
 3783TIP3    H135544   3.056   4.144  10.548  1.7197 -2.7024  1.9014
 3783TIP3    H235545   3.191   4.169  10.484  0.2018 -0.5844 -0.7090
 3784TIP3   OH235546   5.170   5.301  11.350 -0.4254  0.3301 -0.4945
 3784TIP3    H135547   5.221   5.381  11.366  0.3616 -0.1837 -0.3622
 3784TIP3    H235548   5.236   5.234  11.332 -0.8629 -0.9201  2.0256
 3785TIP3   OH235549   0.783   6.455  11.113 -0.1784  0.1194  0.4553
 3785TIP3    H135550   0.828   6.518  11.169  0.1746 -0.7611  1.1822
 3785TIP3    H235551   0.736   6.399  11.174  0.2663 -0.8919 -0.1147
 3786TIP3   OH235552   2.982   3.330  10.886  0.5169 -0.1488  0.1288
 3786TIP3    H135553   2.899   3.342  10.932  1.1957  0.7511  1.1648
 3786TIP3    H235554   2.961   3.271  10.814 -1.3163  1.1244 -0.4469
 3787TIP3   OH235555   5.218   3.458  11.044  0.0046  0.4733 -0.2405
 3787TIP3    H135556   5.267   3.527  11.089  0.5034  1.0612 -1.6281
 3787TIP3    H235557   5.128   3.472  11.071  0.4931 -0.4053  2.0803
 3788TIP3   OH235558   1.782   4.962  11.151 -0.3302 -0.0530 -0.5275
 3788TIP3    H135559   1.702   4.918  11.119  0.3322 -0.8276 -1.1606
 3788TIP3    H235560   1.842   4.890  11.170 -0.0768  0.4953  0.7775
 3789TIP3   OH235561   5.238   4.492  12.017 -0.7765 -0.2429  0.0740
 3789TIP3    H135562   5.277   4.405  12.018  2.3765  0.8993 -2.8681
 3789TIP3    H235563   5.190   4.496  11.934 -1.0479  0.7388  0.2616
 3790TIP3   OH235564   3.395   6.572  10.368  0.2633 -0.1501  0.1725
 3790TIP3    H135565   3.440   6.610  10.292 -0.6118  0.4782 -0.0421
 3790TIP3    H235566   3.367   6.647  10.420 -0.1343 -0.5503  0.5442
 3791TIP3   OH235567   1.315   0.063  11.080  0.2621 -0.5074 -0.0917
 3791TIP3    H135568   1.340   0.134  11.139 -1.3463  0.8554 -0.9456
 3791TIP3    H235569   1.380  -0.005  11.095  1.2714  0.7335  1.5118
 3792TIP3   OH235570   3.979   4.478  10.577 -0.0224 -0.1168  0.0295
 3792TIP3    H135571   4.042   4.541  10.540 -0.9931  1.4787  0.9825
 3792TIP3    H235572   3.983   4.403  10.518  1.1345  0.8657 -1.2046
 3793TIP3   OH235573   3.021   1.850  10.709 -0.0061  0.9682  0.1723
 3793TIP3    H135574   3.112   1.867  10.733 -0.0767  0.0878  1.1375
 3793TIP3    H235575   2.972   1.861  10.791 -0.5851  0.1787 -0.0585
 3794TIP3   OH235576   0.408   4.931  12.220  0.4796  0.0441  0.2090
 3794TIP3    H135577   0.341   4.947  12.153 -0.7787 -1.6086  1.0163
 3794TIP3    H235578   0.441   5.019  12.241 -0.2075  0.7411 -1.4191
 3795TIP3   OH235579   1.603   2.077   9.077  0.0797 -0.3071 -0.3829
 3795TIP3    H135580   1.618   2.117   8.991  0.1837 -0.0276 -0.2351
 3795TIP3    H235581   1.681   2.023   9.092  0.0267 -0.4168 -0.4981
 3796TIP3   OH235582   0.210   3.670   9.696  0.3419  0.0756 -0.3484
 3796TIP3    H135583   0.140   3.703   9.641 -0.6425 -0.7538  0.3718
 3796TIP3    H235584   0.191   3.577   9.706  0.5436  0.1843  1.2876
 3797TIP3   OH235585   4.302   0.355   9.486  0.3117 -0.0063 -0.5600
 3797TIP3    H135586   4.374   0.310   9.530 -0.0819 -0.3725 -0.2859
 3797TIP3    H235587   4.255   0.400   9.556 -0.1866 -0.4123 -0.6268
 3798TIP3   OH235588   1.854   6.235  11.115 -0.2949 -0.0521  0.1601
 3798TIP3    H135589   1.807   6.314  11.143 -2.4508 -1.0132 -0.5632
 3798TIP3    H235590   1.798   6.196  11.048  0.0066 -2.9466  1.4585
 3799TIP3   OH235591   4.681   0.039   9.328  0.0887 -0.6130  0.3316
 3799TIP3    H135592   4.610  -0.012   9.288  0.9678 -1.9431  0.3933
 3799TIP3    H235593   4.703   0.105   9.262 -0.3450 -1.0065 -0.2225
 3800TIP3   OH235594   5.725   2.687  11.878  0.4028 -0.6795 -0.1218
 3800TIP3    H135595   5.682   2.646  11.952 -0.2018  0.5619  0.2415
 3800TIP3    H235596   5.679   2.653  11.801 -2.0134  1.3388  0.2847
 3801TIP3   OH235597   4.658   3.545  11.249  0.4842 -0.3455  0.0907
 3801TIP3    H135598   4.724   3.586  11.305  0.2563  0.1438  0.0074
 3801TIP3    H235599   4.610   3.619  11.211  1.8688 -0.5571 -2.2683
 3802TIP3   OH235600   4.805   2.377   9.302  0.4788  1.0610 -0.5455
 3802TIP3    H135601   4.827   2.462   9.262 -0.9651  0.8072 -1.9814
 3802TIP3    H235602   4.713   2.364   9.281  0.2045 -0.1030  1.1404
 3803TIP3   OH235603   5.280   4.984   9.868 -0.2393 -0.0257  0.2313
 3803TIP3    H135604   5.245   4.955   9.952  1.2211 -0.1873  0.8183
 3803TIP3    H235605   5.373   4.962   9.872  0.1953  1.4637 -0.7677
 3804TIP3   OH235606   4.195   3.068  11.372  0.1533 -0.8347 -0.6578
 3804TIP3    H135607   4.152   3.048  11.456 -1.0147 -0.2045 -1.0716
 3804TIP3    H235608   4.129   3.117  11.323  0.8355 -1.1433 -1.9342
 3805TIP3   OH235609   6.179   4.030   8.936 -0.1100  0.0263  0.2799
 3805TIP3    H135610   6.093   4.070   8.945  0.3206  0.9773  0.2447
 3805TIP3    H235611   6.226   4.086   8.874  0.1304 -1.1812 -0.6830
 3806TIP3   OH235612   5.639   4.773   9.667 -0.5502 -0.3710  0.0541
 3806TIP3    H135613   5.620   4.680   9.660 -1.7936 -0.1838  0.8114
 3806TIP3    H235614   5.691   4.781   9.747 -0.0857 -0.4481 -0.2310
 3807TIP3   OH235615   3.382   1.246  11.800  0.3863 -0.3850 -0.3817
 3807TIP3    H135616   3.313   1.308  11.823  0.9436 -0.0526  0.4598
 3807TIP3    H235617   3.409   1.207  11.884 -0.0632 -1.9029 -0.9071
 3808TIP3   OH235618   5.375   2.724  10.861  0.1167  1.1498  0.3365
 3808TIP3    H135619   5.336   2.787  10.921 -0.1578  1.6908 -0.3882
 3808TIP3    H235620   5.351   2.756  10.774 -1.6265 -0.9451 -0.0521
 3809TIP3   OH235621   1.030   4.928   9.544 -0.2062  0.5456  0.1154
 3809TIP3    H135622   1.006   5.004   9.597  1.3471  0.9210  0.3216
 3809TIP3    H235623   1.043   4.858   9.607 -0.0327  0.5430  0.0772
 3810TIP3   OH235624   2.656   1.712  11.262  0.4467  0.3153 -0.2333
 3810TIP3    H135625   2.627   1.657  11.189 -0.0299  1.0355 -0.5915
 3810TIP3    H235626   2.599   1.687  11.335  2.0145 -1.6344  0.4293
 3811TIP3   OH235627   6.084   2.486  10.289 -0.3950  0.5921  0.0163
 3811TIP3    H135628   6.134   2.488  10.371  1.0486  0.6422 -0.8175
 3811TIP3    H235629   6.145   2.521  10.224 -0.7350 -1.3613 -1.4513
 3812TIP3   OH235630   6.537   5.684  10.916  0.0063  0.3712 -0.2156
 3812TIP3    H135631   6.573   5.596  10.927 -0.4116  0.1906 -0.2617
 3812TIP3    H235632   6.459   5.672  10.862 -0.7438  0.5936  0.7698
 3813TIP3   OH235633   2.072   5.090  11.431 -0.6890  0.0195 -0.5084
 3813TIP3    H135634   2.035   5.024  11.490 -1.9932  1.4216  0.3117
 3813TIP3    H235635   2.146   5.126  11.480  0.6402 -1.4524 -1.3571
 3814TIP3   OH235636   3.504   1.090   9.480 -0.5497  0.1893 -0.6906
 3814TIP3    H135637   3.458   1.159   9.527  0.6029 -0.3818  1.4158
 3814TIP3    H235638   3.556   1.135   9.414 -0.5031  1.2672  0.0572
 3815TIP3   OH235639   0.457   0.392   9.246 -0.2430  0.3379  0.1309
 3815TIP3    H135640   0.437   0.478   9.207 -0.5527  0.4422  0.5165
 3815TIP3    H235641   0.550   0.379   9.228 -0.0557  1.0127  0.5688
 3816TIP3   OH235642   6.216   4.499  10.042  0.3217 -0.0865  0.2021
 3816TIP3    H135643   6.126   4.475  10.024  0.3829  0.2757 -0.6288
 3816TIP3    H235644   6.247   4.432  10.103 -0.4918 -0.2253  0.4806
 3817TIP3   OH235645   6.622   1.060  11.940  0.1547  0.4552 -0.1759
 3817TIP3    H135646   6.605   0.966  11.932 -1.4636  0.6882  0.2071
 3817TIP3    H235647   6.659   1.070  12.027 -1.1098  0.3350  0.3966
 3818TIP3   OH235648   6.570   0.721   9.639  0.4101  0.1768  0.1385
 3818TIP3    H135649   6.661   0.699   9.660  0.1216 -0.9010  0.3051
 3818TIP3    H235650   6.519   0.686   9.713 -0.0687  1.5869  0.5139
 3819TIP3   OH235651   0.263   6.257   9.846  0.1985  0.2508  0.4734
 3819TIP3    H135652   0.207   6.271   9.770 -1.3226  0.4196  1.5845
 3819TIP3    H235653   0.226   6.180   9.889  0.4895  0.6863  1.5177
 3820TIP3   OH235654   6.167   2.420  12.241  0.3277  0.0856 -0.0044
 3820TIP3    H135655   6.097   2.465  12.287 -1.0280 -1.2262 -0.7069
 3820TIP3    H235656   6.127   2.339  12.209  2.8907 -2.1688  2.0309
 3821TIP3   OH235657   3.372   0.719   9.942 -1.4027  0.0086  0.0692
 3821TIP3    H135658   3.339   0.755   9.860 -0.2974 -0.1036 -0.4348
 3821TIP3    H235659   3.431   0.649   9.916 -0.8222  0.1523  0.9455
 3822TIP3   OH235660   4.745   1.422   8.891  0.3086 -0.3056 -0.1260
 3822TIP3    H135661   4.681   1.420   8.820 -0.6179  1.8069  0.5726
 3822TIP3    H235662   4.830   1.416   8.846 -0.2264  1.3957 -1.5117
 3823TIP3   OH235663   2.488   2.693  10.617 -0.1161 -0.5419 -0.1435
 3823TIP3    H135664   2.577   2.682  10.650 -0.5363 -0.4236  1.0613
 3823TIP3    H235665   2.455   2.604  10.607  0.1361 -0.5873 -0.6340
 3824TIP3   OH235666   1.107   0.639   9.397  0.4507  0.5654 -0.8996
 3824TIP3    H135667   1.180   0.585   9.428  0.2043  1.4379  1.3977
 3824TIP3    H235668   1.149   0.704   9.340  1.6691  1.6199  1.0944
 3825TIP3   OH235669   5.506   5.008  10.538 -0.2657  0.5795  0.0409
 3825TIP3    H135670   5.442   4.944  10.568 -1.1434  1.3222 -0.1977
 3825TIP3    H235671   5.590   4.963  10.544 -0.7844 -0.3470  0.5486
 3826TIP3   OH235672   0.426   3.743  11.300 -0.0777 -0.1424 -0.2121
 3826TIP3    H135673   0.500   3.707  11.349 -1.9841 -1.9984  1.5031
 3826TIP3    H235674   0.402   3.822  11.348 -0.3481 -0.5626  0.3545
 3827TIP3   OH235675   1.042   2.152  10.029  0.4628  0.8941 -0.3263
 3827TIP3    H135676   1.133   2.127  10.040  0.6272  0.9708 -1.3745
 3827TIP3    H235677   1.026   2.218  10.097  0.6719 -0.3716  0.9912
 3828TIP3   OH235678   2.080   5.598  11.413  1.0116 -0.3923  0.1039
 3828TIP3    H135679   2.020   5.575  11.483  1.0057  0.7112  0.4824
 3828TIP3    H235680   2.129   5.673  11.446  0.3501  0.7678 -1.3946
 3829TIP3   OH235681   5.767   4.067  10.344 -0.0724 -0.0953  0.5324
 3829TIP3    H135682   5.729   4.055  10.431  1.0429  0.0165  1.0493
 3829TIP3    H235683   5.767   3.979  10.306 -0.0483 -0.2344  0.8545
 3830TIP3   OH235684   1.850   5.642  11.559 -0.4050 -0.3264  0.1803
 3830TIP3    H135685   1.805   5.579  11.503 -1.0834 -1.5420  2.0179
 3830TIP3    H235686   1.854   5.600  11.644 -0.4435  1.9430  1.3700
 3831TIP3   OH235687   0.747   6.291  10.849 -0.0671 -0.0995  0.0406
 3831TIP3    H135688   0.838   6.266  10.833 -0.1685  0.2771 -1.1928
 3831TIP3    H235689   0.753   6.365  10.909  0.3237 -1.4813  1.8121
 3832TIP3   OH235690   4.904   5.590  12.065 -0.0741  0.3843  0.1283
 3832TIP3    H135691   4.965   5.535  12.015 -2.5300 -0.8276 -1.8045
 3832TIP3    H235692   4.891   5.667  12.010 -0.7172  0.3251  0.1867
 3833TIP3   OH235693   1.367   4.771  10.258 -0.0141 -0.2880 -0.1107
 3833TIP3    H135694   1.392   4.789  10.167  2.2343  0.6130  0.6080
 3833TIP3    H235695   1.410   4.688  10.278 -0.0844 -0.2365  0.2562
 3834TIP3   OH235696   5.422   2.603  10.361 -0.0667  0.1190 -0.1108
 3834TIP3    H135697   5.357   2.549  10.318  0.5293 -0.2128 -0.5994
 3834TIP3    H235698   5.451   2.551  10.436 -2.1962  1.2977  1.6568
 3835TIP3   OH235699   0.922   1.343  11.446  0.7451  0.2228  0.2259
 3835TIP3    H135700   0.978   1.398  11.502  0.7947 -0.9536  1.3818
 3835TIP3    H235701   0.954   1.360  11.357  1.4818  1.2178  0.6535
 3836TIP3   OH235702   1.408   1.682  10.776 -0.7585 -0.7717  0.2546
 3836TIP3    H135703   1.403   1.776  10.798 -0.1151 -0.7378  0.2696
 3836TIP3    H235704   1.497   1.670  10.744 -1.3551 -1.0392 -1.3864
 3837TIP3   OH235705   2.956   2.549   9.834 -0.2667 -0.2210 -0.4161
 3837TIP3    H135706   2.955   2.473   9.776  2.0895 -0.6301 -0.0414
 3837TIP3    H235707   2.965   2.512   9.921  0.6026  0.4539 -0.2050
 3838TIP3   OH235708   6.633   3.810  11.427 -0.7434  0.1042 -0.3300
 3838TIP3    H135709   6.614   3.901  11.449 -1.2950  0.0723 -0.6495
 3838TIP3    H235710   6.728   3.804  11.429 -0.6131  1.0857 -1.8323
 3839TIP3   OH235711   3.773   2.746  11.992  0.0544 -0.1112 -0.4821
 3839TIP3    H135712   3.806   2.696  11.917  1.7654 -0.5788  0.5329
 3839TIP3    H235713   3.847   2.751  12.052 -0.9712  1.1369  0.7467
 3840TIP3   OH235714   4.092   3.336  10.995 -0.2398 -0.1931 -0.1738
 3840TIP3    H135715   4.170   3.365  10.947  0.3057 -0.3623  0.5818
 3840TIP3    H235716   4.047   3.277  10.935  1.1079 -1.4198 -0.0307
 3841TIP3   OH235717   2.590   5.852  11.746  0.7694 -0.4115 -0.1324
 3841TIP3    H135718   2.661   5.845  11.810  1.2519 -0.3302 -0.6511
 3841TIP3    H235719   2.601   5.775  11.690  0.2317 -0.5843 -0.0060
 3842TIP3   OH235720   2.469   3.647  10.282  0.7551  0.2697 -0.5456
 3842TIP3    H135721   2.534   3.613  10.344  1.0488  1.2715 -0.2799
 3842TIP3    H235722   2.425   3.718  10.330  0.7434  0.8171 -1.3519
 3843TIP3   OH235723   3.914   2.342   9.512 -0.3728  0.5699 -0.2157
 3843TIP3    H135724   3.945   2.346   9.602  1.4572 -0.0212 -0.7605
 3843TIP3    H235725   3.844   2.277   9.513  0.9507 -0.9004  0.4672
 3844TIP3   OH235726   4.620   6.243   9.520 -0.1006 -0.3396  0.1303
 3844TIP3    H135727   4.541   6.270   9.473 -0.7404 -0.9756  0.8128
 3844TIP3    H235728   4.663   6.182   9.459  0.4404  0.8137 -0.6805
 3845TIP3   OH235729   1.177   5.230  10.922  0.0085  0.1665  0.4973
 3845TIP3    H135730   1.256   5.280  10.943 -0.3945  0.3629  1.6235
 3845TIP3    H235731   1.166   5.241  10.828  0.4645  1.4048  0.5692
 3846TIP3   OH235732   0.379   2.192  11.301  0.3995  0.7718 -0.4608
 3846TIP3    H135733   0.460   2.165  11.258  0.3915  1.1171 -0.7025
 3846TIP3    H235734   0.337   2.110  11.327  0.4255  0.5574 -1.0750
 3847TIP3   OH235735   4.248   4.700   9.794  0.5630 -0.2498 -0.1426
 3847TIP3    H135736   4.318   4.765   9.788  0.3679  0.2489  2.1309
 3847TIP3    H235737   4.293   4.616   9.804  0.8547 -0.0318  0.4230
 3848TIP3   OH235738   3.973   0.154   9.303  0.4109  0.2051 -0.0341
 3848TIP3    H135739   3.916   0.209   9.356  1.4857  0.3093  1.0646
 3848TIP3    H235740   3.918   0.123   9.232 -0.9347  0.5075  0.8450
 3849TIP3   OH235741   5.146   4.032  12.312  0.2442 -0.3983 -0.0605
 3849TIP3    H135742   5.182   4.104  12.363 -0.3611  1.3611 -1.9649
 3849TIP3    H235743   5.105   4.074  12.236  0.4561 -2.7859 -1.6288
 3850TIP3   OH235744   0.531   0.448  10.980  0.1810  0.0524 -0.1291
 3850TIP3    H135745   0.559   0.437  10.889 -0.4907  2.9819 -0.7997
 3850TIP3    H235746   0.586   0.519  11.014 -0.1149 -0.4551  1.5202
 3851TIP3   OH235747   3.477   0.219   9.745  0.2195 -0.5204 -0.3821
 3851TIP3    H135748   3.444   0.222   9.656  0.0274 -2.0819 -0.3841
 3851TIP3    H235749   3.533   0.297   9.752 -1.2392  0.6692 -1.2359
 3852TIP3   OH235750   5.844   4.547  10.589 -0.5639  0.1312 -0.3332
 3852TIP3    H135751   5.931   4.515  10.566 -0.1020 -0.5780  2.1606
 3852TIP3    H235752   5.791   4.468  10.600 -1.2845  0.5260 -0.8499
 3853TIP3   OH235753   2.362   3.753   9.235  0.4756 -0.3531  0.0068
 3853TIP3    H135754   2.299   3.709   9.178 -0.3029  1.4084 -0.5721
 3853TIP3    H235755   2.369   3.841   9.198  1.6643  0.1404  1.3422
 3854TIP3   OH235756   1.432   4.826  10.679  0.0825  0.4077 -0.0941
 3854TIP3    H135757   1.453   4.892  10.746  0.4318  0.9980 -0.7799
 3854TIP3    H235758   1.336   4.828  10.674  0.0623  0.4895  0.2586
 3855TIP3   OH235759   2.197   2.897  12.329 -0.0465 -0.8346 -0.3444
 3855TIP3    H135760   2.167   2.890  12.239  1.4169 -3.2938 -0.7305
 3855TIP3    H235761   2.241   2.813  12.347  2.0128  0.5462  1.7771
 3856TIP3   OH235762   4.883   0.318  10.821  1.1639 -0.4529  0.2286
 3856TIP3    H135763   4.854   0.390  10.764  0.0432 -0.2108  1.0569
 3856TIP3    H235764   4.943   0.359  10.883 -0.8172  0.2136  1.8181
 3857TIP3   OH235765   3.934   3.079  10.850 -0.3498 -0.5878  0.2050
 3857TIP3    H135766   3.899   3.003  10.803 -1.1859 -0.1004  0.0130
 3857TIP3    H235767   3.950   3.144  10.782  0.9609 -0.8003  0.2940
 3858TIP3   OH235768   4.267   5.971  10.200  0.3739  0.0165  0.0560
 3858TIP3    H135769   4.358   5.968  10.230  0.1029 -1.5978  0.8662
 3858TIP3    H235770   4.215   5.964  10.280 -0.4451  0.1208 -0.4525
 3859TIP3   OH235771   3.173   3.289   9.272 -0.2011 -1.1033  0.1728
 3859TIP3    H135772   3.259   3.249   9.263 -0.9003 -2.9315  0.9605
 3859TIP3    H235773   3.186   3.364   9.329  0.9204 -1.1695  0.0202
 3860TIP3   OH235774   1.228   0.748  12.019 -0.2240  0.2525 -0.3004
 3860TIP3    H135775   1.310   0.798  12.022 -0.6684  0.9767  2.1283
 3860TIP3    H235776   1.252   0.663  12.057  0.0331 -0.7146 -2.4473
 3861TIP3   OH235777   0.348   2.023  10.034 -0.1980  0.7425 -0.0759
 3861TIP3    H135778   0.410   1.951  10.019  0.4184  1.5359 -1.5866
 3861TIP3    H235779   0.326   2.017  10.127  0.7703 -0.6488  0.0972
 3862TIP3   OH235780   6.306   2.111   9.102  0.2075  0.1233 -0.0091
 3862TIP3    H135781   6.284   2.021   9.078 -1.2562  0.0973  1.2154
 3862TIP3    H235782   6.256   2.165   9.041  1.1350  0.1204 -0.7840
 3863TIP3   OH235783   6.453   3.857  12.067 -0.5635 -0.2277  0.8921
 3863TIP3    H135784   6.365   3.839  12.100 -0.7383 -1.4048 -0.1438
 3863TIP3    H235785   6.451   3.826  11.977  1.1811 -1.1175  1.1306
 3864TIP3   OH235786   1.048   0.031   9.416 -0.3209  0.1698  0.3688
 3864TIP3    H135787   0.967   0.036   9.366  0.1270  1.6184 -0.2823
 3864TIP3    H235788   1.103   0.101   9.380  1.1541 -0.6530  0.9067
 3865TIP3   OH235789   0.698   6.254  11.364  0.3995 -0.1581  0.0539
 3865TIP3    H135790   0.733   6.241  11.452  0.6545 -0.6336 -0.1193
 3865TIP3    H235791   0.740   6.187  11.311 -0.4048 -0.4228 -0.2580
 3866TIP3   OH235792   1.490   4.601  11.368  0.3582 -0.6644  0.5159
 3866TIP3    H135793   1.466   4.692  11.381 -0.1692 -0.8120  0.6200
 3866TIP3    H235794   1.419   4.565  11.315  1.5749 -0.5139 -1.2861
 3867TIP3   OH235795   6.269   6.506   8.632  0.6321 -0.6329 -0.3524
 3867TIP3    H135796   6.310   6.512   8.546  0.2224  0.7835 -0.4625
 3867TIP3    H235797   6.248   6.413   8.642 -2.9241 -0.3963 -3.4844
 3868TIP3   OH235798   5.735   2.269   9.978 -0.1774  0.3962  0.0006
 3868TIP3    H135799   5.665   2.333   9.968 -0.4414  0.2128  0.6354
 3868TIP3    H235800   5.728   2.239  10.069 -0.9887 -1.5888 -0.6600
 3869TIP3   OH235801   5.294   0.605   9.277 -0.4264  0.1018 -0.6299
 3869TIP3    H135802   5.311   0.657   9.356  1.3544  0.0931 -0.9641
 3869TIP3    H235803   5.336   0.521   9.295 -1.8170 -0.6643 -0.7782
 3870TIP3   OH235804   4.598   2.196  10.724  0.3539 -0.2103 -0.1004
 3870TIP3    H135805   4.589   2.277  10.675 -2.4395 -0.2015  0.2408
 3870TIP3    H235806   4.513   2.152  10.713  1.5697 -2.8318  0.1917
 3871TIP3   OH235807   6.310   4.318  10.256 -0.4661  0.0305  0.4494
 3871TIP3    H135808   6.343   4.337  10.343 -0.2496  0.4586  0.2784
 3871TIP3    H235809   6.300   4.223  10.254  0.5466 -0.0846  0.5797
 3872TIP3   OH235810   0.814   2.436   9.444  0.1695  0.0133  0.0627
 3872TIP3    H135811   0.797   2.514   9.497 -2.2509 -0.6997  0.4318
 3872TIP3    H235812   0.872   2.383   9.499  1.0618  1.1012  0.2104
 3873TIP3   OH235813   1.312   2.006  10.283  0.3397 -0.3025 -0.8033
 3873TIP3    H135814   1.296   2.084  10.336  2.2770 -0.2227 -0.2806
 3873TIP3    H235815   1.342   1.940  10.346 -1.2849 -1.5263 -1.2327
 3874TIP3   OH235816   0.544   6.648   9.509 -0.4725  0.1410 -0.0220
 3874TIP3    H135817   0.449   6.660   9.505 -0.4366  0.1248 -1.7886
 3874TIP3    H235818   0.579   6.721   9.457  0.2559 -1.7874 -2.4160
 3875TIP3   OH235819   3.448   1.971  10.616  0.4322  0.1122  0.3083
 3875TIP3    H135820   3.413   2.001  10.532  1.7913 -1.1069 -0.7536
 3875TIP3    H235821   3.523   1.917  10.592  1.4901  0.5844  2.3740
 3876TIP3   OH235822   5.755   6.579  10.286  0.4876 -0.4290  0.8372
 3876TIP3    H135823   5.680   6.527  10.315  0.9307 -1.8318 -0.3989
 3876TIP3    H235824   5.716   6.654  10.240 -0.1694 -1.3393 -0.1185
 3877TIP3   OH235825   4.719   1.243  10.502 -0.2407 -0.5070  0.0033
 3877TIP3    H135826   4.631   1.213  10.477 -0.0365 -1.3152  0.2468
 3877TIP3    H235827   4.762   1.264  10.418 -0.2316 -1.3289 -0.2053
 3878TIP3   OH235828   5.632   5.997  10.044  0.5988 -0.4541 -0.2386
 3878TIP3    H135829   5.698   5.940  10.005  1.6182 -0.7794  1.8242
 3878TIP3    H235830   5.655   6.085  10.013 -0.1263 -0.9435 -2.2885
 3879TIP3   OH235831   5.387   5.041  10.969 -0.5064 -0.3775 -0.7871
 3879TIP3    H135832   5.295   5.063  10.954 -0.2862  2.1817  0.9232
 3879TIP3    H235833   5.433   5.079  10.894 -0.6684  0.1830 -0.6086
 3880TIP3   OH235834   1.414   0.239  11.258  0.0738  0.4572  0.4371
 3880TIP3    H135835   1.509   0.247  11.245  0.0998 -0.4142 -0.0486
 3880TIP3    H235836   1.391   0.313  11.314  1.1504  0.3226  1.1045
 3881TIP3   OH235837   6.696   4.260  10.493 -0.1370 -0.1886  0.2622
 3881TIP3    H135838   6.639   4.210  10.434  0.3737  1.5704 -1.8426
 3881TIP3    H235839   6.785   4.245  10.459  0.5011 -1.1902  2.2098
 3882TIP3   OH235840   0.430   0.982   9.660 -0.1262  0.0698  0.2751
 3882TIP3    H135841   0.345   0.990   9.705 -1.2991 -0.1648 -1.7809
 3882TIP3    H235842   0.472   1.067   9.672 -0.6511  0.1964  1.3031
 3883TIP3   OH235843   2.549   5.224  11.184 -0.3018  0.4779 -0.4799
 3883TIP3    H135844   2.573   5.132  11.176 -0.0957  0.6224 -1.6888
 3883TIP3    H235845   2.517   5.249  11.097  0.1543  1.6861 -0.3328
 3884TIP3   OH235846   5.137   1.795  12.414 -0.0913 -0.1930 -0.2190
 3884TIP3    H135847   5.086   1.875  12.404  1.0506  0.7794  1.3100
 3884TIP3    H235848   5.145   1.783  12.508  0.5049 -1.6317 -0.4238
 3885TIP3   OH235849   4.187   2.115  11.916  0.5055 -0.2031  0.2354
 3885TIP3    H135850   4.120   2.121  11.848 -0.1410 -1.1684  0.7650
 3885TIP3    H235851   4.165   2.035  11.964  2.3627 -0.8592  0.0826
 3886TIP3   OH235852   1.678   1.816  11.370 -0.0146 -0.4663 -0.7372
 3886TIP3    H135853   1.713   1.902  11.347  0.9020 -0.7185 -0.3219
 3886TIP3    H235854   1.753   1.757  11.360 -0.6125 -1.2033 -0.9276
 3887TIP3   OH235855   6.154   5.837  10.500 -0.0870 -0.0189  0.0120
 3887TIP3    H135856   6.192   5.921  10.526 -1.5472  0.5759  0.2672
 3887TIP3    H235857   6.077   5.859  10.448 -0.3963 -1.1989 -0.0778
 3888TIP3   OH235858   5.122   5.742  11.533  0.9502 -0.0712  0.1617
 3888TIP3    H135859   5.122   5.765  11.626  0.8267  1.1888 -0.1325
 3888TIP3    H235860   5.210   5.708  11.516  1.3069  0.6675  0.5157
 3889TIP3   OH235861   6.274   5.302   9.794  0.1337  0.5204 -0.1826
 3889TIP3    H135862   6.367   5.285   9.782  0.0729 -1.3537  1.5115
 3889TIP3    H235863   6.271   5.373   9.859  0.3528  1.0305 -0.7177
 3890TIP3   OH235864   1.507   3.302   9.134  0.1319  0.4965  0.1500
 3890TIP3    H135865   1.593   3.282   9.097 -0.1016  1.6610 -1.0678
 3890TIP3    H235866   1.474   3.376   9.083 -2.5305 -1.2399 -0.8992
 3891TIP3   OH235867   2.817   3.630  11.572 -0.0496  0.0595 -0.1056
 3891TIP3    H135868   2.782   3.552  11.529  0.7425  0.0774 -0.8006
 3891TIP3    H235869   2.750   3.698  11.556 -1.3053 -0.7219  1.4911
 3892TIP3   OH235870   1.677   6.614   9.139  0.0643 -0.1098  0.6768
 3892TIP3    H135871   1.610   6.547   9.124 -0.6289  0.7795 -0.4643
 3892TIP3    H235872   1.670   6.635   9.232  0.0297 -1.3223  0.9693
 3893TIP3   OH235873   3.898   0.689  11.068 -0.2690  0.0242  1.0511
 3893TIP3    H135874   3.845   0.648  11.000  0.2107  1.5036 -0.2777
 3893TIP3    H235875   3.966   0.624  11.088 -0.2304 -0.3180 -0.1298
 3894TIP3   OH235876   0.636   5.832  10.926 -0.2572 -0.6893  0.2550
 3894TIP3    H135877   0.602   5.910  10.883 -0.5044 -1.7296 -1.5397
 3894TIP3    H235878   0.578   5.761  10.897 -0.1023 -1.5529  1.9040
 3895TIP3   OH235879   4.130   3.555  10.616  0.0524 -0.0369  0.0807
 3895TIP3    H135880   4.113   3.648  10.632  1.4274  0.2517 -0.0211
 3895TIP3    H235881   4.198   3.531  10.679 -1.1919 -1.3327  0.9917
 3896TIP3   OH235882   1.800   2.931   9.911  0.2577 -0.1952 -0.0410
 3896TIP3    H135883   1.827   2.889   9.993 -0.0850  0.1099  0.2326
 3896TIP3    H235884   1.709   2.957   9.926  0.1696 -0.1945 -0.5441
 3897TIP3   OH235885   6.516   0.875   9.902  0.4155 -0.2398 -0.1181
 3897TIP3    H135886   6.487   0.797   9.856 -0.5019 -0.0427  0.1191
 3897TIP3    H235887   6.572   0.842   9.973 -2.4558 -0.9823  1.9799
 3898TIP3   OH235888   3.786   0.629  11.761  0.2085 -0.1321  0.4663
 3898TIP3    H135889   3.749   0.707  11.801  1.6186  1.6822 -1.5248
 3898TIP3    H235890   3.722   0.603  11.695 -0.3651 -0.8377  1.2807
 3899TIP3   OH235891   1.902   6.391  10.124 -0.0743  0.3214  0.5520
 3899TIP3    H135892   1.934   6.317  10.175 -0.2210  0.0989  0.3238
 3899TIP3    H235893   1.961   6.463  10.146  0.5638 -0.0763  0.1569
 3900TIP3   OH235894   5.719   4.453   9.870 -0.5443 -0.1538  0.2867
 3900TIP3    H135895   5.695   4.384   9.932 -0.8780 -0.1936  0.1171
 3900TIP3    H235896   5.658   4.442   9.797  0.2067 -0.4731 -0.3168
 3901TIP3   OH235897   4.316   3.439  11.370 -0.1390 -0.0769 -0.2547
 3901TIP3    H135898   4.302   3.525  11.410  0.3708 -0.1798  0.1435
 3901TIP3    H235899   4.409   3.436  11.350  0.2776 -1.3181  1.6059
 3902TIP3   OH235900   6.681   1.740  11.316 -0.3725  0.3506 -0.3181
 3902TIP3    H135901   6.588   1.733  11.336 -0.4017 -0.9437 -0.8000
 3902TIP3    H235902   6.718   1.787  11.390 -1.3002  0.2603  0.2233
 3903TIP3   OH235903   6.644   2.898  10.094  0.4191  0.3030  0.1145
 3903TIP3    H135904   6.674   2.938  10.012  0.5561  0.7413  0.3752
 3903TIP3    H235905   6.605   2.970  10.143 -3.0930 -0.5918 -1.0787
 3904TIP3   OH235906   2.264   1.496   9.375  0.0299  0.0523 -0.3409
 3904TIP3    H135907   2.332   1.542   9.425 -0.1004  1.5900 -1.5177
 3904TIP3    H235908   2.216   1.445   9.441  1.9109 -0.6106  0.6116
 3905TIP3   OH235909   3.130   1.227  10.282  0.0174  0.7607 -0.8042
 3905TIP3    H135910   3.172   1.295  10.335 -1.2818  0.2537  0.9720
 3905TIP3    H235911   3.072   1.275  10.223 -1.0522  1.2746  0.5816
 3906TIP3   OH235912   4.900   5.638  10.669 -0.9135  0.3336 -0.0180
 3906TIP3    H135913   4.865   5.666  10.754 -0.0507  0.1116  0.4215
 3906TIP3    H235914   4.938   5.718  10.632 -1.5519  0.4992 -0.3475
 3907TIP3   OH235915   1.964   2.766  11.889 -0.0195  0.0467  0.1258
 3907TIP3    H135916   2.016   2.816  11.952  0.5969 -2.4971  1.7756
 3907TIP3    H235917   1.920   2.833  11.837 -0.1601  2.3262  2.8959
 3908TIP3   OH235918   2.063   6.678  11.327 -0.0374 -0.2843  0.0805
 3908TIP3    H135919   2.076   6.597  11.375 -0.1429 -0.0267  0.5471
 3908TIP3    H235920   1.969   6.681  11.310  0.0681 -0.6248 -0.5905
 3909TIP3   OH235921   3.156   5.981  11.324 -0.5021 -0.2871  0.5350
 3909TIP3    H135922   3.172   6.069  11.357  1.4441  0.2661 -1.6927
 3909TIP3    H235923   3.242   5.939  11.323 -0.9590 -1.2720 -1.0215
 3910TIP3   OH235924   6.333   0.338  11.058 -0.1161 -0.1598 -0.1977
 3910TIP3    H135925   6.312   0.261  11.111 -0.4368  0.3982  0.5079
 3910TIP3    H235926   6.424   0.325  11.032 -0.2177 -0.8595 -0.2316
 3911TIP3   OH235927   6.386   6.414   9.445  0.0648 -0.0776 -0.5664
 3911TIP3    H135928   6.303   6.394   9.490 -0.7113  2.0146 -0.9385
 3911TIP3    H235929   6.452   6.403   9.513 -0.8297  0.6961  0.4886
 3912TIP3   OH235930   5.644   6.065  11.980 -0.3100 -0.0134  0.1863
 3912TIP3    H135931   5.706   6.043  11.911  2.0132 -0.6995  2.3373
 3912TIP3    H235932   5.670   6.153  12.010 -0.0967 -0.4557  1.3599
 3913TIP3   OH235933   0.394   5.210   9.835 -0.1388 -0.6475 -0.5754
 3913TIP3    H135934   0.352   5.125   9.818 -2.1763  0.1645  0.0487
 3913TIP3    H235935   0.438   5.198   9.919 -1.3019 -0.8382  0.0380
 3914TIP3   OH235936   0.783   3.084  11.258 -0.2852 -0.4964 -1.0334
 3914TIP3    H135937   0.834   3.008  11.285 -0.6676 -0.8682 -1.3438
 3914TIP3    H235938   0.698   3.073  11.302  0.1318  0.4912  0.0687
 3915TIP3   OH235939   1.142   1.607   8.030  0.1677 -0.3734  0.0324
 3915TIP3    H135940   1.061   1.562   8.002  0.8552 -1.7510  0.1704
 3915TIP3    H235941   1.111   1.689   8.067 -1.0713 -0.2300 -1.2070
 3916TIP3   OH235942   3.868   0.610  10.647 -0.6831 -0.4704  0.1226
 3916TIP3    H135943   3.855   0.698  10.611  0.5666 -0.2710  0.1325
 3916TIP3    H235944   3.955   0.584  10.616 -0.6848 -1.3596  0.8265
 3917TIP3   OH235945   4.926   2.613  10.474  0.0765 -0.3330  0.8263
 3917TIP3    H135946   4.910   2.573  10.389  0.2270 -0.6296  0.9333
 3917TIP3    H235947   5.002   2.565  10.509 -0.2476 -0.5050  1.3071
 3918TIP3   OH235948   0.679   5.907  12.240 -0.4357  0.5370  0.2944
 3918TIP3    H135949   0.602   5.928  12.188 -1.5885 -2.6148  0.5349
 3918TIP3    H235950   0.644   5.868  12.320  1.2131 -4.2525 -1.0143
 3919TIP3   OH235951   5.762   4.805  10.986  0.4332 -0.1968 -0.4517
 3919TIP3    H135952   5.675   4.795  11.025  0.1274  0.5814 -0.9152
 3919TIP3    H235953   5.814   4.848  11.054  0.0802  0.5637 -0.6531
 3920TIP3   OH235954   1.555   6.349  11.234  0.5922 -0.4904  0.1122
 3920TIP3    H135955   1.612   6.401  11.290 -1.3615  0.1982  1.5882
 3920TIP3    H235956   1.567   6.259  11.264  1.8402 -0.5451 -0.4990
 3921TIP3   OH235957   2.492   0.834   8.918 -0.0194 -0.0093  0.3723
 3921TIP3    H135958   2.454   0.760   8.870  0.7824 -0.8252  0.9842
 3921TIP3    H235959   2.569   0.858   8.866  0.4733 -0.4674  0.8852
 3922TIP3   OH235960   2.898   2.111   9.411 -0.7667 -0.5348 -0.0215
 3922TIP3    H135961   2.853   2.156   9.339 -0.8159  1.9939  1.4664
 3922TIP3    H235962   2.831   2.054   9.449 -1.4774  0.0270 -0.4087
 3923TIP3   OH235963   0.341   5.132   8.886  0.3754  0.1049  0.2426
 3923TIP3    H135964   0.343   5.036   8.891  0.5200  0.1326  0.6690
 3923TIP3    H235965   0.274   5.158   8.950  1.0241  0.3431  0.8264
 3924TIP3   OH235966   0.643   0.424   9.942 -0.0413 -0.0937 -0.4596
 3924TIP3    H135967   0.571   0.366   9.967 -0.5563  0.7535  0.1044
 3924TIP3    H235968   0.628   0.442   9.850 -0.4213 -0.1067 -0.4028
 3925TIP3   OH235969   5.670   2.746  10.212  0.7693  0.5658 -0.2564
 3925TIP3    H135970   5.620   2.730  10.293  1.1816 -0.3176 -0.1574
 3925TIP3    H235971   5.639   2.678  10.151  0.1382  1.5027 -1.0000
 3926TIP3   OH235972   0.189   4.515  11.020  0.4258 -0.6189 -0.7809
 3926TIP3    H135973   0.095   4.522  11.002  0.3571  1.7460  0.1130
 3926TIP3    H235974   0.216   4.434  10.977 -2.0561 -1.4851 -0.8668
 3927TIP3   OH235975   3.225   1.988  11.694 -0.2170  0.3998  0.2438
 3927TIP3    H135976   3.150   2.040  11.722  0.5063  1.3125  0.5078
 3927TIP3    H235977   3.221   1.989  11.598 -0.1611  1.0061  0.2483
 3928TIP3   OH235978   1.669   5.503  10.827  0.5533 -0.1793  0.3372
 3928TIP3    H135979   1.723   5.529  10.752 -0.2965  0.6711  0.0031
 3928TIP3    H235980   1.620   5.582  10.850 -0.2907 -0.8383  0.8462
 3929TIP3   OH235981   5.061   6.180   9.324 -0.0259 -0.0038  0.0031
 3929TIP3    H135982   4.991   6.115   9.330  0.2388 -0.2030  1.2431
 3929TIP3    H235983   5.109   6.157   9.244 -0.8384 -0.3955 -0.3815
 3930TIP3   OH235984   6.566   3.322  11.042  0.1086  0.1198 -0.2319
 3930TIP3    H135985   6.596   3.270  10.967  0.1505 -1.2558  0.7190
 3930TIP3    H235986   6.471   3.310  11.044  0.3067 -1.5188  1.1126
 3931TIP3   OH235987   4.642   4.989  11.405 -0.1268 -0.3754  0.1562
 3931TIP3    H135988   4.633   4.917  11.467 -1.2061  0.3851  0.9353
 3931TIP3    H235989   4.670   4.948  11.323 -1.1815 -1.7493  0.4483
 3932TIP3   OH235990   0.999   6.419   9.205 -0.5313  0.3503  0.3195
 3932TIP3    H135991   1.089   6.429   9.236 -0.4803 -0.4367  0.4486
 3932TIP3    H235992   0.983   6.325   9.209 -1.8003  0.5957  1.5319
 3933TIP3   OH235993   4.889   2.470  10.249  0.6680  0.7820  0.0601
 3933TIP3    H135994   4.875   2.492  10.157 -0.1275 -0.6197 -0.1907
 3933TIP3    H235995   4.949   2.396  10.247 -0.1167  0.1067  0.5935
 3934TIP3   OH235996   2.451   2.182   9.833  0.3081  0.0221 -0.1395
 3934TIP3    H135997   2.430   2.193   9.740  1.0343 -0.8436 -0.4221
 3934TIP3    H235998   2.469   2.088   9.843  0.3260  0.1152  0.8634
 3935TIP3   OH235999   6.050   2.266   9.180 -0.2564  0.4245 -0.1185
 3935TIP3    H136000   6.094   2.209   9.243  0.7285 -0.1650 -1.3014
 3935TIP3    H236001   6.009   2.207   9.118 -2.3702  0.9743  0.6643
 3936TIP3   OH236002   5.367   0.189  11.263  0.1082 -0.5869 -0.5866
 3936TIP3    H136003   5.276   0.163  11.278 -1.5584  3.6012 -2.1383
 3936TIP3    H236004   5.386   0.251  11.333  0.5697  1.0324 -2.0836
 3937TIP3   OH236005   4.415   3.211  12.093  0.3126  0.0226  0.1615
 3937TIP3    H136006   4.406   3.257  12.010 -0.2071  0.6813  0.5607
 3937TIP3    H236007   4.486   3.256  12.138  0.2073  0.0458  0.3065
 3938TIP3   OH236008   1.279   3.658  10.087 -0.1886 -0.1162  0.1769
 3938TIP3    H136009   1.310   3.574  10.121 -0.5168 -0.3189 -0.0225
 3938TIP3    H236010   1.359   3.709  10.072  0.1723 -1.1496 -1.7190
 3939TIP3   OH236011   3.040   5.246  11.859 -0.4958 -0.1278  0.0674
 3939TIP3    H136012   3.106   5.178  11.873 -1.6376 -1.4357 -0.6581
 3939TIP3    H236013   2.959   5.209  11.892 -1.0804  1.0596  0.0362
 3940TIP3   OH236014   3.210   4.828  11.152  0.2958  0.0826 -0.1222
 3940TIP3    H136015   3.288   4.874  11.181 -0.5662  1.7126 -0.2912
 3940TIP3    H236016   3.139   4.892  11.159 -0.7095 -0.7710 -1.7415
 3941TIP3   OH236017   4.082   0.427   8.765 -0.6228  0.7991 -0.5760
 3941TIP3    H136018   4.165   0.380   8.771 -0.1193  1.6426 -0.6960
 3941TIP3    H236019   4.022   0.379   8.821  0.0919  0.4729 -0.0866
 3942TIP3   OH236020   1.265   3.749  11.336 -0.1193  0.4710 -0.2101
 3942TIP3    H136021   1.298   3.804  11.264  2.5323 -0.5209  0.1179
 3942TIP3    H236022   1.267   3.660  11.301 -3.5220  0.3785 -0.4406
 3943TIP3   OH236023   6.441   4.682  10.838 -0.2415 -0.3059  0.2049
 3943TIP3    H136024   6.465   4.756  10.782  1.9733 -1.0934 -0.0134
 3943TIP3    H236025   6.357   4.651  10.805 -0.1210  0.7422 -1.1243
 3944TIP3   OH236026   5.752   5.618   9.978  0.5342  0.6136 -0.0655
 3944TIP3    H136027   5.834   5.569   9.972  0.9083  1.1724  0.4102
 3944TIP3    H236028   5.769   5.700   9.932 -0.3153  0.0431 -1.4874
 3945TIP3   OH236029   3.797   1.838   9.252  0.1634 -0.2719  0.0094
 3945TIP3    H136030   3.769   1.777   9.183  1.3793 -0.3827 -0.4119
 3945TIP3    H236031   3.856   1.899   9.208 -0.0427  0.4363  0.6939
 3946TIP3   OH236032   2.021   5.671   9.847 -0.8399  0.0482  0.1794
 3946TIP3    H136033   2.081   5.745   9.845 -0.3438 -0.2272  2.3216
 3946TIP3    H236034   1.953   5.694   9.784  0.7693  0.9945 -1.2893
 3947TIP3   OH236035   3.461   5.636  11.733 -1.1366  0.0080  0.5622
 3947TIP3    H136036   3.504   5.553  11.756 -0.2540 -0.3086 -1.9026
 3947TIP3    H236037   3.378   5.609  11.693 -0.2701  0.1870 -1.4450
 3948TIP3   OH236038   2.960   4.090  11.562  0.0593  0.0465  0.3526
 3948TIP3    H136039   2.989   4.000  11.546 -1.3963 -0.5317  0.8341
 3948TIP3    H236040   2.932   4.090  11.654 -2.1171  0.3619 -0.2545
 3949TIP3   OH236041   2.684   1.223   9.687 -0.0917 -0.1200  0.2168
 3949TIP3    H136042   2.699   1.252   9.596  1.7577 -1.7173 -0.0521
 3949TIP3    H236043   2.658   1.303   9.733 -2.4023  0.5092 -1.9469
 3950TIP3   OH236044   0.813   6.075  10.508 -0.0476 -0.1174 -0.3450
 3950TIP3    H136045   0.904   6.094  10.529  0.5356 -2.4625 -0.5475
 3950TIP3    H236046   0.771   6.062  10.593 -0.3379  1.3677 -0.2303
 3951TIP3   OH236047   5.066   4.893  11.842 -0.1354  0.1431 -1.1575
 3951TIP3    H136048   5.133   4.928  11.783  0.6810 -0.5176 -0.6475
 3951TIP3    H236049   5.032   4.969  11.889 -0.2841  0.5837 -1.9603
 3952TIP3   OH236050   4.556   3.297  11.168 -0.2636  0.1343 -0.2680
 3952TIP3    H136051   4.572   3.289  11.074  2.1099 -1.4925  0.1964
 3952TIP3    H236052   4.596   3.380  11.193 -1.7337  1.0382 -0.7955
 3953TIP3   OH236053   1.875   3.622   9.009 -0.1623  0.6866  0.0245
 3953TIP3    H136054   1.872   3.560   9.082  0.5164  1.2219  0.5182
 3953TIP3    H236055   1.862   3.568   8.931  0.0961 -0.0277  0.4681
 3954TIP3   OH236056   0.360   3.238  10.355  0.3014 -0.3686  0.4858
 3954TIP3    H136057   0.316   3.300  10.295 -2.7031 -1.3732  1.4784
 3954TIP3    H236058   0.382   3.291  10.432 -0.1568 -0.0637  0.4104
 3955TIP3   OH236059   2.572   3.770   9.659 -0.0486 -0.4122  0.3394
 3955TIP3    H136060   2.612   3.732   9.581  2.7263 -1.4693  2.1315
 3955TIP3    H236061   2.488   3.724   9.667 -0.2563 -0.5076 -1.7984
 3956TIP3   OH236062   3.158   1.051  11.756  0.2071  0.1717  0.0950
 3956TIP3    H136063   3.152   1.089  11.844 -0.5613  2.5590 -0.8838
 3956TIP3    H236064   3.146   1.126  11.698  2.5348 -1.0167 -2.1002
 3957TIP3   OH236065   3.423   5.020   9.644 -0.1001 -0.9483  0.1278
 3957TIP3    H136066   3.428   5.096   9.585  1.6768 -0.7022  0.5531
 3957TIP3    H236067   3.433   4.944   9.586  0.6842 -0.7446 -0.0141
 3958TIP3   OH236068   5.117   2.161  11.718 -0.3637 -0.1364  0.2752
 3958TIP3    H136069   5.199   2.174  11.671 -0.8585  0.9291 -0.3184
 3958TIP3    H236070   5.053   2.139  11.650 -0.4689 -1.5061  0.7925
 3959TIP3   OH236071   0.831   1.586  10.101  0.2571  0.2563  0.0112
 3959TIP3    H136072   0.738   1.595  10.083  0.5601  0.0514 -1.9092
 3959TIP3    H236073   0.852   1.657  10.161 -1.2855 -0.2327  1.1958
 3960TIP3   OH236074   6.565   5.324  11.501 -0.1695  0.1423  0.5298
 3960TIP3    H136075   6.589   5.235  11.525 -0.9000 -0.0050  0.7535
 3960TIP3    H236076   6.569   5.373  11.583 -0.3104  0.1850  0.5126
 3961TIP3   OH236077   4.187   5.571  11.168  0.2173 -0.3361  0.3325
 3961TIP3    H136078   4.233   5.519  11.234  1.3350 -1.1814 -1.0470
 3961TIP3    H236079   4.118   5.512  11.136 -0.6529  0.2555  1.0821
 3962TIP3   OH236080   0.252   4.884  10.078  0.5301 -0.3593 -0.2840
 3962TIP3    H136081   0.183   4.948  10.061  0.6930  0.1268  0.7980
 3962TIP3    H236082   0.207   4.809  10.116  0.3815 -0.7644 -1.2428
 3963TIP3   OH236083   6.442   2.016  10.289  0.3088  0.0449 -0.2180
 3963TIP3    H136084   6.532   2.017  10.321  0.5092  0.7776 -0.7692
 3963TIP3    H236085   6.451   2.003  10.194 -0.1258  0.7424 -0.3601
 3964TIP3   OH236086   2.310   5.392   9.328 -0.3518 -0.0444 -0.5903
 3964TIP3    H136087   2.226   5.418   9.365  0.3747  2.1192 -0.2867
 3964TIP3    H236088   2.289   5.322   9.267 -2.2616 -0.0775  0.0364
 3965TIP3   OH236089   0.850   6.265   9.733  0.0596 -0.6590  0.5778
 3965TIP3    H136090   0.788   6.335   9.712 -0.8312 -1.8788 -1.1128
 3965TIP3    H236091   0.914   6.267   9.662 -1.4028 -3.0778 -0.9593
 3966TIP3   OH236092   1.416   6.104  11.003  0.1366 -0.7066  0.0110
 3966TIP3    H136093   1.372   6.020  10.986  1.4968 -1.2338 -1.2327
 3966TIP3    H236094   1.463   6.090  11.086 -1.2260 -0.4607  0.8483
 3967TIP3   OH236095   6.138   1.175  11.535  0.2965  0.6104 -0.2092
 3967TIP3    H136096   6.224   1.208  11.509  0.0463  0.5368 -1.1939
 3967TIP3    H236097   6.152   1.135  11.620  1.0751  1.2808 -0.0063
 3968TIP3   OH236098   6.069   1.063  10.180 -0.5852  0.3731  0.0689
 3968TIP3    H136099   6.122   1.094  10.107  1.3295 -0.4515  1.0306
 3968TIP3    H236100   6.118   0.989  10.215 -1.3542  0.8424  2.2946
 3969TIP3   OH236101   2.953   2.530  10.848 -0.2839 -0.4459 -0.1091
 3969TIP3    H136102   3.029   2.563  10.801 -0.7342  0.5465 -0.1591
 3969TIP3    H236103   2.954   2.576  10.931 -1.8802  1.0704 -0.8528
 3970TIP3   OH236104   2.652   0.311   8.604  0.5432 -0.5331 -0.4914
 3970TIP3    H136105   2.688   0.384   8.554 -1.6833 -0.0408 -1.4815
 3970TIP3    H236106   2.626   0.349   8.688  1.7861 -0.7816  0.0237
 3971TIP3   OH236107   4.038   0.775   8.620  0.5984  0.0037  0.4992
 3971TIP3    H136108   3.946   0.781   8.593  1.0491  0.7429 -0.9968
 3971TIP3    H236109   4.039   0.812   8.708 -0.2972  1.5569 -0.0930
 3972TIP3   OH236110   3.705   2.094  12.165 -0.0649 -0.0671 -0.2004
 3972TIP3    H136111   3.798   2.108  12.149 -0.0815  0.9134  0.5037
 3972TIP3    H236112   3.683   2.018  12.111  1.1834 -0.4447 -0.2145
 3973TIP3   OH236113   2.784   2.457  11.797  0.0582  0.2308 -0.0800
 3973TIP3    H136114   2.865   2.426  11.837 -0.2211 -0.2389  0.1290
 3973TIP3    H236115   2.795   2.552  11.791  0.6082  0.1729 -0.0246
 3974TIP3   OH236116   1.225   4.133  11.846 -0.1656 -0.1427  0.0444
 3974TIP3    H136117   1.171   4.093  11.778  0.0085  0.8539 -0.7001
 3974TIP3    H236118   1.216   4.227  11.832  1.3236  0.0569  0.2581
 3975TIP3   OH236119   0.712   6.509   8.913  0.3826  0.0933  0.4633
 3975TIP3    H136120   0.648   6.532   8.846 -0.9879 -0.2466  1.6021
 3975TIP3    H236121   0.797   6.521   8.871 -0.4064  1.2441 -0.8714
 3976TIP3   OH236122   4.439   2.298   9.543  0.0289  0.5552  0.5853
 3976TIP3    H136123   4.444   2.213   9.586  0.5110 -1.0325 -2.3067
 3976TIP3    H236124   4.364   2.290   9.484  2.2009  0.6302 -2.4249
 3977TIP3   OH236125   0.317   5.298  11.237  0.4024  0.3809 -0.9470
 3977TIP3    H136126   0.297   5.205  11.235 -0.0862  0.4634 -0.3632
 3977TIP3    H236127   0.265   5.332  11.310 -1.0478  1.4799 -2.4185
 3978TIP3   OH236128   0.714   5.349  11.076  0.7611 -0.4169 -0.1688
 3978TIP3    H136129   0.767   5.425  11.051  1.0890 -0.0280  1.5370
 3978TIP3    H236130   0.758   5.274  11.035  0.6017  0.2509 -1.6342
 3979TIP3   OH236131   3.090   2.815  10.493 -0.2390 -0.0048  0.0741
 3979TIP3    H136132   3.134   2.896  10.467  0.7425 -0.7885 -0.8076
 3979TIP3    H236133   3.060   2.777  10.411  1.3918 -1.6732  0.1753
 3980TIP3   OH236134   5.370   2.038  10.804 -0.4127  0.1697  0.4175
 3980TIP3    H136135   5.333   2.084  10.729  0.1055  0.7526  0.5021
 3980TIP3    H236136   5.434   1.978  10.767 -0.5716  0.0412  0.3532
 3981TIP3   OH236137   3.073   3.073   9.608  0.3152 -0.4871 -0.5804
 3981TIP3    H136138   3.066   3.167   9.595  5.0538  0.2211  0.3023
 3981TIP3    H236139   3.120   3.041   9.531  1.6144 -1.5200  0.5910
 3982TIP3   OH236140   2.202   4.448  10.403  0.2477 -0.5946  0.3237
 3982TIP3    H136141   2.214   4.509  10.331  0.5361 -0.7628  0.2282
 3982TIP3    H236142   2.283   4.453  10.453 -0.0102 -0.3696  0.7211
 3983TIP3   OH236143   5.758   6.116  10.666 -0.0839  0.3041 -0.3991
 3983TIP3    H136144   5.756   6.030  10.622 -0.8206  0.4041 -0.5798
 3983TIP3    H236145   5.667   6.146  10.663 -0.3362 -0.0630  1.9665
 3984TIP3   OH236146   5.075   2.966  11.936  0.3247  0.1995  0.0871
 3984TIP3    H136147   5.085   2.881  11.894 -1.3948 -0.1246  0.2465
 3984TIP3    H236148   5.034   2.946  12.020  0.0951  1.1663  0.2177
 3985TIP3   OH236149   0.423   4.860  10.641 -0.9046  0.1151 -0.6274
 3985TIP3    H136150   0.367   4.873  10.718 -0.1527 -2.2159  0.4166
 3985TIP3    H236151   0.509   4.891  10.669 -1.0208  0.9992 -1.2153
 3986TIP3   OH236152   4.166   1.106   8.943 -0.5637 -0.0377  0.8079
 3986TIP3    H136153   4.218   1.078   9.018  0.6462 -1.3507 -0.4456
 3986TIP3    H236154   4.103   1.035   8.929 -0.1080 -0.3005 -0.0027
 3987TIP3   OH236155   0.949   5.089  10.879 -0.2711  0.3409  0.5758
 3987TIP3    H136156   0.989   5.020  10.826 -0.4712  2.4489 -2.5951
 3987TIP3    H236157   1.023   5.129  10.926  0.0919 -0.8629  1.0671
 3988TIP3   OH236158   3.044   2.882  12.096  0.4063 -0.1517  0.1403
 3988TIP3    H136159   2.987   2.956  12.072  0.4854  0.3195  1.3112
 3988TIP3    H236160   3.103   2.872  12.021  0.1144  0.7028 -0.2218
 3989TIP3   OH236161   4.451   2.010   9.594  0.2144  0.3169 -0.3893
 3989TIP3    H136162   4.480   1.976   9.679 -0.6690 -0.2674 -0.3109
 3989TIP3    H236163   4.456   1.934   9.536  0.5777  0.6563 -0.8111
 3990TIP3   OH236164   1.731   1.145   9.622  0.0463  0.5208  0.2128
 3990TIP3    H136165   1.692   1.080   9.681 -0.3608  0.7175  0.1654
 3990TIP3    H236166   1.773   1.094   9.553 -1.3040  0.3231 -0.4839
 3991TIP3   OH236167   4.707   6.455  11.646  0.2777 -0.4311  0.2259
 3991TIP3    H136168   4.782   6.457  11.706 -0.1673 -1.0739  0.8116
 3991TIP3    H236169   4.632   6.435  11.702 -0.5711  1.5457 -0.1185
 3992TIP3   OH236170   0.869   4.526  10.964  0.1094  0.6666 -0.1178
 3992TIP3    H136171   0.938   4.498  11.024 -1.2371  0.1179  1.2617
 3992TIP3    H236172   0.856   4.619  10.985  0.1207  0.6519 -0.0452
 3993TIP3   OH236173   3.702   3.172   9.400 -0.7603 -0.0666  0.3103
 3993TIP3    H136174   3.720   3.228   9.325 -1.9095  1.5924  1.2223
 3993TIP3    H236175   3.780   3.117   9.407 -0.5264 -0.1260 -1.9340
 3994TIP3   OH236176   6.276   4.796  10.090  0.2217 -0.2413 -0.1306
 3994TIP3    H136177   6.293   4.873  10.144 -0.3047  0.2468 -0.6487
 3994TIP3    H236178   6.254   4.727  10.153 -0.0709  0.2337  0.2913
 3995TIP3   OH236179   3.090   2.703   9.069 -0.1386  0.0894 -0.3359
 3995TIP3    H136180   3.158   2.717   9.136 -0.6348 -0.3443  0.2633
 3995TIP3    H236181   3.123   2.750   8.992  1.0394 -0.4500 -0.1813
 3996TIP3   OH236182   1.023   2.966   9.098 -0.5439  0.5110 -0.3384
 3996TIP3    H136183   0.965   2.989   9.170  0.3060  2.0308 -0.1055
 3996TIP3    H236184   1.021   3.042   9.040 -0.3558 -0.2413 -1.3603
 3997TIP3   OH236185   1.827   0.747  10.772  0.1979 -0.3742  0.0191
 3997TIP3    H136186   1.855   0.758  10.681  0.8883 -0.0978  0.2588
 3997TIP3    H236187   1.736   0.779  10.773  0.4052  0.2582 -0.4388
 3998TIP3   OH236188   3.072   1.001  10.436  0.0267 -0.2223  0.0624
 3998TIP3    H136189   3.099   1.070  10.376  0.4657 -0.0775  0.4301
 3998TIP3    H236190   2.999   0.958  10.390  1.3226 -1.0974 -1.2629
 3999TIP3   OH236191   4.102   4.401  10.806 -0.1699 -0.0844  0.0389
 3999TIP3    H136192   4.134   4.479  10.851  0.5257  0.6575 -1.6860
 3999TIP3    H236193   4.047   4.434  10.735  0.9500 -1.0910 -1.3438
 4000TIP3   OH236194   2.614   6.522  11.472  0.1198  0.3990  0.8948
 4000TIP3    H136195   2.558   6.595  11.445 -0.1497  0.3155  1.2225
 4000TIP3    H236196   2.610   6.522  11.568 -0.4604 -0.4874  0.8837
 4001TIP3   OH236197   0.119   5.962   9.001  0.3833  0.2061  0.3938
 4001TIP3    H136198   0.119   5.875   8.961  1.2517  0.4879 -0.2297
 4001TIP3    H236199   0.204   5.970   9.043  0.1874  0.6401  0.7208
 4002TIP3   OH236200   1.665   1.394   9.538 -0.0835 -0.2237  0.0358
 4002TIP3    H136201   1.659   1.306   9.576 -1.5481  0.2329  0.9512
 4002TIP3    H236202   1.653   1.453   9.612  1.0408  0.7711 -0.5446
 4003TIP3   OH236203   4.658   1.361  10.777 -0.0908 -0.1490  0.3100
 4003TIP3    H136204   4.581   1.323  10.819  1.0837 -1.0303  1.7282
 4003TIP3    H236205   4.650   1.337  10.685  0.5685 -3.9159  1.0990
 4004TIP3   OH236206   5.482   3.375  11.395 -0.1229 -0.1961  0.3021
 4004TIP3    H136207   5.432   3.326  11.330  1.0335  0.2696 -0.9888
 4004TIP3    H236208   5.567   3.389  11.354  0.7437 -0.1272  2.0479
 4005TIP3   OH236209   4.932   6.230   8.694  0.4098  0.4382  0.3045
 4005TIP3    H136210   4.969   6.147   8.666  0.5667  0.5439  0.1927
 4005TIP3    H236211   4.876   6.258   8.621 -1.8094 -0.8612  1.4026
 4006TIP3   OH236212   5.123   3.676  12.377  0.0311  0.0250 -0.6150
 4006TIP3    H136213   5.170   3.759  12.362 -1.3846  0.9400 -0.1464
 4006TIP3    H236214   5.033   3.702  12.393  0.1045 -1.3111  2.9036
 4007TIP3   OH236215   6.353   1.337  11.434 -0.0907 -0.1285  0.5535
 4007TIP3    H136216   6.331   1.417  11.483  0.8239 -0.2383  1.1902
 4007TIP3    H236217   6.448   1.329  11.445 -0.0938 -0.9944  0.0137
 4008TIP3   OH236218   5.465   2.236  11.173 -0.2655 -0.4257  0.2362
 4008TIP3    H136219   5.503   2.259  11.089 -0.7990  1.0238  0.3681
 4008TIP3    H236220   5.535   2.190  11.220  0.9294  1.0914  0.0061
 4009TIP3   OH236221   2.203   3.134   9.844 -0.0493  0.0628  0.4205
 4009TIP3    H136222   2.123   3.186   9.834  0.5624  0.9789  0.1804
 4009TIP3    H236223   2.188   3.082   9.923 -0.3540  1.2379  1.1636
 4010TIP3   OH236224   4.952   5.750  11.324 -0.4139 -0.0424  0.5741
 4010TIP3    H136225   4.994   5.813  11.265 -2.7855  1.5506  0.4847
 4010TIP3    H236226   5.000   5.759  11.406 -0.2919  1.4451  0.3726
 4011TIP3   OH236227   2.496   2.586  11.458 -0.4489 -0.1510 -0.3542
 4011TIP3    H136228   2.442   2.575  11.380  0.0370 -2.7965 -0.3914
 4011TIP3    H236229   2.585   2.602  11.424 -0.3146 -0.8716 -0.3486
 4012TIP3   OH236230   3.960   3.784  10.739  0.2430 -0.1378 -0.0141
 4012TIP3    H136231   3.897   3.853  10.762 -0.1168 -0.9091  1.4253
 4012TIP3    H236232   3.927   3.706  10.783  0.4758 -1.3366 -1.8659
 4013TIP3   OH236233   3.167   3.059  10.379 -0.0011 -0.5916 -0.5684
 4013TIP3    H136234   3.261   3.078  10.373  0.1032 -0.3242  1.2181
 4013TIP3    H236235   3.146   3.015  10.297  1.6857 -0.6544 -1.0093
 4014TIP3   OH236236   3.584   4.728  11.396 -0.0222  0.3135 -0.3341
 4014TIP3    H136237   3.533   4.665  11.345  0.1927 -0.7858  0.7680
 4014TIP3    H236238   3.661   4.679  11.426  1.3003  1.7057 -1.2559
 4015TIP3   OH236239   3.843   6.462   8.664 -0.8488  0.8385  0.1037
 4015TIP3    H136240   3.771   6.418   8.708 -2.8538  2.4494 -1.3599
 4015TIP3    H236241   3.816   6.467   8.572  0.7980  2.1262 -0.3629
 4016TIP3   OH236242   1.748   4.376  11.069 -0.0790 -0.2471  0.4415
 4016TIP3    H136243   1.824   4.401  11.017 -0.8000  0.4167 -0.3412
 4016TIP3    H236244   1.760   4.283  11.087  0.3554 -0.4206 -0.6578
 4017TIP3   OH236245   4.567   5.337  12.219 -0.3335 -0.1961  0.5735
 4017TIP3    H136246   4.661   5.342  12.202 -0.5992  0.7402 -0.7513
 4017TIP3    H236247   4.551   5.246  12.242  0.5921 -0.8471 -1.1982
 4018TIP3   OH236248   6.077   2.797  10.531  0.2957 -0.4045 -0.1912
 4018TIP3    H136249   6.111   2.782  10.620  0.7642  0.2666 -0.2537
 4018TIP3    H236250   6.085   2.891  10.518 -1.1611 -0.2926 -0.3970
 4019TIP3   OH236251   3.656   0.818  11.428 -0.3647 -0.1960  0.4312
 4019TIP3    H136252   3.709   0.848  11.354  1.7590 -0.7992  1.6229
 4019TIP3    H236253   3.603   0.746  11.392  0.0974 -0.0131 -0.6591
 4020TIP3   OH236254   4.022   0.169  11.306 -0.1011  0.0243  0.6640
 4020TIP3    H136255   4.068   0.111  11.245 -1.7889  0.7122 -1.3967
 4020TIP3    H236256   4.003   0.113  11.382  1.8778 -0.9276  0.5299
 4021TIP3   OH236257   6.267   5.472  10.016 -0.1683 -0.1009 -0.1308
 4021TIP3    H136258   6.234   5.442  10.100 -2.5064 -0.0152 -0.9555
 4021TIP3    H236259   6.251   5.567  10.016  2.2373  0.3707  0.3182
 4022TIP3   OH236260   6.691   4.973  10.079  0.7245  0.2026 -0.6070
 4022TIP3    H136261   6.664   5.014  10.161 -0.2123 -2.2914  0.4255
 4022TIP3    H236262   6.628   5.004  10.015 -0.6633 -0.4598  0.3887
 4023TIP3   OH236263   4.525   5.617  11.048 -0.3963 -0.0528 -0.0231
 4023TIP3    H136264   4.620   5.614  11.059 -0.3751 -0.5630 -0.3422
 4023TIP3    H236265   4.501   5.530  11.016 -0.9591  0.1046 -0.0419
 4024TIP3   OH236266   3.216   0.154  11.192 -0.2065  0.0064 -0.4812
 4024TIP3    H136267   3.234   0.240  11.155 -0.8412  0.2072 -0.3258
 4024TIP3    H236268   3.295   0.103  11.172  1.2815  1.3150  1.5601
 4025TIP3   OH236269   2.934   1.630  10.976 -0.2697 -0.0817 -0.1627
 4025TIP3    H136270   2.947   1.584  10.893 -0.5123 -1.3105  0.4671
 4025TIP3    H236271   2.892   1.713  10.951 -2.8011 -1.5487 -1.0841
 4026TIP3   OH236272   3.258   3.878   9.588 -0.7274  0.8590  0.4119
 4026TIP3    H136273   3.278   3.933   9.512 -0.7744  2.1016  1.2699
 4026TIP3    H236274   3.275   3.934   9.664 -1.3426 -0.1239  1.3082
 4027TIP3   OH236275   0.061   4.722  10.732  0.0418 -0.1520  0.4161
 4027TIP3    H136276   0.079   4.712  10.825  0.9506 -1.0936  0.1639
 4027TIP3    H236277   0.145   4.703  10.690 -0.2769  0.5600 -0.5796
 4028TIP3   OH236278   2.230   6.462  10.899  0.0508  0.4561  0.3258
 4028TIP3    H136279   2.176   6.536  10.871 -0.8370  0.5467  2.1538
 4028TIP3    H236280   2.195   6.387  10.851 -0.9383  0.7218  0.6096
 4029TIP3   OH236281   2.589   6.202  12.209  0.0537 -0.1509 -0.4972
 4029TIP3    H136282   2.680   6.185  12.232 -0.4212  0.3272  1.9847
 4029TIP3    H236283   2.584   6.296  12.197 -0.0977 -0.1855 -0.7156
 4030TIP3   OH236284   2.067   1.571   9.164  0.5753 -0.3565 -0.2368
 4030TIP3    H136285   2.111   1.545   9.245 -0.4830 -1.5185 -0.0032
 4030TIP3    H236286   1.974   1.557   9.182  0.3334 -0.7622 -1.7004
 4031TIP3   OH236287   0.425   4.769  11.318  0.6465  0.1965  0.1577
 4031TIP3    H136288   0.511   4.742  11.349  0.6169  0.4034  0.4262
 4031TIP3    H236289   0.376   4.688  11.308  1.2326 -0.0239 -1.1037
 4032TIP3   OH236290   4.690   3.375  11.954  0.5310  0.2850  0.5276
 4032TIP3    H136291   4.675   3.338  12.041  2.6105  0.2429  0.9202
 4032TIP3    H236292   4.727   3.303  11.904 -2.1238 -0.1813 -0.9690
 4033TIP3   OH236293   1.449   2.256  11.371 -0.1167 -0.5422  0.3236
 4033TIP3    H136294   1.413   2.341  11.396 -0.9062 -1.0594  1.0074
 4033TIP3    H236295   1.532   2.276  11.329 -0.4740  0.5892  0.1307
 4034TIP3   OH236296   2.870   3.440  11.231  0.1064 -0.5600 -0.0823
 4034TIP3    H136297   2.949   3.395  11.260 -0.3458 -0.3366  1.6443
 4034TIP3    H236298   2.808   3.428  11.303 -0.5153  1.5479 -0.1836
 4035TIP3   OH236299   4.986   3.745  10.923 -0.2505  0.4055  0.0490
 4035TIP3    H136300   5.016   3.796  10.998 -2.4846 -0.3396  1.5776
 4035TIP3    H236301   4.978   3.655  10.957  0.7342 -0.4100 -1.7186
 4036TIP3   OH236302   4.779   1.402  11.511  0.4942 -0.4907 -0.1363
 4036TIP3    H136303   4.693   1.358  11.512  0.4934 -0.4766  0.7856
 4036TIP3    H236304   4.784   1.441  11.424 -1.2745  1.1277  0.4126
 4037TIP3   OH236305   4.537   4.652  10.253  0.3298 -0.1436  0.0871
 4037TIP3    H136306   4.541   4.744  10.278 -0.9833  0.0344 -0.2968
 4037TIP3    H236307   4.538   4.604  10.336  0.3180  0.2388  0.3091
 4038TIP3   OH236308   4.589   6.365  11.395 -0.5870 -0.0193 -0.1283
 4038TIP3    H136309   4.670   6.394  11.437 -0.9535  0.0538  0.5400
 4038TIP3    H236310   4.592   6.269  11.402 -1.1781  0.0367  1.0951
 4039TIP3   OH236311   1.755   5.129   9.419  0.4382 -0.1565 -0.0343
 4039TIP3    H136312   1.668   5.106   9.451  0.5609 -0.9293 -0.2250
 4039TIP3    H236313   1.740   5.188   9.346  0.1286  1.0964  1.0078
 4040TIP3   OH236314   5.764   1.986  10.506  0.2472 -0.3237 -0.4669
 4040TIP3    H136315   5.790   1.900  10.540  0.2523 -0.0560  0.2345
 4040TIP3    H236316   5.805   1.993  10.420 -0.4380 -1.3718 -0.8984
 4041TIP3   OH236317   6.399   2.944  10.746 -0.0381 -0.2420  0.0648
 4041TIP3    H136318   6.431   2.920  10.833 -2.0040  0.7481  1.1445
 4041TIP3    H236319   6.354   3.028  10.760 -1.6990 -0.7907 -1.5781
 4042TIP3   OH236320   2.849   4.752   9.306 -0.2907  0.5387  0.5581
 4042TIP3    H136321   2.778   4.788   9.252 -0.7428  0.1677  0.9018
 4042TIP3    H236322   2.815   4.755   9.395 -0.0270 -0.0165  0.6803
 4043TIP3   OH236323   1.272   1.572   9.464 -0.4876  0.1990  0.0097
 4043TIP3    H136324   1.210   1.595   9.533  0.3192 -2.4135  1.7385
 4043TIP3    H236325   1.335   1.515   9.507  0.4251 -1.0500 -2.7877
 4044TIP3   OH236326   0.660   2.450   8.883 -0.0452  0.1164  0.8694
 4044TIP3    H136327   0.663   2.539   8.847  2.3365  0.1733  1.0356
 4044TIP3    H236328   0.676   2.462   8.976 -0.1032 -0.4628  0.9559
 4045TIP3   OH236329   2.269   3.362  11.177  0.1603 -0.3826 -1.0575
 4045TIP3    H136330   2.322   3.414  11.117  1.6866  1.8449  1.9937
 4045TIP3    H236331   2.204   3.423  11.212  0.2378 -1.2115  0.6267
 4046TIP3   OH236332   6.098   3.455  11.149  0.6276 -0.2674  0.1213
 4046TIP3    H136333   6.105   3.540  11.106 -0.1294 -0.9254 -1.3961
 4046TIP3    H236334   6.187   3.437  11.181  0.5323  1.6003  1.5851
 4047TIP3   OH236335   2.317   6.609   8.904 -0.4449  0.5039 -0.1855
 4047TIP3    H136336   2.309   6.691   8.952  2.4861  0.8257 -0.0403
 4047TIP3    H236337   2.343   6.545   8.970 -0.0414  0.1105 -0.7141
 4048TIP3   OH236338   1.316   4.803  11.290 -0.0324 -0.4105  0.1815
 4048TIP3    H136339   1.320   4.884  11.340  0.2986  0.0194 -0.5374
 4048TIP3    H236340   1.233   4.763  11.317 -0.1591  0.1173  0.6008
 4049TIP3   OH236341   5.368   1.522   9.757 -0.0109  0.5295  0.3015
 4049TIP3    H136342   5.378   1.435   9.795  1.2243  0.1576 -0.8307
 4049TIP3    H236343   5.457   1.554   9.743 -0.4092  2.4494  1.6848
 4050TIP3   OH236344   0.829   0.144   9.884 -0.3588  0.1073  0.1292
 4050TIP3    H136345   0.870   0.224   9.853  0.8925 -0.9953 -1.2503
 4050TIP3    H236346   0.886   0.074   9.852 -1.6277 -1.3580  0.9165
 4051TIP3   OH236347   3.276   1.385  10.445  0.2215  0.1360  0.3342
 4051TIP3    H136348   3.363   1.416  10.423  1.0218 -0.6889  2.1648
 4051TIP3    H236349   3.217   1.438  10.390  1.7912  1.2971 -0.3069
 4052TIP3   OH236350   5.978   6.077   9.449  0.1913 -0.2133 -0.2666
 4052TIP3    H136351   6.065   6.036   9.448 -0.4412 -1.6274 -1.1020
 4052TIP3    H236352   5.917   6.003   9.450 -1.0416  0.7185  1.9127
 4053TIP3   OH236353   0.229   1.039   9.397 -0.2532  0.1948  0.6641
 4053TIP3    H136354   0.298   0.974   9.378  1.8509  2.2029  1.0158
 4053TIP3    H236355   0.246   1.066   9.487 -1.0253  1.3318  0.4855
 4054TIP3   OH236356   2.581   1.428  11.622  0.0319 -0.3138  0.4725
 4054TIP3    H136357   2.655   1.485  11.602 -0.3234 -0.4090 -1.3563
 4054TIP3    H236358   2.599   1.347  11.573 -1.1172 -0.4320  0.2046
 4055TIP3   OH236359   5.854   5.812  11.012 -0.1320 -0.5550  0.4817
 4055TIP3    H136360   5.768   5.771  11.022 -0.3493 -0.5225 -0.9748
 4055TIP3    H236361   5.903   5.751  10.957 -0.6939  1.3296 -2.3606
 4056TIP3   OH236362   1.886   6.098  12.052  0.0819  0.3626 -0.1141
 4056TIP3    H136363   1.919   6.017  12.013  2.1195  1.7254 -1.3978
 4056TIP3    H236364   1.928   6.102  12.138  1.3875  0.8850 -0.7572
 4057TIP3   OH236365   0.561   6.091  11.676 -0.1322 -0.3833  0.2048
 4057TIP3    H136366   0.622   6.025  11.707  0.8494  0.7911  0.8175
 4057TIP3    H236367   0.546   6.068  11.584 -0.1980 -1.7190  0.5226
 4058TIP3   OH236368   3.701   5.703  10.314  0.4554 -0.1077 -0.7175
 4058TIP3    H136369   3.716   5.785  10.362 -0.2994  0.2283 -1.0280
 4058TIP3    H236370   3.606   5.701  10.301  0.2217 -1.9241  0.8460
 4059TIP3   OH236371   4.366   5.551  10.577 -0.7334  0.1201  0.3848
 4059TIP3    H136372   4.367   5.643  10.550 -0.5487 -0.2586 -1.0027
 4059TIP3    H236373   4.458   5.526  10.583 -0.7847 -0.2222 -0.1794
 4060TIP3   OH236374   2.145   1.988  10.849  0.2465  0.2068  0.8031
 4060TIP3    H136375   2.130   2.036  10.767 -0.7209  0.2262  0.9781
 4060TIP3    H236376   2.240   1.991  10.861  0.4690 -0.3117 -0.6244
 4061TIP3   OH236377   4.490   4.024  10.549  0.3142  0.1236  0.0091
 4061TIP3    H136378   4.439   4.087  10.600 -0.1401  0.8298 -1.2565
 4061TIP3    H236379   4.574   4.018  10.594 -1.3112 -2.2424  3.0739
 4062TIP3   OH236380   6.014   5.013   9.996 -0.6260  0.1200  0.0592
 4062TIP3    H136381   5.935   4.959   9.992 -0.3709 -0.1961 -1.0877
 4062TIP3    H236382   6.051   5.008   9.908 -0.1237  1.4742  0.1697
 4063TIP3   OH236383   3.548   0.025  10.118  0.0915 -0.2186 -0.1793
 4063TIP3    H136384   3.581  -0.024  10.042  0.8135  1.9805 -1.3848
 4063TIP3    H236385   3.472   0.072  10.084  0.9689  1.5248  0.1508
 4064TIP3   OH236386   0.474   4.719  10.416 -0.4421 -0.1557  0.1448
 4064TIP3    H136387   0.433   4.746  10.499 -0.7956 -0.4078  0.0507
 4064TIP3    H236388   0.545   4.660  10.442  0.1674  0.6313  0.3390
 4065TIP3   OH236389   3.898   5.910  11.587 -0.2120  0.2620  0.0207
 4065TIP3    H136390   3.924   5.911  11.495  0.4173 -0.9604  0.1594
 4065TIP3    H236391   3.880   5.818  11.606 -1.4759  0.6347  0.8280
 4066TIP3   OH236392   5.871   1.726  10.943  0.0190  0.3749 -0.2171
 4066TIP3    H136393   5.816   1.732  10.865 -1.1267 -0.2234  0.5104
 4066TIP3    H236394   5.955   1.763  10.916 -1.0497  2.3633 -1.0684
 4067TIP3   OH236395   3.047   0.749  11.195 -0.5096 -0.4622  0.0612
 4067TIP3    H136396   3.043   0.717  11.285 -2.2568  2.1489  1.0544
 4067TIP3    H236397   2.970   0.712  11.152 -0.0093 -1.2184 -0.2001
 4068TIP3   OH236398   3.962   4.644  12.344  0.5394  0.2225  0.1164
 4068TIP3    H136399   3.998   4.607  12.263  0.0258 -0.3013  0.1144
 4068TIP3    H236400   3.868   4.628  12.337  0.6107 -0.8304  1.3148
 4069TIP3   OH236401   6.172   1.297  11.231  0.0625  0.0896  0.3365
 4069TIP3    H136402   6.227   1.298  11.309 -0.0385 -0.4434  0.4170
 4069TIP3    H236403   6.083   1.285  11.264 -0.0056  0.0777  0.1539
 4070TIP3   OH236404   4.189   5.447  10.182 -0.6675  0.3086  0.0821
 4070TIP3    H136405   4.205   5.352  10.182  1.9527  0.6587  1.5672
 4070TIP3    H236406   4.129   5.461  10.108 -1.3118 -2.5061 -0.0478
 4071TIP3   OH236407   4.322   1.901  12.139  0.6027  0.0767 -0.0356
 4071TIP3    H136408   4.319   1.994  12.162  0.2081  0.3765 -1.2303
 4071TIP3    H236409   4.296   1.856  12.220  1.4327  0.9585  0.7454
 4072TIP3   OH236410   5.656   6.523   9.606  0.2930  0.2167 -0.2192
 4072TIP3    H136411   5.582   6.461   9.605 -0.2100  0.7956  0.2161
 4072TIP3    H236412   5.680   6.533   9.514  1.1464 -1.5159 -0.2189
 4073TIP3   OH236413   2.539   4.612  12.099 -0.7695 -0.4299  0.2936
 4073TIP3    H136414   2.631   4.618  12.125 -0.8258 -0.7012  0.5684
 4073TIP3    H236415   2.501   4.695  12.128 -0.6593 -0.4100  0.3843
 4074TIP3   OH236416   1.280   1.724  12.026  0.3882 -0.0263 -0.0979
 4074TIP3    H136417   1.318   1.797  12.076 -1.8411 -0.0002  1.7249
 4074TIP3    H236418   1.309   1.739  11.936  2.9928  1.0309  0.8025
 4075TIP3   OH236419   6.656   5.813  11.137 -0.0075 -0.4566  0.7105
 4075TIP3    H136420   6.639   5.763  11.057  0.1713 -1.2180  1.1374
 4075TIP3    H236421   6.751   5.819  11.142 -0.0272 -0.0975  0.6813
 4076TIP3   OH236422   3.257   5.244  10.927 -0.2415 -0.0705 -0.6088
 4076TIP3    H136423   3.339   5.272  10.887  0.8152 -1.7259  0.2585
 4076TIP3    H236424   3.226   5.173  10.871 -0.6457  0.0187 -0.5000
 4077TIP3   OH236425   0.188   5.311  11.517 -0.0898 -0.1304 -0.6294
 4077TIP3    H136426   0.141   5.281  11.595  0.1396 -2.2925 -1.2542
 4077TIP3    H236427   0.239   5.386  11.548 -0.6882 -0.3578  1.0626
 4078TIP3   OH236428   4.636   2.599   9.364 -0.0337 -0.1189  0.2361
 4078TIP3    H136429   4.581   2.592   9.286  1.6557 -1.6832 -0.9327
 4078TIP3    H236430   4.677   2.685   9.357 -0.3202 -0.0251 -0.3304
 4079TIP3   OH236431   0.657   5.494  11.628  0.1386  0.3185  1.1985
 4079TIP3    H136432   0.603   5.416  11.640  0.1406 -0.4810 -2.5604
 4079TIP3    H236433   0.595   5.561  11.599  0.7093  0.1137 -0.6693
 4080TIP3   OH236434   3.561   5.363  11.772  0.1692 -0.2942  0.2005
 4080TIP3    H136435   3.572   5.378  11.865 -0.8250 -2.1629  0.6779
 4080TIP3    H236436   3.650   5.352  11.739  0.4587 -1.8944  1.3972
 4081TIP3   OH236437   1.845   6.541  11.047 -0.0321 -0.5034  0.1278
 4081TIP3    H136438   1.796   6.541  10.965  0.1550 -0.0724  0.0108
 4081TIP3    H236439   1.928   6.585  11.026  1.0541 -2.5279 -0.0436
 4082TIP3   OH236440   3.501   3.644   8.863 -0.2370 -0.0604 -0.0303
 4082TIP3    H136441   3.411   3.613   8.875  0.2241 -1.4775 -0.0687
 4082TIP3    H236442   3.554   3.589   8.921  0.7163  0.1349 -0.6893
 4083TIP3   OH236443   4.387   5.543  11.402 -0.0210 -0.0269 -0.3416
 4083TIP3    H136444   4.469   5.502  11.429 -0.5290  0.3154  1.9411
 4083TIP3    H236445   4.413   5.626  11.362  0.8017 -0.8560 -1.6180
 4084TIP3   OH236446   4.256   5.318  10.937 -0.1450 -0.2428 -0.3542
 4084TIP3    H136447   4.247   5.280  11.025 -2.4794  2.2963  0.6377
 4084TIP3    H236448   4.197   5.265  10.883 -2.8590  1.2798  0.8744
 4085TIP3   OH236449   4.364   4.205   9.113  0.5764 -0.0230 -0.5559
 4085TIP3    H136450   4.379   4.162   9.029  0.9396  2.4608 -1.8860
 4085TIP3    H236451   4.443   4.187   9.164  0.9333 -0.4648 -1.2531
 4086TIP3   OH236452   3.599   5.846  11.042 -0.0342 -0.5647  0.0346
 4086TIP3    H136453   3.538   5.907  11.001  0.6720 -0.4759 -0.9220
 4086TIP3    H236454   3.553   5.815  11.120 -1.3449 -0.5839 -0.7101
 4087TIP3   OH236455   4.772   0.500  10.647  0.1682 -0.2458  0.2308
 4087TIP3    H136456   4.692   0.479  10.695 -0.6088 -0.5612 -1.1275
 4087TIP3    H236457   4.759   0.590  10.616 -0.0468 -0.5743 -0.6763
 4088TIP3   OH236458   4.388   5.800  12.296  0.2517 -0.3754 -1.3653
 4088TIP3    H136459   4.442   5.740  12.245  2.2552 -1.8864  2.1701
 4088TIP3    H236460   4.450   5.862  12.333 -0.0932 -2.2903  3.0071
 4089TIP3   OH236461   0.045   4.628  11.914 -0.1018 -0.1170 -0.5842
 4089TIP3    H136462   0.036   4.533  11.921 -0.8302  0.0659  1.7725
 4089TIP3    H236463   0.020   4.661  12.000  0.1948  2.2263 -1.3251
 4090TIP3   OH236464   6.556   2.993  10.456 -0.3608  0.0643  0.1324
 4090TIP3    H136465   6.551   2.921  10.520  0.2720 -0.3774 -0.2961
 4090TIP3    H236466   6.648   3.021  10.459  0.4463 -1.8605 -2.5662
 4091TIP3   OH236467   2.111   0.039   9.974  0.2647 -0.0091 -0.4183
 4091TIP3    H136468   2.054   0.114   9.991  1.4023  0.4799  1.6436
 4091TIP3    H236469   2.140   0.050   9.884  0.1137  1.8590 -0.2753
 4092TIP3   OH236470   5.309   3.008  10.055 -0.3448 -0.0788 -0.0268
 4092TIP3    H136471   5.314   3.066  10.131 -0.3847  1.1907 -0.9720
 4092TIP3    H236472   5.273   2.927  10.090 -2.4637  1.1925  0.9595
 4093TIP3   OH236473   6.310   2.925   9.540 -1.2017  0.5724  0.0261
 4093TIP3    H136474   6.283   2.854   9.483 -0.5237 -0.7810  1.3301
 4093TIP3    H236475   6.249   2.922   9.613  1.1839 -1.3647  2.1030
 4094TIP3   OH236476   0.272   6.362  12.067 -0.0295 -0.2304  0.2069
 4094TIP3    H136477   0.204   6.429  12.076 -1.3859 -1.6447  0.9787
 4094TIP3    H236478   0.339   6.403  12.013 -1.2127  1.4337 -0.0730
 4095TIP3   OH236479   1.161   1.275  11.839 -0.0831  0.3417 -0.3067
 4095TIP3    H136480   1.127   1.342  11.780  0.4066  0.2014 -0.7519
 4095TIP3    H236481   1.137   1.306  11.926  1.0353  1.6062 -0.4238
 4096TIP3   OH236482   6.430   4.484   9.003 -0.2102 -0.3809  0.4208
 4096TIP3    H136483   6.468   4.397   8.992  0.4098 -0.1062  0.3234
 4096TIP3    H236484   6.491   4.543   8.958 -1.5393 -0.0830 -1.0714
 4097TIP3   OH236485   1.493   0.672  10.577 -0.0529  0.0094  0.2554
 4097TIP3    H136486   1.494   0.580  10.549 -0.0357  0.6909 -2.1628
 4097TIP3    H236487   1.417   0.709  10.533 -1.8609  0.5557  3.5345
 4098TIP3   OH236488   6.608   0.062  11.470  0.5540  0.4815  0.1781
 4098TIP3    H136489   6.663   0.004  11.524  2.5139  2.6974  0.7174
 4098TIP3    H236490   6.649   0.060  11.383 -0.2243  0.0175 -0.1953
 4099TIP3   OH236491   6.047   3.239  10.999  0.3949 -0.0682 -0.1493
 4099TIP3    H136492   5.954   3.215  11.009  0.5834 -1.9419 -2.2230
 4099TIP3    H236493   6.062   3.303  11.070 -2.6919  1.0515 -0.3084
 4100TIP3   OH236494   4.103   5.760  12.163 -0.4417 -0.2131  0.2601
 4100TIP3    H136495   4.062   5.688  12.211 -0.7036 -0.2404 -0.0039
 4100TIP3    H236496   4.178   5.785  12.217 -0.9601  0.0195  0.8823
 4101TIP3   OH236497   4.142   2.223  12.166  0.2401 -0.1144 -0.4016
 4101TIP3    H136498   4.142   2.260  12.078 -0.6045  0.0507 -0.3485
 4101TIP3    H236499   4.096   2.139  12.157  0.9304 -0.5115 -0.2754
 4102TIP3   OH236500   3.308   0.052  10.814  0.0996  0.1961 -0.2031
 4102TIP3    H136501   3.387   0.075  10.862 -0.4427 -0.4071  1.0122
 4102TIP3    H236502   3.307  -0.044  10.814 -0.8866  0.2006  0.2338
 4103TIP3   OH236503   5.039   5.187  10.523  0.1808 -0.2383 -0.5168
 4103TIP3    H136504   4.995   5.143  10.450  0.3523  0.9867 -1.3880
 4103TIP3    H236505   5.132   5.186  10.500 -0.0325  2.9911 -1.9878
 4104TIP3   OH236506   2.541   3.501   9.118  0.0501  0.2429 -0.0411
 4104TIP3    H136507   2.481   3.573   9.138 -1.4927 -0.9621 -0.2245
 4104TIP3    H236508   2.608   3.507   9.186 -2.4920 -0.8588  2.7813
 4105TIP3   OH236509   5.063   6.619  10.119  0.0600 -0.2593 -0.2601
 4105TIP3    H136510   5.039   6.571  10.198  0.5092 -0.3965 -0.2036
 4105TIP3    H236511   5.157   6.635  10.129 -0.2754  1.7216  0.3389
 4106TIP3   OH236512   1.577   3.510  11.615 -0.0642 -0.4409 -0.1942
 4106TIP3    H136513   1.647   3.499  11.551  1.3977 -3.6772  1.7346
 4106TIP3    H236514   1.621   3.540  11.694 -0.8721 -2.0992  0.9387
 4107TIP3   OH236515   1.080   1.836  10.103 -0.1503 -0.1925 -0.4814
 4107TIP3    H136516   1.102   1.900  10.170 -0.4718 -0.6785  0.0912
 4107TIP3    H236517   1.145   1.767  10.113 -1.6821 -1.4967  1.0331
 4108TIP3   OH236518   0.638   6.488   9.704 -0.3637 -0.4615 -0.2768
 4108TIP3    H136519   0.611   6.536   9.783  0.2381 -0.5790  0.0066
 4108TIP3    H236520   0.612   6.544   9.631  0.4637  0.3637  0.0547
 4109TIP3   OH236521   1.144   5.141  10.652 -0.0918 -0.4733  0.2699
 4109TIP3    H136522   1.120   5.049  10.642 -1.2520 -0.0502 -1.1628
 4109TIP3    H236523   1.090   5.187  10.588  0.6400  1.1872  0.7942
 4110TIP3   OH236524   5.682   6.327  11.395 -0.2493 -0.4509 -0.1807
 4110TIP3    H136525   5.667   6.236  11.370  0.2916 -0.7371  0.4894
 4110TIP3    H236526   5.767   6.349  11.356  0.3692 -0.7495  0.9399
 4111TIP3   OH236527   0.175   2.021   8.872  0.5704 -0.4519  0.2042
 4111TIP3    H136528   0.226   1.942   8.851  0.1196 -0.1582 -2.4127
 4111TIP3    H236529   0.205   2.085   8.808 -1.7938  0.2884 -0.2341
 4112TIP3   OH236530   3.878   6.455  10.431 -0.0195  0.2091 -0.0846
 4112TIP3    H136531   3.879   6.457  10.336  0.6532  0.6791 -0.0721
 4112TIP3    H236532   3.922   6.373  10.455  0.7874  0.6150 -0.1647
 4113TIP3   OH236533   0.566   0.773  12.009 -0.2704 -0.2057 -0.4724
 4113TIP3    H136534   0.524   0.690  11.986  0.7941 -0.6686 -0.8190
 4113TIP3    H236535   0.629   0.788  11.938  1.0089 -0.1593  0.6357
 4114TIP3   OH236536   5.250   0.620  10.138  0.2490  0.2442  0.6250
 4114TIP3    H136537   5.340   0.639  10.114 -0.1676  0.5821 -0.7626
 4114TIP3    H236538   5.257   0.550  10.203  1.5126  0.4867  0.7770
 4115TIP3   OH236539   2.285   3.569  10.583 -0.2325 -0.2322  0.3815
 4115TIP3    H136540   2.279   3.652  10.537  0.5519  0.5044  1.5600
 4115TIP3    H236541   2.372   3.570  10.624  0.6165 -2.4646 -1.1151
 4116TIP3   OH236542   2.927   1.813   9.836  0.3276  0.4071 -0.1092
 4116TIP3    H136543   2.986   1.797   9.910 -0.6867  0.9118  0.8297
 4116TIP3    H236544   2.883   1.729   9.822 -0.4904  0.6792  0.7781
 4117TIP3   OH236545   6.643   2.106   9.404 -0.1272  0.0672 -0.2717
 4117TIP3    H136546   6.726   2.126   9.449 -0.4925 -1.1848  1.0477
 4117TIP3    H236547   6.576   2.127   9.469 -0.6798 -1.6926 -0.2165
 4118TIP3   OH236548   1.751   6.432  11.415  0.2049 -0.0302  0.6821
 4118TIP3    H136549   1.807   6.489  11.362  2.3493 -0.0680  2.7503
 4118TIP3    H236550   1.809   6.361  11.442 -0.9034 -0.2197  2.7193
 4119TIP3   OH236551   0.081   6.563  12.073 -0.0752  0.1031  0.4484
 4119TIP3    H136552   0.028   6.567  12.152 -3.8552  2.8339 -1.8485
 4119TIP3    H236553   0.082   6.653  12.041  2.8071 -0.5634 -1.7682
 4120TIP3   OH236554   2.990   2.163  10.890 -0.1615  0.0992  0.3046
 4120TIP3    H136555   3.040   2.191  10.813  0.3141  0.8264  0.8640
 4120TIP3    H236556   3.054   2.163  10.961 -0.4276 -1.3209  0.5553
 4121TIP3   OH236557   5.578   3.181  11.595 -0.3345  0.9369 -0.6903
 4121TIP3    H136558   5.548   3.271  11.587 -0.7687  0.7136 -1.6896
 4121TIP3    H236559   5.517   3.130  11.542 -0.9681 -0.1526  0.9925
 4122TIP3   OH236560   0.539   1.845  10.323  0.6032  0.0006  0.2313
 4122TIP3    H136561   0.551   1.877  10.233  0.6934  0.2937  0.3456
 4122TIP3    H236562   0.625   1.853  10.363  0.5599 -0.1183  0.3471
 4123TIP3   OH236563   3.343   0.130   9.261  0.4295  0.0819  0.3186
 4123TIP3    H136564   3.392   0.204   9.296  0.8641  0.7062 -1.4587
 4123TIP3    H236565   3.264   0.170   9.224  0.3251 -0.4321 -0.0157
 4124TIP3   OH236566   2.850   3.666  10.733 -0.2531 -0.1116  0.1635
 4124TIP3    H136567   2.910   3.651  10.806 -1.0161 -0.2617  0.7806
 4124TIP3    H236568   2.772   3.616  10.757 -0.6859  0.2220 -0.5382
 4125TIP3   OH236569   0.710   0.623  11.100  0.0591 -0.0671  0.2355
 4125TIP3    H136570   0.739   0.594  11.186  0.0139  0.5621  0.4709
 4125TIP3    H236571   0.721   0.718  11.102 -1.8937  0.2001  0.2961
 4126TIP3   OH236572   2.367   0.449   9.901 -0.4264  1.2685  0.6332
 4126TIP3    H136573   2.279   0.420   9.924  0.1195  0.2805  1.5565
 4126TIP3    H236574   2.422   0.419   9.973  1.2319 -1.2415 -1.5038
 4127TIP3   OH236575   1.201   2.549   9.247  0.0309  0.2361 -0.1249
 4127TIP3    H136576   1.273   2.576   9.190  0.3928 -0.6870 -0.1219
 4127TIP3    H236577   1.220   2.593   9.330  0.4122  0.2668 -0.2226
 4128TIP3   OH236578   5.571   5.313   9.875 -0.3718 -0.3578 -0.2532
 4128TIP3    H136579   5.560   5.240   9.814 -0.9280  0.6959 -1.4409
 4128TIP3    H236580   5.662   5.340   9.862  0.3179 -1.7291  1.2647
 4129TIP3   OH236581   0.903   3.708  11.581 -0.4354  0.2822 -0.2452
 4129TIP3    H136582   0.808   3.715  11.579 -0.3243  2.0766 -0.5527
 4129TIP3    H236583   0.934   3.776  11.521  1.0812  1.4011  1.6747
 4130TIP3   OH236584   4.600   4.513  10.486 -0.6186 -0.0720 -0.2069
 4130TIP3    H136585   4.665   4.566  10.534 -0.1122 -0.9645  0.1235
 4130TIP3    H236586   4.525   4.508  10.545  0.0125 -1.1848  0.5261
 4131TIP3   OH236587   2.067   6.247  10.813  0.3863  0.1991 -0.5174
 4131TIP3    H136588   1.975   6.240  10.788  0.5121 -2.2241 -0.5334
 4131TIP3    H236589   2.086   6.165  10.858  2.3483  0.9791  0.1741
 4132TIP3   OH236590   1.741   3.056  12.090  0.1661  0.1945  0.0282
 4132TIP3    H136591   1.696   3.039  12.007 -0.0480  0.4092  0.0969
 4132TIP3    H236592   1.823   3.097  12.065 -0.2430  0.9884 -0.0523
 4133TIP3   OH236593   4.349   1.319  11.887 -0.2341 -0.2316 -0.2479
 4133TIP3    H136594   4.345   1.414  11.877  2.1302 -0.0433 -0.1076
 4133TIP3    H236595   4.372   1.287  11.800  1.4915 -0.3852  0.2217
 4134TIP3   OH236596   1.702   0.851  11.230 -0.3296  0.4251  0.5509
 4134TIP3    H136597   1.701   0.903  11.311  0.0510  1.7526 -0.2715
 4134TIP3    H236598   1.609   0.837  11.210 -0.4321  0.4993  0.9583
 4135TIP3   OH236599   6.384   3.500  11.233 -0.0256  0.3911  0.2432
 4135TIP3    H136600   6.343   3.456  11.306  0.4872 -0.7940 -0.1628
 4135TIP3    H236601   6.465   3.451  11.217 -0.2373  0.4782 -1.2568
 4136TIP3   OH236602   4.780   3.927  10.135 -0.6876  0.4063 -0.3715
 4136TIP3    H136603   4.728   3.849  10.121  0.8870 -1.0339  1.3687
 4136TIP3    H236604   4.861   3.912  10.085 -0.0249  0.5170  0.6294
 4137TIP3   OH236605   5.012   0.604   8.905  0.1120  0.2190  0.1890
 4137TIP3    H136606   5.083   0.619   8.843  1.2760 -1.2744  1.0924
 4137TIP3    H236607   5.052   0.553   8.975 -1.4098  0.9900  1.6887
 4138TIP3   OH236608   0.568   2.401   9.656  0.0332  0.3054 -0.0205
 4138TIP3    H136609   0.610   2.417   9.740  1.3016 -1.3273 -0.3073
 4138TIP3    H236610   0.579   2.307   9.640  1.7833  0.8674 -3.0141
 4139TIP3   OH236611   1.920   5.077   9.750  0.2559  0.3010 -0.5909
 4139TIP3    H136612   1.856   5.103   9.817  1.1613  0.6743  0.1509
 4139TIP3    H236613   1.893   5.123   9.671 -0.1014  0.8601 -0.1505
 4140TIP3   OH236614   4.598   0.944   8.803 -0.2351 -0.0019 -0.2878
 4140TIP3    H136615   4.619   1.030   8.767  0.2166  0.3140  0.6967
 4140TIP3    H236616   4.574   0.891   8.726  1.2756  0.4697 -1.1156
 4141TIP3   OH236617   6.368   4.255  10.810  0.7019  0.2409  0.1780
 4141TIP3    H136618   6.409   4.314  10.873  1.3264 -0.0797  0.0740
 4141TIP3    H236619   6.382   4.168  10.846 -0.7123  0.1675  0.6204
 4142TIP3   OH236620   4.017   4.324   9.631  0.2586 -0.1455 -0.5031
 4142TIP3    H136621   3.994   4.376   9.708 -0.8901 -0.5437 -0.5625
 4142TIP3    H236622   4.060   4.386   9.572 -0.5168  0.5929 -0.3066
 4143TIP3   OH236623   4.432   2.382  11.489 -0.6309  0.0642  0.0113
 4143TIP3    H136624   4.440   2.477  11.481 -0.1483 -0.0522 -1.0397
 4143TIP3    H236625   4.370   2.369  11.561 -0.8308  1.1744  0.0532
 4144TIP3   OH236626   0.911   1.121  11.600 -0.3314  0.5028 -0.5392
 4144TIP3    H136627   1.003   1.115  11.625 -0.3962  2.5307  0.3329
 4144TIP3    H236628   0.909   1.189  11.533 -1.0554 -0.3795 -1.4403
 4145TIP3   OH236629   0.901   3.020  10.401  0.8709 -0.2880  0.2189
 4145TIP3    H136630   0.903   3.044  10.308  1.9665  1.0138  0.5413
 4145TIP3    H236631   0.910   2.925  10.402  1.3829 -0.2668 -1.0106
 4146TIP3   OH236632   2.534   3.507  11.358 -0.5219 -0.3044 -0.0307
 4146TIP3    H136633   2.536   3.415  11.385 -0.7389 -0.0456  0.9349
 4146TIP3    H236634   2.516   3.505  11.265  0.1487 -1.2664 -0.1562
 4147TIP3   OH236635   5.902   2.057   9.892 -0.4412  0.0389  0.1218
 4147TIP3    H136636   5.947   2.068   9.809  2.5332  1.3687  1.7343
 4147TIP3    H236637   5.840   2.130   9.895  1.0006  1.3360 -0.0831
 4148TIP3   OH236638   4.621   5.047  11.057  0.0718  0.3531 -0.0799
 4148TIP3    H136639   4.650   5.098  10.981 -0.0120 -2.0100 -1.7986
 4148TIP3    H236640   4.701   5.008  11.092 -0.2501 -1.3187 -1.1171
 4149TIP3   OH236641   2.543   5.538   9.259  0.2862 -0.3156 -0.4893
 4149TIP3    H136642   2.537   5.534   9.164 -0.7990 -0.2162 -0.4303
 4149TIP3    H236643   2.456   5.515   9.290 -0.0762  2.0160  0.4090
 4150TIP3   OH236644   5.782   4.018  11.246 -0.0043 -0.3080  0.1931
 4150TIP3    H136645   5.844   4.047  11.313 -0.3470  0.5807  0.1299
 4150TIP3    H236646   5.835   4.009  11.167  0.1841 -0.2707  0.3137
 4151TIP3   OH236647   2.370   2.267  12.146  0.3954  0.2241  0.7920
 4151TIP3    H136648   2.284   2.248  12.109  0.5010  1.5009 -0.1824
 4151TIP3    H236649   2.397   2.349  12.104  2.1320 -0.1988  1.0050
 4152TIP3   OH236650   2.199   1.472  10.717  0.0837 -0.0679 -0.0779
 4152TIP3    H136651   2.193   1.505  10.806 -0.0271 -1.1366  0.3224
 4152TIP3    H236652   2.199   1.377  10.726  0.1781 -0.1936 -1.2101
 4153TIP3   OH236653   4.917   4.453  11.969 -0.1701 -0.1539 -0.2865
 4153TIP3    H136654   4.981   4.425  11.903 -0.6128 -1.5655 -0.1440
 4153TIP3    H236655   4.843   4.486  11.918  0.3881  0.8686 -0.4572
 4154TIP3   OH236656   1.600   3.168  11.269 -0.1747 -0.0634 -0.4274
 4154TIP3    H136657   1.573   3.078  11.251 -0.3748  0.1242 -1.1145
 4154TIP3    H236658   1.595   3.176  11.364 -0.3248 -0.7269 -0.3746
 4155TIP3   OH236659   1.402   2.489  12.301 -0.6991  0.4709 -0.0578
 4155TIP3    H136660   1.411   2.534  12.384 -2.3450 -0.6727  0.8114
 4155TIP3    H236661   1.334   2.537  12.255  1.7979  2.5307 -1.8493
 4156TIP3   OH236662   2.590   5.466  10.885 -0.5630  0.0076  0.0738
 4156TIP3    H136663   2.537   5.540  10.915 -0.4061  0.7163 -1.3331
 4156TIP3    H236664   2.622   5.492  10.799  0.8914 -1.0078  0.2648
 4157TIP3   OH236665   1.894   2.924  11.023  0.4994 -0.0314  0.0226
 4157TIP3    H136666   1.835   2.999  11.032  0.1704 -0.2510 -0.2341
 4157TIP3    H236667   1.952   2.948  10.950  1.4422  0.6388  0.9738
 4158TIP3   OH236668   3.268   1.907  10.803 -0.4649 -0.2046 -0.1161
 4158TIP3    H136669   3.335   1.922  10.737  0.1622 -0.6774  0.3989
 4158TIP3    H236670   3.302   1.835  10.856 -2.1128 -1.5746 -0.8162
 4159TIP3   OH236671   1.220   6.650  10.283 -0.6380  0.0419 -0.0095
 4159TIP3    H136672   1.251   6.627  10.195  0.0883 -0.8749  0.4707
 4159TIP3    H236673   1.141   6.702  10.267 -0.5128 -0.0927 -1.2009
 4160TIP3   OH236674   1.245   1.073  10.349  0.5409 -0.1400  0.2349
 4160TIP3    H136675   1.306   1.042  10.416  1.9906 -0.5164 -1.2106
 4160TIP3    H236676   1.177   1.005  10.345 -0.0701  0.3231  1.9129
 4161TIP3   OH236677   4.679   4.336  12.100  0.2061  0.0265  0.5476
 4161TIP3    H136678   4.637   4.418  12.125 -0.8826 -0.7046  1.1916
 4161TIP3    H236679   4.772   4.358  12.091 -0.1140  1.3939  0.3649
 4162TIP3   OH236680   4.579   1.216   9.270  0.0983  0.1370  0.2724
 4162TIP3    H136681   4.576   1.198   9.176  1.8337  1.5931 -0.1148
 4162TIP3    H236682   4.507   1.164   9.306 -1.0992  0.1145 -1.9389
 4163TIP3   OH236683   6.167   3.931  11.416  0.2513  0.4696 -0.6755
 4163TIP3    H136684   6.214   4.007  11.379  0.0920  0.3947 -1.0399
 4163TIP3    H236685   6.224   3.899  11.486 -0.0298  1.3872 -0.0103
 4164TIP3   OH236686   4.579   0.455  10.942  0.2000 -0.0609  0.2125
 4164TIP3    H136687   4.648   0.401  10.981  0.7867 -1.2255 -2.2310
 4164TIP3    H236688   4.535   0.396  10.880 -3.2391  0.5484  1.8157
 4165TIP3   OH236689   0.260   0.564  11.910  0.3242  0.3569  0.0644
 4165TIP3    H136690   0.228   0.490  11.858  0.7304 -0.3321  0.7732
 4165TIP3    H236691   0.318   0.524  11.975  0.3653  1.2797  0.6064
 4166TIP3   OH236692   0.435   3.826   9.529 -0.2675 -0.4321 -0.0940
 4166TIP3    H136693   0.521   3.859   9.553  0.0946 -1.6399  0.3009
 4166TIP3    H236694   0.413   3.874   9.449  0.1440  0.8914  0.5560
 4167TIP3   OH236695   5.865   2.512  12.362 -0.0055 -0.6324  0.2051
 4167TIP3    H136696   5.910   2.558  12.291  0.2256  0.8820  1.2946
 4167TIP3    H236697   5.813   2.580  12.406  1.1968 -1.1473  2.5505
 4168TIP3   OH236698   3.052   5.335   8.992  0.7047  0.3182 -0.3705
 4168TIP3    H136699   3.045   5.358   8.899  0.1749  1.8725  0.0103
 4168TIP3    H236700   3.144   5.315   9.006  0.4684 -1.9987 -1.6395
 4169TIP3   OH236701   5.531   1.165  10.999  0.4954  0.0610  0.2714
 4169TIP3    H136702   5.465   1.233  10.982  0.5853  0.0934  0.0411
 4169TIP3    H236703   5.573   1.192  11.081  0.7396  0.4527  0.0239
 4170TIP3   OH236704   4.232   5.684  11.826 -0.1146 -0.1495 -0.2441
 4170TIP3    H136705   4.184   5.607  11.794  0.0798 -0.4469  0.1880
 4170TIP3    H236706   4.276   5.718  11.748 -0.0305 -0.5965 -0.3942
 4171TIP3   OH236707   0.107   6.352  11.737 -0.2224  0.1003 -0.2823
 4171TIP3    H136708   0.148   6.416  11.795 -0.1598  0.2413 -0.4804
 4171TIP3    H236709   0.059   6.294  11.796  0.8578 -0.5130  0.0340
 4172TIP3   OH236710   3.142   2.603  11.239  0.1591  0.2272  0.5537
 4172TIP3    H136711   3.143   2.648  11.324  2.3686 -1.9561  1.8258
 4172TIP3    H236712   3.064   2.636  11.195 -0.4534  2.3027  2.9539
 4173TIP3   OH236713   6.343   5.197  11.469  0.2445  0.2308  0.3718
 4173TIP3    H136714   6.415   5.257  11.448 -1.0544  1.5307 -0.5605
 4173TIP3    H236715   6.305   5.234  11.549 -2.1866  2.3412 -1.5724
 4174TIP3   OH236716   6.107   0.751   9.974 -0.9459  0.0829 -0.1295
 4174TIP3    H136717   6.041   0.769   9.907 -1.7825 -1.0168  0.3597
 4174TIP3    H236718   6.156   0.832   9.982 -1.2430  0.4403 -1.6078
 4175TIP3   OH236719   3.513   5.855  11.854  0.3077 -0.9350 -0.5553
 4175TIP3    H136720   3.498   5.777  11.801  1.2864 -1.1909 -0.4759
 4175TIP3    H236721   3.499   5.827  11.944 -0.0406 -0.8300 -0.5718
 4176TIP3   OH236722   4.932   4.010  11.121 -0.1202  0.2189  0.0938
 4176TIP3    H136723   4.960   3.941  11.181 -2.6086 -0.6741  0.3583
 4176TIP3    H236724   4.841   4.028  11.147 -0.5817  1.2880 -2.0717
 4177TIP3   OH236725   2.780   5.870  12.160  0.3261 -0.9247 -0.1490
 4177TIP3    H136726   2.806   5.892  12.070  1.8031 -1.0707  0.2089
 4177TIP3    H236727   2.855   5.896  12.213 -0.4085 -1.1222  1.0128
 4178TIP3   OH236728   2.717   5.535  11.878 -0.5821  0.4768  0.2825
 4178TIP3    H136729   2.793   5.565  11.829 -1.4360  0.1948 -1.3038
 4178TIP3    H236730   2.703   5.445  11.848 -2.0869  0.8403 -0.2444
 4179TIP3   OH236731   2.104   1.428  10.311  0.4720 -0.0216 -0.3935
 4179TIP3    H136732   2.037   1.496  10.309  1.8086  1.4906  1.7268
 4179TIP3    H236733   2.103   1.395  10.401  3.5744  1.2402  0.2429
 4180TIP3   OH236734   5.587   6.041   9.528  0.0552 -0.3089 -0.3053
 4180TIP3    H136735   5.565   6.068   9.439 -0.8655 -1.2806 -0.3905
 4180TIP3    H236736   5.576   5.946   9.528 -0.5020 -0.2652  0.9917
 4181TIP3   OH236737   0.598   4.484   9.888  0.3603  0.5851  0.0636
 4181TIP3    H136738   0.633   4.502   9.974  0.9067  1.5432 -0.3440
 4181TIP3    H236739   0.674   4.483   9.830  0.1076 -0.9504 -0.2852
 4182TIP3   OH236740   3.996   6.656  10.615 -0.8431  0.0617 -0.6882
 4182TIP3    H136741   3.930   6.723  10.596 -1.9667 -1.4017 -2.1494
 4182TIP3    H236742   3.977   6.585  10.554 -0.2353 -1.9946  1.3981
 4183TIP3   OH236743   6.384   1.465   9.482  0.2282 -0.6119 -0.4878
 4183TIP3    H136744   6.453   1.430   9.425  0.4997 -0.3210 -0.3415
 4183TIP3    H236745   6.303   1.441   9.438  0.3848 -1.8859 -0.1276
 4184TIP3   OH236746   2.894   5.891   9.441 -0.5399 -0.3385 -0.1604
 4184TIP3    H136747   2.987   5.868   9.445 -0.2102  1.0298  0.8374
 4184TIP3    H236748   2.881   5.925   9.352 -0.4415 -1.8678 -0.7808
 4185TIP3   OH236749   3.243   2.889  11.860  0.1280 -0.0423  0.2381
 4185TIP3    H136750   3.246   2.864  11.768 -0.8519  0.4626  0.0473
 4185TIP3    H236751   3.190   2.969  11.861 -0.7745 -0.6228  1.3552
 4186TIP3   OH236752   1.852   5.912  10.302  0.0886 -0.4677 -0.2908
 4186TIP3    H136753   1.767   5.945  10.331  0.6867 -0.2521  1.3298
 4186TIP3    H236754   1.897   5.885  10.382  1.4948 -0.7424 -1.1170
 4187TIP3   OH236755   0.552   3.470  11.790 -0.4293  0.4122 -0.3698
 4187TIP3    H136756   0.489   3.452  11.859 -0.0173  1.9494  0.4375
 4187TIP3    H236757   0.533   3.560  11.762  0.6142  0.4733 -0.9543
 4188TIP3   OH236758   3.726   6.457  10.905  0.5644 -0.3371 -0.2009
 4188TIP3    H136759   3.689   6.418  10.984 -0.9081 -0.8556 -1.1050
 4188TIP3    H236760   3.736   6.384  10.844  3.0412 -0.2015 -0.0691
 4189TIP3   OH236761   5.388   3.620  11.151  0.2085 -0.2771 -0.4014
 4189TIP3    H136762   5.415   3.709  11.175  0.3338 -0.5028  0.3448
 4189TIP3    H236763   5.450   3.563  11.198 -0.4648 -0.7661 -0.0843
 4190TIP3   OH236764   5.357   3.190  10.667  0.3037  0.7122  0.1749
 4190TIP3    H136765   5.263   3.174  10.669  0.5628 -0.8961  0.2571
 4190TIP3    H236766   5.379   3.218  10.756 -0.4723  3.7764 -0.4563
 4191TIP3   OH236767   4.024   4.986   9.553 -0.2040 -0.8717  0.1570
 4191TIP3    H136768   4.032   4.896   9.586 -0.3339 -0.8296  0.3060
 4191TIP3    H236769   3.978   4.977   9.470  1.4338 -1.1362 -0.7683
 4192TIP3   OH236770   4.429   2.931  12.069 -0.1331  0.4510  0.3257
 4192TIP3    H136771   4.487   2.887  12.006 -0.7876  1.3057 -0.9277
 4192TIP3    H236772   4.448   3.024  12.058 -0.4081  0.6303  1.2741
 4193TIP3   OH236773   0.828   6.299   9.994  0.4248  0.2847  0.1134
 4193TIP3    H136774   0.859   6.303   9.904  1.5337  1.0667  0.5084
 4193TIP3    H236775   0.756   6.361   9.997 -0.9321 -1.1719 -0.6863
 4194TIP3   OH236776   0.739   5.180  10.362 -0.4425  0.0191  0.2095
 4194TIP3    H136777   0.731   5.195  10.268  0.9542  0.2286  0.1122
 4194TIP3    H236778   0.692   5.098  10.377 -1.3416  0.3809 -0.5290
 4195TIP3   OH236779   2.157   1.508  11.975 -0.6084 -0.2622  0.5428
 4195TIP3    H136780   2.116   1.595  11.974 -0.5224 -0.2030 -1.0863
 4195TIP3    H236781   2.132   1.469  11.891  2.2581 -0.3902 -0.3576
 4196TIP3   OH236782   2.903   4.607  11.085 -0.1551  0.4434  0.3095
 4196TIP3    H136783   2.834   4.571  11.030  0.8288  1.0668 -1.3805
 4196TIP3    H236784   2.909   4.546  11.159 -1.3027 -0.5647 -0.4000
 4197TIP3   OH236785   5.343   1.350  10.310 -0.2109  0.0249 -0.0963
 4197TIP3    H136786   5.407   1.288  10.276  0.2176  0.3633  0.0869
 4197TIP3    H236787   5.394   1.428  10.331 -0.0620 -0.7803  3.1696
 4198TIP3   OH236788   6.109   1.338  10.929 -0.1263 -0.7430 -0.7852
 4198TIP3    H136789   6.053   1.284  10.873 -1.6266  0.2681 -0.3255
 4198TIP3    H236790   6.068   1.334  11.015 -0.1503  0.8825 -0.6773
 4199TIP3   OH236791   3.132   5.373   9.583  0.0953 -0.3253 -0.3174
 4199TIP3    H136792   3.128   5.315   9.508  1.3866 -1.3972  0.4070
 4199TIP3    H236793   3.138   5.315   9.659  2.3085  0.7082  0.3926
 4200TIP3   OH236794   6.098   3.725  11.036  0.2704  0.0279  0.2958
 4200TIP3    H136795   6.107   3.727  10.940 -2.7445  0.3046 -0.0686
 4200TIP3    H236796   6.179   3.765  11.068  1.3150  0.0409 -2.1205
 4201TIP3   OH236797   1.564   5.613  12.257 -0.5522  0.3568 -0.0729
 4201TIP3    H136798   1.601   5.528  12.283  0.0117  0.6819  0.1880
 4201TIP3    H236799   1.529   5.598  12.169  0.9056  0.2526 -0.6601
 4202TIP3   OH236800   5.582   0.842   9.175 -0.0306  0.2846 -0.3037
 4202TIP3    H136801   5.614   0.759   9.211 -2.3190 -0.0140  1.2682
 4202TIP3    H236802   5.524   0.816   9.103 -0.0009  0.5794 -0.4354
 4203TIP3   OH236803   0.047   6.390   8.575  0.3025  0.0808 -0.0694
 4203TIP3    H136804   0.124   6.395   8.520 -0.6957 -1.0020 -1.6393
 4203TIP3    H236805  -0.006   6.466   8.550  1.3038  1.4712  1.8076
 4204TIP3   OH236806   3.626   1.251   9.242  0.3795  0.7355  0.1112
 4204TIP3    H136807   3.695   1.304   9.282  0.5617  2.0583 -1.7981
 4204TIP3    H236808   3.551   1.309   9.236 -0.3298 -0.1213  0.4838
 4205TIP3   OH236809   0.912   5.823   9.570 -0.2917 -0.1536  0.3565
 4205TIP3    H136810   0.878   5.777   9.493  0.8827  0.4834 -0.5777
 4205TIP3    H236811   0.834   5.857   9.614 -1.1320 -2.2255  0.5864
 4206TIP3   OH236812   6.571   4.105  10.086  0.1332  0.2780 -0.2192
 4206TIP3    H136813   6.656   4.103  10.129  0.0028  2.8487  0.3215
 4206TIP3    H236814   6.507   4.095  10.157 -0.0351  1.0205 -0.2583
 4207TIP3   OH236815   0.650   4.008   9.507  0.3749  0.4758  0.0435
 4207TIP3    H136816   0.587   4.070   9.470  0.3836  0.6318  0.2882
 4207TIP3    H236817   0.708   3.986   9.434  1.2255  1.8142  0.2796
 4208TIP3   OH236818   2.022   2.920   9.657  0.5597  0.0356 -0.1928
 4208TIP3    H136819   1.933   2.945   9.683  0.4875 -0.2514 -0.1639
 4208TIP3    H236820   2.079   2.978   9.709  0.4007 -0.0845  0.1176
 4209TIP3   OH236821   6.078   0.916   9.472 -0.1278  0.0111  0.6516
 4209TIP3    H136822   5.991   0.913   9.434 -0.2247 -1.0410  0.9360
 4209TIP3    H236823   6.121   0.836   9.442  1.0027  0.8582 -0.0853
 4210TIP3   OH236824   2.186   3.086  11.687  0.8397  0.2199 -0.3981
 4210TIP3    H136825   2.249   3.130  11.744  0.8682  0.0890 -0.3296
 4210TIP3    H236826   2.240   3.033  11.629  0.8345  0.6165 -0.7752
 4211TIP3   OH236827   1.097   0.819  10.987 -0.2619  0.3999 -0.2106
 4211TIP3    H136828   1.157   0.746  10.969  0.0840  0.8529 -0.9447
 4211TIP3    H236829   1.064   0.801  11.075  0.6782 -0.0511  0.0699
 4212TIP3   OH236830   1.292   5.559  11.215  0.2303 -0.0147 -0.2666
 4212TIP3    H136831   1.203   5.547  11.182  0.6045 -0.4427 -1.1328
 4212TIP3    H236832   1.335   5.475  11.200  0.1050 -0.6275  2.3563
 4213TIP3   OH236833   0.098   3.279   9.059 -0.7549  0.5363 -0.2872
 4213TIP3    H136834   0.143   3.198   9.034  0.2280  1.3864 -1.4289
 4213TIP3    H236835   0.158   3.321   9.121  0.9094  2.3661 -2.8876
 4214TIP3   OH236836   4.144   3.967  10.684 -0.6021 -0.3635 -0.5303
 4214TIP3    H136837   4.154   4.031  10.755 -2.3753  0.5609 -1.0368
 4214TIP3    H236838   4.077   3.907  10.715  0.9351 -1.9506 -0.1302
 4215TIP3   OH236839   3.383   3.496   9.959 -0.3402  0.1697  0.2909
 4215TIP3    H136840   3.300   3.486   9.912  0.3335 -0.3760 -0.8155
 4215TIP3    H236841   3.405   3.589   9.950 -0.4135  0.1465 -0.1321
 4216TIP3   OH236842   0.590   2.761  11.023 -0.1711 -0.1730 -0.0210
 4216TIP3    H136843   0.678   2.732  11.000 -0.8735 -1.7207 -0.8886
 4216TIP3    H236844   0.562   2.701  11.092 -0.7462 -0.0469 -0.1376
 4217TIP3   OH236845   3.407   4.558  10.595  0.3073  0.2110  0.1967
 4217TIP3    H136846   3.500   4.555  10.574  0.1415  0.7553 -0.6289
 4217TIP3    H236847   3.363   4.548  10.511 -0.3750  1.2641  0.4177
 4218TIP3   OH236848   5.367   2.073  10.296  0.3463 -0.8003  0.3621
 4218TIP3    H136849   5.323   2.128  10.362  0.3298 -1.8730  1.2703
 4218TIP3    H236850   5.343   2.112  10.212  3.7623  3.3706  0.9194
 4219TIP3   OH236851   6.148   0.424   9.391 -0.0156  0.1126 -0.3532
 4219TIP3    H136852   6.165   0.339   9.349  0.0743  1.1821 -2.6717
 4219TIP3    H236853   6.061   0.415   9.428 -0.1589 -0.8831 -0.8833
 4220TIP3   OH236854   4.296   2.399   9.225  0.4233 -0.1320  0.1602
 4220TIP3    H136855   4.229   2.333   9.211  0.9970 -0.8220  0.6087
 4220TIP3    H236856   4.261   2.478   9.184 -0.3453 -0.6655 -0.2282
 4221TIP3   OH236857   1.063   3.345   9.391 -0.2151  0.4310 -0.2125
 4221TIP3    H136858   1.100   3.292   9.321  1.0348  0.6637  0.2583
 4221TIP3    H236859   0.998   3.400   9.347  0.4244  0.4447 -1.1671
 4222TIP3   OH236860   5.741   6.598  12.125 -0.0039  0.0984  0.6624
 4222TIP3    H136861   5.790   6.646  12.059 -1.8028  0.9777 -0.1065
 4222TIP3    H236862   5.654   6.586  12.087 -0.6105 -0.8192  2.2241
 4223TIP3   OH236863   2.817   6.096   9.235  0.1999  0.1479 -0.2771
 4223TIP3    H136864   2.774   6.130   9.314  0.6833 -0.3949  0.2247
 4223TIP3    H236865   2.877   6.166   9.210  0.5533  0.0348  0.2434
 4224TIP3   OH236866   3.195   2.298  10.118  0.1288 -0.3209 -0.6735
 4224TIP3    H136867   3.219   2.388  10.095  1.1921 -0.2624  0.5311
 4224TIP3    H236868   3.106   2.288  10.086 -1.5238  2.4501  2.3652
 4225TIP3   OH236869   3.877   0.504  10.097  0.1182 -0.4179  0.2526
 4225TIP3    H136870   3.879   0.424  10.043 -0.2536 -0.7396  0.7086
 4225TIP3    H236871   3.785   0.529  10.100  0.3634  0.7700 -0.9358
 4226TIP3   OH236872   6.102   2.035   8.723 -0.4603 -0.0553 -0.5285
 4226TIP3    H136873   6.008   2.019   8.726 -0.3561 -0.6437  0.2043
 4226TIP3    H236874   6.137   1.960   8.675 -0.3102 -0.1944 -0.2093
 4227TIP3   OH236875   4.338   6.124   8.978  0.4414 -0.0287 -0.3208
 4227TIP3    H136876   4.324   6.204   8.926  4.6632  0.9586 -0.2250
 4227TIP3    H236877   4.354   6.056   8.912 -0.6297 -0.2970 -0.3351
 4228TIP3   OH236878   3.648   1.876  12.313  0.0089 -0.3180 -0.7619
 4228TIP3    H136879   3.556   1.899  12.302  0.2126 -0.6210 -4.0888
 4228TIP3    H236880   3.696   1.952  12.281  0.9140 -0.5580 -0.0268
 4229TIP3   OH236881   2.166   4.772  11.419  0.5432 -0.0377 -0.1730
 4229TIP3    H136882   2.261   4.786  11.425  0.4461  1.1390 -0.9894
 4229TIP3    H236883   2.146   4.784  11.326 -0.2152 -1.7807 -0.2826
 4230TIP3   OH236884   4.906   2.190  11.997  0.3190 -0.0914  0.1962
 4230TIP3    H136885   4.845   2.196  11.924 -1.1921  0.2280  1.4322
 4230TIP3    H236886   4.967   2.121  11.972 -1.8913 -2.0151 -0.1473
 4231TIP3   OH236887   5.565   5.144   9.294  0.1919  0.6549  0.0216
 4231TIP3    H136888   5.619   5.072   9.327 -0.6665  0.2245  0.5188
 4231TIP3    H236889   5.583   5.146   9.200  0.7120  0.2188  0.1027
 4232TIP3   OH236890   1.727   0.996  12.086 -0.1796 -0.8084  0.1529
 4232TIP3    H136891   1.745   1.013  11.993  0.4396  2.2299  0.7226
 4232TIP3    H236892   1.790   0.928  12.110  0.5171 -0.7486 -1.3541
 4233TIP3   OH236893   1.102   2.508  11.654 -0.6962 -0.1162 -0.3944
 4233TIP3    H136894   1.028   2.567  11.667  0.2458  0.9370  0.3495
 4233TIP3    H236895   1.119   2.470  11.740  0.5690  0.8306 -0.1918
 4234TIP3   OH236896   5.503   6.475  11.541 -0.5355  1.0907 -0.2796
 4234TIP3    H136897   5.513   6.422  11.621 -1.7383  1.0285 -0.1471
 4234TIP3    H236898   5.569   6.440  11.481 -0.3847  0.3575  0.2863
 4235TIP3   OH236899   4.576   5.921   9.506  0.2875  0.6996  0.6894
 4235TIP3    H136900   4.593   5.976   9.430 -1.0818 -0.3272 -0.4175
 4235TIP3    H236901   4.496   5.956   9.544 -1.2708 -1.0812 -0.7010
 4236TIP3   OH236902   6.081   3.774   9.192 -0.4219  0.1742 -0.0066
 4236TIP3    H136903   6.023   3.837   9.148 -0.3636  0.7155  0.6793
 4236TIP3    H236904   6.133   3.736   9.121 -0.9967  0.3343 -0.5251
 4237TIP3   OH236905   4.279   0.635   8.740  0.3001 -0.1318 -0.5912
 4237TIP3    H136906   4.188   0.604   8.743  0.3191 -0.1416  0.0163
 4237TIP3    H236907   4.324   0.571   8.686  0.2971 -1.0886  0.4959
 4238TIP3   OH236908   6.424   2.373   9.783 -0.2752 -0.0907  0.2393
 4238TIP3    H136909   6.486   2.305   9.810 -0.0397  0.1127  0.2040
 4238TIP3    H236910   6.456   2.453   9.824 -1.0994 -0.1809  1.0843
 4239TIP3   OH236911   4.437   2.271  11.835 -0.2097  0.7066 -0.0192
 4239TIP3    H136912   4.410   2.195  11.888  0.3177 -1.6228 -2.8369
 4239TIP3    H236913   4.360   2.293  11.783 -0.3190  2.1080  0.6789
 4240TIP3   OH236914   6.626   6.700   9.226 -0.1266 -0.1896 -0.8562
 4240TIP3    H136915   6.633   6.781   9.176  1.5342 -0.0724 -0.5065
 4240TIP3    H236916   6.563   6.720   9.296 -0.2589  0.5632 -1.1831
 4241TIP3   OH236917   1.716   3.358   9.884  0.2737 -0.0394 -0.7046
 4241TIP3    H136918   1.764   3.409   9.949  0.4603  0.6288 -1.3550
 4241TIP3    H236919   1.633   3.405   9.874  0.1231 -0.3114 -0.7290
 4242TIP3   OH236920   0.348   5.770   9.937  0.5418  0.0182  0.6349
 4242TIP3    H136921   0.339   5.675   9.940 -1.2066  0.1090 -0.6390
 4242TIP3    H236922   0.396   5.787   9.856 -1.1083  0.3107 -0.3041
 4243TIP3   OH236923   1.861   3.591   9.396  0.2012  0.3338  0.2092
 4243TIP3    H136924   1.793   3.649   9.363 -0.3071 -0.0756  0.5267
 4243TIP3    H236925   1.872   3.525   9.326  0.8562  0.8599 -0.1999
 4244TIP3   OH236926   5.113   3.727  11.156 -0.2442  0.3474  0.3312
 4244TIP3    H136927   5.199   3.688  11.144 -0.8349 -0.6516 -1.0086
 4244TIP3    H236928   5.116   3.766  11.243  1.2907 -0.3445  0.6296
 4245TIP3   OH236929   1.781   6.179   8.871  0.2230  0.0009 -0.5036
 4245TIP3    H136930   1.871   6.190   8.839  0.3414 -1.1520 -0.6094
 4245TIP3    H236931   1.729   6.168   8.791  0.1198 -0.1730 -0.4123
 4246TIP3   OH236932   1.022   1.863   9.819  0.0342  0.3105 -0.1713
 4246TIP3    H136933   1.063   1.891   9.901  0.6782 -0.4063 -0.2376
 4246TIP3    H236934   1.026   1.940   9.762  0.7779  0.4155  0.0214
 4247TIP3   OH236935   0.255   2.865   9.987 -0.3210 -0.5441 -0.9559
 4247TIP3    H136936   0.310   2.943  10.002 -0.6277 -0.3208 -0.9947
 4247TIP3    H236937   0.300   2.795  10.035 -0.4645 -0.1727 -0.2634
 4248TIP3   OH236938   6.213   3.110  11.986 -0.0874 -0.6622 -0.3086
 4248TIP3    H136939   6.144   3.108  11.919 -0.8895  2.0003  0.3120
 4248TIP3    H236940   6.293   3.126  11.936 -0.1441 -2.1037 -0.8959
 4249TIP3   OH236941   0.788   5.211  12.143 -0.2543  0.2813  0.5907
 4249TIP3    H136942   0.814   5.276  12.079 -0.3011 -1.2361 -1.0591
 4249TIP3    H236943   0.739   5.259  12.209  0.1321  1.9592 -0.3064
 4250TIP3   OH236944   2.032   2.752  11.200 -0.4058 -0.0772  0.2234
 4250TIP3    H136945   2.075   2.703  11.130  0.0589 -0.9986  1.1349
 4250TIP3    H236946   1.976   2.815  11.154  0.3442 -0.2510 -0.9742
 4251TIP3   OH236947   3.565   6.065  10.151 -0.6685  0.0184 -0.0843
 4251TIP3    H136948   3.522   6.150  10.143  0.3971  0.6049  0.1936
 4251TIP3    H236949   3.637   6.069  10.088 -0.4206 -0.5593  0.1529
 4252TIP3   OH236950   2.731   1.275   8.314  0.4012  0.3245  0.7495
 4252TIP3    H136951   2.814   1.289   8.268  0.7553 -0.6059  1.0680
 4252TIP3    H236952   2.757   1.236   8.398 -0.4457 -2.3401 -0.1383
 4253TIP3   OH236953   3.090   5.453  11.064 -0.0576 -0.0082 -0.5761
 4253TIP3    H136954   3.111   5.382  11.004  0.5488  0.2193 -0.6439
 4253TIP3    H236955   2.996   5.445  11.080  0.3344 -2.2177  1.1942
 4254TIP3   OH236956   3.274   0.920   9.705  0.2310  0.0742  0.2065
 4254TIP3    H136957   3.358   0.895   9.668  0.4925 -0.0775  0.8793
 4254TIP3    H236958   3.245   0.994   9.653  0.6869 -0.0012 -0.1567
 4255TIP3   OH236959   3.111   6.583  12.130 -0.3563 -0.0329  0.1707
 4255TIP3    H136960   3.017   6.599  12.120 -0.5072  0.0917  1.5857
 4255TIP3    H236961   3.120   6.541  12.216  1.0453  1.7056  0.9500
 4256TIP3   OH236962   2.953   1.982   8.474  0.0167  0.5009  0.5428
 4256TIP3    H136963   3.044   2.008   8.461 -0.3314  1.2954 -0.4307
 4256TIP3    H236964   2.943   1.904   8.419  0.7097 -1.0229  2.4615
 4257TIP3   OH236965   5.162   5.521  10.434 -0.5892 -0.1176 -0.4298
 4257TIP3    H136966   5.248   5.495  10.404 -0.1351  1.4911 -0.6450
 4257TIP3    H236967   5.101   5.489  10.367 -0.0152 -0.1281 -0.9499
 4258TIP3   OH236968   2.849   3.217  10.114  0.5622 -0.4273 -0.4662
 4258TIP3    H136969   2.779   3.155  10.095 -0.9025  1.0256 -0.0496
 4258TIP3    H236970   2.823   3.259  10.196  1.4486  0.7863 -0.7737
 4259TIP3   OH236971   0.986   5.761  11.657  0.0321 -0.8881  0.0173
 4259TIP3    H136972   1.082   5.762  11.667 -0.0981 -2.1496  1.9904
 4259TIP3    H236973   0.966   5.674  11.625 -0.4942 -0.8178  0.1519
 4260TIP3   OH236974   6.369   3.026  10.082  0.6467 -0.0780 -0.2264
 4260TIP3    H136975   6.412   2.972  10.016  0.0311  0.7380 -1.3399
 4260TIP3    H236976   6.311   2.966  10.128  0.1788 -0.4344 -1.2541
 4261TIP3   OH236977   3.847   6.442  11.460  0.6310 -0.3184  0.1675
 4261TIP3    H136978   3.764   6.448  11.508 -0.0181 -1.6855 -0.7190
 4261TIP3    H236979   3.857   6.348  11.441  2.3539 -0.1700  0.1935
 4262TIP3   OH236980   5.467   5.365  10.997 -0.3631 -0.2071  0.4705
 4262TIP3    H136981   5.550   5.322  11.019  0.0528  0.6072  0.5587
 4262TIP3    H236982   5.408   5.294  10.973  0.4207 -0.7850  0.2204
 4263TIP3   OH236983   1.984   4.133  11.261 -0.3234 -0.0607 -0.7549
 4263TIP3    H136984   1.911   4.179  11.302  0.2209 -0.4086  0.6794
 4263TIP3    H236985   2.062   4.180  11.291  0.4062 -2.8501  2.2970
 4264TIP3   OH236986   4.585   5.266  11.289 -0.0858 -0.2094  0.0099
 4264TIP3    H136987   4.529   5.215  11.348 -0.4638  0.6469  0.4011
 4264TIP3    H236988   4.570   5.227  11.203  0.8550 -1.8083  0.5236
 4265TIP3   OH236989   4.441   4.818  12.223 -0.3039  0.1150  0.4269
 4265TIP3    H136990   4.409   4.801  12.135 -0.6351  3.9062 -0.3188
 4265TIP3    H236991   4.366   4.797  12.280 -1.0841  0.4203 -0.4632
 4266TIP3   OH236992   0.601   6.073  10.234 -0.1557 -0.2560 -0.1430
 4266TIP3    H136993   0.609   6.072  10.329 -2.0400  2.2914  0.1608
 4266TIP3    H236994   0.513   6.039  10.217 -0.2342  0.2837 -0.8672
 4267TIP3   OH236995   3.092   6.138   9.641 -0.1829  0.2216 -0.4042
 4267TIP3    H136996   3.167   6.144   9.700 -0.5615  1.2356 -0.0012
 4267TIP3    H236997   3.027   6.087   9.690  0.1639 -0.5044 -0.6833
 4268TIP3   OH236998   5.016   1.478   9.862  0.4184 -0.1601  0.6361
 4268TIP3    H136999   5.111   1.484   9.861  0.4052  0.0654  0.0344
 4268TIP3    H237000   4.989   1.518   9.779 -0.2328  0.4214  1.1128
 4269TIP3   OH237001   2.448   0.647   8.723  0.8772  0.0033 -0.0945
 4269TIP3    H137002   2.481   0.650   8.633 -0.1267 -0.6364 -0.5113
 4269TIP3    H237003   2.352   0.643   8.713  0.7532 -0.1267  1.0016
 4270TIP3   OH237004   2.511   0.773  11.507  0.2369 -0.3874  0.0273
 4270TIP3    H137005   2.493   0.800  11.598  0.5419 -0.6754  0.1735
 4270TIP3    H237006   2.427   0.738  11.476 -0.0256  0.2369  0.0067
 4271TIP3   OH237007   0.496   0.181  11.681  0.3300  0.0514 -0.3016
 4271TIP3    H137008   0.537   0.102  11.646  0.1988  0.4104 -1.3232
 4271TIP3    H237009   0.567   0.245  11.686  0.8199 -0.5972  2.1839
 4272TIP3   OH237010   4.449   5.796  11.268  0.7630 -0.0550 -0.4732
 4272TIP3    H137011   4.474   5.885  11.241  1.6835 -0.4619 -0.9990
 4272TIP3    H237012   4.466   5.742  11.191 -0.8137 -0.5408 -0.5151
 4273TIP3   OH237013   4.855   0.564  11.180 -0.0950 -0.1746 -0.0809
 4273TIP3    H137014   4.788   0.631  11.168  0.1708 -0.1022 -1.2046
 4273TIP3    H237015   4.932   0.612  11.212 -0.5428 -0.2562  1.1947
 4274TIP3   OH237016   3.170   1.845  11.183 -0.5653 -0.4970  0.4856
 4274TIP3    H137017   3.077   1.828  11.168 -0.2589 -0.9479 -0.9956
 4274TIP3    H237018   3.215   1.772  11.142  0.4765  0.1048  0.5298
 4275TIP3   OH237019   3.971   5.232  11.923 -0.2776 -0.3382 -0.1308
 4275TIP3    H137020   4.060   5.198  11.925  1.1608  3.0616  2.0991
 4275TIP3    H237021   3.940   5.222  12.014 -1.1328  0.9373 -0.2648
 4276TIP3   OH237022   0.130   4.776   9.758  0.3715 -0.3273 -0.4664
 4276TIP3    H137023   0.161   4.691   9.790  1.6115  0.0424 -0.6198
 4276TIP3    H237024   0.041   4.784   9.792  0.1216 -1.8271 -0.7294
 4277TIP3   OH237025   6.369   0.046  10.452 -0.2939 -0.3142 -0.4112
 4277TIP3    H137026   6.380  -0.034  10.503  0.1844 -1.4204 -2.1744
 4277TIP3    H237027   6.278   0.045  10.423 -1.0857  1.1945  1.7302
 4278TIP3   OH237028   3.576   0.886   9.638 -0.9471 -0.3395  0.4749
 4278TIP3    H137029   3.557   0.813   9.580  0.0785 -0.7630  0.6500
 4278TIP3    H237030   3.569   0.964   9.582  0.9255 -0.7962 -0.4999
 4279TIP3   OH237031   3.958   3.156  12.352  0.7436  0.3351  0.2135
 4279TIP3    H137032   4.042   3.138  12.307  0.0774  0.8117 -1.3002
 4279TIP3    H237033   3.907   3.076  12.338  0.6000  0.4101  0.3147
 4280TIP3   OH237034   0.785   1.818  10.457  0.1257  0.6552 -0.2629
 4280TIP3    H137035   0.814   1.738  10.500 -0.0389  0.3924 -0.6424
 4280TIP3    H237036   0.820   1.811  10.368 -0.2148  0.8274 -0.4093
 4281TIP3   OH237037   3.459   1.330  10.739 -0.1763 -0.5280  0.8103
 4281TIP3    H137038   3.410   1.365  10.664  0.7779  1.0388  0.8744
 4281TIP3    H237039   3.395   1.276  10.785 -0.7293 -1.7515 -1.2376
 4282TIP3   OH237040   1.720   5.045   9.971  0.1405 -0.2340 -0.3499
 4282TIP3    H137041   1.629   5.018   9.961  0.5278 -1.7985  0.1550
 4282TIP3    H237042   1.726   5.078  10.061 -0.0249  0.3540 -0.5457
 4283TIP3   OH237043   1.593   5.885  11.977 -0.2230  0.3151  0.3633
 4283TIP3    H137044   1.520   5.919  12.029  0.1722  0.4790  0.8166
 4283TIP3    H237045   1.664   5.874  12.040  0.0705 -0.0666 -0.0328
 4284TIP3   OH237046   1.311   3.685  11.606  0.3597 -0.1847  0.2687
 4284TIP3    H137047   1.367   3.609  11.596  0.5578  0.0195 -0.1897
 4284TIP3    H237048   1.279   3.703  11.518 -1.0810 -0.7892  0.6267
 4285TIP3   OH237049   6.190   6.669   9.754 -0.0769  0.1719  0.4225
 4285TIP3    H137050   6.212   6.720   9.676 -0.3814 -1.5791 -0.8876
 4285TIP3    H237051   6.232   6.584   9.738 -3.3446 -1.5492  0.2812
 4286TIP3   OH237052   0.380   0.513   8.816 -0.0939  0.4504  0.2058
 4286TIP3    H137053   0.322   0.560   8.875 -0.6159 -0.5637  0.5297
 4286TIP3    H237054   0.322   0.469   8.754  0.3754  0.2676 -0.1101
 4287TIP3   OH237055   2.884   6.153  12.259 -0.2521 -0.2405 -0.2318
 4287TIP3    H137056   2.942   6.199  12.198 -0.4215 -1.2773 -1.2081
 4287TIP3    H237057   2.939   6.083  12.295 -0.4702 -0.2935 -0.0022
 4288TIP3   OH237058   2.724   2.825  12.004 -0.0728  0.3727 -0.2747
 4288TIP3    H137059   2.754   2.871  12.082 -0.4412  1.9465 -0.9989
 4288TIP3    H237060   2.708   2.735  12.032  0.3208  0.7756  1.3110
 4289TIP3   OH237061   4.968   2.312   9.036  0.3142 -0.2744  0.0690
 4289TIP3    H137062   4.914   2.343   9.109 -0.4505  0.8364 -0.9194
 4289TIP3    H237063   4.971   2.217   9.046 -1.5054 -0.3393  0.3942
 4290TIP3   OH237064   1.519   3.145   8.805 -0.5540 -0.2392 -0.0126
 4290TIP3    H137065   1.543   3.053   8.820 -1.0106 -0.2734  0.5238
 4290TIP3    H237066   1.603   3.191   8.803 -0.3053 -0.6990 -0.5221
 4291TIP3   OH237067   5.534   5.546   8.910  0.0308 -0.2198  0.0525
 4291TIP3    H137068   5.610   5.533   8.852  0.4900 -0.9970  0.8108
 4291TIP3    H237069   5.506   5.636   8.892  1.4728  0.2760  0.1411
 4292TIP3   OH237070   4.152   2.605  11.080 -0.2989 -0.0670 -0.4532
 4292TIP3    H137071   4.169   2.684  11.131 -3.4532 -0.6742  1.8461
 4292TIP3    H237072   4.175   2.533  11.138 -2.2867 -0.7871 -0.4897
 4293TIP3   OH237073   2.808   5.396  11.044 -0.2297  0.6128  0.1608
 4293TIP3    H137074   2.730   5.414  10.991  0.0832  0.8990 -0.2084
 4293TIP3    H237075   2.851   5.323  11.000  1.1205  2.1389 -1.2010
 4294TIP3   OH237076   0.334   3.714  10.406  0.0164  0.6424 -0.0466
 4294TIP3    H137077   0.426   3.691  10.418  0.1940  0.9840 -0.6861
 4294TIP3    H237078   0.298   3.718  10.494  0.7896  1.1987  0.2585
 4295TIP3   OH237079   4.570   6.290   9.119 -0.0652 -0.1597  0.1937
 4295TIP3    H137080   4.486   6.330   9.098  0.1836  0.1409 -0.2479
 4295TIP3    H237081   4.556   6.247   9.204 -0.2295  1.1747  0.8638
 4296TIP3   OH237082   0.149   3.948  11.250  0.3011 -0.3945  0.0392
 4296TIP3    H137083   0.136   3.856  11.225 -0.3555 -0.1882 -0.3919
 4296TIP3    H237084   0.125   3.998  11.172  0.1706  0.1703  0.4335
 4297TIP3   OH237085   2.465   5.474   9.973 -0.0029  0.1519 -0.1849
 4297TIP3    H137086   2.534   5.500   9.912  0.2588 -1.8586 -0.8290
 4297TIP3    H237087   2.384   5.495   9.928  0.1734 -1.8295 -1.5729
 4298TIP3   OH237088   3.944   2.810   8.861  0.3913  0.2965  0.2101
 4298TIP3    H137089   3.852   2.827   8.841 -0.0211 -0.6893  1.1840
 4298TIP3    H237090   3.943   2.729   8.912  1.6936  0.8260  1.1249
 4299TIP3   OH237091   0.671   2.842  10.432 -0.7461 -0.7777  0.0439
 4299TIP3    H137092   0.627   2.897  10.368  3.0400  0.8044 -1.5127
 4299TIP3    H237093   0.675   2.895  10.511  0.8078  0.3336 -0.7282
 4300TIP3   OH237094   2.278   4.167  11.320 -0.2519 -0.0878  0.1054
 4300TIP3    H137095   2.366   4.170  11.359  0.1041  2.4040 -0.7395
 4300TIP3    H237096   2.294   4.164  11.226 -1.1100 -1.3660 -0.0214
 4301TIP3   OH237097   1.980   5.843  10.560 -0.4582  0.2036  0.1025
 4301TIP3    H137098   1.936   5.867  10.642  0.4286 -0.8000  0.9125
 4301TIP3    H237099   2.072   5.834  10.585 -0.3324 -1.1863 -0.7523
 4302TIP3   OH237100   2.254   2.393  11.363  0.2346 -0.3064  0.4298
 4302TIP3    H137101   2.179   2.420  11.415  1.0113  1.1326  0.8834
 4302TIP3    H237102   2.294   2.476  11.335  0.0202 -1.0219 -2.2272
 4303TIP3   OH237103   6.690   3.892   9.813 -0.3823 -0.0396  0.3999
 4303TIP3    H137104   6.712   3.822   9.751 -0.2902  0.4590 -0.1494
 4303TIP3    H237105   6.700   3.852   9.899  1.5036 -0.2028  0.1521
 4304TIP3   OH237106   4.393   6.297   9.361  0.1553 -0.3551 -0.2364
 4304TIP3    H137107   4.353   6.226   9.312  1.8957 -0.9740 -0.8512
 4304TIP3    H237108   4.340   6.374   9.339 -0.8725 -1.1739 -0.7237
 4305TIP3   OH237109   4.557   2.383   9.166  0.2564  0.0437 -0.0403
 4305TIP3    H137110   4.471   2.399   9.205 -0.8754  0.2072 -2.4395
 4305TIP3    H237111   4.541   2.382   9.072  2.7670 -0.7666 -0.5322
 4306TIP3   OH237112   0.064   3.038  11.230  0.6477  0.0247  0.0070
 4306TIP3    H137113   0.025   3.122  11.254 -0.2877 -0.7295  1.2516
 4306TIP3    H237114   0.138   3.028  11.290  0.1374 -0.4933  0.5597
 4307TIP3   OH237115   4.040   1.531  10.562 -0.0859  0.0022  0.3937
 4307TIP3    H137116   4.012   1.596  10.627 -1.5773 -0.8713  0.6570
 4307TIP3    H237117   4.077   1.583  10.491  0.0645  1.0595  1.2230
 4308TIP3   OH237118   1.935   0.434  11.209  0.0547 -0.0850  0.2878
 4308TIP3    H137119   1.981   0.446  11.126  0.1588 -1.2918  0.1537
 4308TIP3    H237120   1.917   0.523  11.239  1.4150  0.3926 -0.2418
 4309TIP3   OH237121   0.834   2.346  11.070 -0.0491  0.2895  0.8130
 4309TIP3    H137122   0.892   2.375  10.999 -0.4988 -1.1855 -0.2056
 4309TIP3    H237123   0.892   2.334  11.145  0.8112 -0.2144  0.0876
 4310TIP3   OH237124   1.162   2.018  12.028 -0.6674 -0.2346 -0.4121
 4310TIP3    H137125   1.210   2.061  12.099  1.3703  0.1533 -1.9449
 4310TIP3    H237126   1.193   1.927  12.029  0.6573  0.1691 -1.8129
 4311TIP3   OH237127   3.469   4.736   9.571  0.1351  0.5919  0.3881
 4311TIP3    H137128   3.450   4.664   9.510  0.8198  1.3560 -0.7744
 4311TIP3    H237129   3.548   4.708   9.617 -0.5025 -0.0811  1.0893
 4312TIP3   OH237130   2.220   4.904   8.684 -0.3547  0.5076 -0.1360
 4312TIP3    H137131   2.289   4.939   8.741 -0.0454  1.7534 -1.2219
 4312TIP3    H237132   2.194   4.822   8.725  0.5890  0.8534  1.2196
 4313TIP3   OH237133   3.289   4.688   9.242 -0.6844  0.1252  0.2763
 4313TIP3    H137134   3.205   4.646   9.223 -0.1414 -1.0564  0.3842
 4313TIP3    H237135   3.330   4.632   9.309  0.8502 -0.2399 -0.8888
 4314TIP3   OH237136   0.080   2.326  10.537  0.2239  0.3441  0.4709
 4314TIP3    H137137   0.071   2.403  10.593  1.4414 -0.0334  1.2337
 4314TIP3    H237138   0.063   2.359  10.448 -1.7903  0.9379  1.0347
 4315TIP3   OH237139   4.333   4.505  10.101  0.1836  0.2742  0.9760
 4315TIP3    H137140   4.410   4.560  10.093  1.7717 -1.9803 -0.6367
 4315TIP3    H237141   4.352   4.446  10.174 -1.5660  1.8227  2.8086
 4316TIP3   OH237142   5.290   4.461   9.136 -0.1940 -0.1349  0.5893
 4316TIP3    H137143   5.246   4.495   9.214 -1.4853  0.8255 -0.4770
 4316TIP3    H237144   5.341   4.387   9.166 -4.6348 -3.1515  1.6282
 4317TIP3   OH237145   4.351   2.075  10.743 -0.2506  0.3861  0.5498
 4317TIP3    H137146   4.343   1.985  10.709  0.7630  0.6550 -0.4682
 4317TIP3    H237147   4.297   2.127  10.683  0.4828  0.6779  0.1317
 4318TIP3   OH237148   6.174   5.506  11.344  0.0421  0.1231  0.3714
 4318TIP3    H137149   6.136   5.430  11.299 -0.5939 -0.2866  1.5504
 4318TIP3    H237150   6.258   5.519  11.302 -1.7092  1.6649 -3.0120
 4319TIP3   OH237151   0.734   0.247   8.752 -0.1743  0.2798 -0.0684
 4319TIP3    H137152   0.659   0.262   8.810  0.0901 -0.7421  0.5734
 4319TIP3    H237153   0.783   0.330   8.754 -0.9252  0.7299  0.0335
 4320TIP3   OH237154   6.292   6.418   9.062  0.1524 -0.3595 -0.0536
 4320TIP3    H137155   6.340   6.388   8.985 -1.7168 -2.3945 -0.5303
 4320TIP3    H237156   6.226   6.478   9.027 -0.1543 -0.6225  0.0703
 4321TIP3   OH237157   4.534   6.052  10.252 -0.6648  0.0597 -0.3588
 4321TIP3    H137158   4.600   6.120  10.268 -0.2395 -0.3726 -0.2515
 4321TIP3    H237159   4.580   5.970  10.268 -0.7967 -0.3164 -1.7735
 4322TIP3   OH237160   0.638   1.139   8.617 -0.3019 -0.9969 -0.2451
 4322TIP3    H137161   0.694   1.072   8.655  1.2336  0.1099 -0.4673
 4322TIP3    H237162   0.694   1.216   8.610 -2.5411  0.9662  1.8692
 4323TIP3   OH237163   3.747   2.759  11.102 -0.6101 -0.5044 -0.2882
 4323TIP3    H137164   3.758   2.772  11.008  0.8694 -0.8036 -0.1782
 4323TIP3    H237165   3.774   2.843  11.141  1.4027 -1.2151 -0.0164
 4324TIP3   OH237166   6.194   2.686   9.448  0.3053 -0.1593  0.5743
 4324TIP3    H137167   6.146   2.603   9.441 -1.6923  0.8674  1.3962
 4324TIP3    H237168   6.254   2.673   9.521  1.3153 -1.4491 -0.4303
 4325TIP3   OH237169   5.975   0.005  11.985  0.0939  0.1269 -0.5432
 4325TIP3    H137170   5.972   0.043  11.898 -0.0921 -1.0802 -1.0810
 4325TIP3    H237171   5.946  -0.086  11.973  1.4725 -0.4981  0.5210
 4326TIP3   OH237172   3.704   1.773  11.436 -0.1670 -0.1592 -0.0854
 4326TIP3    H137173   3.787   1.809  11.467 -0.3331  1.2468 -1.2015
 4326TIP3    H237174   3.638   1.823  11.484 -0.4043 -1.0351  0.5372
 4327TIP3   OH237175   0.586   1.698  11.402 -0.5444 -0.2890 -0.5021
 4327TIP3    H137176   0.635   1.652  11.334  1.3803 -1.8961  1.8404
 4327TIP3    H237177   0.565   1.631  11.466 -0.5539  1.4969  1.4587
 4328TIP3   OH237178   5.890   5.371  10.498  0.2702 -0.5784 -0.2014
 4328TIP3    H137179   5.883   5.397  10.406  0.8444  1.4227  0.2584
 4328TIP3    H237180   5.814   5.411  10.540  0.2590 -1.0892  0.2655
 4329TIP3   OH237181   6.642   1.041  10.801 -0.9427  0.4937 -0.5542
 4329TIP3    H137182   6.681   1.128  10.812  0.5125 -0.1115 -0.6751
 4329TIP3    H237183   6.666   1.015  10.712 -0.7967 -0.2875 -0.2938
 4330TIP3   OH237184   6.623   4.638  11.265 -0.1023  0.3768 -0.3272
 4330TIP3    H137185   6.663   4.687  11.337 -0.6655  1.8805 -1.0213
 4330TIP3    H237186   6.578   4.566  11.309 -1.2435  1.8022  0.9512
 4331TIP3   OH237187   0.100   2.315  11.597 -0.0023 -0.2054  0.0788
 4331TIP3    H137188   0.187   2.354  11.596 -0.3980  0.7090  0.1045
 4331TIP3    H237189   0.050   2.368  11.535  0.1636 -2.4424 -2.1181
 4332TIP3   OH237190   1.711   3.381  10.476  0.0332 -0.4547  0.2999
 4332TIP3    H137191   1.729   3.328  10.398 -1.1366  0.9263 -0.9626
 4332TIP3    H237192   1.797   3.417  10.500  0.4475 -1.0757 -0.1999
 4333TIP3   OH237193   1.200   2.258  10.833  0.1066 -0.3741 -0.3342
 4333TIP3    H137194   1.234   2.222  10.915 -1.7060 -2.5486 -0.4425
 4333TIP3    H237195   1.273   2.250  10.772  2.9326  4.8669  1.7150
 4334TIP3   OH237196   1.625   2.141  10.064  0.0172 -0.3725 -0.2412
 4334TIP3    H137197   1.617   2.051  10.033 -0.8890  0.3537 -2.3294
 4334TIP3    H237198   1.541   2.181  10.044  0.4071  0.9629  0.6252
 4335TIP3   OH237199   1.379   3.579  11.989  0.5514 -0.1726 -0.1002
 4335TIP3    H137200   1.308   3.562  11.926 -0.8340 -0.9139  1.5799
 4335TIP3    H237201   1.407   3.668  11.969 -1.2762  0.3684 -0.4682
 4336TIP3   OH237202   1.892   0.173   9.688  0.1506 -0.3435 -0.6567
 4336TIP3    H137203   1.844   0.239   9.737 -0.9467 -1.5227 -0.0715
 4336TIP3    H237204   1.842   0.161   9.608  1.0349  0.3942 -1.3495
 4337TIP3   OH237205   1.290   1.359   9.234 -0.8698 -1.2019  0.3979
 4337TIP3    H137206   1.250   1.417   9.299 -1.1483 -2.3286  1.2657
 4337TIP3    H237207   1.224   1.352   9.165 -0.7950 -0.4278  0.2399
 4338TIP3   OH237208   5.292   6.449  10.906  0.3314 -0.3125  0.0029
 4338TIP3    H137209   5.213   6.484  10.866 -1.1673 -0.9132  2.2247
 4338TIP3    H237210   5.346   6.526  10.925 -0.3627  0.2442 -0.2402
 4339TIP3   OH237211   5.645   1.827  11.640 -0.1389 -0.0217  0.6171
 4339TIP3    H137212   5.645   1.787  11.727 -0.2499  1.4079  1.3010
 4339TIP3    H237213   5.723   1.792  11.597 -0.6125 -1.5074  0.8976
 4340TIP3   OH237214   3.459   0.367  11.530 -0.1684 -0.2577  0.6951
 4340TIP3    H137215   3.412   0.316  11.596 -0.7446  1.5549  1.7506
 4340TIP3    H237216   3.395   0.379  11.460  0.0682 -1.2064  0.3012
 4341TIP3   OH237217   3.603   1.506  11.421 -0.2767  0.3816  0.2347
 4341TIP3    H137218   3.611   1.595  11.455  0.6434  0.3213  0.1768
 4341TIP3    H237219   3.670   1.500  11.353  1.8583 -1.3627  2.3332
 4342TIP3   OH237220   3.157   1.530   9.432 -0.3089 -0.1821 -0.0671
 4342TIP3    H137221   3.241   1.575   9.446  0.1376 -0.8834 -0.4374
 4342TIP3    H237222   3.091   1.591   9.465  0.1409  1.4360 -2.0194
 4343TIP3   OH237223   3.599   2.786  10.849 -0.2877  0.6231  0.4231
 4343TIP3    H137224   3.556   2.712  10.893 -2.3570  0.4680 -1.6376
 4343TIP3    H237225   3.586   2.860  10.908 -0.2600 -0.1664  1.4503
 4344TIP3   OH237226   5.184   2.791   9.321 -0.2974  0.0903  0.5431
 4344TIP3    H137227   5.233   2.846   9.383  0.8245 -0.0089 -0.2312
 4344TIP3    H237228   5.214   2.819   9.235 -0.2821 -1.2068  0.1027
 4345TIP3   OH237229   1.435   2.748   9.929 -0.2885 -0.8999  0.4531
 4345TIP3    H137230   1.385   2.674   9.895  0.0784 -2.6752  3.3758
 4345TIP3    H237231   1.523   2.713   9.945  0.0113  0.2556  1.5394
 4346TIP3   OH237232   1.643   3.267  12.236  0.2819  0.3061  0.1912
 4346TIP3    H137233   1.689   3.189  12.203 -0.4020  0.6991 -1.8441
 4346TIP3    H237234   1.555   3.237  12.255  0.5122  0.2126  1.1400
 4347TIP3   OH237235   1.307   3.126   9.464 -0.0618 -0.2116 -0.1767
 4347TIP3    H137236   1.267   3.137   9.378 -0.5272  0.1694  0.0847
 4347TIP3    H237237   1.395   3.093   9.445  0.3220  1.1187 -0.8716
 4348TIP3   OH237238   5.619   5.660  11.022  0.3552  0.0451 -0.2987
 4348TIP3    H137239   5.668   5.593  10.974  1.4636  1.1543 -0.7628
 4348TIP3    H237240   5.600   5.620  11.107 -0.6181 -1.5171 -1.2047
 4349TIP3   OH237241   5.580   2.047  12.398  0.6332 -0.3193 -0.0741
 4349TIP3    H137242   5.652   2.006  12.446  1.2115 -0.9824 -1.4466
 4349TIP3    H237243   5.620   2.124  12.357 -0.0577  0.7270  1.1478
 4350TIP3   OH237244   0.338   2.441   8.591 -0.4865  0.0592  0.3746
 4350TIP3    H137245   0.325   2.498   8.667  0.1660 -0.7999  1.1719
 4350TIP3    H237246   0.360   2.500   8.519 -1.6316  0.9351  0.7133
 4351TIP3   OH237247   5.917   3.761  12.036 -0.3605 -0.0691  0.4092
 4351TIP3    H137248   5.850   3.830  12.024 -0.0752  0.0524 -0.5763
 4351TIP3    H237249   5.875   3.681  12.004  0.4503  0.2803 -1.7485
 4352TIP3   OH237250   3.384   1.030   9.049 -0.3545 -0.7422 -0.5001
 4352TIP3    H137251   3.400   1.114   9.004  1.5019 -0.5848  0.3670
 4352TIP3    H237252   3.322   0.984   8.992  1.8710 -0.5731 -3.2880
 4353TIP3   OH237253   1.318   0.420  11.431  0.2354 -0.0529  0.0751
 4353TIP3    H137254   1.304   0.395  11.522 -0.1735  0.9831  0.3108
 4353TIP3    H237255   1.329   0.515  11.433  0.1237 -0.0037 -0.9635
 4354TIP3   OH237256   0.796   2.797  12.007 -0.0827  0.4074  0.3549
 4354TIP3    H137257   0.709   2.834  12.017 -0.6597  0.0628 -2.5688
 4354TIP3    H237258   0.854   2.873  11.997 -0.4434  0.6249 -0.1275
 4355TIP3   OH237259   2.051   5.181  10.094 -0.3689 -0.1194 -0.0475
 4355TIP3    H137260   2.006   5.229  10.163 -1.2959 -1.6385  0.4397
 4355TIP3    H237261   2.081   5.249  10.033 -1.7709  1.0574  0.5291
 4356TIP3   OH237262   3.708   5.045   9.517  0.4687  0.5367  0.4063
 4356TIP3    H137263   3.753   4.976   9.469 -0.4854  0.4819 -0.4395
 4356TIP3    H237264   3.627   5.061   9.467  0.5675  2.1132  0.6943
 4357TIP3   OH237265   6.521   6.015  10.354  0.5529 -0.3562  0.1203
 4357TIP3    H137266   6.527   5.932  10.306  1.4141  0.1501 -0.7094
 4357TIP3    H237267   6.443   6.007  10.407  0.4924 -1.6128 -0.1223
 4358TIP3   OH237268   0.972   0.104  10.622 -0.1509 -0.0395  0.7144
 4358TIP3    H137269   1.022   0.113  10.704  0.0272  0.4996  0.5505
 4358TIP3    H237270   0.932   0.190  10.609 -0.1954 -0.1304  0.2417
 4359TIP3   OH237271   0.651   5.954   8.325  0.1371  0.3782 -0.1305
 4359TIP3    H137272   0.639   6.010   8.248 -2.9780 -1.3582 -1.1195
 4359TIP3    H237273   0.703   5.880   8.292 -0.1128  0.2536 -0.2538
 4360TIP3   OH237274   0.229   3.645  11.508  0.3730 -0.1134 -0.3482
 4360TIP3    H137275   0.251   3.732  11.540  2.0255 -0.6892  0.2212
 4360TIP3    H237276   0.268   3.641  11.421  1.3009 -0.6386  0.0729
 4361TIP3   OH237277   5.628   5.116  11.506 -0.3587 -0.0917  0.2723
 4361TIP3    H137278   5.632   5.056  11.580 -1.6189 -0.4735  0.0474
 4361TIP3    H237279   5.695   5.085  11.446 -0.1463 -0.5100  0.7188
 4362TIP3   OH237280   5.754   3.185  11.038 -0.1495  0.2415 -0.5353
 4362TIP3    H137281   5.707   3.246  10.982 -0.9768  0.4688  0.3856
 4362TIP3    H237282   5.694   3.112  11.050 -0.0573  0.2791  0.1971
 4363TIP3   OH237283   3.465   3.741   9.875  0.1844  0.2371  0.0041
 4363TIP3    H137284   3.478   3.720   9.782 -1.9729 -2.0561  0.0983
 4363TIP3    H237285   3.409   3.818   9.874  0.0177  0.1174 -0.6185
 4364TIP3   OH237286   5.980   0.180   9.844 -0.2603 -0.0053 -0.4579
 4364TIP3    H137287   6.057   0.210   9.795 -2.1107  0.4287 -3.3488
 4364TIP3    H237288   5.945   0.109   9.790 -1.8754 -0.1940  0.7890
 4365TIP3   OH237289   4.162   5.912   8.797  0.2171 -0.2475 -0.0283
 4365TIP3    H137290   4.253   5.938   8.787  0.1999 -0.4626 -0.9017
 4365TIP3    H237291   4.121   5.937   8.714 -0.8953  1.3185  0.9386
 4366TIP3   OH237292   3.835   5.352  11.718  0.1919  0.0675 -0.6877
 4366TIP3    H137293   3.841   5.305  11.634 -0.5465  1.4015 -1.5323
 4366TIP3    H237294   3.887   5.299  11.779 -1.3821 -2.3864 -1.3021
 4367TIP3   OH237295   1.824   0.757  12.210  0.8268 -0.4584 -0.3949
 4367TIP3    H137296   1.864   0.675  12.239 -0.2396 -0.1656  2.2185
 4367TIP3    H237297   1.729   0.741  12.215  0.5340 -0.0998 -3.2337
 4368TIP3   OH237298   0.266   0.244  11.835 -0.3101 -0.2019  0.6041
 4368TIP3    H137299   0.350   0.233  11.789 -1.3161 -1.5081 -1.0645
 4368TIP3    H237300   0.200   0.242  11.765 -1.7352  1.0261  1.8451
 4369TIP3   OH237301   6.447   0.271   8.588  0.0546 -1.2070  0.0201
 4369TIP3    H137302   6.535   0.305   8.608  0.3539 -1.2324 -1.1555
 4369TIP3    H237303   6.463   0.198   8.528 -0.7784 -1.1127 -0.3239
 4370TIP3   OH237304   0.948   0.363   9.085 -0.1463 -0.4187  0.4175
 4370TIP3    H137305   0.863   0.407   9.081 -0.9983 -1.9475  0.8137
 4370TIP3    H237306   0.934   0.280   9.039  2.4944  1.2541 -3.9683
 4371TIP3   OH237307   1.202   3.239  11.654 -0.6013 -0.5733  0.1707
 4371TIP3    H137308   1.182   3.294  11.578 -0.9067 -1.4370 -0.3901
 4371TIP3    H237309   1.291   3.208  11.639  0.4176  1.4265  1.5406
 4372TIP3   OH237310   4.017   5.335   9.816 -0.2567 -0.5712 -0.7590
 4372TIP3    H137311   3.957   5.350   9.742 -0.0050 -1.6563 -1.2081
 4372TIP3    H237312   4.005   5.411   9.873 -1.1591 -0.1784 -1.4518
 4373TIP3   OH237313   5.811   5.525  11.841 -0.1931  0.3111  0.1324
 4373TIP3    H137314   5.786   5.552  11.753 -2.4775  1.6524  1.1277
 4373TIP3    H237315   5.873   5.592  11.870 -1.1555  1.1280  0.3411
 4374TIP3   OH237316   4.561   4.992  10.630 -0.8184  0.3838 -0.2229
 4374TIP3    H137317   4.639   5.045  10.644 -0.2033 -0.6210  0.3439
 4374TIP3    H237318   4.524   4.980  10.718 -2.0133  1.4125 -0.5634
 4375TIP3   OH237319   3.422   0.416   8.295  0.1323  0.8077 -1.4523
 4375TIP3    H137320   3.400   0.332   8.254 -1.5163  0.8747 -0.7790
 4375TIP3    H237321   3.505   0.441   8.256  1.1083 -1.5563 -1.0404
 4376TIP3   OH237322   2.627   4.068  11.997  0.5627 -0.0638 -0.7426
 4376TIP3    H137323   2.646   4.102  11.910  1.5602  0.5365 -0.3136
 4376TIP3    H237324   2.561   4.128  12.032  0.7960  0.2174 -0.7714
 4377TIP3   OH237325   1.116   5.705  10.834  0.2992  0.3621  0.6178
 4377TIP3    H137326   1.050   5.641  10.806 -0.6047  1.9382 -1.0094
 4377TIP3    H237327   1.165   5.725  10.755  0.8316  1.3785  1.1900
 4378TIP3   OH237328   2.382   5.052   9.665  0.5087 -0.6265  0.3181
 4378TIP3    H137329   2.290   5.045   9.640  0.5930  0.1310 -0.2161
 4378TIP3    H237330   2.413   5.131   9.623  1.1808 -0.3914  1.2131
 4379TIP3   OH237331   4.383   0.496  11.993  0.3840  0.2255 -0.3465
 4379TIP3    H137332   4.357   0.586  11.973 -0.1344  0.0584 -0.4504
 4379TIP3    H237333   4.452   0.505  12.058 -0.7725  0.6562  0.8658
 4380TIP3   OH237334   1.415   4.291   9.691  0.3597  0.2147 -0.6609
 4380TIP3    H137335   1.485   4.330   9.639  0.1154  1.0485 -0.3833
 4380TIP3    H237336   1.399   4.206   9.650  0.6067  0.5871 -1.5522
 4381TIP3   OH237337   1.817   3.763  11.471 -0.1689 -0.3379 -0.3021
 4381TIP3    H137338   1.840   3.681  11.516  0.0427  0.4673  1.1142
 4381TIP3    H237339   1.890   3.779  11.411  0.1325 -0.8265 -0.0716
 4382TIP3   OH237340   1.643   3.601  10.797  0.0974 -0.0253 -0.0552
 4382TIP3    H137341   1.614   3.522  10.751  0.9702 -0.2358 -0.2539
 4382TIP3    H237342   1.618   3.673  10.738 -0.0423 -0.2017 -0.2135
 4383TIP3   OH237343   4.641   3.067  10.055  0.0606 -0.0402 -0.4693
 4383TIP3    H137344   4.680   3.151  10.081  1.4898 -1.0500  0.7978
 4383TIP3    H237345   4.654   3.063   9.960  3.2854 -0.3835 -0.1215
 4384TIP3   OH237346   2.278   4.241   9.695  0.3823  0.1667  0.3150
 4384TIP3    H137347   2.273   4.154   9.735  1.7040  1.2799  3.2182
 4384TIP3    H237348   2.364   4.243   9.653  0.0430 -0.1378 -0.4180
 4385TIP3   OH237349   1.087   3.154   9.596 -0.1359 -0.0250 -0.0759
 4385TIP3    H137350   1.064   3.199   9.514 -0.6477 -2.1813 -1.1820
 4385TIP3    H237351   1.183   3.152   9.596 -0.0788  1.5045  0.2858
 4386TIP3   OH237352   6.383   1.260   8.555  0.9860  0.1006 -0.4458
 4386TIP3    H137353   6.455   1.316   8.527  1.9753 -1.1153 -0.4311
 4386TIP3    H237354   6.313   1.276   8.492  1.2431  1.3233 -0.4436
 4387TIP3   OH237355   4.079   5.000   8.713 -0.0107  0.0627 -0.0104
 4387TIP3    H137356   3.997   4.982   8.666  0.5657  1.0050 -1.4354
 4387TIP3    H237357   4.098   4.918   8.759 -1.4191 -0.3837 -0.1562
 4388TIP3   OH237358   4.574   0.175  12.247 -0.2508  0.0957 -0.1925
 4388TIP3    H137359   4.481   0.150  12.244 -0.0961 -1.3104  2.7074
 4388TIP3    H237360   4.573   0.270  12.255 -1.4905  0.0730  0.1427
 4389TIP3   OH237361   0.736   5.880  11.633 -0.6802 -0.0447  0.1064
 4389TIP3    H137362   0.723   5.838  11.548 -2.7780 -0.5242  0.5877
 4389TIP3    H237363   0.821   5.849  11.664  0.3742  0.5590 -2.0062
 4390TIP3   OH237364   5.267   1.995  11.402 -0.1277 -0.0566  0.0664
 4390TIP3    H137365   5.227   2.076  11.434 -0.1427 -0.5958  1.4698
 4390TIP3    H237366   5.361   2.007  11.415 -0.0139  0.2443 -0.9609
 4391TIP3   OH237367   2.197   4.821  10.704  0.1085 -0.2785  0.6304
 4391TIP3    H137368   2.230   4.892  10.758 -0.0470 -0.7847  1.3994
 4391TIP3    H237369   2.275   4.782  10.664  0.2171  0.1273  0.4468
 4392TIP3   OH237370   2.762   4.425   9.396 -0.4280 -0.2471  0.1741
 4392TIP3    H137371   2.677   4.417   9.440 -1.4835 -0.1650 -1.7132
 4392TIP3    H237372   2.792   4.513   9.418 -2.3619  0.9480 -1.5269
 4393TIP3   OH237373   5.811   6.360   9.781 -0.2532 -0.0650  0.3017
 4393TIP3    H137374   5.752   6.285   9.780  0.0285 -0.3060  0.9732
 4393TIP3    H237375   5.762   6.430   9.738 -1.3090 -0.0432  1.4947
 4394TIP3   OH237376   5.646   4.448   9.326 -0.4193 -0.5293 -0.1597
 4394TIP3    H137377   5.688   4.422   9.244 -2.1229 -2.5123 -0.5033
 4394TIP3    H237378   5.673   4.380   9.389 -2.1168 -1.2237 -0.1180
 4395TIP3   OH237379   6.055   1.987  10.695 -0.0029  0.1786 -0.4025
 4395TIP3    H137380   6.108   1.961  10.770  1.2385 -0.0438 -1.3110
 4395TIP3    H237381   6.115   2.039  10.641 -1.7336  2.9770  0.1916
 4396TIP3   OH237382   2.275   1.365   8.240  0.3119 -0.2868  1.0873
 4396TIP3    H137383   2.209   1.390   8.304 -1.4976 -1.9058 -0.0006
 4396TIP3    H237384   2.356   1.354   8.290 -0.7884 -0.4528  2.8954
 4397TIP3   OH237385   2.156   1.330   9.025 -0.0479 -0.0782  0.2011
 4397TIP3    H137386   2.222   1.377   8.974  1.2166 -0.4291  1.4554
 4397TIP3    H237387   2.141   1.386   9.102 -0.5708 -0.4232  0.3526
 4398TIP3   OH237388   2.028   3.202  11.248  0.1197  0.2822 -0.0921
 4398TIP3    H137389   1.956   3.263  11.264  0.3145  0.7748 -1.0270
 4398TIP3    H237390   2.106   3.248  11.279  0.3441  0.7713 -1.3117
 4399TIP3   OH237391   2.451   1.463  12.209  0.1896 -0.1191  0.0413
 4399TIP3    H137392   2.413   1.382  12.175 -0.0013 -0.5549  1.2287
 4399TIP3    H237393   2.379   1.525  12.209  0.7936  0.7350 -2.7938
 4400TIP3   OH237394   6.610   4.988  11.267 -0.5483 -0.5070 -0.2123
 4400TIP3    H137395   6.555   4.957  11.339 -0.7145 -1.5219 -0.7619
 4400TIP3    H237396   6.596   4.925  11.197  1.9146 -1.2758 -0.1157
 4401TIP3   OH237397   1.636   1.768   8.429  0.0375  0.2700  0.3624
 4401TIP3    H137398   1.562   1.745   8.373  0.1351  0.4117  0.1754
 4401TIP3    H237399   1.625   1.861   8.447 -1.0519 -0.1558  2.1467
 4402TIP3   OH237400   3.267   0.458  11.265 -0.2162  0.4518 -0.5542
 4402TIP3    H137401   3.234   0.462  11.175  1.3794 -1.1232 -1.2590
 4402TIP3    H237402   3.211   0.393  11.308 -0.4911  0.6420 -0.6222
 4403TIP3   OH237403   5.410   0.336   9.286  0.1788 -0.0159  0.3985
 4403TIP3    H137404   5.497   0.300   9.305 -0.7971 -3.0274 -0.2288
 4403TIP3    H237405   5.349   0.272   9.323 -1.8348  2.2006  1.1754
 4404TIP3   OH237406   0.204   2.055  11.629  0.0900  0.0429  0.3791
 4404TIP3    H137407   0.157   2.137  11.642 -1.6892 -0.7403 -0.7555
 4404TIP3    H237408   0.192   2.007  11.711 -0.0969  0.3394  0.5275
 4405TIP3   OH237409   6.059   5.386   9.608 -0.1898  0.4319 -0.4047
 4405TIP3    H137410   6.064   5.482   9.602  1.5073  0.3212 -4.2886
 4405TIP3    H237411   6.112   5.364   9.684 -1.5502  2.5499  1.2686
 4406TIP3   OH237412   5.769   4.155  11.900  0.0818 -0.0955  0.5005
 4406TIP3    H137413   5.815   4.120  11.824 -0.4631  0.1885  0.0361
 4406TIP3    H237414   5.815   4.236  11.921  1.6499 -1.2762  1.8721
 4407TIP3   OH237415   0.470   5.633  10.899  0.4110  0.2647  0.0699
 4407TIP3    H137416   0.397   5.625  10.837  1.9194 -0.1840 -1.7451
 4407TIP3    H237417   0.452   5.568  10.966 -1.5941  1.1845  0.4964
 4408TIP3   OH237418   3.891   3.813  10.138  0.4380 -0.0642  0.2705
 4408TIP3    H137419   3.802   3.790  10.165  0.8435 -1.9968  0.0748
 4408TIP3    H237420   3.881   3.845  10.048 -0.1632  0.7172  0.5977
 4409TIP3   OH237421   5.814   6.112  11.176 -0.3022  0.3926 -0.7219
 4409TIP3    H137422   5.725   6.108  11.139 -0.4565 -1.4612 -0.2630
 4409TIP3    H237423   5.865   6.053  11.120 -0.1774 -1.2174  0.9839
 4410TIP3   OH237424   6.201   5.744  10.028  0.2182 -0.5030  0.3070
 4410TIP3    H137425   6.149   5.763   9.950  1.7449 -1.0107 -0.9018
 4410TIP3    H237426   6.268   5.812  10.029 -0.5845  0.3325  2.0106
 4411TIP3   OH237427   5.142   0.455  11.252 -0.2424  0.6595 -0.5337
 4411TIP3    H137428   5.181   0.513  11.186  0.1557  0.8839 -0.1087
 4411TIP3    H237429   5.115   0.377  11.203  2.4102 -0.3196 -0.5755
 4412TIP3   OH237430   1.925   6.236  11.579 -0.6259  0.8153 -0.6276
 4412TIP3    H137431   1.945   6.147  11.550 -0.8638  0.4428  0.3204
 4412TIP3    H237432   1.968   6.244  11.664 -1.2519  1.3330 -0.3477
 4413TIP3   OH237433   1.329   1.389   9.711 -0.2626 -0.3032  0.0275
 4413TIP3    H137434   1.287   1.454   9.767 -2.0273 -1.3184 -0.0268
 4413TIP3    H237435   1.403   1.356   9.762  0.1803  1.1471  0.3670
 4414TIP3   OH237436   0.908   5.801   8.315  0.1743  0.2255  0.0703
 4414TIP3    H137437   0.859   5.727   8.351 -1.0244  1.0875  0.2856
 4414TIP3    H237438   0.996   5.792   8.352  0.0444 -1.0557  0.1219
 4415TIP3   OH237439   2.498   5.971  12.112  0.0415  0.5806  0.0444
 4415TIP3    H137440   2.514   6.061  12.140 -1.5232  0.8182  0.2937
 4415TIP3    H237441   2.585   5.932  12.105  0.8559  2.4627 -1.3047
 4416TIP3   OH237442   4.371   0.001  12.448  0.3283 -0.0288  1.0326
 4416TIP3    H137443   4.319   0.081  12.444  0.7329  0.2390 -2.8126
 4416TIP3    H237444   4.459   0.030  12.470  0.4602  0.6655 -0.2894
 4417TIP3   OH237445   5.874   0.067   9.605 -0.3327  0.4548  0.5950
 4417TIP3    H137446   5.902   0.022   9.525 -1.2092  1.4561 -0.3070
 4417TIP3    H237447   5.792   0.022   9.630 -0.9361  1.1925 -0.0180
 4418TIP3   OH237448   0.882   1.191   9.070  0.1310 -0.4458  0.0203
 4418TIP3    H137449   0.834   1.272   9.089  0.6397 -0.2772  0.6036
 4418TIP3    H237450   0.883   1.186   8.974  2.1235  1.4992 -0.1559
 4419TIP3   OH237451   2.046   5.227  11.701 -0.1300 -0.3833  0.1828
 4419TIP3    H137452   2.038   5.302  11.759 -2.0931 -2.3310  2.6282
 4419TIP3    H237453   2.128   5.185  11.727  1.3468  1.1485 -1.6698
 4420TIP3   OH237454   3.371   6.658  12.132  0.2337  0.1568 -0.8783
 4420TIP3    H137455   3.276   6.647  12.123  0.3302 -0.7499 -0.8908
 4420TIP3    H237456   3.402   6.666  12.041  0.2915 -0.7741 -0.9559
 4421TIP3   OH237457   2.127   3.170  11.004 -0.4650 -0.3979 -0.3117
 4421TIP3    H137458   2.182   3.248  11.007  1.3939 -1.6696  1.8818
 4421TIP3    H237459   2.075   3.174  11.085  0.8666 -2.1618  0.7063
 4422TIP3   OH237460   1.626   3.017  11.835 -0.0451  0.5879 -0.0602
 4422TIP3    H137461   1.704   3.045  11.788 -0.5193  0.5163 -0.9109
 4422TIP3    H237462   1.592   2.944  11.784  0.1433 -0.3403  1.1185
 4423TIP3   OH237463   1.639   3.444  11.013 -0.2746  0.5636  0.7386
 4423TIP3    H137464   1.589   3.387  10.954 -2.6070  1.2854  1.9147
 4423TIP3    H237465   1.650   3.525  10.963  0.3401  0.2015  0.2498
 4424TIP3   OH237466   2.773   0.877   9.253 -0.6282  0.1895  0.4641
 4424TIP3    H137467   2.857   0.915   9.229 -0.6002 -0.6990 -0.9770
 4424TIP3    H237468   2.795   0.802   9.308 -0.4654 -0.0748  0.0415
 4425TIP3   OH237469   4.525   4.035  10.238  0.4306 -0.0781 -0.0931
 4425TIP3    H137470   4.525   4.031  10.334 -0.5004  1.8479  0.0473
 4425TIP3    H237471   4.588   3.969  10.211 -0.7847 -2.1320  1.7578
 4426TIP3   OH237472   1.997   2.241  11.775  0.1432  0.2963 -0.1001
 4426TIP3    H137473   2.008   2.186  11.697  0.0666 -0.2924  0.2995
 4426TIP3    H237474   2.081   2.284  11.786 -0.2829  1.5277 -1.3590
 4427TIP3   OH237475   1.660   6.197   9.609 -0.0949  0.3550 -0.3307
 4427TIP3    H137476   1.747   6.229   9.585  0.0629  0.7908  0.7680
 4427TIP3    H237477   1.621   6.169   9.526  1.9162 -2.0209 -0.5950
 4428TIP3   OH237478   3.803   1.312  11.026  0.2158  0.0592  0.0795
 4428TIP3    H137479   3.800   1.226  10.984  1.2551 -0.8170  1.7199
 4428TIP3    H237480   3.711   1.335  11.040 -0.0551 -1.2441  0.5252
 4429TIP3   OH237481   2.458   1.863  11.425 -0.2378 -0.4827 -0.1194
 4429TIP3    H137482   2.550   1.854  11.449  0.0110  0.4514 -0.6670
 4429TIP3    H237483   2.415   1.889  11.506  0.2643  0.6604 -0.1937
 4430TIP3   OH237484   4.025   4.879  12.002  0.0678  0.8091 -0.2182
 4430TIP3    H137485   4.031   4.888  12.097 -0.8931 -0.5821  0.0143
 4430TIP3    H237486   3.933   4.900  11.982 -0.2551 -0.7717 -0.5545
 4431TIP3   OH237487   4.080   0.580   8.298 -0.0999  0.2833  0.3803
 4431TIP3    H137488   4.105   0.528   8.222  1.2302 -0.7117  1.4435
 4431TIP3    H237489   3.985   0.568   8.305  0.3335 -4.3001  2.0586
 4432TIP3   OH237490   1.489   2.629   9.453 -0.3630  0.1367  0.5742
 4432TIP3    H137491   1.519   2.581   9.530 -0.5838 -2.7432 -0.9971
 4432TIP3    H237492   1.419   2.685   9.486 -1.0272 -1.6278  2.3937
 4433TIP3   OH237493   2.722   0.313   9.198  0.1075  0.0169 -0.4934
 4433TIP3    H137494   2.717   0.315   9.102 -0.4680  2.8232 -0.5112
 4433TIP3    H237495   2.635   0.339   9.227  0.7056  0.7981  0.7106
 4434TIP3   OH237496   2.471   0.547  11.295 -0.6870  0.2617  0.6453
 4434TIP3    H137497   2.499   0.513  11.210  0.1270 -0.7814  1.3023
 4434TIP3    H237498   2.453   0.640  11.279  0.7569  0.3976 -0.3591
 4435TIP3   OH237499   2.760   6.152  11.469 -0.0641  0.5910  0.5783
 4435TIP3    H137500   2.803   6.236  11.488  0.9034 -0.2626  2.4097
 4435TIP3    H237501   2.678   6.156  11.520 -0.0223  0.4180  0.6576
 4436TIP3   OH237502   4.803   0.583  10.004 -0.0420  0.4447  0.0595
 4436TIP3    H137503   4.767   0.669   9.985  3.0999  1.8577 -0.1550
 4436TIP3    H237504   4.839   0.591  10.093 -0.6284 -1.0276  0.4747
 4437TIP3   OH237505   1.048   3.768  11.951 -0.1716  0.0978  0.4547
 4437TIP3    H137506   1.044   3.863  11.960  1.3214  0.0564  1.9586
 4437TIP3    H237507   0.989   3.734  12.018 -1.1602 -0.0731 -0.4611
 4438TIP3   OH237508   4.769   5.691  11.750 -0.1140 -0.4355  0.3528
 4438TIP3    H137509   4.679   5.658  11.752  0.0332 -1.2283 -2.2707
 4438TIP3    H237510   4.763   5.772  11.700  0.4334  0.3447  1.5201
 4439TIP3   OH237511   5.387   5.943   9.243  0.1450 -0.3678  0.0203
 4439TIP3    H137512   5.358   5.933   9.152 -0.6752 -0.2158  0.2573
 4439TIP3    H237513   5.482   5.958   9.236 -0.0476  0.6057 -0.8768
 4440TIP3   OH237514   1.300   5.983  10.337 -0.0211  0.0328 -0.5022
 4440TIP3    H137515   1.257   6.064  10.367  1.2019  0.1974  0.9775
 4440TIP3    H237516   1.247   5.913  10.374  1.4794  0.2346  2.3011
 4441TIP3   OH237517   3.098   5.149   9.410 -0.3102  0.0211 -0.2394
 4441TIP3    H137518   3.128   5.059   9.397  1.7133  0.6202  0.0126
 4441TIP3    H237519   3.029   5.142   9.476  2.0855 -1.0460  2.3034
 4442TIP3   OH237520   1.505   1.124  11.433  0.4075 -0.4940 -0.4606
 4442TIP3    H137521   1.571   1.175  11.480 -0.3915 -0.5045  0.7537
 4442TIP3    H237522   1.496   1.044  11.485 -1.1996 -0.0833 -0.0332
 4443TIP3   OH237523   3.430   1.131  10.390 -0.8680  0.0314 -0.4381
 4443TIP3    H137524   3.403   1.222  10.404 -0.9198  0.1322 -1.1694
 4443TIP3    H237525   3.394   1.084  10.465  0.2853  0.8239  0.6726
 4444TIP3   OH237526   4.067   6.594  11.818  0.2046  0.1556  0.0057
 4444TIP3    H137527   4.030   6.618  11.902  1.0942 -0.0926  0.4839
 4444TIP3    H237528   4.124   6.668  11.796  0.4350 -0.0482 -0.0861
 4445TIP3   OH237529   2.927   3.530  10.495  0.2049  0.0318  0.5809
 4445TIP3    H137530   2.921   3.569  10.582  0.0463  0.9526  0.1683
 4445TIP3    H237531   3.011   3.483  10.496  1.0308  1.4533  0.6856
 4446TIP3   OH237532   5.198   3.093   9.159  0.3609  0.0726 -0.0116
 4446TIP3    H137533   5.271   3.135   9.204  1.2056  1.4573 -2.4616
 4446TIP3    H237534   5.234   3.010   9.128  1.4545  1.3118 -2.3439
 4447TIP3   OH237535   4.901   6.253   9.984 -0.4648 -0.0259 -0.0712
 4447TIP3    H137536   4.993   6.271   9.962 -0.5959  2.1352  0.9540
 4447TIP3    H237537   4.858   6.243   9.899  0.7464 -1.4218 -0.5668
 4448TIP3   OH237538   6.319   4.143   9.154 -0.5769 -0.0177 -0.6356
 4448TIP3    H137539   6.277   4.088   9.088 -1.2598  0.5954 -0.7253
 4448TIP3    H237540   6.391   4.186   9.107 -0.0335 -0.8186 -0.5634
 4449TIP3   OH237541   4.269   5.369  11.578 -0.0517  0.3199 -0.4635
 4449TIP3    H137542   4.301   5.447  11.533  0.7080  0.1782 -0.1739
 4449TIP3    H237543   4.339   5.305  11.567  0.5405  0.5465  1.6462
 4450TIP3   OH237544   5.505   5.967  10.276 -0.5598 -0.2619 -0.2960
 4450TIP3    H137545   5.547   5.961  10.190 -0.4360 -1.9734 -0.1602
 4450TIP3    H237546   5.458   5.884  10.285 -0.0420 -0.4001  1.5341
 4451TIP3   OH237547   2.458   5.853   9.997  0.2706  0.7754  0.3158
 4451TIP3    H137548   2.506   5.777   9.965 -1.6205 -1.6914  2.8662
 4451TIP3    H237549   2.500   5.874  10.081 -1.2713  0.3605  1.2246
 4452TIP3   OH237550   4.487   3.748  11.142  0.1664 -0.2605  0.0913
 4452TIP3    H137551   4.518   3.784  11.060 -0.0075  2.2904  1.0626
 4452TIP3    H237552   4.392   3.758  11.138  0.2440  1.2912  1.1411
 4453TIP3   OH237553   4.586   3.621   9.796 -0.2231  0.1299 -1.0045
 4453TIP3    H137554   4.607   3.538   9.839  1.2171  0.5430 -0.8685
 4453TIP3    H237555   4.565   3.596   9.705 -0.1736 -0.4130 -0.8709
 4454TIP3   OH237556   5.758   2.100  11.861 -0.2407 -0.1711 -0.1846
 4454TIP3    H137557   5.668   2.121  11.836 -0.0284  0.0111 -0.8173
 4454TIP3    H237558   5.805   2.091  11.778  0.4724  0.3894  0.1358
 4455TIP3   OH237559   6.502   0.290   9.989 -0.2555 -0.0916  0.5675
 4455TIP3    H137560   6.515   0.197  10.008 -2.4072 -0.4425  0.4965
 4455TIP3    H237561   6.454   0.292   9.907  0.9960  1.1618 -0.1746
 4456TIP3   OH237562   2.130   6.403   9.477 -0.5179  0.1034 -0.0889
 4456TIP3    H137563   2.081   6.436   9.402 -0.9641  1.1964  0.6516
 4456TIP3    H237564   2.183   6.478   9.505  1.2742 -0.9184 -0.6037
 4457TIP3   OH237565   0.179   1.914  10.751  0.5257  0.6533  0.3677
 4457TIP3    H137566   0.194   2.008  10.756  0.1205  1.0176 -2.9355
 4457TIP3    H237567   0.228   1.877  10.824  1.7160  3.3126  1.0148
 4458TIP3   OH237568   2.771   3.364  10.323 -0.3362  0.5314 -0.1854
 4458TIP3    H137569   2.684   3.346  10.359 -1.4679  2.2445 -1.8429
 4458TIP3    H237570   2.819   3.406  10.394 -0.8714 -0.3095  0.7023
 4459TIP3   OH237571   5.447   2.455  11.363 -0.1106 -0.0481 -0.0830
 4459TIP3    H137572   5.477   2.535  11.320 -0.5751  0.3712  0.3656
 4459TIP3    H237573   5.449   2.389  11.293  4.4386 -0.7892  0.4474
 4460TIP3   OH237574   6.693   3.211   9.353 -0.6989  0.0445  0.1692
 4460TIP3    H137575   6.641   3.217   9.433 -0.7623  0.2762  0.1124
 4460TIP3    H237576   6.628   3.205   9.283 -0.6440 -0.1437  0.1333
 4461TIP3   OH237577   6.527   2.496  10.070 -0.7590  0.2326 -0.5520
 4461TIP3    H137578   6.534   2.401  10.066 -0.4253  0.1720  0.7749
 4461TIP3    H237579   6.614   2.527  10.045 -0.3594  0.0959  0.5658
 4462TIP3   OH237580   6.501   5.495   8.681  0.5257 -0.1214 -0.4810
 4462TIP3    H137581   6.492   5.428   8.613  1.7633  0.2165 -1.0233
 4462TIP3    H237582   6.589   5.530   8.667  1.5676 -1.3037  2.4871
 4463TIP3   OH237583   2.000   2.199   9.523  0.5754 -0.7217 -0.0932
 4463TIP3    H137584   1.980   2.146   9.599  1.4554 -0.7949  0.0913
 4463TIP3    H237585   2.025   2.284   9.558 -1.9060  0.2295 -0.4172
 4464TIP3   OH237586   6.508   0.784  11.696  0.5129 -1.1469 -0.2792
 4464TIP3    H137587   6.458   0.742  11.766  0.2069  0.3892  0.4776
 4464TIP3    H237588   6.469   0.872  11.688  2.6207 -0.1392 -0.1501
 4465TIP3   OH237589   4.253   6.581  10.450 -0.2369  0.5033 -0.2375
 4465TIP3    H137590   4.191   6.587  10.523  2.6104  0.6560  2.3772
 4465TIP3    H237591   4.271   6.672  10.426 -0.1491  0.4982 -0.1913
 4466TIP3   OH237592   1.106   4.165   8.897  0.1888 -0.4087  0.0448
 4466TIP3    H137593   1.098   4.143   8.990 -0.3156  1.3483  0.4555
 4466TIP3    H237594   1.017   4.157   8.863 -0.0912  1.2454  0.3001
 4467TIP3   OH237595   1.080   2.346   9.552 -0.2826  0.5122  0.6390
 4467TIP3    H137596   1.170   2.339   9.520 -0.9794  2.0471 -1.9770
 4467TIP3    H237597   1.072   2.436   9.583 -0.8854  0.3361  1.0191
 4468TIP3   OH237598   3.635   3.442  11.024  0.7693  0.0596 -0.1407
 4468TIP3    H137599   3.662   3.379  11.091  0.6902  0.2260  0.0476
 4468TIP3    H237600   3.541   3.430  11.016  0.7624  0.1169 -0.1447
 4469TIP3   OH237601   2.361   2.682  12.251 -0.3510 -0.4206 -0.1449
 4469TIP3    H137602   2.359   2.593  12.215  0.8900 -0.6954  0.4151
 4469TIP3    H237603   2.423   2.729  12.196 -0.2355 -0.1862  0.1857
 4470TIP3   OH237604   5.282   4.797  12.093 -0.0539  0.3132  0.1418
 4470TIP3    H137605   5.257   4.708  12.066  0.8406  0.4806 -1.3465
 4470TIP3    H237606   5.207   4.851  12.067 -0.4527  0.0534  0.7326
 4471TIP3   OH237607   6.704   6.569   9.943 -0.0293  0.0826  0.4461
 4471TIP3    H137608   6.621   6.556   9.898  0.1434 -0.0295  0.1506
 4471TIP3    H237609   6.720   6.485   9.988  1.0939 -0.8098 -1.4754
 4472TIP3   OH237610   6.494   5.886   8.544 -0.4468  0.7381  0.2656
 4472TIP3    H137611   6.443   5.811   8.513 -1.9860  1.5314  0.7625
 4472TIP3    H237612   6.559   5.847   8.604  0.5203 -0.4431 -1.4750
 4473TIP3   OH237613   6.030   0.447  11.052 -0.4179 -0.3399 -0.1168
 4473TIP3    H137614   6.026   0.477  10.962  1.8315  1.3154  0.2612
 4473TIP3    H237615   6.028   0.351  11.045 -0.9672 -0.2423 -1.8315
 4474TIP3   OH237616   3.860   4.937  10.529 -0.4643  0.2886 -0.0133
 4474TIP3    H137617   3.916   4.909  10.601  0.5828  2.5485  0.1298
 4474TIP3    H237618   3.914   5.000  10.480 -1.4652 -0.5000 -2.2553
 4475TIP3   OH237619   1.095   4.714  10.097  0.0374  1.0969 -0.1049
 4475TIP3    H137620   1.180   4.673  10.117 -0.2688  0.1383 -0.6995
 4475TIP3    H237621   1.116   4.807  10.084  0.8755  1.0044  0.4726
 4476TIP3   OH237622   0.600   5.578  11.207  0.1341  0.0221 -0.3315
 4476TIP3    H137623   0.622   5.493  11.171 -0.8296 -1.0828  1.5442
 4476TIP3    H237624   0.550   5.559  11.286 -1.0988  2.3484 -0.4601
 4477TIP3   OH237625   2.197   1.884  11.295 -0.4859 -0.1062  0.8924
 4477TIP3    H137626   2.264   1.866  11.361 -0.6129 -0.7512  0.8573
 4477TIP3    H237627   2.202   1.978  11.280  1.8685 -0.3612 -0.6403
 4478TIP3   OH237628   6.128   5.380  11.588 -0.1567  0.1725  0.0924
 4478TIP3    H137629   6.209   5.424  11.615 -0.3241  0.4361  0.1624
 4478TIP3    H237630   6.106   5.420  11.504  0.5236 -0.8459 -0.6093
 4479TIP3   OH237631   2.768   3.595  12.127  0.1813  0.3252  0.3016
 4479TIP3    H137632   2.702   3.664  12.125  1.0809  1.1918 -0.3686
 4479TIP3    H237633   2.723   3.519  12.165 -0.7015  1.3957  1.4610
 4480TIP3   OH237634   3.816   4.150   9.621 -0.0226 -0.3021  0.5273
 4480TIP3    H137635   3.899   4.198   9.617 -0.3084  0.1375 -0.7875
 4480TIP3    H237636   3.841   4.059   9.607  0.3179 -0.2708  0.9206
 4481TIP3   OH237637   3.363   5.277   8.770 -0.1459 -0.2621  0.9470
 4481TIP3    H137638   3.298   5.342   8.743  0.6621  0.8212  1.5680
 4481TIP3    H237639   3.447   5.315   8.746  0.3166 -1.3865  0.7001
 4482TIP3   OH237640   2.594   2.072  10.277 -0.5865  0.3334  0.1022
 4482TIP3    H137641   2.513   2.021  10.288 -0.6095  0.8430  2.8851
 4482TIP3    H237642   2.664   2.009  10.292 -0.5241  0.4535  0.3063
 4483TIP3   OH237643   0.516   1.580  10.923  0.4489  0.5329 -0.1147
 4483TIP3    H137644   0.518   1.570  10.828  0.1457 -0.4383 -0.0281
 4483TIP3    H237645   0.464   1.660  10.938  0.9311  0.9730 -0.7712
 4484TIP3   OH237646   1.968   3.500  11.869  0.1088  0.8325 -0.0931
 4484TIP3    H137647   2.032   3.483  11.800 -1.6418 -0.2674 -1.5184
 4484TIP3    H237648   1.885   3.511  11.824 -1.7668 -3.1494  1.8276
 4485TIP3   OH237649   0.756   5.244   8.644  0.1687  0.0140  0.2106
 4485TIP3    H137650   0.847   5.249   8.614 -0.9230  2.0295 -3.3395
 4485TIP3    H237651   0.712   5.189   8.578 -1.3974 -0.0956  1.2962
 4486TIP3   OH237652   1.853   4.181  11.582 -0.3264  0.1020  0.5140
 4486TIP3    H137653   1.829   4.223  11.499  1.2770 -0.7216 -0.4263
 4486TIP3    H237654   1.919   4.239  11.619  0.9981 -0.9075 -0.1892
 4487TIP3   OH237655   3.382   6.040   9.193  0.4480  0.6268 -0.5970
 4487TIP3    H137656   3.456   6.016   9.248 -0.3278 -0.1473  0.1269
 4487TIP3    H237657   3.311   6.058   9.254 -0.8409 -1.5967 -1.3261
 4488TIP3   OH237658   1.347   6.320   9.543 -0.1130 -0.4090  0.5180
 4488TIP3    H137659   1.423   6.329   9.601  2.4488 -0.8822 -2.4720
 4488TIP3    H237660   1.311   6.233   9.563 -0.8789  0.4177  2.9985
 4489TIP3   OH237661   0.629   2.167   8.781  0.0668 -0.2873 -0.3214
 4489TIP3    H137662   0.695   2.141   8.716  0.4737 -0.2120  0.0521
 4489TIP3    H237663   0.678   2.222   8.843  0.6636 -3.3211  2.1720
 4490TIP3   OH237664   2.620   4.916  10.303  0.2389 -0.2486  0.3575
 4490TIP3    H137665   2.571   4.942  10.381 -0.3885  0.4806 -0.2599
 4490TIP3    H237666   2.700   4.876  10.337 -0.0339  0.0351  1.3697
 4491TIP3   OH237667   2.830   6.277  10.653 -0.1966 -0.0150  0.5699
 4491TIP3    H137668   2.806   6.363  10.689  1.0863  0.5641  0.1133
 4491TIP3    H237669   2.784   6.214  10.708 -1.3923  0.9735  0.7295
 4492TIP3   OH237670   4.700   0.015  10.378  0.4035  0.3441  0.0335
 4492TIP3    H137671   4.731   0.106  10.375 -0.2061  0.5961  0.8906
 4492TIP3    H237672   4.764  -0.030  10.433  1.3378 -0.0291 -1.3063
 4493TIP3   OH237673   6.322   3.601  10.594  0.2830  0.0769  0.2284
 4493TIP3    H137674   6.392   3.599  10.529 -0.9250  0.2582 -1.1143
 4493TIP3    H237675   6.274   3.519  10.581 -1.6279  1.3195 -1.0406
 4494TIP3   OH237676   4.091   3.979  11.996 -0.4589 -0.4511 -0.1261
 4494TIP3    H137677   4.079   3.889  12.027  0.3456 -0.4633  0.1723
 4494TIP3    H237678   4.055   3.979  11.907  0.9211 -1.4850 -0.7270
 4495TIP3   OH237679   5.793   1.722  12.011  0.1291  0.0471 -0.3618
 4495TIP3    H137680   5.773   1.793  12.073 -2.1162 -1.4141  0.7355
 4495TIP3    H237681   5.719   1.721  11.951  0.8974 -0.4057 -1.3312
 4496TIP3   OH237682   5.030   4.254   9.981  0.2785  0.0660  0.0545
 4496TIP3    H137683   5.037   4.243  10.076  1.0917 -2.1754 -0.2246
 4496TIP3    H237684   5.041   4.166   9.945 -0.3744  0.8071 -2.1226
 4497TIP3   OH237685   0.418   5.832  12.152  0.0764 -0.0197 -0.2848
 4497TIP3    H137686   0.371   5.881  12.085 -0.8465 -0.6289 -0.0976
 4497TIP3    H237687   0.356   5.823  12.224  0.3709 -1.0698 -0.1384
 4498TIP3   OH237688   0.191   0.318  11.359  0.6281  0.5113  0.9740
 4498TIP3    H137689   0.240   0.244  11.322  0.1921  0.3300  0.7508
 4498TIP3    H237690   0.166   0.370  11.283  0.2432  0.4565  1.0614
 4499TIP3   OH237691   5.595   4.481   8.729  0.1661  0.4513  0.2547
 4499TIP3    H137692   5.689   4.461   8.725 -0.1557 -1.1391  0.0023
 4499TIP3    H237693   5.566   4.441   8.811 -0.4793  0.0318 -0.1703
 4500TIP3   OH237694   1.674   1.160   8.264  0.0893 -0.7278 -0.1130
 4500TIP3    H137695   1.751   1.216   8.271  0.2064 -1.0785  2.0921
 4500TIP3    H237696   1.601   1.221   8.251  0.2269 -0.0092  2.1400
 4501TIP3   OH237697   2.239   6.004   9.608 -0.3137  0.1576 -0.1238
 4501TIP3    H137698   2.226   6.080   9.665 -1.7860  0.4437 -0.7896
 4501TIP3    H237699   2.238   6.040   9.519  0.8278 -0.4249 -0.3916
 4502TIP3   OH237700   2.236   3.936   9.750 -0.4782 -0.0335  0.0149
 4502TIP3    H137701   2.265   3.853   9.788  2.9407  1.1211  0.2218
 4502TIP3    H237702   2.247   3.923   9.655  1.3861  0.5417  0.1123
 4503TIP3   OH237703   4.021   6.271   8.623 -0.6715 -0.1483 -0.2573
 4503TIP3    H137704   4.093   6.326   8.592 -0.5812  0.2222  0.5693
 4503TIP3    H237705   3.946   6.330   8.629 -0.1281  0.4164  2.4415
 4504TIP3   OH237706   1.670   6.636  10.862 -0.1698 -0.5312  0.3124
 4504TIP3    H137707   1.612   6.574  10.819  0.7568 -1.0736 -0.1975
 4504TIP3    H237708   1.665   6.715  10.807 -0.6490 -0.4697  0.4428
 4505TIP3   OH237709   6.648   2.480   9.122 -0.5072 -0.5354  0.0815
 4505TIP3    H137710   6.606   2.393   9.121 -1.1158 -0.2475  0.0598
 4505TIP3    H237711   6.648   2.508   9.031 -1.2244 -0.0896  0.2099
 4506TIP3   OH237712   3.834   4.017  10.827 -0.4490 -0.1002 -0.1611
 4506TIP3    H137713   3.885   4.076  10.883  0.5022 -1.5394  0.5454
 4506TIP3    H237714   3.745   4.022  10.862 -0.6296  1.7128 -0.7992
 4507TIP3   OH237715   3.002   0.831  10.122 -0.1094 -0.1446 -0.1003
 4507TIP3    H137716   3.051   0.887  10.063 -0.6870  0.8232  0.3179
 4507TIP3    H237717   3.063   0.760  10.144  0.4060 -0.0418 -1.1357
 4508TIP3   OH237718   0.834   1.327   8.565 -0.2963  0.5046 -0.0501
 4508TIP3    H137719   0.885   1.248   8.551 -2.8675 -1.0751 -1.2902
 4508TIP3    H237720   0.868   1.390   8.501 -0.2203 -0.6790 -1.2155
 4509TIP3   OH237721   0.553   2.595  11.497 -0.4740 -0.0501 -0.3979
 4509TIP3    H137722   0.542   2.567  11.406 -0.7218 -0.8147 -0.1428
 4509TIP3    H237723   0.554   2.513  11.547  1.4973  0.2361  0.1133
 4510TIP3   OH237724   4.070   6.685   8.712  0.1558  0.3295 -0.1000
 4510TIP3    H137725   4.022   6.686   8.629  0.0118 -0.3540 -0.0311
 4510TIP3    H237726   4.136   6.754   8.702 -0.4378  0.8604 -0.4326
 4511TIP3   OH237727   3.276   4.513  12.307 -0.5195  0.6799 -0.0350
 4511TIP3    H137728   3.211   4.532  12.374  0.3987 -0.5601  1.2663
 4511TIP3    H237729   3.267   4.419  12.291 -0.0487  0.7725 -0.9291
 4512TIP3   OH237730   5.570   2.993  11.048 -0.2042 -0.6960 -0.0384
 4512TIP3    H137731   5.554   2.951  11.132 -0.6885  0.8819  0.6893
 4512TIP3    H237732   5.483   3.022  11.018 -0.3051 -2.6444 -1.9057
 4513TIP3   OH237733   3.982   3.334  11.508  0.0827 -0.3619 -0.4023
 4513TIP3    H137734   3.960   3.427  11.500 -2.3063 -0.9443 -1.7830
 4513TIP3    H237735   4.046   3.319  11.438 -0.2855  0.0789 -0.8494
 4514TIP3   OH237736   4.292   6.074   9.234 -0.4832  0.8258  0.3769
 4514TIP3    H137737   4.318   6.107   9.148 -1.1222 -1.0043 -0.5722
 4514TIP3    H237738   4.269   5.983   9.218  0.5655  0.0839  2.7390
 4515TIP3   OH237739   0.346   6.608  11.492 -0.3488  0.4669  0.1099
 4515TIP3    H137740   0.411   6.558  11.443 -0.3889  0.6178 -0.1000
 4515TIP3    H237741   0.376   6.604  11.583 -0.7071 -0.4985  0.2010
 4516TIP3   OH237742   1.247   3.395  10.554 -0.3446 -0.1979  0.0546
 4516TIP3    H137743   1.321   3.447  10.586 -1.0364  0.2884  0.9074
 4516TIP3    H237744   1.251   3.314  10.604 -0.1923 -0.3239 -0.1559
 4517TIP3   OH237745   4.237   1.809  10.947  0.1607 -0.2275 -0.8059
 4517TIP3    H137746   4.264   1.897  10.969  1.7130 -0.9715  0.4301
 4517TIP3    H237747   4.257   1.800  10.854 -1.1920  1.0962 -1.2573
 4518TIP3   OH237748   5.390   4.695   8.711 -0.4181  0.1482 -0.3632
 4518TIP3    H137749   5.437   4.613   8.697  0.5115  0.3979  1.0736
 4518TIP3    H237750   5.416   4.751   8.638  0.9827  0.0318  0.0234
 4519TIP3   OH237751   2.474   6.037   9.233  0.9089  0.1742  0.0978
 4519TIP3    H137752   2.454   5.963   9.290  3.0088  0.1575  0.9033
 4519TIP3    H237753   2.488   6.111   9.292  3.1395  0.1575 -0.3073
 4520TIP3   OH237754   4.398   1.443  10.884 -0.6434  0.3600 -0.1690
 4520TIP3    H137755   4.458   1.513  10.857 -0.5200  0.3993  0.2093
 4520TIP3    H237756   4.313   1.473  10.852 -0.3095 -0.2440 -1.7491
 4521TIP3   OH237757   3.519   3.806  11.240  0.0517 -0.5915  0.4103
 4521TIP3    H137758   3.480   3.737  11.293  0.2955 -1.3201 -0.3378
 4521TIP3    H237759   3.541   3.764  11.157  1.3670  0.0721  0.3841
 4522TIP3   OH237760   3.083   1.173   9.107 -0.0875  0.2261 -0.2212
 4522TIP3    H137761   3.099   1.091   9.154  2.3695 -0.1932 -1.6031
 4522TIP3    H237762   3.167   1.220   9.111 -0.0265  0.6081 -3.1833
 4523TIP3   OH237763   2.417   4.374  10.194 -0.3915  0.9184 -0.4941
 4523TIP3    H137764   2.513   4.377  10.196 -0.3705  2.2277  2.9774
 4523TIP3    H237765   2.392   4.341  10.280 -3.0844  2.1623 -0.6935
 4524TIP3   OH237766   0.479   6.013   9.859 -0.5026  0.4126 -0.1097
 4524TIP3    H137767   0.488   5.997   9.953 -1.8126 -1.7940 -0.2824
 4524TIP3    H237768   0.406   6.074   9.852 -1.8830 -1.1038  0.2961
 4525TIP3   OH237769   0.305   2.536  10.974 -0.2554 -0.3158  0.4815
 4525TIP3    H137770   0.302   2.478  11.050 -0.8335 -1.2945 -0.2672
 4525TIP3    H237771   0.247   2.495  10.911 -0.2654  0.8203 -0.2621
 4526TIP3   OH237772   3.843   3.965  11.599  0.8783 -0.0410  0.1197
 4526TIP3    H137773   3.888   3.894  11.645 -0.1313 -1.0794 -0.4310
 4526TIP3    H237774   3.914   4.021  11.567  1.9910 -2.4232 -2.0250
 4527TIP3   OH237775   0.695   0.987   8.338  0.2515 -0.5957  0.3087
 4527TIP3    H137776   0.657   1.074   8.350  0.9031 -0.2318 -0.1759
 4527TIP3    H237777   0.620   0.927   8.339 -0.5357  0.2269 -2.0305
 4528TIP3   OH237778   2.157   5.350   9.879 -0.7324 -0.3583 -0.4138
 4528TIP3    H137779   2.200   5.432   9.854  0.1164  0.2135  2.5650
 4528TIP3    H237780   2.063   5.368   9.871 -0.5539  0.8992  0.1255
 4529TIP3   OH237781   5.414   3.593  12.257 -0.5370 -0.1280  0.1262
 4529TIP3    H137782   5.384   3.683  12.261 -1.0454 -0.1047 -2.6176
 4529TIP3    H237783   5.341   3.541  12.291 -1.1563  0.3591 -0.4477
 4530TIP3   OH237784   1.695   0.417   8.789  0.2148 -0.0951 -0.0097
 4530TIP3    H137785   1.621   0.444   8.735 -1.2399 -2.9172  0.3507
 4530TIP3    H237786   1.661   0.421   8.879  0.6475 -0.9676  0.2003
 4531TIP3   OH237787   4.135   5.890  10.416  0.1195  0.3810  0.1543
 4531TIP3    H137788   4.083   5.816  10.445  0.6103  0.4111  1.1564
 4531TIP3    H237789   4.077   5.966  10.426 -0.1608  0.2268 -0.2521
 4532TIP3   OH237790   1.900   3.673  11.028  0.1971 -0.4233  0.1775
 4532TIP3    H137791   1.814   3.678  10.985  0.8367 -0.0784 -1.1196
 4532TIP3    H237792   1.934   3.762  11.024  0.8830 -0.6831  0.0895
 4533TIP3   OH237793   4.622   5.922  10.862 -0.2222 -0.2519  0.0105
 4533TIP3    H137794   4.664   5.836  10.858 -0.9544 -0.9167  3.4289
 4533TIP3    H237795   4.530   5.904  10.880 -0.8983  1.2721 -1.6193
 4534TIP3   OH237796   1.697   1.897  10.236  0.4932  0.3128 -0.0250
 4534TIP3    H137797   1.673   1.984  10.267 -2.6690 -1.0723  2.0483
 4534TIP3    H237798   1.738   1.855  10.312 -0.0656 -0.6710 -0.2485
 4535TIP3   OH237799   4.699   5.753  10.389  0.3635 -0.2371 -0.0411
 4535TIP3    H137800   4.658   5.750  10.302 -1.2842 -0.4755  0.7062
 4535TIP3    H237801   4.661   5.679  10.436  1.2650 -0.1353  0.8873
 4536TIP3   OH237802   3.030   4.184   9.906  0.2089  0.3002 -0.0498
 4536TIP3    H137803   3.071   4.270   9.905  0.4495  0.1777 -0.4645
 4536TIP3    H237804   3.075   4.134   9.838 -1.8175  0.7288 -1.8099
 4537TIP3   OH237805   1.098   4.408  10.284 -0.2252  0.1412  0.3022
 4537TIP3    H137806   1.137   4.325  10.258  0.1901  1.4211 -3.9163
 4537TIP3    H237807   1.018   4.414  10.233 -1.6568  1.2598  2.5147
 4538TIP3   OH237808   1.592   2.823   9.710  0.3016 -0.1524  0.3175
 4538TIP3    H137809   1.564   2.815   9.801 -3.2644 -1.3587 -0.7174
 4538TIP3    H237810   1.601   2.733   9.680  2.9390  0.2251 -0.2001
 4539TIP3   OH237811   3.964   3.956  10.358 -0.1722  0.1468  0.5187
 4539TIP3    H137812   3.944   3.911  10.275 -2.0923  0.3487  0.8446
 4539TIP3    H237813   3.909   3.912  10.423  2.5651 -1.2156  2.1219
 4540TIP3   OH237814   5.553   6.602  10.015 -0.0202 -0.6171 -0.1602
 4540TIP3    H137815   5.547   6.601   9.919  0.1825 -0.1547 -0.1836
 4540TIP3    H237816   5.641   6.636  10.033 -0.2737 -0.1204  0.1856
 4541TIP3   OH237817   3.411   4.018  11.130  0.1507  0.4157  0.2282
 4541TIP3    H137818   3.328   4.021  11.178  0.4810  1.9731  0.7551
 4541TIP3    H237819   3.461   3.949  11.174 -0.9099 -0.6672 -0.2049
 4542TIP3   OH237820   0.140   5.097  11.180  0.4666 -0.3858  0.4159
 4542TIP3    H137821   0.071   5.052  11.230  0.0099  0.4334  0.5548
 4542TIP3    H237822   0.179   5.029  11.126 -1.4177 -0.6401 -0.7475
 4543TIP3   OH237823   6.573   4.871  11.814 -0.7060  0.1364 -1.3085
 4543TIP3    H137824   6.659   4.866  11.773  0.5969 -0.9851  1.3231
 4543TIP3    H237825   6.518   4.812  11.762  0.3124  0.2368 -2.5350
 4544TIP3   OH237826   0.727   4.083  10.462 -0.2171 -0.3507 -0.3620
 4544TIP3    H137827   0.713   4.023  10.535 -0.6155  0.5695  0.3336
 4544TIP3    H237828   0.774   4.157  10.500 -0.1679  0.0130 -1.1086
 4545TIP3   OH237829   0.443   3.085   9.623  0.0261 -0.4019  0.3566
 4545TIP3    H137830   0.504   3.119   9.558  0.4691 -1.1067  0.3874
 4545TIP3    H237831   0.360   3.128   9.603  1.1652  3.1219  2.3271
 4546TIP3   OH237832   3.324   6.215   9.781 -0.6574  0.8969  0.3533
 4546TIP3    H137833   3.399   6.157   9.765 -2.1176 -0.6418 -1.3898
 4546TIP3    H237834   3.357   6.303   9.761  0.7985  0.3124  0.0631
 4547TIP3   OH237835   3.322   1.818   9.299  0.0130  0.2236  0.2408
 4547TIP3    H137836   3.386   1.815   9.228 -0.5359 -1.3182 -0.2083
 4547TIP3    H237837   3.367   1.866   9.369  0.3976  2.2075 -1.2635
 4548TIP3   OH237838   0.590   3.460  11.287 -0.6637 -0.1692  0.2315
 4548TIP3    H137839   0.513   3.409  11.264  0.4091 -2.6311  1.6654
 4548TIP3    H237840   0.645   3.457  11.209 -1.4116  0.4986 -0.3460
 4549TIP3   OH237841   3.830   1.015  10.419 -0.0932  0.2051  0.3122
 4549TIP3    H137842   3.834   0.992  10.512 -0.8863  1.5445  0.7212
 4549TIP3    H237843   3.892   1.087  10.409 -0.4660  0.4803 -0.0594
 4550TIP3   OH237844   4.339   5.974   9.661  0.4820 -0.0466  0.2731
 4550TIP3    H137845   4.284   5.943   9.589  0.6609  1.4845 -0.5740
 4550TIP3    H237846   4.335   6.070   9.655  0.8439  0.1202  2.0542
 4551TIP3   OH237847   1.064   6.255   9.557 -0.3500 -0.1216 -0.6659
 4551TIP3    H137848   1.072   6.163   9.532 -0.6230 -0.2338 -0.3487
 4551TIP3    H237849   1.126   6.266   9.629  0.7730  0.3142 -1.6636
 4552TIP3   OH237850   5.524   6.322  11.750 -0.0628 -0.3363  0.3088
 4552TIP3    H137851   5.598   6.268  11.721  0.7312  0.6468  0.4818
 4552TIP3    H237852   5.544   6.344  11.840  0.8518  2.2385 -0.4479
 4553TIP3   OH237853   3.954   4.260  11.505 -0.0227 -0.2294  0.4994
 4553TIP3    H137854   3.980   4.189  11.447  0.2308  1.1058 -1.1034
 4553TIP3    H237855   3.860   4.248  11.515 -0.1907 -0.1410 -0.7344
 4554TIP3   OH237856   1.358   1.088  11.772  0.6474  0.0496 -0.3346
 4554TIP3    H137857   1.420   1.078  11.844 -0.3016 -2.1276  0.2449
 4554TIP3    H237858   1.294   1.151  11.804  2.5943  2.6568 -1.0838
 4555TIP3   OH237859   3.538   1.343  11.132  0.7675  0.0142  0.3709
 4555TIP3    H137860   3.465   1.297  11.091  0.4012  1.0374 -0.1686
 4555TIP3    H237861   3.557   1.293  11.211 -0.6059 -0.2061  0.5884
 4556TIP3   OH237862   3.877   1.163   9.562 -0.3101 -0.6423  0.2256
 4556TIP3    H137863   3.894   1.070   9.579  2.1009 -0.3954 -0.4658
 4556TIP3    H237864   3.851   1.199   9.647 -0.1983 -1.7177  0.7283
 4557TIP3   OH237865   6.467   2.474  11.784  0.0270  0.2045 -0.1897
 4557TIP3    H137866   6.543   2.448  11.836 -0.4684 -1.8835 -0.4135
 4557TIP3    H237867   6.476   2.569  11.773  1.8923  0.1908  0.8747
 4558TIP3   OH237868   1.196   1.841   9.362 -0.4409  0.2788  0.3682
 4558TIP3    H137869   1.201   1.895   9.441  0.1505 -0.0157  0.5356
 4558TIP3    H237870   1.221   1.753   9.390 -0.5173  0.1042 -0.0871
 4559TIP3   OH237871   2.194   6.262  12.109  0.0671  0.0715 -0.0076
 4559TIP3    H137872   2.147   6.322  12.168  1.0962  0.7681  0.1185
 4559TIP3    H237873   2.205   6.182  12.161  0.9087  0.6562  0.7510
 4560TIP3   OH237874   3.645   5.857   9.207  0.3579 -0.3588 -0.2081
 4560TIP3    H137875   3.678   5.908   9.281 -1.1489 -1.0695  1.0251
 4560TIP3    H237876   3.710   5.787   9.196  1.0460  0.2585 -0.1512
 4561TIP3   OH237877   4.448   1.466   8.974  0.1859 -1.0211 -0.3487
 4561TIP3    H137878   4.524   1.464   8.917  0.5316 -0.9736  0.1025
 4561TIP3    H237879   4.454   1.384   9.024  0.9842 -0.1737  1.0081
 4562TIP3   OH237880   3.770   1.205   9.824 -0.3342 -0.2258 -0.5138
 4562TIP3    H137881   3.703   1.151   9.864 -0.2297  0.4691  0.6766
 4562TIP3    H237882   3.737   1.295   9.832  1.3800  0.3143  1.6156
 4563TIP3   OH237883   3.940   2.436  12.189 -0.7352  0.2591  0.1988
 4563TIP3    H137884   3.870   2.404  12.133  1.4558  0.1407 -2.7331
 4563TIP3    H237885   3.993   2.359  12.208  0.2856  0.8090 -0.3142
 4564TIP3   OH237886   2.995   5.703   9.201 -0.7303 -0.3816 -0.2867
 4564TIP3    H137887   3.030   5.644   9.267 -0.2943  1.0381  0.8002
 4564TIP3    H237888   2.928   5.651   9.156  1.2350 -2.4699 -1.0108
 4565TIP3   OH237889   4.710   2.239  11.758 -0.5198 -0.4228  0.1899
 4565TIP3    H137890   4.652   2.313  11.774 -0.8560 -0.8599  1.0195
 4565TIP3    H237891   4.653   2.163  11.759 -0.3330 -0.6306 -1.6642
 4566TIP3   OH237892   6.518   0.503   8.855 -0.4197 -0.3064  0.0999
 4566TIP3    H137893   6.569   0.579   8.826 -0.6919 -0.5172 -0.9682
 4566TIP3    H237894   6.549   0.431   8.800  0.6073 -1.2558  1.8277
 4567TIP3   OH237895   1.803   3.004  10.500 -0.0676 -0.1065  0.0052
 4567TIP3    H137896   1.820   2.920  10.543 -1.5963 -0.2787  0.3272
 4567TIP3    H237897   1.887   3.049  10.502 -0.1029  0.1060  3.6694
 4568TIP3   OH237898   1.811   5.189   8.646 -0.3483 -0.1070 -0.3966
 4568TIP3    H137899   1.771   5.122   8.702  0.4138 -0.7834 -0.6465
 4568TIP3    H237900   1.900   5.158   8.631 -0.1184  0.7521 -0.8776
 4569TIP3   OH237901   5.105   1.874  10.555 -0.4826  0.6978  0.5711
 4569TIP3    H137902   5.112   1.949  10.614  1.8320 -0.7437  2.2729
 4569TIP3    H237903   5.156   1.899  10.478 -2.1823  1.9561 -0.2144
 4570TIP3   OH237904   2.633   1.036  10.454  0.3692  0.5869 -0.0914
 4570TIP3    H137905   2.705   1.012  10.397  0.3871 -1.9965  0.8906
 4570TIP3    H237906   2.674   1.063  10.536  0.2555  1.2815 -0.2550
 4571TIP3   OH237907   0.793   5.334   9.792  0.6306 -0.1814  0.4129
 4571TIP3    H137908   0.717   5.392   9.793  1.2968  0.6959  0.5851
 4571TIP3    H237909   0.866   5.388   9.822  1.7513 -0.4064 -1.7168
 4572TIP3   OH237910   2.821   2.185   8.921  0.4861  0.2067 -0.6932
 4572TIP3    H137911   2.732   2.217   8.905 -0.1929 -1.9984 -1.6306
 4572TIP3    H237912   2.865   2.193   8.837  0.8756  0.3796 -0.4748
 4573TIP3   OH237913   4.159   2.754  10.373  0.7174  0.7393 -0.0838
 4573TIP3    H137914   4.083   2.812  10.379  0.4502  0.3576  0.2743
 4573TIP3    H237915   4.235   2.813  10.376  0.4338  1.1498 -0.8265
 4574TIP3   OH237916   5.278   4.201  12.051  0.0407 -0.8131  0.4258
 4574TIP3    H137917   5.187   4.223  12.071 -0.3958 -2.1859  0.0362
 4574TIP3    H237918   5.273   4.122  11.998  1.3414  0.5855 -1.9568
 4575TIP3   OH237919   3.005   2.627  12.174 -0.3780  0.0991 -0.9549
 4575TIP3    H137920   3.015   2.722  12.178 -0.2696  0.1725  4.5958
 4575TIP3    H237921   3.094   2.593  12.184 -0.7474 -0.3035  1.8309
 4576TIP3   OH237922   3.549   4.963  12.204 -0.3569  0.3907  0.1307
 4576TIP3    H137923   3.531   4.870  12.220  0.6459  0.0368 -0.7277
 4576TIP3    H237924   3.607   4.964  12.128  0.2097  1.6827  0.5499
 4577TIP3   OH237925   5.339   3.843  12.282  0.1224 -0.1913  0.0926
 4577TIP3    H137926   5.264   3.901  12.296 -0.9238 -0.4609 -3.4596
 4577TIP3    H237927   5.415   3.898  12.299 -0.8666  1.6767 -1.2048
 4578TIP3   OH237928   4.205   5.334  10.532 -0.0534  0.1760 -0.2294
 4578TIP3    H137929   4.264   5.403  10.565 -0.3127  0.1706  0.2548
 4578TIP3    H237930   4.137   5.382  10.483 -0.1625  0.2550 -0.0009
 4579TIP3   OH237931   1.895   1.874   9.236 -0.3893  0.6205  0.7214
 4579TIP3    H137932   1.854   1.898   9.153 -0.5027 -1.2601  0.1760
 4579TIP3    H237933   1.821   1.864   9.297 -0.3886  1.1186  0.8024
 4580TIP3   OH237934   3.795   2.002  10.383 -0.1807 -0.1101 -0.0388
 4580TIP3    H137935   3.801   2.072  10.318 -1.8703 -0.7732 -0.9821
 4580TIP3    H237936   3.712   1.958  10.363 -0.6358 -0.5021  2.4211
 4581TIP3   OH237937   1.049   2.686  11.982 -0.9629 -0.0160 -0.1199
 4581TIP3    H137938   0.955   2.705  11.989 -1.1449 -1.4076  2.0670
 4581TIP3    H237939   1.053   2.592  11.964  0.0213  0.3186 -1.8117
 4582TIP3   OH237940   2.510   1.164   8.046  0.1833  0.6610  0.2135
 4582TIP3    H137941   2.440   1.227   8.063  0.3547  1.6278 -2.1952
 4582TIP3    H237942   2.582   1.218   8.012  1.0865 -0.6127  0.0267
 4583TIP3   OH237943   5.864   1.790   9.937 -0.1973  0.5350  0.5827
 4583TIP3    H137944   5.877   1.885   9.933 -0.7748  0.8497  3.7545
 4583TIP3    H237945   5.947   1.753   9.909  0.9435  2.0774  1.7621
 4584TIP3   OH237946   2.928   1.171   9.842  0.0061 -0.0959 -0.0510
 4584TIP3    H137947   2.947   1.253   9.796  0.4784 -0.6482 -0.8602
 4584TIP3    H237948   2.845   1.142   9.804  0.2102 -0.3629 -0.2982
 4585TIP3   OH237949   3.411   2.470  10.600 -0.2690  0.1490 -0.1858
 4585TIP3    H137950   3.319   2.457  10.577  0.0871  0.0962 -1.6939
 4585TIP3    H237951   3.415   2.560  10.632 -0.8250  0.2055 -0.2505
 4586TIP3   OH237952   0.759   6.622  10.806 -0.0286 -0.2637 -0.2269
 4586TIP3    H137953   0.854   6.616  10.792  0.1400  0.7269  0.3830
 4586TIP3    H237954   0.722   6.558  10.746  1.1742 -2.6255  1.4083
 4587TIP3   OH237955   5.512   5.732   8.436 -0.0098 -0.0826  0.6071
 4587TIP3    H137956   5.507   5.640   8.459  0.5213 -0.4772 -0.7812
 4587TIP3    H237957   5.518   5.777   8.520 -1.5504 -1.1984  1.3538
 4588TIP3   OH237958   1.433   2.435   8.973  0.1887  0.1465  0.3740
 4588TIP3    H137959   1.444   2.485   8.892 -0.0952  0.0756  0.2880
 4588TIP3    H237960   1.487   2.481   9.037 -0.4317  0.8447  0.4143
 4589TIP3   OH237961   5.104   6.104  10.152  0.0229  0.4765  0.1389
 4589TIP3    H137962   5.191   6.131  10.182  0.0123 -0.1167  0.7333
 4589TIP3    H237963   5.113   6.098  10.057  0.9987 -0.7559  0.2734
 4590TIP3   OH237964   6.678   6.290  11.450  0.5163  0.2294 -0.4650
 4590TIP3    H137965   6.699   6.269  11.541  1.1439 -0.3385 -0.7290
 4590TIP3    H237966   6.584   6.307  11.450  0.3705 -0.5342  0.1480
 4591TIP3   OH237967   0.731   4.749   9.450 -0.2804  0.0140  0.0401
 4591TIP3    H137968   0.687   4.821   9.405 -0.8060  1.0375  2.0686
 4591TIP3    H237969   0.804   4.726   9.393 -2.1274 -0.2412 -2.3480
 4592TIP3   OH237970   1.770   1.103  11.826 -0.3951  0.6848  0.2795
 4592TIP3    H137971   1.757   1.149  11.743 -0.5816  0.9627  0.4591
 4592TIP3    H237972   1.824   1.162  11.878 -2.1698  1.5924  1.2129
 4593TIP3   OH237973   0.448   1.547   8.821  0.5536  0.2278  0.3545
 4593TIP3    H137974   0.381   1.535   8.753  0.4059 -0.8850  0.6609
 4593TIP3    H237975   0.453   1.461   8.864  0.4222  0.9672  1.9479
 4594TIP3   OH237976   0.799   2.120   9.885  0.2876  0.2426 -0.1845
 4594TIP3    H137977   0.830   2.133   9.796  0.3520 -2.3498 -0.6275
 4594TIP3    H237978   0.879   2.106   9.937  0.1788 -0.3727 -0.1653
 4595TIP3   OH237979   2.516   6.268   9.546 -0.2348 -0.3551 -0.1113
 4595TIP3    H137980   2.481   6.254   9.634 -1.3412  0.5774 -0.3677
 4595TIP3    H237981   2.439   6.296   9.495  0.8615  1.6748 -0.7455
 4596TIP3   OH237982   4.204   6.518   9.391  0.1900  0.1912  0.1137
 4596TIP3    H137983   4.123   6.469   9.406 -0.0498  0.7701  0.7905
 4596TIP3    H237984   4.180   6.609   9.411  0.7471  0.5144 -0.6514
 4597TIP3   OH237985   1.405   0.372   9.266 -0.3443 -0.2799 -0.5657
 4597TIP3    H137986   1.469   0.442   9.257 -0.4479 -0.2838 -1.4324
 4597TIP3    H237987   1.415   0.319   9.187 -1.3420 -0.3456 -0.6684
 4598TIP3   OH237988   2.748   3.028  11.806 -0.1332  0.2221 -0.5767
 4598TIP3    H137989   2.740   2.974  11.884  1.6463  0.1727 -0.3873
 4598TIP3    H237990   2.676   2.999  11.749 -0.6841 -0.6174  0.5182
 4599TIP3   OH237991   1.318   2.079  10.013 -0.1080  0.4868  0.0463
 4599TIP3    H137992   1.334   1.989   9.986 -0.2178 -0.0148  1.5384
 4599TIP3    H237993   1.318   2.075  10.109 -0.0514  2.0866  0.1315
 4600TIP3   OH237994   4.598   6.672   8.299  0.3955 -0.1743 -0.7368
 4600TIP3    H137995   4.668   6.606   8.297 -1.3692 -2.1341 -1.9418
 4600TIP3    H237996   4.628   6.740   8.239  1.6655 -0.5054 -0.5191
 4601TIP3   OH237997   4.257   4.309   9.905  0.4093 -0.0007  0.4372
 4601TIP3    H137998   4.282   4.373   9.971  0.9148  0.4246 -0.1577
 4601TIP3    H237999   4.334   4.253   9.896  0.4778  0.1697 -0.0555
 4602TIP3   OH238000   1.776   5.319   8.908  0.2679 -0.3660  0.7725
 4602TIP3    H138001   1.864   5.318   8.944  0.2010 -0.2077  0.9396
 4602TIP3    H238002   1.780   5.259   8.833  0.1481 -1.4703  1.6350
 4603TIP3   OH238003   3.892   0.896   9.699  0.0034  0.0962  0.4104
 4603TIP3    H138004   3.856   0.813   9.729 -0.7535 -0.0983 -0.9636
 4603TIP3    H238005   3.863   0.960   9.764 -1.0298 -0.4078  0.4658
 4604TIP3   OH238006   0.221   2.792  11.582  0.3163  0.4077 -0.1150
 4604TIP3    H138007   0.254   2.741  11.656 -0.3612  1.0543  0.6537
 4604TIP3    H238008   0.300   2.819  11.535  0.9226  1.7139  1.5373
 4605TIP3   OH238009   3.421   3.963  11.948 -0.5213  0.5653  0.0085
 4605TIP3    H138010   3.448   4.021  11.878  0.6411  0.8160  0.6424
 4605TIP3    H238011   3.470   3.993  12.025  0.7501 -1.7214  0.1881
 4606TIP3   OH238012   4.751   1.049  10.706  0.2746 -0.1696 -0.3202
 4606TIP3    H138013   4.728   1.114  10.640  1.0284  0.2166 -0.2109
 4606TIP3    H238014   4.843   1.064  10.724  0.2118 -0.6178  0.4345
 4607TIP3   OH238015   1.206   2.661  10.707  0.2141  0.8139  0.9646
 4607TIP3    H138016   1.250   2.656  10.792 -0.0872  2.5540  1.2755
 4607TIP3    H238017   1.278   2.665  10.643  0.4464 -0.1818  1.1583
 4608TIP3   OH238018   6.275   6.496  10.362 -0.1028 -0.3850  0.7453
 4608TIP3    H138019   6.344   6.561  10.356  1.6236 -2.1399  0.4721
 4608TIP3    H238020   6.271   6.474  10.455 -2.3677  1.7182  1.2554
 4609TIP3   OH238021   0.345   6.707   9.123  0.3521 -0.0083 -0.4301
 4609TIP3    H138022   0.326   6.800   9.111 -0.1155 -0.2394 -1.5574
 4609TIP3    H238023   0.433   6.695   9.086  1.6034  0.4822  2.1572
 4610TIP3   OH238024   6.214   1.436   9.268  0.0182  0.3452 -0.8274
 4610TIP3    H138025   6.258   1.516   9.240  0.5346 -0.2316 -1.7052
 4610TIP3    H238026   6.122   1.460   9.276  0.3798  1.4100  0.4331
 4611TIP3   OH238027   6.679   5.520   9.430 -0.3299 -0.2494  0.1242
 4611TIP3    H138028   6.716   5.532   9.518  1.3094  0.2168 -0.5986
 4611TIP3    H238029   6.667   5.608   9.397 -0.1855 -0.4350 -0.4270
 4612TIP3   OH238030   6.623   1.404  11.233  0.3026 -0.0194 -0.0082
 4612TIP3    H138031   6.666   1.469  11.289  0.5384  0.4026 -0.6661
 4612TIP3    H238032   6.682   1.395  11.159  0.0107 -0.6076 -0.1695
 4613TIP3   OH238033   4.314   4.026  12.525  0.1961 -0.7991  0.3183
 4613TIP3    H138034   4.382   3.994  12.466 -0.9159 -2.3707 -0.1735
 4613TIP3    H238035   4.361   4.048  12.605  1.6706  0.9487 -0.9413
 4614TIP3   OH238036   1.509   0.375   9.795  0.2876  0.2135 -0.0738
 4614TIP3    H138037   1.559   0.370   9.714  0.1402  1.1301 -0.2253
 4614TIP3    H238038   1.482   0.466   9.802 -1.1395 -0.1977  0.1418
 4615TIP3   OH238039   2.322   3.757   9.932  0.2423  0.1339 -0.3200
 4615TIP3    H138040   2.405   3.782   9.972 -0.0609 -1.3882  1.4290
 4615TIP3    H238041   2.256   3.810   9.978  0.0367 -0.4106  0.0214
 4616TIP3   OH238042   3.041   3.068   9.209 -0.3593  0.0415  0.4995
 4616TIP3    H138043   3.075   3.157   9.218 -0.7329  0.1275  1.1946
 4616TIP3    H238044   3.090   3.016   9.273 -1.4172  0.1495  1.4462
 4617TIP3   OH238045   2.517   1.017   9.746  0.2826 -0.2492 -0.7782
 4617TIP3    H138046   2.566   0.986   9.823 -1.6888  0.5636  0.9067
 4617TIP3    H238047   2.570   1.088   9.711  0.5201  0.4072  0.8135
 4618TIP3   OH238048   0.675   2.340   9.969 -0.7767 -0.1199 -0.1095
 4618TIP3    H138049   0.731   2.409   9.934  1.1827 -0.6351  1.8080
 4618TIP3    H238050   0.712   2.259   9.934 -0.9675 -0.4083  0.3528
 4619TIP3   OH238051   1.542   4.797  11.093  0.3677  0.3812 -0.3391
 4619TIP3    H138052   1.506   4.718  11.053  1.5103 -0.0288 -0.5904
 4619TIP3    H238053   1.480   4.819  11.162  0.0250 -0.7393 -0.2719
 4620TIP3   OH238054   4.294   4.709  11.992  0.3674 -0.4061 -0.3873
 4620TIP3    H138055   4.247   4.747  11.917  1.6616  1.3221 -0.3841
 4620TIP3    H238056   4.313   4.619  11.964 -1.3455 -0.6032 -1.0835
 4621TIP3   OH238057   3.733   6.654  11.158 -0.5882 -0.1491  0.2757
 4621TIP3    H138058   3.808   6.631  11.103  0.4930 -0.6615  1.8856
 4621TIP3    H238059   3.673   6.699  11.099  1.2119  0.7543 -0.9672
 4622TIP3   OH238060   0.211   6.415  10.575 -0.3368 -0.1117 -0.2487
 4622TIP3    H138061   0.130   6.455  10.542 -0.1006  0.0729 -0.6052
 4622TIP3    H238062   0.249   6.371  10.499 -1.3012 -2.2521  0.4285
 4623TIP3   OH238063   0.582   6.289   9.457  0.4996  0.2574  0.0225
 4623TIP3    H138064   0.575   6.314   9.549 -0.8846  0.8456 -0.2075
 4623TIP3    H238065   0.515   6.342   9.413  1.5256  0.4201 -1.4178
 4624TIP3   OH238066   3.346   5.300   9.042  0.0912  0.2087  0.1106
 4624TIP3    H138067   3.416   5.360   9.067  1.0175 -0.4149 -0.8892
 4624TIP3    H238068   3.346   5.302   8.946  0.6779 -1.9585  0.0178
 4625TIP3   OH238069   4.437   3.591  11.607  0.4647 -0.4162 -0.3367
 4625TIP3    H138070   4.488   3.511  11.604  0.0288 -0.8665  2.1803
 4625TIP3    H238071   4.350   3.563  11.635  0.2521  0.9095  0.3989
 4626TIP3   OH238072   6.159   2.126  11.008  0.1417 -0.3960  0.2146
 4626TIP3    H138073   6.171   2.032  10.995  0.9906  0.0237 -3.2019
 4626TIP3    H238074   6.212   2.166  10.938 -2.6786  2.4959 -0.4863
 4627TIP3   OH238075   1.533   4.534  10.954 -0.0052  0.9452 -0.1835
 4627TIP3    H138076   1.561   4.504  10.868 -1.1135  0.4434 -0.3851
 4627TIP3    H238077   1.589   4.485  11.016  1.6091  2.1660 -0.5982
 4628TIP3   OH238078   4.385   3.339   9.247 -0.2559  0.0984 -0.2171
 4628TIP3    H138079   4.344   3.361   9.164  0.7780  0.9474 -0.5334
 4628TIP3    H238080   4.475   3.372   9.239  0.4683 -1.5332  0.4925
 4629TIP3   OH238081   0.693   1.062  10.405  0.9131  0.6396  0.0843
 4629TIP3    H138082   0.700   1.155  10.424 -3.7951  1.2364  0.0712
 4629TIP3    H238083   0.644   1.026  10.479 -0.3747 -1.0515 -1.4921
 4630TIP3   OH238084   5.571   2.637  11.023 -0.3042  0.3719  0.0144
 4630TIP3    H138085   5.546   2.684  11.102  1.0524  0.9501  0.1381
 4630TIP3    H238086   5.506   2.662  10.958 -1.0769  0.3804  0.7804
 4631TIP3   OH238087   3.833   0.096   8.815 -0.2355  0.0244 -0.1452
 4631TIP3    H138088   3.899   0.047   8.765  0.3069  0.3447  0.2396
 4631TIP3    H238089   3.757   0.098   8.758  0.0770 -0.3805 -0.5917
 4632TIP3   OH238090   1.278   2.357  11.078 -0.6500  0.2677  0.3066
 4632TIP3    H138091   1.197   2.408  11.087 -0.7838 -0.0854  1.1662
 4632TIP3    H238092   1.345   2.421  11.055 -1.4378  0.3829 -1.9710
 4633TIP3   OH238093   2.861   3.151  10.611 -0.2788 -0.1612 -0.3187
 4633TIP3    H138094   2.775   3.156  10.569 -0.3409 -0.2110 -0.2013
 4633TIP3    H238095   2.864   3.062  10.648 -0.2423 -0.1050 -0.1863
 4634TIP3   OH238096   4.165   1.975   9.657 -0.0519  0.2621  0.8127
 4634TIP3    H138097   4.255   1.982   9.626  0.3504 -1.9945  1.2963
 4634TIP3    H238098   4.116   1.941   9.582 -0.4932  1.3604  0.5896
 4635TIP3   OH238099   5.024   2.569  10.902  0.0198  0.3475  0.1556
 4635TIP3    H138100   4.940   2.609  10.879 -0.2911  0.7558  1.8493
 4635TIP3    H238101   5.033   2.585  10.996  1.0955 -1.3641  0.3865
 4636TIP3   OH238102   5.587   4.394   8.990 -0.0039 -0.3283 -0.4546
 4636TIP3    H138103   5.535   4.341   9.050  0.6456 -0.8239 -0.3232
 4636TIP3    H238104   5.671   4.406   9.034  0.7683 -1.3390 -1.5594
 4637TIP3   OH238105   3.767   4.420  10.333 -0.0519 -0.0367 -0.2090
 4637TIP3    H138106   3.774   4.445  10.241  0.6133 -0.4966 -0.2840
 4637TIP3    H238107   3.808   4.492  10.381  1.1546 -0.6001 -0.3786
 4638TIP3   OH238108   6.110   2.469   8.761 -0.9247 -0.0177 -0.0117
 4638TIP3    H138109   6.181   2.529   8.781 -0.8775  0.0069 -0.2518
 4638TIP3    H238110   6.040   2.494   8.821 -1.7536  1.7849 -1.6289
 4639TIP3   OH238111   5.169   0.399   8.732 -0.4633  0.0738 -0.2021
 4639TIP3    H138112   5.202   0.309   8.735 -0.9154 -0.0750  0.7783
 4639TIP3    H238113   5.089   0.394   8.680 -1.1661 -0.3409  0.8772
 4640TIP3   OH238114   0.131   0.956  12.119 -0.1930 -0.0673  0.3470
 4640TIP3    H138115   0.183   0.936  12.041  2.8774 -1.3093  2.5365
 4640TIP3    H238116   0.088   0.873  12.141  0.8459 -0.3904  1.2403
 4641TIP3   OH238117   0.473   3.344  10.586  0.3871 -0.0409  0.0524
 4641TIP3    H138118   0.536   3.337  10.658 -0.3251  1.5806  0.8712
 4641TIP3    H238119   0.389   3.353  10.629 -0.0697  0.8619 -0.9933
 4642TIP3   OH238120   3.277   5.016  10.555  0.0950 -0.2371  0.0435
 4642TIP3    H138121   3.213   4.954  10.591  0.4743 -0.1748  0.8664
 4642TIP3    H238122   3.246   5.102  10.584 -1.1079  0.1137 -2.1320
 4643TIP3   OH238123   3.316   1.817  10.338  0.1629 -0.2310 -0.1218
 4643TIP3    H138124   3.384   1.866  10.292 -0.7811  1.1715 -0.0655
 4643TIP3    H238125   3.365   1.757  10.395  1.4275  2.0200  1.3300
 4644TIP3   OH238126   6.338   3.831  11.160  0.7862 -0.4869  0.5308
 4644TIP3    H138127   6.286   3.836  11.240  1.0150 -0.2897  0.6672
 4644TIP3    H238128   6.352   3.738  11.146  0.7103 -0.5234  0.6959
 4645TIP3   OH238129   1.214   1.604   9.870 -0.0439  0.3736 -0.5279
 4645TIP3    H138130   1.225   1.613   9.965 -0.1364 -0.9427 -0.3739
 4645TIP3    H238131   1.124   1.573   9.859 -0.0568  0.5755 -1.0657
 4646TIP3   OH238132   5.575   6.365   9.021  0.4800 -0.8788 -0.4501
 4646TIP3    H138133   5.662   6.392   8.990  0.1362  1.1845  0.2324
 4646TIP3    H238134   5.514   6.403   8.958 -0.0974  1.4180  1.3347
 4647TIP3   OH238135   6.139   3.099  11.295 -0.0677 -0.6443 -0.1118
 4647TIP3    H138136   6.070   3.051  11.250  0.8173 -1.1016 -1.0416
 4647TIP3    H238137   6.119   3.090  11.388 -0.3114 -2.2122 -0.2964
 4648TIP3   OH238138   0.263   3.461  12.073  0.1356  0.6808 -0.5015
 4648TIP3    H138139   0.266   3.365  12.067  1.0549  0.7118 -0.7582
 4648TIP3    H238140   0.180   3.480  12.117  0.5262 -0.3023  0.7218
 4649TIP3   OH238141   5.805   0.459  10.226  0.0523 -0.6480 -0.4074
 4649TIP3    H138142   5.855   0.422  10.299 -0.8464  1.0444  1.1444
 4649TIP3    H238143   5.761   0.384  10.187  1.2395 -1.7170  0.2095
 4650TIP3   OH238144   5.693   3.586  11.669  0.2022 -0.0622  0.0607
 4650TIP3    H138145   5.731   3.674  11.679  1.4540 -0.6487  0.7457
 4650TIP3    H238146   5.599   3.599  11.679  0.3618  1.2281  0.0181
 4651TIP3   OH238147   2.306   1.255  10.231  0.4624 -0.3615  0.4144
 4651TIP3    H138148   2.223   1.301  10.241 -0.0006 -1.2200  0.5275
 4651TIP3    H238149   2.326   1.222  10.319  0.4917 -0.8918  0.2112
 4652TIP3   OH238150   1.920   4.749  11.992  0.2409 -0.1174  0.1432
 4652TIP3    H138151   1.876   4.800  12.060  0.9603  1.4192 -0.4846
 4652TIP3    H238152   1.881   4.662  11.998 -0.3409  0.2184  1.9193
 4653TIP3   OH238153   0.959   0.957  10.481  0.0362  0.0848 -0.5904
 4653TIP3    H138154   0.870   0.986  10.462  0.3891  0.8696 -1.0839
 4653TIP3    H238155   0.966   0.872  10.439 -0.5960 -0.1489 -0.2379
 4654TIP3   OH238156   0.137   4.125  10.709 -0.1952 -0.1567  0.1147
 4654TIP3    H138157   0.073   4.174  10.657 -1.1996  0.0655  1.4857
 4654TIP3    H238158   0.111   4.034  10.700 -1.7975  0.0472  1.9615
 4655TIP3   OH238159   0.713   3.322  10.381  0.2849 -0.0172  0.1221
 4655TIP3    H138160   0.756   3.243  10.413 -0.7690 -0.6393  0.0118
 4655TIP3    H238161   0.663   3.295  10.305  0.6533  0.9461 -0.4844
 4656TIP3   OH238162   1.259   2.695  12.192  0.0966 -0.0398 -0.1237
 4656TIP3    H138163   1.308   2.777  12.194  0.7692 -0.4346  1.6264
 4656TIP3    H238164   1.188   2.711  12.130  0.7735  1.5260 -0.5445
 4657TIP3   OH238165   0.977   4.455  10.724  0.2609  0.4574  0.3332
 4657TIP3    H138166   0.904   4.487  10.776  0.7285 -0.5659  1.6813
 4657TIP3    H238167   1.055   4.472  10.777  0.6775 -1.3317  0.3775
 4658TIP3   OH238168   4.711   5.029   9.475 -0.1492  0.2621  0.1919
 4658TIP3    H138169   4.632   4.985   9.505 -0.9442  1.7394  0.3216
 4658TIP3    H238170   4.727   5.098   9.540  0.3444  0.9738 -0.6584
 4659TIP3   OH238171   3.004   0.076  10.921  0.1938 -0.0788  0.0657
 4659TIP3    H138172   3.075   0.140  10.925  0.2405 -0.1898  2.0899
 4659TIP3    H238173   3.047  -0.009  10.917  0.1389 -0.0751 -0.8334
 4660TIP3   OH238174   5.928   5.198  11.657 -0.0169  0.3378 -0.0739
 4660TIP3    H138175   6.007   5.147  11.638 -1.2170 -1.1951 -1.3560
 4660TIP3    H238176   5.953   5.289  11.641  1.3136 -0.1765 -1.1486
 4661TIP3   OH238177   6.328   4.303  11.606  0.0706 -0.6422  0.4016
 4661TIP3    H138178   6.270   4.375  11.581 -0.0695 -0.7224  0.4891
 4661TIP3    H238179   6.334   4.248  11.528  0.5544 -0.2885  0.1866
 4662TIP3   OH238180   1.053   1.680  11.280  0.3381 -0.1488  0.2065
 4662TIP3    H138181   1.037   1.594  11.242 -1.7004  0.0112  0.5898
 4662TIP3    H238182   1.012   1.677  11.366  0.1721  1.2241  0.2044
 4663TIP3   OH238183   1.143   2.975  11.163 -0.4105  0.7294  0.4151
 4663TIP3    H138184   1.102   2.891  11.146 -0.2640  0.9570 -1.3113
 4663TIP3    H238185   1.209   2.957  11.230  0.1004 -0.6902 -0.4191
 4664TIP3   OH238186   3.946   6.549  12.473 -0.1830  0.5112  0.4140
 4664TIP3    H138187   3.943   6.453  12.470 -0.7544  0.5178  0.4957
 4664TIP3    H238188   4.038   6.571  12.483 -0.0238 -0.0253  0.1346
 4665TIP3   OH238189   4.470   0.273  11.843 -0.0217 -0.4499  0.1592
 4665TIP3    H138190   4.432   0.336  11.905 -1.0107 -2.2129  1.4413
 4665TIP3    H238191   4.507   0.327  11.774 -2.8796  1.5067 -0.0350
 4666TIP3   OH238192   5.980   4.125  11.443  0.2221  0.2556  0.7341
 4666TIP3    H138193   6.049   4.060  11.429 -0.6435 -0.4024 -0.6566
 4666TIP3    H238194   6.026   4.209  11.439  0.6610 -0.0070 -2.9916
 4667TIP3   OH238195   1.800   5.882   9.368 -0.4112  0.2961 -0.0431
 4667TIP3    H138196   1.739   5.832   9.314 -1.3303  0.8760  0.4428
 4667TIP3    H238197   1.783   5.974   9.345 -0.1113  0.4920  0.5009
 4668TIP3   OH238198   3.976   2.721  12.178 -0.2633  0.5236  0.7826
 4668TIP3    H138199   4.069   2.727  12.200  0.1967  0.9611 -1.0904
 4668TIP3    H238200   3.953   2.630  12.195  0.2056  0.6572  2.2735
 4669TIP3   OH238201   1.991   1.202  10.938  0.1986 -0.3292  0.1329
 4669TIP3    H138202   1.932   1.127  10.935  2.0419 -2.1070  3.2071
 4669TIP3    H238203   1.937   1.274  10.970 -0.8371 -1.3019  0.6191
 4670TIP3   OH238204   4.056   1.123   9.223 -0.1475  0.3658 -0.9866
 4670TIP3    H138205   4.097   1.077   9.296 -0.2185  0.7728 -0.6860
 4670TIP3    H238206   3.989   1.062   9.192 -0.5012  0.4067 -0.3438
 4671TIP3   OH238207   1.670   4.089   8.977 -0.3147 -0.1572 -0.4631
 4671TIP3    H138208   1.694   4.004   9.014  0.2641 -0.0863 -0.6587
 4671TIP3    H238209   1.745   4.113   8.923 -0.2488  0.7097 -0.0132
 4672TIP3   OH238210   4.505   2.551  10.049 -0.0367  0.5342 -0.2887
 4672TIP3    H138211   4.533   2.511  10.132 -0.8990  1.6777  0.5792
 4672TIP3    H238212   4.460   2.480  10.002  1.8194 -0.5626 -0.5031
 4673TIP3   OH238213   4.983   6.580   9.006  0.2615  0.4358  0.4230
 4673TIP3    H138214   4.890   6.563   9.027  0.0613  0.5645 -0.3420
 4673TIP3    H238215   5.019   6.493   8.987  0.4235  0.3280  1.1738
 4674TIP3   OH238216   5.768   4.770  10.185 -0.2724  0.3852 -0.4145
 4674TIP3    H138217   5.751   4.677  10.199 -1.9554  0.5776 -1.0089
 4674TIP3    H238218   5.795   4.803  10.272 -1.4095 -0.2994  0.2170
 4675TIP3   OH238219   4.295   0.864   9.699  0.6165  0.0860 -0.1100
 4675TIP3    H138220   4.303   0.932   9.766 -0.7545 -0.5133  0.7188
 4675TIP3    H238221   4.205   0.872   9.668  0.1553 -1.8410  0.5943
 4676TIP3   OH238222   3.272   0.373  12.213 -0.3861  0.6397  0.4400
 4676TIP3    H138223   3.200   0.435  12.226 -0.3556  0.7733 -0.0082
 4676TIP3    H238224   3.323   0.411  12.142 -0.3143  0.1447  0.2288
 4677TIP3   OH238225   3.373   0.692  10.416  0.2970  0.7513 -0.0894
 4677TIP3    H138226   3.384   0.778  10.457  1.4908 -0.1362  1.5753
 4677TIP3    H238227   3.454   0.677  10.368  0.1185  0.5319 -0.3288
 4678TIP3   OH238228   3.550   3.732  11.910  0.5577 -0.0661 -0.4152
 4678TIP3    H138229   3.495   3.654  11.901 -1.1043  1.1646 -1.5085
 4678TIP3    H238230   3.488   3.802  11.932  1.6359  1.4023 -1.8517
 4679TIP3   OH238231   0.924   3.885  10.361  0.5784 -0.1792 -0.2244
 4679TIP3    H138232   0.852   3.949  10.360 -0.0028 -0.8218 -1.1673
 4679TIP3    H238233   0.928   3.853  10.271 -0.6492 -3.1215  0.6568
 4680TIP3   OH238234   6.069   2.124   9.674  0.4310  0.0177  0.0092
 4680TIP3    H138235   6.064   2.219   9.660 -2.4637  0.2725  1.7346
 4680TIP3    H238236   6.156   2.099   9.643  1.6436  3.3728  0.2865
 4681TIP3   OH238237   4.911   4.493  11.225  0.1738  0.0026  0.6513
 4681TIP3    H138238   4.899   4.461  11.315  0.1190 -2.3769 -0.1318
 4681TIP3    H238239   4.833   4.546  11.208  0.2112  0.5384  2.0082
 4682TIP3   OH238240   5.540   3.386  10.632  0.2729 -0.1576 -0.0315
 4682TIP3    H138241   5.471   3.448  10.607  0.7324  0.3672 -0.0236
 4682TIP3    H238242   5.498   3.300  10.629  0.1742 -0.0720 -2.1382
 4683TIP3   OH238243   4.550   2.941   9.532 -0.3423  0.3169 -0.0545
 4683TIP3    H138244   4.565   2.949   9.438 -2.5243  5.3647 -0.2674
 4683TIP3    H238245   4.632   2.972   9.571  0.8150 -2.4033 -0.0892
 4684TIP3   OH238246   1.627   6.632  11.554 -0.1721 -0.6204  0.0515
 4684TIP3    H138247   1.584   6.558  11.598  1.3674 -0.8218  1.3097
 4684TIP3    H238248   1.655   6.596  11.469 -4.5607  0.1978 -2.0243
 4685TIP3   OH238249   1.394   4.089  11.329 -0.1940  0.0208 -0.2316
 4685TIP3    H138250   1.399   4.050  11.416 -1.1907 -2.5422 -1.1916
 4685TIP3    H238251   1.397   4.014  11.269  0.8386  1.6964 -2.4473
 4686TIP3   OH238252   4.191   1.084  11.357 -0.2312 -0.2375 -0.3774
 4686TIP3    H138253   4.216   1.155  11.416 -2.3126  0.4899 -0.3081
 4686TIP3    H238254   4.095   1.084  11.358 -0.3338 -3.5271  0.1933
 4687TIP3   OH238255   4.910   5.056  10.323  0.0184  0.0692  0.0754
 4687TIP3    H138256   4.898   5.043  10.228  1.7809  0.6351 -0.2648
 4687TIP3    H238257   4.877   4.975  10.362 -0.1317 -0.4551 -1.0808
 4688TIP3   OH238258   4.761   6.251   8.476  0.1287 -0.2142  0.0798
 4688TIP3    H138259   4.675   6.258   8.517  0.0670  0.3999 -0.1422
 4688TIP3    H238260   4.745   6.207   8.393  0.1445 -0.7835  0.3738
 4689TIP3   OH238261   1.358   4.006  11.596  0.1089  0.3704 -0.1779
 4689TIP3    H138262   1.429   3.946  11.577 -0.2026  0.1503 -0.6869
 4689TIP3    H238263   1.296   3.955  11.648  0.2078  0.4877  0.0568
 4690TIP3   OH238264   4.596   2.395  11.219  0.0093 -0.4358  0.4510
 4690TIP3    H138265   4.568   2.424  11.306 -0.6681 -0.0781  0.1262
 4690TIP3    H238266   4.534   2.326  11.196  0.1481 -0.4875  0.2333
 4691TIP3   OH238267   5.093   5.895  10.754 -0.1674  0.1509  0.2249
 4691TIP3    H138268   5.051   5.928  10.833  0.0667  0.6768  0.1370
 4691TIP3    H238269   5.036   5.921  10.682 -0.1346  0.0980  0.1788
 4692TIP3   OH238270   0.859   1.430   9.581 -0.2760  0.1306 -0.0308
 4692TIP3    H138271   0.868   1.340   9.550 -0.6133 -0.1973  0.8032
 4692TIP3    H238272   0.796   1.470   9.520 -0.1566 -0.2012 -0.3796
 4693TIP3   OH238273   5.763   0.528   8.291  0.3689  0.2714  0.3967
 4693TIP3    H138274   5.854   0.530   8.321  0.7025 -0.4841 -0.5290
 4693TIP3    H238275   5.745   0.618   8.265  1.4870  0.0844 -1.1932
 4694TIP3   OH238276   3.669   6.320  11.125 -0.1821 -0.3654  0.1384
 4694TIP3    H138277   3.712   6.239  11.099 -0.0672 -0.0975 -0.5169
 4694TIP3    H238278   3.660   6.313  11.220 -3.4503 -2.7531 -0.1826
 4695TIP3   OH238279   3.977   0.008  12.077 -0.2564 -0.0756 -0.1528
 4695TIP3    H138280   3.909   0.073  12.091  0.4669  0.4104  1.3331
 4695TIP3    H238281   3.944  -0.071  12.121  0.8756  0.6943  2.2471
 4696TIP3   OH238282   3.048   0.237  11.867 -0.1574  0.6993  0.3994
 4696TIP3    H138283   3.015   0.313  11.915  0.1055  1.0664  0.0056
 4696TIP3    H238284   2.972   0.178  11.862 -0.4358  1.0411  0.4933
 4697TIP3   OH238285   6.138   2.353   9.562  0.0190  0.1470  0.1316
 4697TIP3    H138286   6.080   2.402   9.503 -0.7497 -0.5630  0.2721
 4697TIP3    H238287   6.213   2.329   9.507 -0.2522  0.2984 -0.3136
 4698TIP3   OH238288   0.222   0.234   9.857 -0.2160 -0.0371  0.1657
 4698TIP3    H138289   0.291   0.200   9.800 -0.0170  1.6622 -0.6748
 4698TIP3    H238290   0.150   0.172   9.847  1.4192 -2.3233  1.7195
 4699TIP3   OH238291   0.980   0.972   9.205 -0.0413  0.1765 -0.2919
 4699TIP3    H138292   0.930   0.890   9.199  0.3888 -0.0491 -0.9018
 4699TIP3    H238293   0.933   1.033   9.148 -1.7312  1.1157  1.9338
 4700TIP3   OH238294   3.307   1.384   9.857  0.8525 -0.0531  0.1724
 4700TIP3    H138295   3.354   1.457   9.899 -0.0769  0.2766  0.6582
 4700TIP3    H238296   3.287   1.325   9.930  1.9397 -1.0111 -0.2680
 4701TIP3   OH238297   6.177   3.083   9.764  0.1881  0.3464 -0.0573
 4701TIP3    H138298   6.270   3.103   9.779 -0.0387  0.8412  0.7556
 4701TIP3    H238299   6.147   3.153   9.706  1.0039 -1.4313 -2.8513
 4702TIP3   OH238300   4.990   1.385   8.746  0.3041  0.1192 -0.3249
 4702TIP3    H138301   4.947   1.330   8.681  1.1390 -0.0597 -0.7322
 4702TIP3    H238302   5.050   1.440   8.696  1.1441 -0.1979  0.3124
 4703TIP3   OH238303   0.445   3.047  11.788 -0.1124 -0.0951  0.0181
 4703TIP3    H138304   0.513   3.071  11.725  0.2042 -0.1586  0.3368
 4703TIP3    H238305   0.367   3.093  11.756 -0.1657 -0.7866 -0.8925
 4704TIP3   OH238306   3.555   5.452   9.130 -0.2099  0.0508 -0.0988
 4704TIP3    H138307   3.649   5.462   9.141  0.3513 -0.8000 -3.2017
 4704TIP3    H238308   3.519   5.460   9.219  2.7889 -0.0577  1.2267
 4705TIP3   OH238309   1.990   2.201  10.066 -0.1537  0.3401 -0.7367
 4705TIP3    H138310   1.965   2.147   9.991  1.2692 -0.4288 -0.6907
 4705TIP3    H238311   2.061   2.153  10.108  0.1750  1.5489  0.1587
 4706TIP3   OH238312   2.196   1.543  10.971  0.0427  0.0289  0.3076
 4706TIP3    H138313   2.283   1.542  11.012  0.2789 -1.5174 -0.1628
 4706TIP3    H238314   2.155   1.622  11.004  1.5039  0.6089  0.8237
 4707TIP3   OH238315   1.492   1.866   9.633 -0.1326 -0.1833  0.0761
 4707TIP3    H138316   1.408   1.908   9.613 -1.1319 -1.8712  0.4745
 4707TIP3    H238317   1.551   1.939   9.652 -0.6568  1.2521 -3.0345
 4708TIP3   OH238318   5.806   1.868  11.197 -0.3521  0.2024 -0.4194
 4708TIP3    H138319   5.834   1.824  11.117 -0.5591 -0.1801 -0.2841
 4708TIP3    H238320   5.885   1.873  11.251  0.2133  2.0060 -1.3255
 4709TIP3   OH238321   1.807   0.434  10.218  0.4650 -0.0806 -0.8185
 4709TIP3    H138322   1.713   0.432  10.205  0.4913 -0.4661 -0.9802
 4709TIP3    H238323   1.819   0.476  10.303  0.2168  1.1093 -1.3502
 4710TIP3   OH238324   3.969   5.419  11.137  0.5919 -0.1935  0.4094
 4710TIP3    H138325   3.972   5.330  11.172 -0.4270 -0.0252  0.9666
 4710TIP3    H238326   3.929   5.410  11.051  0.5400 -0.2828  0.4424
 4711TIP3   OH238327   2.393   2.588  11.197 -0.1336 -0.9902 -0.2651
 4711TIP3    H138328   2.451   2.561  11.126  0.3276  0.7424 -0.5891
 4711TIP3    H238329   2.306   2.592  11.157 -0.2062 -1.8223 -0.2271
 4712TIP3   OH238330   4.861   6.603   9.928  0.7596  0.0739  0.3243
 4712TIP3    H138331   4.929   6.595   9.996  0.9622 -1.9321 -0.0729
 4712TIP3    H238332   4.873   6.527   9.872  0.0177  1.2157 -1.4896
 4713TIP3   OH238333   6.490   1.831  11.837  0.0371 -0.2717  0.1514
 4713TIP3    H138334   6.438   1.760  11.875 -2.4615  1.0013 -0.6673
 4713TIP3    H238335   6.450   1.846  11.751  0.5113  2.0509  0.2731
 4714TIP3   OH238336   2.420   6.671  10.460  0.4288 -0.0555 -0.5967
 4714TIP3    H138337   2.419   6.627  10.546  1.7288 -1.1615 -1.0943
 4714TIP3    H238338   2.382   6.607  10.400 -0.0767  0.5437 -0.9207
 4715TIP3   OH238339   4.654   0.077  11.978 -0.0915  0.0584 -0.0985
 4715TIP3    H138340   4.647   0.106  12.069 -0.0773 -0.8589  0.2136
 4715TIP3    H238341   4.602   0.139  11.928 -2.1190 -0.7831  0.8587
 4716TIP3   OH238342   1.383   0.314   8.849  0.0635 -0.1266 -0.2096
 4716TIP3    H138343   1.325   0.267   8.789  2.9887 -1.3466 -2.3046
 4716TIP3    H238344   1.398   0.398   8.806 -0.8178  0.5957  0.8216
 4717TIP3   OH238345   2.549   4.472   9.583  0.0225  0.0845  0.3062
 4717TIP3    H138346   2.564   4.409   9.654 -1.8484 -1.6474 -0.7184
 4717TIP3    H238347   2.520   4.418   9.509 -0.0158  2.0171 -1.1600
 4718TIP3   OH238348   6.352   2.392  11.545  0.4595  0.0726  0.5828
 4718TIP3    H138349   6.267   2.434  11.537 -0.4837 -1.6337  1.1497
 4718TIP3    H238350   6.384   2.418  11.632  0.1806  0.1454  0.6637
 4719TIP3   OH238351   4.540   4.673  11.194  0.2128  0.2624  0.0412
 4719TIP3    H138352   4.607   4.626  11.245 -0.1678 -1.5028 -0.9842
 4719TIP3    H238353   4.460   4.665  11.247 -0.0269 -0.9916 -0.4611
 4720TIP3   OH238354   0.673   1.215  12.057 -0.2490  0.4684 -0.3770
 4720TIP3    H138355   0.632   1.162  12.125  2.9679 -0.2898  1.1660
 4720TIP3    H238356   0.713   1.151  11.998  1.6120  1.0967  0.1398
 4721TIP3   OH238357   3.637   3.270  11.232  0.0016  0.0838 -0.4672
 4721TIP3    H138358   3.649   3.312  11.317 -0.5635 -0.4813 -0.1027
 4721TIP3    H238359   3.572   3.202  11.247  2.6208 -2.6272 -0.4436
 4722TIP3   OH238360   1.488   0.638   9.812  0.0093  0.4193  0.2646
 4722TIP3    H138361   1.529   0.688   9.882  0.5186 -0.5246  0.6537
 4722TIP3    H238362   1.515   0.682   9.731  0.9975  0.3735  0.5671
 4723TIP3   OH238363   4.786   4.969   9.824  0.5036  0.1303 -0.6060
 4723TIP3    H138364   4.723   4.919   9.876  0.6832  0.8271  0.3046
 4723TIP3    H238365   4.741   5.051   9.804  1.3692  0.9608  0.7151
 4724TIP3   OH238366   6.013   3.181  11.825  0.1759  0.0490 -0.0057
 4724TIP3    H138367   5.985   3.265  11.789 -0.1936 -0.0585  0.0190
 4724TIP3    H238368   5.935   3.148  11.870  0.6463  0.2107  0.9490
 4725TIP3   OH238369   2.064   5.875   9.285 -0.1384 -0.1862 -0.3916
 4725TIP3    H138370   1.980   5.921   9.296 -1.0727 -1.6305 -1.1889
 4725TIP3    H238371   2.081   5.834   9.369 -0.1620  0.2008 -0.1951
 4726TIP3   OH238372   2.091   5.149   8.592 -0.2086 -0.2859 -0.1228
 4726TIP3    H138373   2.133   5.071   8.628 -0.7162 -0.2369  0.5945
 4726TIP3    H238374   2.159   5.191   8.539  1.7497  1.4837  3.4586
 4727TIP3   OH238375   1.020   0.406  10.241  0.3729 -0.2751  0.1607
 4727TIP3    H138376   1.034   0.371  10.153  0.3202 -0.1964  0.1211
 4727TIP3    H238377   1.061   0.341  10.299 -0.3300 -0.7601  0.1350
 4728TIP3   OH238378   3.103   2.483  11.583 -0.0978  0.0968  0.6540
 4728TIP3    H138379   3.197   2.496  11.591  0.3671 -1.1166 -1.8950
 4728TIP3    H238380   3.067   2.571  11.570  0.6081  0.6043  1.9875
 4729TIP3   OH238381   2.882   1.848  11.226  0.4872  0.4328  0.4917
 4729TIP3    H138382   2.791   1.821  11.239  0.3639  0.5847 -0.0072
 4729TIP3    H238383   2.877   1.942  11.211  0.4248  0.0997 -2.0601
 4730TIP3   OH238384   5.395   2.296  12.154  0.5053  0.2815 -0.5006
 4730TIP3    H138385   5.326   2.232  12.166  0.3777  0.2933 -1.1465
 4730TIP3    H238386   5.353   2.380  12.173  0.5610  0.2163 -0.0780
 4731TIP3   OH238387   3.383   4.302  11.353 -0.2090  0.5043 -0.0801
 4731TIP3    H138388   3.320   4.279  11.422 -0.3819  1.3420  0.0611
 4731TIP3    H238389   3.331   4.352  11.290  0.0045 -0.0480 -0.6972
 4732TIP3   OH238390   5.906   2.090  11.624  0.4786  0.1979 -0.2349
 4732TIP3    H138391   5.997   2.119  11.631  0.4028  0.4784 -0.3948
 4732TIP3    H238392   5.888   2.092  11.531  0.1585  0.6075 -0.1637
 4733TIP3   OH238393   3.014   4.593  10.691 -0.0991 -0.0106  0.7219
 4733TIP3    H138394   3.055   4.564  10.610 -1.0785 -0.0476  0.2258
 4733TIP3    H238395   3.077   4.653  10.731  0.1221  0.5082 -0.3904
 4734TIP3   OH238396   5.941   1.201  11.361 -0.1338 -0.1642 -0.3486
 4734TIP3    H138397   5.860   1.222  11.407 -0.0514 -0.8802  0.1433
 4734TIP3    H238398   5.998   1.162  11.428  0.5083  0.0592 -0.7513
 4735TIP3   OH238399   2.444   6.707  12.065  0.5059  0.4573  0.2782
 4735TIP3    H138400   2.408   6.760  12.137  1.0030  0.9873  0.1436
 4735TIP3    H238401   2.373   6.705  12.000  0.0045 -0.1360  0.8323
 4736TIP3   OH238402   5.265   0.904   9.129  0.3820  0.4774 -0.3473
 4736TIP3    H138403   5.317   0.981   9.151  1.7796 -0.5651  0.1589
 4736TIP3    H238404   5.222   0.879   9.211 -0.6689  1.1178 -0.6788
 4737TIP3   OH238405   0.745   6.366   8.558  0.2385  0.6308 -0.3613
 4737TIP3    H138406   0.747   6.356   8.463 -1.1021  0.5591 -0.3959
 4737TIP3    H238407   0.737   6.460   8.571 -0.8247  0.5486 -0.3594
 4738TIP3   OH238408   4.793   3.339  11.490  0.3032  0.3547 -0.2276
 4738TIP3    H138409   4.843   3.417  11.466 -0.4296  1.2442  0.9808
 4738TIP3    H238410   4.706   3.372  11.513  0.1167 -0.7463  0.7902
 4739TIP3   OH238411   0.296   4.071   8.975 -0.1569 -0.1185 -0.5057
 4739TIP3    H138412   0.369   4.129   8.955 -0.0683 -0.0431  0.0234
 4739TIP3    H238413   0.220   4.128   8.976 -0.5044 -0.4574 -2.7430
 4740TIP3   OH238414   4.739   5.818   9.713  0.0303 -0.7332  0.6652
 4740TIP3    H138415   4.698   5.859   9.636  0.2727 -1.3277  0.2096
 4740TIP3    H238416   4.737   5.886   9.780  0.6547  0.1157 -0.1405
 4741TIP3   OH238417   2.995   5.477  12.078  0.1516  0.0007  0.1825
 4741TIP3    H138418   3.017   5.450  11.989  0.3950 -1.2624  0.6089
 4741TIP3    H238419   2.899   5.479  12.079  0.0810 -1.7609  0.3664
 4742TIP3   OH238420   4.136   1.647  12.256  0.3644 -0.2797  0.3814
 4742TIP3    H138421   4.056   1.694  12.279  0.1153  1.0592 -2.7286
 4742TIP3    H238422   4.106   1.563  12.221  0.2312  0.3062 -0.9819
 4743TIP3   OH238423   5.127   5.649  10.956  0.6403  0.7633  0.1090
 4743TIP3    H138424   5.131   5.685  10.868  0.9544  0.3688 -0.0420
 4743TIP3    H238425   5.215   5.664  10.991  1.0942 -0.7600 -0.3230
 4744TIP3   OH238426   2.983   2.211   9.974  0.0786 -0.6802 -0.4474
 4744TIP3    H138427   2.980   2.165   9.890 -2.7482 -0.2974 -0.6322
 4744TIP3    H238428   2.892   2.228   9.996  0.8085  0.5004  2.0387
 4745TIP3   OH238429   3.203   4.907   9.072  0.4684  0.1655  0.0971
 4745TIP3    H138430   3.118   4.926   9.032  0.5378  0.0430 -0.1119
 4745TIP3    H238431   3.188   4.829   9.125  0.0446  1.1159  1.4140
 4746TIP3   OH238432   3.141   5.763   9.740 -0.2131 -0.3377  0.9358
 4746TIP3    H138433   3.087   5.827   9.786 -0.2515 -0.2809  0.8112
 4746TIP3    H238434   3.230   5.780   9.771 -0.2240 -0.2261  0.9057
 4747TIP3   OH238435   5.998   0.799  10.632  0.5317 -0.3826 -0.6387
 4747TIP3    H138436   5.911   0.839  10.639  0.6692 -0.2061  0.1542
 4747TIP3    H238437   6.028   0.822  10.544  1.1119  2.3122  0.1717
 4748TIP3   OH238438   5.268   1.037   9.939 -0.2563  0.2155  0.5944
 4748TIP3    H138439   5.282   0.947   9.909 -0.1133  0.2633  0.5199
 4748TIP3    H238440   5.233   1.027  10.028 -1.2114  0.0559  0.2160
 4749TIP3   OH238441   0.166   3.345  10.673 -0.2313  0.5992  0.0189
 4749TIP3    H138442   0.152   3.298  10.591  2.0831 -1.0175  0.4284
 4749TIP3    H238443   0.106   3.304  10.735  0.5255 -0.7077 -0.0620
 4750TIP3   OH238444   4.103   5.904  10.971  0.1321  0.9693 -0.1921
 4750TIP3    H138445   4.044   5.980  10.967 -3.0736 -1.2162  1.5962
 4750TIP3    H238446   4.099   5.866  10.883 -2.6135 -0.0777  0.3140
 4751TIP3   OH238447   2.155   0.594   8.983 -0.7835  0.5245 -0.3626
 4751TIP3    H138448   2.166   0.581   8.889 -0.4972 -1.2811 -0.1092
 4751TIP3    H238449   2.061   0.605   8.996 -0.9804 -0.7151 -0.7034
 4752TIP3   OH238450   5.584   0.283  11.911 -0.3424  0.4127  0.5270
 4752TIP3    H138451   5.543   0.247  11.990  0.3053  0.2008  0.7659
 4752TIP3    H238452   5.603   0.375  11.933 -1.3807  0.7393  0.1462
 4753TIP3   OH238453   4.275   1.868   9.894 -0.5802  0.6211  0.3603
 4753TIP3    H138454   4.246   1.898   9.808  0.2206 -1.4353 -0.6961
 4753TIP3    H238455   4.263   1.944   9.951 -1.1066  2.0554 -1.5504
 4754TIP3   OH238456   4.951   1.999  12.390 -0.2449 -0.1690  0.2891
 4754TIP3    H138457   4.925   1.962  12.306 -2.0904  1.4996  0.0496
 4754TIP3    H238458   4.870   1.998  12.443  0.7725 -0.7980  1.9247
 4755TIP3   OH238459   0.011   5.412  12.069  0.0054  0.4115 -0.2456
 4755TIP3    H138460  -0.083   5.393  12.059  0.4294 -1.2350 -1.5917
 4755TIP3    H238461   0.025   5.492  12.018 -0.2603 -0.7039 -2.1414
 4756TIP3   OH238462   6.118   5.706  11.662 -0.0727 -0.1192  0.4193
 4756TIP3    H138463   6.097   5.656  11.741  0.6752 -2.0090 -0.5150
 4756TIP3    H238464   6.033   5.739  11.632 -0.5573 -0.5611  1.2603
 4757TIP3   OH238465   3.501   3.695   9.579  0.5569 -0.8333 -0.6631
 4757TIP3    H138466   3.429   3.718   9.521  0.0089  0.0621  0.3327
 4757TIP3    H238467   3.574   3.673   9.521  0.1747  0.5154 -1.6793
 4758TIP3   OH238468   1.431   1.830   9.965 -0.5078 -0.2095  0.1661
 4758TIP3    H138469   1.523   1.804   9.971 -0.5055 -0.4681 -0.8131
 4758TIP3    H238470   1.395   1.774   9.895 -1.0877  0.7927 -0.3524
 4759TIP3   OH238471   5.200   1.855  11.176 -0.1499  0.9854  0.0644
 4759TIP3    H138472   5.240   1.908  11.245  1.4438 -0.5549  0.3960
 4759TIP3    H238473   5.144   1.793  11.223  0.0766  0.6554 -0.0962
 4760TIP3   OH238474   3.219   0.702  11.586  0.3720 -0.2063 -0.1911
 4760TIP3    H138475   3.190   0.791  11.568  0.9271 -0.6924 -4.4244
 4760TIP3    H238476   3.144   0.647  11.563  1.4933 -0.9815 -2.2679
 4761TIP3   OH238477   1.661   5.766  10.919  0.0094 -0.0707  0.1308
 4761TIP3    H138478   1.674   5.778  11.013  0.9268 -0.7045  0.1005
 4761TIP3    H238479   1.572   5.796  10.903 -0.5281 -0.9133  1.3802
 4762TIP3   OH238480   4.167   3.554  11.657  0.0769  1.2062 -0.0376
 4762TIP3    H138481   4.146   3.473  11.703  0.5173  0.6469 -0.7877
 4762TIP3    H238482   4.090   3.572  11.603  0.5755  0.3885 -1.0794
 4763TIP3   OH238483   1.623   0.950   9.762  0.5805 -0.3712  0.0706
 4763TIP3    H138484   1.542   0.993   9.790  0.9657  1.3299 -1.2226
 4763TIP3    H238485   1.687   0.972   9.830  0.4006 -0.1492  0.1690
 4764TIP3   OH238486   2.544   0.592   8.455  0.3457  0.3513 -0.1442
 4764TIP3    H138487   2.638   0.583   8.474  0.5522  2.9594  0.4395
 4764TIP3    H238488   2.525   0.520   8.395  2.7196 -0.2710 -0.2632
 4765TIP3   OH238489   1.924   3.179   9.828  0.2505  0.1311 -0.6803
 4765TIP3    H138490   1.860   3.232   9.875 -1.8916 -1.3839 -1.7201
 4765TIP3    H238491   1.904   3.089   9.855  0.0803 -0.6254 -3.1035
 4766TIP3   OH238492   3.354   0.135   9.961  0.2360 -0.5962 -0.3054
 4766TIP3    H138493   3.381   0.188   9.887 -0.5939  1.4262  0.7613
 4766TIP3    H238494   3.290   0.073   9.924 -0.4276  0.5977 -1.2380
 4767TIP3   OH238495   0.527   0.169  11.033  0.2370 -0.1276 -0.0979
 4767TIP3    H138496   0.541   0.260  11.010  0.0807 -0.5461 -2.0387
 4767TIP3    H238497   0.615   0.134  11.049  0.2747  0.4088  0.9397
 4768TIP3   OH238498   2.621   0.218   9.632  0.3350  0.0950  0.2435
 4768TIP3    H138499   2.669   0.229   9.715 -0.6993  0.0398  0.8714
 4768TIP3    H238500   2.600   0.125   9.629  2.9088 -0.5300 -1.5672
 4769TIP3   OH238501   4.319   1.583  11.115 -0.5402 -0.3560 -0.6461
 4769TIP3    H138502   4.374   1.552  11.043  0.6967 -0.6045  0.3633
 4769TIP3    H238503   4.287   1.668  11.086  1.7486  0.5889 -0.6560
 4770TIP3   OH238504   3.577   3.915  11.547 -0.0371 -0.1153 -0.2338
 4770TIP3    H138505   3.569   3.925  11.453 -0.4706 -0.7659 -0.2742
 4770TIP3    H238506   3.671   3.917  11.565  0.0631 -0.3872 -0.7256
 4771TIP3   OH238507   1.279   0.570  10.191 -0.4454  0.1005 -0.7345
 4771TIP3    H138508   1.233   0.654  10.178 -1.1722 -0.2692 -0.6373
 4771TIP3    H238509   1.263   0.522  10.110  0.6197  0.3379 -1.1029
 4772TIP3   OH238510   5.022   4.931  11.286 -0.4906  0.1170 -0.0235
 4772TIP3    H138511   5.008   4.934  11.380 -1.8295 -0.4877 -0.1824
 4772TIP3    H238512   5.033   5.023  11.261  0.9336  0.2109  0.8406
 4773TIP3   OH238513   1.186   4.387  11.763  0.2753 -0.4164 -0.3076
 4773TIP3    H138514   1.222   4.456  11.708  1.8153 -1.6458 -0.9233
 4773TIP3    H238515   1.172   4.428  11.848 -1.2789  1.2877 -1.3017
 4774TIP3   OH238516   2.094   2.440   9.650  0.3437  0.5726 -0.3639
 4774TIP3    H138517   2.131   2.527   9.662  1.1232  0.4055 -1.4493
 4774TIP3    H238518   2.130   2.388   9.722  3.2274  0.1124 -2.0261
 4775TIP3   OH238519   3.699   3.164  10.186 -0.2870 -0.1114  0.1814
 4775TIP3    H138520   3.785   3.155  10.145 -0.4725 -0.8372 -0.0619
 4775TIP3    H238521   3.680   3.258  10.182  0.9678  0.2186  1.2186
 4776TIP3   OH238522   1.076   0.558   9.933 -0.5897  0.0598  0.0397
 4776TIP3    H138523   1.072   0.618   9.859 -1.6195 -0.3225 -0.2365
 4776TIP3    H238524   1.164   0.522   9.930 -0.0640  1.3005  0.0161
 4777TIP3   OH238525   4.710   3.046  10.324 -0.4782 -0.3121  0.3303
 4777TIP3    H138526   4.804   3.052  10.307 -0.7161 -0.5963 -1.3114
 4777TIP3    H238527   4.670   3.053  10.237 -2.1294  2.2984  1.1974
 4778TIP3   OH238528   1.412   4.287  11.606 -0.4805 -0.0239 -0.4471
 4778TIP3    H138529   1.410   4.192  11.601 -0.4224 -0.0301 -0.3684
 4778TIP3    H238530   1.321   4.312  11.622 -0.4508 -0.0873 -0.1618
 4779TIP3   OH238531   1.831   0.448   8.287  0.5761  0.4386 -0.7641
 4779TIP3    H138532   1.883   0.380   8.244 -2.7252 -1.7592 -1.6290
 4779TIP3    H238533   1.839   0.524   8.228  0.9198 -0.5747 -2.0745
 4780TIP3   OH238534   1.215   0.675  10.519  0.2753  0.4735 -1.1921
 4780TIP3    H138535   1.160   0.656  10.443 -2.0335  0.5042  0.3528
 4780TIP3    H238536   1.164   0.739  10.569  2.4333  1.6178 -0.3602
 4781TIP3   OH238537   4.824   6.524   8.360  0.2997 -0.1626  0.1110
 4781TIP3    H138538   4.897   6.510   8.299  2.2657 -0.4831  2.3663
 4781TIP3    H238539   4.793   6.436   8.381 -0.0384 -0.0809 -0.0401
 4782TIP3   OH238540   5.685   3.942  10.009 -0.4382  0.0033  0.1799
 4782TIP3    H138541   5.643   3.891   9.940 -1.2034  1.2814 -0.3389
 4782TIP3    H238542   5.719   3.877  10.070  2.3514 -1.3297 -2.5210
 4783TIP3   OH238543   2.884   5.922  11.918 -0.1152 -0.0476 -0.0938
 4783TIP3    H138544   2.906   5.990  11.854 -1.5416 -0.6279 -1.2464
 4783TIP3    H238545   2.968   5.891  11.950  0.5852  2.1646  0.3805
 4784TIP3   OH238546   5.417   0.918  11.091 -0.7149  0.3746  0.1640
 4784TIP3    H138547   5.460   1.001  11.070  0.2580  0.2844  1.6498
 4784TIP3    H238548   5.441   0.900  11.182 -0.2734 -1.9236 -0.3351
 4785TIP3   OH238549   0.462   6.296   8.641 -0.2557  0.5885  0.1732
 4785TIP3    H138550   0.482   6.233   8.572 -0.1523  0.5583  0.2292
 4785TIP3    H238551   0.382   6.263   8.682 -0.3671  0.6553  0.0101
 4786TIP3   OH238552   4.238   6.141   9.989  0.3843 -0.4212 -0.1347
 4786TIP3    H138553   4.166   6.101   9.942  0.5383  0.6686 -1.3774
 4786TIP3    H238554   4.231   6.108  10.078 -0.7698 -1.4533 -0.5893
 4787TIP3   OH238555   3.661   6.691  11.458 -0.6902 -0.1681  0.1650
 4787TIP3    H138556   3.567   6.686  11.472 -0.5688 -1.0757  0.7579
 4787TIP3    H238557   3.675   6.652  11.371 -0.8694  0.0987  0.0150
 4788TIP3   OH238558   2.287   3.347  10.874  0.0226  0.5882  0.0510
 4788TIP3    H138559   2.214   3.358  10.813 -0.0835  0.7622  0.2092
 4788TIP3    H238560   2.356   3.405  10.842  0.1351  0.3354 -0.1658
 4789TIP3   OH238561   2.494   3.971  10.257  0.2436 -0.8533  0.6056
 4789TIP3    H138562   2.495   3.971  10.161  0.5980 -0.5389  0.6079
 4789TIP3    H238563   2.429   4.036  10.280 -1.3984 -2.4225  0.5793
 4790TIP3   OH238564   5.003   1.657  11.283 -0.1851 -0.4540  0.7801
 4790TIP3    H138565   4.916   1.673  11.320 -0.7630  0.3181 -0.8442
 4790TIP3    H238566   4.987   1.633  11.192  1.1280 -3.5654  1.2502
 4791TIP3   OH238567   3.376   1.175  10.993 -0.2107  0.0262 -0.1163
 4791TIP3    H138568   3.334   1.103  10.947 -0.1269  0.1627 -0.4068
 4791TIP3    H238569   3.307   1.211  11.049 -1.2218  1.7624 -2.3022
 4792TIP3   OH238570   4.715   0.126   9.040  0.6298 -0.0453 -0.2123
 4792TIP3    H138571   4.688   0.218   9.041  1.1006  0.1029 -0.5610
 4792TIP3    H238572   4.643   0.080   8.997  0.7430  0.2847 -0.7623
 4793TIP3   OH238573   3.767   6.430   8.414  0.1859  0.3750 -0.3400
 4793TIP3    H138574   3.683   6.388   8.401 -0.6231  1.2754  1.5524
 4793TIP3    H238575   3.777   6.489   8.339 -1.1233  0.6331 -0.3318
 4794TIP3   OH238576   4.170   0.475  11.515  0.2457  0.0202 -0.3024
 4794TIP3    H138577   4.096   0.416  11.503 -0.5473  0.6775  1.1028
 4794TIP3    H238578   4.218   0.472  11.432 -1.5743 -0.1033 -1.3831
 4795TIP3   OH238579   5.407   0.614  12.049  0.0306 -0.0076  0.6295
 4795TIP3    H138580   5.335   0.677  12.049  0.1623  0.1499  0.0799
 4795TIP3    H238581   5.368   0.532  12.020 -0.3380 -0.4239  2.2428
 4796TIP3   OH238582   2.743   3.374  10.994 -0.2353 -0.4308 -0.3446
 4796TIP3    H138583   2.695   3.444  10.949 -0.4440 -0.2625  0.1285
 4796TIP3    H238584   2.765   3.412  11.079  0.4605 -0.6225 -0.4351
 4797TIP3   OH238585   2.714   5.259  11.817 -0.6013 -0.7181 -0.1758
 4797TIP3    H138586   2.705   5.194  11.888 -0.4241 -0.9743 -0.3831
 4797TIP3    H238587   2.702   5.208  11.737 -1.4322 -0.3117 -0.3165
 4798TIP3   OH238588   5.416   4.611   9.978 -0.3813 -0.0903 -0.2365
 4798TIP3    H138589   5.493   4.668   9.973  2.4181 -2.5940  4.9589
 4798TIP3    H238590   5.352   4.661  10.028 -1.0044  0.9216 -1.9726
 4799TIP3   OH238591   0.070   2.105  11.357 -0.6052  0.0941  0.1564
 4799TIP3    H138592   0.122   2.057  11.422 -1.4444 -0.2855  0.5607
 4799TIP3    H238593   0.001   2.147  11.408 -1.0765  0.0678 -0.4512
 4800TIP3   OH238594   3.398   4.590  11.239 -0.0100  0.3243 -1.0576
 4800TIP3    H138595   3.411   4.672  11.191 -1.4209  0.4690 -1.2313
 4800TIP3    H238596   3.456   4.527  11.195  2.8102  1.6740  0.4532
 4801TIP3   OH238597   2.083   1.785  11.062 -0.4482 -0.7680  0.2646
 4801TIP3    H138598   2.122   1.811  11.145 -1.2990 -0.3885  0.5608
 4801TIP3    H238599   2.108   1.854  11.001 -1.0984 -0.2229  0.5909
 4802TIP3   OH238600   4.102   1.130  11.675  0.1074 -0.4624 -0.0270
 4802TIP3    H138601   4.198   1.127  11.673  0.1331 -0.7151 -2.5677
 4802TIP3    H238602   4.075   1.045  11.640 -0.9571  0.3419 -1.2575
 4803TIP3   OH238603   1.339   1.414  10.853 -0.1713 -0.3633  0.3932
 4803TIP3    H138604   1.253   1.410  10.895 -0.1806  0.8363  0.4960
 4803TIP3    H238605   1.355   1.507  10.838  0.5469 -0.6582 -0.7939
 4804TIP3   OH238606   2.196   2.097  10.251  0.1546 -0.0710  0.2251
 4804TIP3    H138607   2.210   2.065  10.340  0.2510  0.2188  0.3165
 4804TIP3    H238608   2.223   2.189  10.255  0.5012 -0.1535 -0.1944
 4805TIP3   OH238609   4.054   5.652   9.604 -0.0139  0.3661 -0.3191
 4805TIP3    H138610   4.091   5.706   9.534 -0.4556  0.3834 -0.5439
 4805TIP3    H238611   4.112   5.577   9.611 -0.3686  0.0034 -1.1997
 4806TIP3   OH238612   0.333   4.964   9.748  0.5421  0.0134 -0.1790
 4806TIP3    H138613   0.250   4.918   9.761  1.1657 -1.0434  0.1567
 4806TIP3    H238614   0.400   4.905   9.784  1.4954  0.6087 -0.9157
 4807TIP3   OH238615   5.745   6.192  11.647  0.0696  0.1998 -0.1618
 4807TIP3    H138616   5.788   6.107  11.640 -2.5356 -1.4153  1.4839
 4807TIP3    H238617   5.748   6.228  11.558  2.6143 -0.8177 -0.5688
 4808TIP3   OH238618   1.403   2.739  10.522 -0.3111 -0.2655  0.2268
 4808TIP3    H138619   1.354   2.789  10.457 -0.6649  0.6615  1.1813
 4808TIP3    H238620   1.490   2.730  10.484 -0.1411  1.3803  0.1592
 4809TIP3   OH238621   5.958   2.825   9.440 -0.5192  0.1847 -0.0670
 4809TIP3    H138622   6.042   2.779   9.437 -0.6057 -0.0366  0.8160
 4809TIP3    H238623   5.901   2.776   9.381 -0.1308  0.1411 -0.4103
 4810TIP3   OH238624   2.759   3.760  11.254  0.2927 -0.3521  0.6371
 4810TIP3    H138625   2.729   3.841  11.294  2.7061  1.0980 -0.2764
 4810TIP3    H238626   2.685   3.700  11.262 -1.1035  1.4951  2.5296
 4811TIP3   OH238627   6.176   3.111  10.801 -0.3296  0.1470  0.6965
 4811TIP3    H138628   6.126   3.176  10.850 -0.6965  0.2563  0.1965
 4811TIP3    H238629   6.170   3.031  10.853 -1.1172  0.1338  0.6012
 4812TIP3   OH238630   0.459   6.547  11.938  0.0244  0.1852  0.2859
 4812TIP3    H138631   0.468   6.623  11.996 -0.3888 -1.2182  2.2905
 4812TIP3    H238632   0.505   6.573  11.858  2.9156  1.3034  2.1423
 4813TIP3   OH238633   5.746   1.774   9.362  0.2183 -0.3660  0.2004
 4813TIP3    H138634   5.769   1.866   9.359  1.5273 -0.6765  0.2055
 4813TIP3    H238635   5.678   1.764   9.295 -2.3836  1.2086  2.4456
 4814TIP3   OH238636   4.099   6.289  11.693  0.0958  0.8003  0.3624
 4814TIP3    H138637   4.012   6.312  11.727 -0.4968  0.6334 -0.9991
 4814TIP3    H238638   4.110   6.345  11.616 -0.2638 -1.5295 -1.4830
 4815TIP3   OH238639   5.583   4.024   9.656  0.1719 -0.3034 -0.5725
 4815TIP3    H138640   5.526   3.954   9.625 -0.9747  0.1689  0.4115
 4815TIP3    H238641   5.672   3.990   9.645 -0.3585 -1.7304 -0.5174
 4816TIP3   OH238642   5.384   4.459  10.547  0.4093 -0.0757  0.0783
 4816TIP3    H138643   5.321   4.439  10.477  0.2722  0.2347  0.1121
 4816TIP3    H238644   5.419   4.373  10.573  1.0159 -0.1500 -0.8898
 4817TIP3   OH238645   5.803   1.023   9.883 -0.2634  0.2674  0.6146
 4817TIP3    H138646   5.804   1.112   9.848  1.2941  0.2423  0.5251
 4817TIP3    H238647   5.875   0.979   9.837 -0.8380 -0.9615  0.8556
 4818TIP3   OH238648   4.734   5.174  10.831  0.1161 -0.3525  0.1896
 4818TIP3    H138649   4.778   5.259  10.827  0.5197 -0.5334  0.6570
 4818TIP3    H238650   4.803   5.110  10.815  0.2333 -0.6843  1.8069
 4819TIP3   OH238651   4.861   4.852  11.063 -0.2591 -0.0548 -0.5737
 4819TIP3    H138652   4.897   4.853  10.974 -1.1569 -0.2063 -0.9488
 4819TIP3    H238653   4.933   4.820  11.117  0.7248  1.2720 -1.0359
 4820TIP3   OH238654   3.570   3.043   9.922  0.4207 -0.7653  0.6678
 4820TIP3    H138655   3.579   3.082   9.834  1.0067 -1.3594  0.4574
 4820TIP3    H238656   3.539   3.116   9.977 -1.0178 -0.6521 -0.2362
 4821TIP3   OH238657   5.858   5.811   9.405 -0.4838  0.0619  0.6509
 4821TIP3    H138658   5.860   5.821   9.310 -1.4855 -2.6555  0.2572
 4821TIP3    H238659   5.766   5.796   9.426 -0.2940  0.7286  2.0859
 4822TIP3   OH238660   2.763   0.468  10.043 -0.8969 -0.3835  0.1674
 4822TIP3    H138661   2.825   0.495   9.975 -1.0005 -0.9868 -0.1763
 4822TIP3    H238662   2.818   0.448  10.119 -0.4791 -2.4762 -0.6236
 4823TIP3   OH238663   1.343   5.480   8.997 -0.2561 -0.1792  0.2829
 4823TIP3    H138664   1.376   5.494   8.908 -1.1407 -1.4622 -0.2784
 4823TIP3    H238665   1.259   5.525   8.999  0.5186  1.3098  1.0475
 4824TIP3   OH238666   0.269   1.542   9.381  0.1012 -0.3712 -0.0194
 4824TIP3    H138667   0.337   1.482   9.410  0.6895  0.1623 -0.2533
 4824TIP3    H238668   0.192   1.518   9.431  0.1686 -1.6721 -0.5022
 4825TIP3   OH238669   2.864   2.085  11.476 -0.6157 -0.9030 -0.4759
 4825TIP3    H138670   2.934   2.124  11.529  0.2731 -3.8553  0.7776
 4825TIP3    H238671   2.847   2.149  11.407  0.7662  1.5228  1.2548
 4826TIP3   OH238672   0.746   6.230   8.814  0.1346  0.2829 -0.1749
 4826TIP3    H138673   0.767   6.318   8.847 -0.3448  0.0761  0.7159
 4826TIP3    H238674   0.720   6.244   8.723  0.4058  1.0145 -0.1471
 4827TIP3   OH238675   3.510   0.262  11.874  0.2752 -0.2916 -0.2451
 4827TIP3    H138676   3.480   0.210  11.949 -0.0566 -0.4684 -0.5003
 4827TIP3    H238677   3.547   0.341  11.913  0.4861 -0.5701  0.1305
 4828TIP3   OH238678   2.912   4.148  11.822 -0.0335  0.1186 -0.9561
 4828TIP3    H138679   2.970   4.161  11.897 -0.9690  1.5683 -0.4204
 4828TIP3    H238680   2.891   4.237  11.793  0.0364 -0.4144 -2.7481
 4829TIP3   OH238681   1.514   6.346   9.772  0.1756 -0.2218  0.0946
 4829TIP3    H138682   1.580   6.389   9.826  0.3932  0.9326 -1.0269
 4829TIP3    H238683   1.564   6.286   9.716  0.0863 -0.5423  0.3565
 4830TIP3   OH238684   1.550   1.606  11.227 -0.1942 -0.1256  0.4748
 4830TIP3    H138685   1.454   1.613  11.225 -0.2518 -1.0503 -1.2920
 4830TIP3    H238686   1.578   1.685  11.274 -1.8395 -0.1737  1.6209
 4831TIP3   OH238687   3.476   5.398  11.465 -0.2646 -0.0633  0.1876
 4831TIP3    H138688   3.388   5.425  11.440 -0.2421  2.4441  2.3638
 4831TIP3    H238689   3.465   5.352  11.548  0.2884 -2.0467 -0.7875
 4832TIP3   OH238690   4.390   4.082  10.939  0.0636 -0.7072 -0.2181
 4832TIP3    H138691   4.454   4.111  11.004  0.3601 -1.0153 -0.3706
 4832TIP3    H238692   4.362   4.162  10.895 -0.8696 -0.3635  0.9488
 4833TIP3   OH238693   6.484   0.127  11.970 -0.3539 -0.3359 -0.7805
 4833TIP3    H138694   6.411   0.111  11.911 -0.1868 -0.6910 -0.8927
 4833TIP3    H238695   6.559   0.085  11.927 -0.0736  0.0801 -0.6962
 4834TIP3   OH238696   3.504   0.620  11.323 -0.1886  0.3228 -0.1049
 4834TIP3    H138697   3.420   0.576  11.334  0.3096 -0.6579 -0.1582
 4834TIP3    H238698   3.553   0.565  11.262  0.3833  1.0420 -0.3099
 4835TIP3   OH238699   0.581   6.241  11.939  0.2951 -0.5983 -0.0742
 4835TIP3    H138700   0.571   6.336  11.940  0.9573 -0.5252  0.3940
 4835TIP3    H238701   0.572   6.217  11.847  0.6051 -0.0203 -0.2656
 4836TIP3   OH238702   0.011   5.801  11.432  0.7531  0.0869 -0.0508
 4836TIP3    H138703   0.089   5.847  11.399 -0.6392  2.1675 -0.6263
 4836TIP3    H238704  -0.056   5.816  11.366 -1.1947  1.5778  2.0965
 4837TIP3   OH238705   0.208   4.135  11.508  0.3207  0.6642 -1.0628
 4837TIP3    H138706   0.188   4.224  11.480  1.8044  0.7562 -1.9411
 4837TIP3    H238707   0.174   4.079  11.438 -1.3135  0.4598 -0.1389
 4838TIP3   OH238708   4.601   3.197  10.925  0.1003  0.3726 -1.1181
 4838TIP3    H138709   4.676   3.138  10.937 -0.9858 -0.6275  1.5597
 4838TIP3    H238710   4.600   3.215  10.831  3.2350 -0.1444 -1.3613
 4839TIP3   OH238711   6.031   4.912  12.013  0.1505  0.0853 -0.2872
 4839TIP3    H138712   6.113   4.863  12.015 -1.0963 -2.1451 -0.2963
 4839TIP3    H238713   5.972   4.864  12.071 -1.0802  1.8150 -0.0082
 4840TIP3   OH238714   3.390   0.543  12.039 -0.2460 -0.2155 -0.4844
 4840TIP3    H138715   3.369   0.591  11.959  2.0251  0.6220 -0.6377
 4840TIP3    H238716   3.484   0.525  12.033 -0.3472 -1.6444  1.2159
 4841TIP3   OH238717   3.580   1.906  11.968 -0.4694 -0.3496 -0.1137
 4841TIP3    H138718   3.564   1.957  11.888  1.1055  1.3631  0.5828
 4841TIP3    H238719   3.493   1.892  12.005 -1.1173 -0.0271 -1.4604
 4842TIP3   OH238720   4.244   5.432   9.622 -0.2924  0.4946  0.1086
 4842TIP3    H138721   4.320   5.427   9.564  0.0998 -2.2480  0.7124
 4842TIP3    H238722   4.274   5.482   9.698  1.5122 -1.7871  1.0227
 4843TIP3   OH238723   4.868   1.260   9.088  0.1073  0.1030  0.2767
 4843TIP3    H138724   4.808   1.275   9.161  1.3934  1.3768  1.1170
 4843TIP3    H238725   4.818   1.287   9.010 -1.1796 -1.0082  0.6690
 4844TIP3   OH238726   2.525   3.124  10.423 -0.2582 -0.1398 -0.8233
 4844TIP3    H138727   2.570   3.091  10.345 -1.4652 -1.4900 -1.0130
 4844TIP3    H238728   2.481   3.046  10.459  0.0760  0.5091  1.0696
 4845TIP3   OH238729   4.744   0.274  10.388 -0.2636 -0.0006 -0.8910
 4845TIP3    H138730   4.818   0.334  10.386 -0.4324  0.3255  1.2470
 4845TIP3    H238731   4.668   0.330  10.371 -0.1166 -0.2529 -2.5627
 4846TIP3   OH238732   3.186   6.675   8.583 -0.3761  0.2991  0.2255
 4846TIP3    H138733   3.176   6.583   8.609  1.0643 -0.5993 -2.1204
 4846TIP3    H238734   3.268   6.703   8.623 -0.6263  0.4806  0.6260
 4847TIP3   OH238735   2.197   0.657  10.545  0.4229 -0.2282 -0.2512
 4847TIP3    H138736   2.104   0.672  10.527  0.6086 -0.1152 -1.1512
 4847TIP3    H238737   2.230   0.614  10.466  0.9661 -1.0002  0.3782
 4848TIP3   OH238738   2.399   1.681  10.564  0.3574  0.5190 -0.4249
 4848TIP3    H138739   2.444   1.597  10.566  0.2495  0.3730 -2.2348
 4848TIP3    H238740   2.322   1.669  10.620  0.1983 -0.6900 -0.8781
 4849TIP3   OH238741   6.413   0.012  11.136  0.1326 -0.2008 -0.1819
 4849TIP3    H138742   6.450   0.088  11.181  2.7286 -1.7498  0.5416
 4849TIP3    H238743   6.341  -0.017  11.192 -1.2912  1.9788 -0.7740
 4850TIP3   OH238744   2.329   3.944   9.486 -0.0647  0.2254 -0.0529
 4850TIP3    H138745   2.287   4.015   9.437  0.4546  2.5859  2.6220
 4850TIP3    H238746   2.407   3.923   9.435 -1.9496 -0.9549 -2.6783
 4851TIP3   OH238747   5.182   0.183  12.139  0.5072 -0.3997  0.6963
 4851TIP3    H138748   5.098   0.220  12.166 -0.3473 -0.6342 -1.4455
 4851TIP3    H238749   5.161   0.095  12.108  1.4514 -0.3223 -0.2320
 4852TIP3   OH238750   1.979   2.221   9.244 -0.4780  0.6220  0.6173
 4852TIP3    H138751   1.990   2.209   9.338 -0.5268 -0.4603  0.5002
 4852TIP3    H238752   2.064   2.197   9.207 -0.7038  0.2584  0.3280
 4853TIP3   OH238753   1.180   5.349  10.326  0.2660  1.0634  0.4646
 4853TIP3    H138754   1.244   5.399  10.376  0.6947  1.4852 -0.4875
 4853TIP3    H238755   1.233   5.298  10.263 -0.3392  1.8033 -0.6745
 4854TIP3   OH238756   2.802   2.268  10.535  0.1504 -0.4853  0.1192
 4854TIP3    H138757   2.825   2.324  10.460  1.0520 -0.5820  0.3051
 4854TIP3    H238758   2.795   2.328  10.609 -0.7640 -0.3868 -0.0395
 4855TIP3   OH238759   5.617   1.354   9.604  0.0527  0.2552 -0.2422
 4855TIP3    H138760   5.543   1.295   9.621 -1.1292  1.7637  0.0981
 4855TIP3    H238761   5.680   1.333   9.673  0.0460 -1.1660 -0.6290
 4856TIP3   OH238762   1.061   3.457   9.902  0.0610 -0.0216 -0.0120
 4856TIP3    H138763   1.043   3.452   9.809 -0.1032 -0.1418  0.0266
 4856TIP3    H238764   1.106   3.541   9.914  1.2234 -0.5759 -0.3861
 4857TIP3   OH238765   0.000   0.061  11.194  0.1704  0.1374 -0.1187
 4857TIP3    H138766  -0.045   0.051  11.111  1.8599  1.2125 -1.2386
 4857TIP3    H238767   0.060   0.135  11.180  0.9268 -0.0375  1.8525
 4858TIP3   OH238768   2.843   6.309  10.369 -0.3787 -0.4752 -0.0133
 4858TIP3    H138769   2.800   6.234  10.411  1.2020 -1.0405  0.6500
 4858TIP3    H238770   2.886   6.355  10.441 -1.6668  1.3671 -0.3374
 4859TIP3   OH238771   3.362   0.524  10.696 -0.2333  0.0393  0.0391
 4859TIP3    H138772   3.443   0.571  10.716 -0.9097  1.3792 -0.2454
 4859TIP3    H238773   3.299   0.558  10.760  0.4019 -4.2438  3.4126
 4860TIP3   OH238774   0.412   5.741   8.882 -0.0759  0.3929 -0.1281
 4860TIP3    H138775   0.397   5.826   8.843 -1.8883  0.1682 -0.0121
 4860TIP3    H238776   0.324   5.707   8.902  0.5706 -1.5575 -0.3109
 4861TIP3   OH238777   1.349   0.472  12.075  0.0722  0.1980  0.6083
 4861TIP3    H138778   1.282   0.405  12.085 -0.8645  1.0253  0.0903
 4861TIP3    H238779   1.389   0.455  11.990 -1.7010  1.5696 -0.5825
 4862TIP3   OH238780   3.866   1.987  11.857 -0.2205 -0.0530 -0.1381
 4862TIP3    H138781   3.919   1.989  11.777 -0.1694 -1.6966 -0.1716
 4862TIP3    H238782   3.775   1.991  11.826 -0.1657  1.1607 -0.1663
 4863TIP3   OH238783   4.937   3.966  11.570  0.2620 -0.5059 -0.1365
 4863TIP3    H138784   4.843   3.960  11.554 -0.6101  1.1823  3.3918
 4863TIP3    H238785   4.965   4.043  11.520 -0.2111 -0.9971 -1.1848
 4864TIP3   OH238786   6.240   0.714   9.378  0.2282  0.2848 -0.3012
 4864TIP3    H138787   6.225   0.620   9.379  0.2108  0.2813 -0.7883
 4864TIP3    H238788   6.225   0.740   9.287  0.7166  0.6781 -0.2750
 4865TIP3   OH238789   4.125   0.570  10.876 -0.1255 -0.2260 -0.4078
 4865TIP3    H138790   4.038   0.537  10.898 -1.3641  1.5577 -2.2545
 4865TIP3    H238791   4.127   0.571  10.781  2.2346 -0.8688 -0.4275
 4866TIP3   OH238792   3.609   2.566   9.290  0.1924 -0.3539  0.7188
 4866TIP3    H138793   3.612   2.561   9.195  1.5987 -1.5108  0.7883
 4866TIP3    H238794   3.692   2.608   9.314 -0.7577  1.2062  1.3933
 4867TIP3   OH238795   6.081   4.240  10.851  0.0228 -0.0909 -0.4113
 4867TIP3    H138796   6.087   4.147  10.828 -0.7177 -0.1162 -0.5190
 4867TIP3    H238797   6.168   4.276  10.830  0.0854 -0.6039 -1.0526
 4868TIP3   OH238798   1.858   0.692   8.166 -0.1965  0.0581  0.4668
 4868TIP3    H138799   1.792   0.759   8.180 -0.3972 -0.1365  0.4713
 4868TIP3    H238800   1.941   0.739   8.163 -0.4844  0.5527 -1.4634
 4869TIP3   OH238801   3.890   0.773  10.404  0.4825  0.0988  0.2772
 4869TIP3    H138802   3.864   0.863  10.382  1.6575  0.0456 -1.4598
 4869TIP3    H238803   3.985   0.777  10.416  0.7385 -1.1411 -1.1155
 4870TIP3   OH238804   3.882   6.332  10.173 -0.6707 -0.0167 -0.3765
 4870TIP3    H138805   3.895   6.412  10.122 -0.0870 -0.1055 -0.3663
 4870TIP3    H238806   3.850   6.268  10.109 -0.9795  0.1742 -0.4159
 4871TIP3   OH238807   0.642   1.482   9.397  0.4429  0.2759 -0.2698
 4871TIP3    H138808   0.638   1.578   9.398 -0.6089  0.2642 -1.1919
 4871TIP3    H238809   0.681   1.460   9.312 -0.8140 -0.1209 -0.7714
 4872TIP3   OH238810   3.553   6.061   9.722  0.3114  0.0661  0.5228
 4872TIP3    H138811   3.613   6.095   9.789  0.6788 -1.5125  1.0433
 4872TIP3    H238812   3.599   5.985   9.686 -0.4870  0.0858 -0.5720
 4873TIP3   OH238813   4.853   0.805   9.231 -0.1801  0.3073  0.2480
 4873TIP3    H138814   4.786   0.849   9.179 -1.4787 -0.2165  1.4016
 4873TIP3    H238815   4.917   0.873   9.252  0.2675  0.5734 -1.7908
 4874TIP3   OH238816   1.016   4.609  11.598 -0.3348  0.1188  1.3170
 4874TIP3    H138817   0.961   4.532  11.586  0.4586 -0.4246  1.0684
 4874TIP3    H238818   1.004   4.633  11.690 -1.9525  0.7808  0.9535
 4875TIP3   OH238819   0.329   6.164  11.282  0.0067 -0.2117  0.6540
 4875TIP3    H138820   0.362   6.099  11.344  0.0564  1.0945  2.0490
 4875TIP3    H238821   0.359   6.248  11.316  0.1116  0.5675 -1.2112
 4876TIP3   OH238822   0.387   3.937  11.470 -0.8328 -0.2614 -0.4366
 4876TIP3    H138823   0.305   3.957  11.514  0.1279  1.3161  0.7481
 4876TIP3    H238824   0.434   4.020  11.468  0.7734 -1.1397 -0.9862
 4877TIP3   OH238825   5.109   4.683  10.242 -0.7865 -0.8599 -0.4198
 4877TIP3    H138826   5.145   4.755  10.191 -0.9436 -0.0224  0.6103
 4877TIP3    H238827   5.126   4.707  10.333  0.2891 -2.7349 -0.0752
 4878TIP3   OH238828   4.709   4.127  10.684  0.0603  0.5530  0.3436
 4878TIP3    H138829   4.750   4.051  10.726 -0.7705 -0.0292  0.1353
 4878TIP3    H238830   4.767   4.200  10.705  0.7620 -0.0968  0.7381
 4879TIP3   OH238831   5.300   4.111  11.225 -0.2827 -0.2383 -0.2487
 4879TIP3    H138832   5.387   4.141  11.198 -1.2042  0.5020 -2.6816
 4879TIP3    H238833   5.249   4.191  11.236 -0.8661 -0.6896  0.3965
 4880TIP3   OH238834   4.161   0.620  10.315 -0.4395  0.3866 -0.0486
 4880TIP3    H138835   4.194   0.710  10.302 -2.7656  1.2761 -0.2252
 4880TIP3    H238836   4.170   0.579  10.229  0.1047  0.6110 -0.1075
 4881TIP3   OH238837   3.687   3.002  10.969 -0.1138 -0.2342 -0.7556
 4881TIP3    H138838   3.761   3.055  10.938 -0.7055  0.8593 -0.3374
 4881TIP3    H238839   3.641   3.059  11.030 -0.1004 -1.6587  0.6312
 4882TIP3   OH238840   5.324   0.702  10.637 -0.0241 -0.2140 -0.7167
 4882TIP3    H138841   5.356   0.664  10.555  0.3625 -3.2527  0.6912
 4882TIP3    H238842   5.233   0.674  10.642 -0.4212  1.0393 -0.6689
 4883TIP3   OH238843   0.417   3.907   9.262 -0.6242 -0.2445  0.0547
 4883TIP3    H138844   0.390   3.851   9.190 -1.2083  0.2319 -0.1019
 4883TIP3    H238845   0.350   3.974   9.267  0.4653  0.8991 -0.2569
 4884TIP3   OH238846   5.939   1.332   9.000 -0.3275  0.6171  0.2343
 4884TIP3    H138847   6.032   1.355   9.005 -0.2721  0.5790 -0.5032
 4884TIP3    H238848   5.917   1.343   8.907 -1.0021  0.4079  0.3681
 4885TIP3   OH238849   3.886   2.053  10.629 -0.1838 -0.6772  0.1096
 4885TIP3    H138850   3.840   2.057  10.546  0.5632 -1.7295 -0.3738
 4885TIP3    H238851   3.942   2.131  10.629  0.3243 -1.0282 -0.7019
 4886TIP3   OH238852   0.709   2.573  10.554  0.2830  0.6642  0.2920
 4886TIP3    H138853   0.695   2.648  10.496 -0.3563 -0.2385 -0.7652
 4886TIP3    H238854   0.804   2.567  10.564  0.3975  0.8983 -0.5910
 4887TIP3   OH238855   3.995   0.780  11.336  0.0186  0.2207 -0.3111
 4887TIP3    H138856   3.925   0.728  11.295 -0.2948 -0.4307  1.0167
 4887TIP3    H238857   4.070   0.769  11.278 -0.4033 -0.7152 -0.6916
 4888TIP3   OH238858   3.332   2.105   9.967 -0.4235 -0.3451  0.3792
 4888TIP3    H138859   3.400   2.113  10.034  0.9874 -1.3685 -0.8767
 4888TIP3    H238860   3.270   2.175   9.988  1.1291  0.7855  1.4184
 4889TIP3   OH238861   4.746   3.339   9.768  0.1552  0.6587  0.5737
 4889TIP3    H138862   4.757   3.350   9.674 -0.8182  0.7321  0.4589
 4889TIP3    H238863   4.665   3.288   9.777  0.6004  0.0551  1.3495
 4890TIP3   OH238864   5.835   2.501  10.227 -0.1024  0.0467  0.4693
 4890TIP3    H138865   5.926   2.471  10.238 -0.2519 -0.5729  0.0928
 4890TIP3    H238866   5.800   2.446  10.157 -0.9723 -0.1790  1.0566
 4891TIP3   OH238867   6.109   5.126   9.496  0.8052  0.2447 -0.4740
 4891TIP3    H138868   6.076   5.216   9.491  0.6176  0.3295  1.5617
 4891TIP3    H238869   6.179   5.123   9.431  0.5586  1.7436 -0.8561
 4892TIP3   OH238870   3.117   5.717  12.100  0.0203 -0.5170  0.0973
 4892TIP3    H138871   3.091   5.627  12.078  2.1273 -0.5909 -2.6582
 4892TIP3    H238872   3.189   5.706  12.163 -0.8876 -0.6486  1.1353
 4893TIP3   OH238873   2.428   0.876  11.752 -0.7603  0.4843 -0.0248
 4893TIP3    H138874   2.338   0.899  11.773 -0.4343 -0.4020  2.7258
 4893TIP3    H238875   2.480   0.913  11.824  0.6097 -2.0816  0.4321
 4894TIP3   OH238876   2.257   5.754  12.104  0.2770 -0.0114  0.2109
 4894TIP3    H138877   2.226   5.794  12.023  0.0615 -1.0898 -0.2576
 4894TIP3    H238878   2.340   5.713  12.079  0.4302  0.0385  0.6443
 4895TIP3   OH238879   1.082   0.744   9.674 -0.4284 -0.3231 -0.2672
 4895TIP3    H138880   1.060   0.682   9.604  0.7920 -0.3531 -0.6488
 4895TIP3    H238881   1.158   0.792   9.640  0.9184 -1.1217  1.5055
 4896TIP3   OH238882   3.627   5.357  12.060  1.1545  0.2026 -0.1408
 4896TIP3    H138883   3.680   5.316  12.128  0.4746 -1.9036 -0.8192
 4896TIP3    H238884   3.538   5.359  12.097  1.1852  1.1333 -0.1013
 4897TIP3   OH238885   2.133   4.697   8.819 -0.5175 -0.2738 -0.8226
 4897TIP3    H138886   2.187   4.667   8.893 -0.1544  0.8548 -0.6066
 4897TIP3    H238887   2.081   4.621   8.794  0.1231 -0.9681 -0.0774
 4898TIP3   OH238888   1.689   0.226  11.993 -0.0265 -0.3523  0.6778
 4898TIP3    H138889   1.686   0.137  11.958  2.7893 -0.7589  1.2369
 4898TIP3    H238890   1.773   0.261  11.964 -1.1327  2.2426  0.3192
 4899TIP3   OH238891   1.404   0.841  10.956  0.2820 -0.3015 -0.2490
 4899TIP3    H138892   1.336   0.905  10.933  0.4045  0.1322  0.5644
 4899TIP3    H238893   1.398   0.833  11.052  1.2643 -0.3858 -0.1877
 4900TIP3   OH238894   4.571   0.728  10.803 -0.3966 -0.3308  0.5989
 4900TIP3    H138895   4.546   0.647  10.847 -0.5481  0.2223  1.5479
 4900TIP3    H238896   4.489   0.764  10.771 -0.2972 -0.6831 -0.0961
 4901TIP3   OH238897   2.174   0.771   9.598 -0.1824 -0.5627 -0.0566
 4901TIP3    H138898   2.210   0.790   9.685 -0.8032 -0.7124  0.2388
 4901TIP3    H238899   2.236   0.812   9.537  0.0968 -0.1952  0.4637
 4902TIP3   OH238900   3.727   6.039  11.771  0.4216  0.5307 -0.1835
 4902TIP3    H138901   3.784   5.986  11.715  0.6129  0.1353  0.3850
 4902TIP3    H238902   3.665   5.976  11.808 -0.2813  0.9290 -0.6601
 4903TIP3   OH238903   1.683   5.135  11.330  0.9830 -0.2244  0.2657
 4903TIP3    H138904   1.714   5.064  11.274  0.5311  0.8563 -1.4249
 4903TIP3    H238905   1.713   5.111  11.418  1.2837 -2.2265 -0.3286
 4904TIP3   OH238906   0.583   4.920   9.287 -0.5200 -0.0184 -0.4738
 4904TIP3    H138907   0.541   4.990   9.337  0.4622  1.3558 -1.5030
 4904TIP3    H238908   0.512   4.861   9.263 -1.2980  0.3721  0.8035
 4905TIP3   OH238909   5.154   0.057  10.985 -0.4864  0.1410 -0.0863
 4905TIP3    H138910   5.152  -0.001  10.909 -0.5201  1.1503 -0.8703
 4905TIP3    H238911   5.069   0.043  11.028  0.3343 -1.9893  1.0024
 4906TIP3   OH238912   1.904   2.516  10.892  0.0590 -0.5551 -0.0639
 4906TIP3    H138913   1.830   2.574  10.909  0.5577 -0.0951  0.6074
 4906TIP3    H238914   1.965   2.569  10.840  0.2804 -0.6498  0.0973
 4907TIP3   OH238915   4.060   1.404  11.019  0.2212  0.2337 -0.3424
 4907TIP3    H138916   4.065   1.499  11.020  0.3992  0.2224  0.5993
 4907TIP3    H238917   3.967   1.385  11.033  0.4153  0.2682  1.1496
 4908TIP3   OH238918   0.838   2.853  11.490  0.5868 -0.1086 -0.3253
 4908TIP3    H138919   0.839   2.803  11.408 -1.5223 -0.0014 -0.4781
 4908TIP3    H238920   0.855   2.788  11.558  1.3269 -0.3855 -0.7641
 4909TIP3   OH238921   3.384   5.850  10.137  0.3984 -0.0490  0.2760
 4909TIP3    H138922   3.299   5.862  10.180  0.0067  0.0668 -0.5219
 4909TIP3    H238923   3.439   5.921  10.173  0.4517 -0.6714  1.4791
 4910TIP3   OH238924   0.912   0.898   8.477  0.0820  0.2357 -0.1404
 4910TIP3    H138925   0.835   0.917   8.423  0.4658  0.7274 -0.5195
 4910TIP3    H238926   0.953   0.983   8.491 -0.1579  0.1492  1.1665
 4911TIP3   OH238927   1.758   3.868   9.098 -0.4183 -0.0280  0.1920
 4911TIP3    H138928   1.701   3.814   9.153 -1.0020  1.5900  1.2359
 4911TIP3    H238929   1.809   3.805   9.047 -2.2320 -1.5433  0.1470
 4912TIP3   OH238930   4.793   1.407   9.423 -0.0028 -0.5772  0.2720
 4912TIP3    H138931   4.724   1.342   9.436 -0.9435  0.2501 -0.4562
 4912TIP3    H238932   4.751   1.478   9.374  1.4000 -0.1156 -0.3254
 4913TIP3   OH238933   5.514   4.002  11.630  0.1336  0.0706 -0.7741
 4913TIP3    H138934   5.429   4.038  11.606  0.7519  0.9849 -1.6909
 4913TIP3    H238935   5.577   4.056  11.583  1.3294  0.4463  1.1711
 4914TIP3   OH238936   3.092   3.307  10.502 -0.1948  0.1374  0.3539
 4914TIP3    H138937   3.129   3.241  10.444  0.7780  2.5553 -1.9232
 4914TIP3    H238938   3.009   3.268  10.532  0.8229 -2.4967 -0.0066
 4915TIP3   OH238939   1.678   1.974  10.994 -0.4128  0.7465  0.0494
 4915TIP3    H138940   1.747   2.025  11.037  0.2792 -0.1736  0.0624
 4915TIP3    H238941   1.596   2.009  11.029  0.0993  0.7862  1.2433
 4916TIP3   OH238942   1.559   2.672  12.030 -0.1707  0.2348  0.2180
 4916TIP3    H138943   1.598   2.747  12.075  1.2595 -0.3835  0.0365
 4916TIP3    H238944   1.472   2.663  12.069  0.1402  1.1703  1.1650
 4917TIP3   OH238945   6.310   1.182   9.796  0.3834  0.1051  0.1129
 4917TIP3    H138946   6.380   1.241   9.768  0.4721  0.1538  0.4401
 4917TIP3    H238947   6.287   1.134   9.716 -0.1395  1.0426 -0.3252
 4918TIP3   OH238948   6.387   2.362  10.341 -0.8243  0.3277 -0.3759
 4918TIP3    H138949   6.449   2.419  10.297  0.1131  0.0426  0.5337
 4918TIP3    H238950   6.440   2.290  10.375 -1.5434  0.4181  0.9993
 4919TIP3   OH238951   2.499   1.153  11.044  0.2229  0.0053 -0.3073
 4919TIP3    H138952   2.456   1.111  11.118  1.5839  0.2084  0.6309
 4919TIP3    H238953   2.428   1.196  10.996 -0.8856 -1.4812 -0.0433
 4920TIP3   OH238954   5.218   5.192  10.166 -0.1972  0.6485 -0.3054
 4920TIP3    H138955   5.302   5.207  10.123  0.4072 -0.4872  0.4004
 4920TIP3    H238956   5.241   5.183  10.259 -0.8098 -1.5574 -0.3099
 4921TIP3   OH238957   4.388   3.144  10.671 -0.0047 -0.3081 -0.3969
 4921TIP3    H138958   4.462   3.093  10.637 -0.1848 -1.0739  0.3416
 4921TIP3    H238959   4.333   3.159  10.594  1.3799  1.1273 -1.1610
 4922TIP3   OH238960   3.594   0.215  12.184 -0.3001 -0.1625 -0.1376
 4922TIP3    H138961   3.622   0.132  12.223 -0.6343 -0.4728 -0.5366
 4922TIP3    H238962   3.528   0.249  12.244 -1.2731 -0.9489 -0.7155
 4923TIP3   OH238963   4.750   2.948  11.575  0.3046 -0.1453  0.1618
 4923TIP3    H138964   4.784   2.918  11.659  2.3577  3.1181  0.6812
 4923TIP3    H238965   4.673   3.000  11.597 -1.1197 -1.9396 -0.3747
 4924TIP3   OH238966   5.023   0.965  10.676 -0.4558 -0.6157 -0.0666
 4924TIP3    H138967   5.034   0.876  10.711 -1.3140  0.0225  2.0011
 4924TIP3    H238968   4.982   0.952  10.591 -1.3008 -2.1900  0.5389
 4925TIP3   OH238969   1.577   6.451  10.687  0.4478  0.5891 -0.6279
 4925TIP3    H138970   1.582   6.449  10.591  0.5242 -2.5305 -0.6309
 4925TIP3    H238971   1.659   6.413  10.716  0.2144  1.0621  0.7091
 4926TIP3   OH238972   3.931   2.411   9.261  0.2074 -0.0169 -0.3687
 4926TIP3    H138973   3.906   2.373   9.345  2.0864  0.2308  0.3398
 4926TIP3    H238974   3.981   2.342   9.218  1.6847  0.8265 -0.0471
 4927TIP3   OH238975   0.306   5.712   9.339 -0.3515 -0.5536  0.0473
 4927TIP3    H138976   0.262   5.749   9.416 -1.3426 -2.3325  0.4023
 4927TIP3    H238977   0.395   5.744   9.344 -0.5874 -0.0572  1.5584
 4928TIP3   OH238978   0.886   1.819   9.096  0.2084 -0.3060  0.1210
 4928TIP3    H138979   0.876   1.846   9.187  1.4942  0.3525  0.0988
 4928TIP3    H238980   0.947   1.744   9.100 -0.9104 -1.2515 -0.0841
 4929TIP3   OH238981   2.710   2.681  10.085 -0.2796  0.1327  0.6209
 4929TIP3    H138982   2.660   2.635  10.153 -1.1895 -0.7990 -0.6315
 4929TIP3    H238983   2.645   2.700  10.018  0.9267 -0.4971 -0.7635
 4930TIP3   OH238984   0.805   3.926  10.101 -0.0187 -0.0279 -0.5028
 4930TIP3    H138985   0.866   3.892  10.035 -1.5748 -0.4138 -1.8287
 4930TIP3    H238986   0.771   4.006  10.061  0.3174  0.7056  0.6491
 4931TIP3   OH238987   2.912   3.735  10.024  0.5117  0.1255  0.2128
 4931TIP3    H138988   2.824   3.738  10.063  0.4959 -0.2694  0.2049
 4931TIP3    H238989   2.963   3.681  10.085  0.7338  0.3024  0.1851
 4932TIP3   OH238990   2.406   0.917   9.523 -0.5450 -0.6178 -0.0500
 4932TIP3    H138991   2.443   0.949   9.605 -2.0884 -1.9663  1.2491
 4932TIP3    H238992   2.456   0.962   9.455  1.4993 -0.2509  1.5912
 4933TIP3   OH238993   5.856   6.688  10.505 -0.2493 -0.2092  0.0183
 4933TIP3    H138994   5.871   6.606  10.552 -1.4423 -0.5031 -0.0820
 4933TIP3    H238995   5.809   6.662  10.426 -1.0666  0.6086  0.2147
 4934TIP3   OH238996   2.785   1.313  11.442 -0.0967  0.6970 -0.1442
 4934TIP3    H138997   2.785   1.388  11.502 -1.2386  2.0629 -1.7322
 4934TIP3    H238998   2.867   1.321  11.394  0.7363 -0.2967  1.0597
 4935TIP3   OH238999   3.393   5.092  11.998 -0.1009 -0.0453 -0.2369
 4935TIP3    H139000   3.367   5.172  12.044 -0.8733  0.6891 -1.8654
 4935TIP3    H239001   3.468   5.059  12.047 -1.3142  0.2555  1.9923
 4936TIP3   OH239002   4.985   3.871  11.846 -0.1416 -0.0378  0.1583
 4936TIP3    H139003   5.052   3.803  11.838  0.9920  1.1137 -0.5231
 4936TIP3    H239004   4.936   3.866  11.764 -1.5208 -1.4583  1.0062
 4937TIP3   OH239005   4.852   4.842  10.506 -0.0665 -0.0071 -0.1628
 4937TIP3    H139006   4.796   4.802  10.573  0.1937  0.7298  0.5001
 4937TIP3    H239007   4.924   4.780  10.495 -1.2637 -1.2483 -1.4321
 4938TIP3   OH239008   2.015   6.129   9.848 -0.4574 -0.0376  0.6191
 4938TIP3    H139009   1.993   6.039   9.872 -1.3889  0.5230  1.9714
 4938TIP3    H239010   2.058   6.165   9.925 -2.3932  1.4338  1.0710
 4939TIP3   OH239011   2.671   0.463  12.054  0.2068  0.2268  0.1150
 4939TIP3    H139012   2.599   0.517  12.023 -0.9755 -2.2747 -1.8716
 4939TIP3    H239013   2.678   0.483  12.147 -2.0622  1.6289  0.0462
 4940TIP3   OH239014   4.371   1.117   9.422 -0.0649 -0.4919 -0.2239
 4940TIP3    H139015   4.313   1.153   9.489 -0.8815  0.3227 -1.3278
 4940TIP3    H239016   4.434   1.063   9.471 -1.1046 -0.5507  1.1013
 4941TIP3   OH239017   5.813   2.162  10.760  1.1441 -0.1214  0.3121
 4941TIP3    H139018   5.843   2.196  10.844  0.1627  1.5487  0.0255
 4941TIP3    H239019   5.892   2.154  10.707  1.4302  1.7722  0.4033
 4942TIP3   OH239020   0.811   0.755   9.506  0.6916 -0.3031  0.1147
 4942TIP3    H139021   0.855   0.684   9.460  3.2077 -0.7164  2.8710
 4942TIP3    H239022   0.881   0.815   9.531 -0.7779  0.8423  1.7371
 4943TIP3   OH239023   1.226   6.690   9.077 -0.0753 -0.6465  0.1567
 4943TIP3    H139024   1.141   6.683   9.121 -0.8074  0.5241 -0.9753
 4943TIP3    H239025   1.204   6.707   8.986  1.3988 -1.4859 -0.3986
 4944TIP3   OH239026   1.205   1.041  11.530  0.6495 -0.1199 -0.2682
 4944TIP3    H139027   1.250   1.050  11.614  1.3020  1.1045 -0.7347
 4944TIP3    H239028   1.255   1.096  11.470 -0.1165 -0.5722 -1.3458
 4945TIP3   OH239029   1.766   5.518  11.325  0.0141  0.3781 -0.2494
 4945TIP3    H139030   1.770   5.509  11.230 -1.2107  0.8842 -0.3628
 4945TIP3    H239031   1.829   5.454  11.358  0.6997  0.4331 -1.4074
 4946TIP3   OH239032   4.365   4.656  10.960  0.4272  0.7548  0.0170
 4946TIP3    H139033   4.391   4.721  10.895  1.5008 -0.0973 -0.4322
 4946TIP3    H239034   4.438   4.654  11.022 -0.0164  0.6342  0.5430
 4947TIP3   OH239035   0.714   4.432   9.333  0.7557 -0.1690  0.1531
 4947TIP3    H139036   0.773   4.498   9.369 -0.2176  1.8904 -1.8338
 4947TIP3    H239037   0.711   4.450   9.239 -1.4364 -1.5139 -0.1145
 4948TIP3   OH239038   2.414   4.164  12.125 -0.2996 -0.7808  0.3185
 4948TIP3    H139039   2.367   4.228  12.179 -0.8317 -0.8208 -0.0853
 4948TIP3    H239040   2.423   4.087  12.181  1.4633  0.0561  1.2553
 4949TIP3   OH239041   5.162   6.321  10.595 -0.3114  0.1434  0.2752
 4949TIP3    H139042   5.180   6.323  10.689 -0.3112 -0.9539  0.3072
 4949TIP3    H239043   5.178   6.230  10.569  0.6399  0.6308 -0.9792
 4950TIP3   OH239044   6.327   1.615  11.967 -0.2332 -0.2295  0.2745
 4950TIP3    H139045   6.394   1.565  12.013 -0.0459  1.1361  1.5559
 4950TIP3    H239046   6.245   1.575  11.993 -0.1808  0.8945  2.4086
 4951TIP3   OH239047   0.838   2.505   9.830 -0.5680 -0.1902  0.0682
 4951TIP3    H139048   0.874   2.527   9.916  0.5239 -0.3946 -0.3169
 4951TIP3    H239049   0.915   2.497   9.773 -1.0394 -2.8081 -0.3068
 4952TIP3   OH239050   1.392   1.248  10.175 -0.3910  0.0136  0.8366
 4952TIP3    H139051   1.368   1.203  10.257 -1.8545  0.5578  0.7375
 4952TIP3    H239052   1.309   1.256  10.128  0.5421 -0.9497 -1.0570
 4953TIP3   OH239053   1.796   0.001  11.263 -0.0084 -0.3444  0.2845
 4953TIP3    H139054   1.818  -0.013  11.171  1.3759 -1.6722  0.7681
 4953TIP3    H239055   1.718   0.056  11.262 -1.3782 -2.2164 -1.7240
 4954TIP3   OH239056   4.107   2.074  10.864 -0.1613 -0.1757  0.3059
 4954TIP3    H139057   4.201   2.067  10.850  0.4530  0.7258  3.2015
 4954TIP3    H239058   4.089   2.168  10.861 -0.5812 -0.1964  1.4830
 4955TIP3   OH239059   3.058   5.937  10.607 -0.0872 -0.4011  0.3411
 4955TIP3    H139060   3.077   5.846  10.585  1.1060 -0.8082  2.7520
 4955TIP3    H239061   3.127   5.987  10.563  0.8741 -0.9656  1.1513
 4956TIP3   OH239062   1.511   3.587  10.398  0.0659  0.2677  0.2398
 4956TIP3    H139063   1.449   3.536  10.346 -1.2495  1.6478  0.3565
 4956TIP3    H239064   1.584   3.527  10.416  0.2782 -0.4536 -2.6078
 4957TIP3   OH239065   5.419   3.147  10.340 -0.4269 -0.3888 -0.3530
 4957TIP3    H139066   5.397   3.168  10.431 -2.4108 -1.1108 -0.6083
 4957TIP3    H239067   5.463   3.063  10.345  1.8596  0.7605  0.1175
 4958TIP3   OH239068   2.803   0.990  10.229  0.2999  0.1391  0.0598
 4958TIP3    H139069   2.862   0.968  10.157 -0.8106 -1.6189 -0.3859
 4958TIP3    H239070   2.717   0.961  10.199 -0.5101  1.0642  1.3741
 4959TIP3   OH239071   5.660   4.509  10.213 -0.2445 -0.5178  0.4004
 4959TIP3    H139072   5.723   4.438  10.227 -0.1445 -0.2396  1.4043
 4959TIP3    H239073   5.577   4.464  10.197 -0.0356 -0.8714  0.3108
 4960TIP3   OH239074   6.072   2.107  10.105 -0.0096  0.6139 -0.1591
 4960TIP3    H139075   6.123   2.172  10.058 -1.0655  0.8820 -0.9850
 4960TIP3    H239076   6.005   2.078  10.042 -2.6237  2.2883  1.6375
 4961TIP3   OH239077   0.061   4.763  11.457 -0.2907  0.0337 -0.4779
 4961TIP3    H139078   0.072   4.858  11.445 -1.3204  0.0920 -1.0692
 4961TIP3    H239079   0.109   4.744  11.537  0.1919  1.0058 -0.5164
 4962TIP3   OH239080   4.730   3.294  10.505 -0.6456  0.6524 -0.1621
 4962TIP3    H139081   4.734   3.343  10.423  0.5167  1.7167  0.5145
 4962TIP3    H239082   4.671   3.220  10.485  1.1758 -0.2956 -2.5846
 4963TIP3   OH239083   2.764   1.595  11.504  0.3867  0.1883 -0.1209
 4963TIP3    H139084   2.750   1.673  11.559  2.7666  0.7347 -0.1793
 4963TIP3    H239085   2.778   1.631  11.417  2.2301 -0.1775 -0.0227
 4964TIP3   OH239086   4.971   0.609   9.643  0.7109 -0.0197  0.1929
 4964TIP3    H139087   4.948   0.578   9.555 -0.8604  0.4833  0.3835
 4964TIP3    H239088   5.063   0.588   9.653  1.1030  0.4922 -1.8386
 4965TIP3   OH239089   6.030   5.109   9.125 -0.3888  0.6752  0.1637
 4965TIP3    H139090   6.116   5.071   9.111 -0.3292  0.8795 -0.0216
 4965TIP3    H239091   5.975   5.069   9.058 -1.3381 -2.2658  2.4578
 4966TIP3   OH239092   5.319   5.737  10.094  0.1883  0.1772 -0.4844
 4966TIP3    H139093   5.337   5.643  10.091 -0.0324  0.1527 -1.5248
 4966TIP3    H239094   5.224   5.743  10.090  0.2320  0.4612 -1.1748
 4967TIP3   OH239095   3.119   3.973  10.907  0.5035 -0.0290  0.3045
 4967TIP3    H139096   3.148   3.990  10.997  0.8493  1.0530 -0.0043
 4967TIP3    H239097   3.026   3.955  10.914  0.7358 -1.0822  1.0093
 4968TIP3   OH239098   5.490   1.178  10.681 -0.7147 -0.9887  0.2631
 4968TIP3    H139099   5.413   1.159  10.627 -1.0332  0.9180 -0.0469
 4968TIP3    H239100   5.454   1.220  10.760 -0.0425 -0.7162  0.4330
 4969TIP3   OH239101   5.289   1.822  10.329 -0.5179 -0.5902  0.1833
 4969TIP3    H139102   5.326   1.774  10.256  0.7371  1.0996 -0.3704
 4969TIP3    H239103   5.320   1.912  10.317 -0.9500 -0.0831  2.3412
 4970TIP3   OH239104   5.546   0.401  10.038  0.5709  0.2382  0.2718
 4970TIP3    H139105   5.581   0.368   9.955 -0.1792  0.6682 -0.2332
 4970TIP3    H239106   5.499   0.326  10.075  0.6793  0.1217  0.1769
 4971TIP3   OH239107   2.877   5.910  11.425  0.2496  0.5982 -0.5356
 4971TIP3    H139108   2.970   5.930  11.419  1.2623 -1.4861  3.9274
 4971TIP3    H239109   2.834   5.995  11.436  1.6617  1.5492 -2.0318
 4972TIP3   OH239110   0.160   5.303   9.060 -0.2148  0.0871  0.1655
 4972TIP3    H139111   0.104   5.282   9.135  1.7543 -1.7027  1.2636
 4972TIP3    H239112   0.186   5.394   9.073  0.2036 -0.2314  1.7804
 4973TIP3   OH239113   4.915   5.256  11.750 -0.8132  0.3720  0.1259
 4973TIP3    H139114   4.844   5.307  11.788 -0.5667  0.6202  0.2583
 4973TIP3    H239115   4.896   5.254  11.656 -1.7224 -0.6998  0.2996
 4974TIP3   OH239116   0.649   6.604  11.718 -0.2872 -0.0854  0.5791
 4974TIP3    H139117   0.732   6.645  11.694 -1.3364  0.1178 -3.2666
 4974TIP3    H239118   0.660   6.512  11.695 -0.3984 -0.5998  2.3743
 4975TIP3   OH239119   2.584   0.963  10.832 -0.0259 -0.1078 -0.0402
 4975TIP3    H139120   2.533   1.030  10.878 -1.5110 -0.6876 -0.7704
 4975TIP3    H239121   2.518   0.913  10.783  1.2510 -0.9814 -0.9093
 4976TIP3   OH239122   3.963   1.254  10.369 -0.4154 -0.3647 -0.3434
 4976TIP3    H139123   4.011   1.262  10.287 -0.1060 -0.5657 -0.1830
 4976TIP3    H239124   4.024   1.287  10.435 -0.4441 -0.7504 -0.1233
 4977TIP3   OH239125   4.351   5.567   9.267 -0.5403  0.4649  0.1643
 4977TIP3    H139126   4.419   5.567   9.199 -1.1342  0.9721 -0.4421
 4977TIP3    H239127   4.393   5.526   9.343  0.3993  0.6510 -0.2438
 4978TIP3   OH239128   1.854   6.391   8.012  0.1082 -0.1284 -0.1772
 4978TIP3    H139129   1.797   6.354   8.080 -0.0795 -2.2913 -1.4171
 4978TIP3    H239130   1.935   6.341   8.019 -0.7814 -2.2431 -3.0703
 4979TIP3   OH239131   4.613   4.076  11.576  0.5950  0.3493  1.2082
 4979TIP3    H139132   4.645   4.075  11.666 -0.7544 -4.6140  1.9111
 4979TIP3    H239133   4.520   4.054  11.584  0.1604  0.9951 -1.3709
 4980TIP3   OH239134   6.375   6.018  10.568 -0.3184  0.3559 -0.5876
 4980TIP3    H139135   6.416   6.030  10.654 -0.5231  0.1855 -0.4646
 4980TIP3    H239136   6.328   6.100  10.553 -0.0093  0.5141 -0.6859
 4981TIP3   OH239137   4.656   2.714  11.468  0.2557  0.2604 -0.4231
 4981TIP3    H139138   4.692   2.653  11.532 -1.7903  0.3491  0.9108
 4981TIP3    H239139   4.691   2.800  11.493  1.0027  0.0250 -0.6457
 4982TIP3   OH239140   3.207   4.255  12.231 -0.1444 -0.0801  0.1583
 4982TIP3    H139141   3.123   4.261  12.185 -0.2898 -2.9738 -0.1120
 4982TIP3    H239142   3.221   4.161  12.245  2.6020  0.3580  1.0632
 4983TIP3   OH239143   6.251   6.465  12.039 -0.2117 -0.6272 -0.2662
 4983TIP3    H139144   6.296   6.438  11.959 -0.1890 -0.4701 -0.3063
 4983TIP3    H239145   6.285   6.553  12.058  2.3081 -1.8757  1.7287
 4984TIP3   OH239146   0.448   6.348   8.260 -0.3136 -0.1942  0.2016
 4984TIP3    H139147   0.403   6.271   8.294 -1.8763  0.3848 -0.4633
 4984TIP3    H239148   0.412   6.360   8.172 -2.4228  3.0100  1.3115
 4985TIP3   OH239149   1.628   1.601  10.164 -0.5301  0.1401 -0.3316
 4985TIP3    H139150   1.637   1.584  10.070  1.5690  0.0209 -0.1590
 4985TIP3    H239151   1.655   1.692  10.175  1.3980 -0.4738  0.3815
 4986TIP3   OH239152   0.968   6.012  11.856 -0.4353 -0.2181  0.5367
 4986TIP3    H139153   0.982   5.943  11.791 -0.1175 -1.6714  2.0699
 4986TIP3    H239154   1.037   6.076  11.839 -0.0135 -0.8584 -0.2130
 4987TIP3   OH239155   6.354   0.455  10.786 -0.3384 -0.5870  0.1411
 4987TIP3    H139156   6.330   0.439  10.877 -1.0316 -1.1936 -0.1468
 4987TIP3    H239157   6.351   0.369  10.744  0.5625 -0.4069 -0.3251
 4988TIP3   OH239158   4.826   5.187  11.491 -0.1405 -0.4733 -0.1749
 4988TIP3    H139159   4.780   5.103  11.492 -1.3173  0.1581  0.1372
 4988TIP3    H239160   4.818   5.218  11.401 -2.0831  0.5457  0.2980
 4989TIP3   OH239161   3.458   6.322  10.087 -0.0395 -0.4536 -0.3675
 4989TIP3    H139162   3.508   6.358  10.013  3.2919  0.7037  2.1984
 4989TIP3    H239163   3.382   6.380  10.096 -0.0154 -0.0759 -2.2381
 4990TIP3   OH239164   1.943   0.785  11.958  0.9901  0.1489  0.0852
 4990TIP3    H139165   2.032   0.810  11.983  1.3303 -0.1714 -0.7695
 4990TIP3    H239166   1.899   0.768  12.041  2.2454 -1.4283  0.4874
 4991TIP3   OH239167   4.783   4.114  11.790  0.4053  0.2801 -0.1618
 4991TIP3    H139168   4.871   4.101  11.755  0.6338  1.8654 -0.2340
 4991TIP3    H239169   4.781   4.061  11.870  0.5885 -1.6827 -1.3820
 4992TIP3   OH239170   6.136   5.255  10.590  0.6495 -0.2008  0.1700
 4992TIP3    H139171   6.180   5.286  10.669 -0.4846 -0.6732  1.0220
 4992TIP3    H239172   6.068   5.321  10.574  1.2870  0.2377 -0.8058
 4993TIP3   OH239173   0.711   1.546  11.213  0.2516  0.1860 -0.4227
 4993TIP3    H139174   0.757   1.463  11.197  0.1723  0.0838 -0.1229
 4993TIP3    H239175   0.632   1.540  11.158 -1.6625 -1.5299  2.2645
 4994TIP3   OH239176   6.239   4.376   9.448  0.2470  0.3168  0.1260
 4994TIP3    H139177   6.210   4.465   9.468  0.9461  0.6436 -0.2561
 4994TIP3    H239178   6.284   4.347   9.527  1.5572  0.9835 -0.3328
 4995TIP3   OH239179   4.522   5.354  10.950  0.0845  0.1029 -0.2066
 4995TIP3    H139180   4.427   5.348  10.940  0.1201 -0.1118 -0.4169
 4995TIP3    H239181   4.556   5.280  10.900  0.2757 -0.9635  1.4214
 4996TIP3   OH239182   2.055   1.845  10.387  0.3758  0.0051  0.0568
 4996TIP3    H139183   2.084   1.871  10.299 -0.2385  0.4563 -0.0243
 4996TIP3    H239184   2.000   1.768  10.372  1.7758 -1.0644  0.2438
 4997TIP3   OH239185   5.535   1.735  11.897  0.4861  0.6899 -0.1593
 4997TIP3    H139186   5.466   1.799  11.917  3.5892  3.9382  1.3193
 4997TIP3    H239187   5.502   1.688  11.821 -3.2093  2.1552  0.3018
 4998TIP3   OH239188   1.014   3.466   9.637  0.1037  0.1996 -0.4052
 4998TIP3    H139189   1.040   3.420   9.557  0.5541  1.8388 -1.2709
 4998TIP3    H239190   1.059   3.551   9.631 -1.1700  1.0063  0.7688
 4999TIP3   OH239191   4.231   3.175  10.430 -0.9115  0.3492  0.4397
 4999TIP3    H139192   4.215   3.265  10.403  0.3637 -0.1472 -2.2802
 4999TIP3    H239193   4.163   3.124  10.386 -0.2860 -0.2382  0.1356
 5000TIP3   OH239194   3.910   4.717  10.341  0.5555 -0.4147  0.3795
 5000TIP3    H139195   3.884   4.804  10.370 -0.3195 -0.3059 -0.6644
 5000TIP3    H239196   3.932   4.727  10.248  1.0634 -1.1806  0.4025
 5001TIP3   OH239197   1.071   1.384   9.000  0.3241  0.2236 -0.2065
 5001TIP3    H139198   1.019   1.314   9.040  0.5109  1.1793  1.7726
 5001TIP3    H239199   1.025   1.404   8.918 -0.2058 -1.6027 -0.3925
 5002TIP3   OH239200   4.395   2.935  10.074  0.0699 -0.1588 -0.5169
 5002TIP3    H139201   4.457   3.008  10.066  0.0637 -0.1207 -0.2171
 5002TIP3    H239202   4.389   2.900   9.985  0.0963  0.1862 -0.6580
 5003TIP3   OH239203   3.559   4.249   9.666  0.0020 -0.3000 -0.1083
 5003TIP3    H139204   3.529   4.249   9.576  1.0971  2.0026 -0.5373
 5003TIP3    H239205   3.646   4.209   9.663 -0.6070 -1.7374  0.2441
 5004TIP3   OH239206   3.030   6.671  11.227  0.0913  0.7093 -0.0230
 5004TIP3    H139207   3.008   6.713  11.144  1.7917  1.0749 -0.3065
 5004TIP3    H239208   3.108   6.716  11.259 -0.5434  0.6189  1.8283
 5005TIP3   OH239209   6.692   4.839   9.522 -0.5108  0.6239  0.9475
 5005TIP3    H139210   6.620   4.788   9.559 -0.5462 -0.3923 -0.4220
 5005TIP3    H239211   6.757   4.845   9.592  0.0583 -2.4368  0.7925
 5006TIP3   OH239212   1.215   4.899   9.839  0.5367  0.3532 -0.1068
 5006TIP3    H139213   1.291   4.958   9.845  1.1429 -0.3582 -0.6008
 5006TIP3    H239214   1.140   4.955   9.860  1.1153  1.2679 -0.3954
 5007TIP3   OH239215   1.889   3.983  11.033 -0.4313 -0.1442  0.0573
 5007TIP3    H139216   1.916   4.043  11.102  0.4145  0.9975 -1.2199
 5007TIP3    H239217   1.969   3.965  10.984 -0.9558 -1.1877 -0.4498
 5008TIP3   OH239218   2.796   1.251   8.594  0.6047  0.2395 -0.0942
 5008TIP3    H139219   2.751   1.250   8.679  0.2044 -1.3635 -0.2928
 5008TIP3    H239220   2.886   1.226   8.615  0.2497 -1.2255 -0.2510
 5009TIP3   OH239221   5.722   0.112  10.994 -0.5740 -0.2612  0.3392
 5009TIP3    H139222   5.704   0.067  10.911 -0.6258 -1.2352  0.8703
 5009TIP3    H239223   5.664   0.187  10.993 -1.2248 -0.7577 -0.1151
 5010TIP3   OH239224   4.820   3.036   9.605  0.0364  0.4740  0.1069
 5010TIP3    H139225   4.852   2.963   9.659 -0.0207 -0.5940 -1.2551
 5010TIP3    H239226   4.891   3.052   9.543 -0.6942  0.3385 -0.7787
 5011TIP3   OH239227   5.977   0.117  11.137  0.2517 -0.0560 -0.0694
 5011TIP3    H139228   5.897   0.094  11.088  0.0215  0.9784 -0.1984
 5011TIP3    H239229   6.040   0.143  11.069  0.6229 -0.6411  0.0490
 5012TIP3   OH239230   1.503   5.768   9.856  0.4582 -0.1248  0.2728
 5012TIP3    H139231   1.430   5.811   9.900 -1.1535 -0.3979 -1.9593
 5012TIP3    H239232   1.556   5.841   9.823  0.4690  0.0849  0.7428
 5013TIP3   OH239233   2.614   2.992  10.185  0.0375 -0.0854  0.2524
 5013TIP3    H139234   2.615   3.027  10.096 -0.0300  0.7052  0.5530
 5013TIP3    H239235   2.543   2.927  10.184 -0.9429  0.9520  0.0982
 5014TIP3   OH239236   4.874   5.057  10.054 -0.2327  0.7224  0.2842
 5014TIP3    H139237   4.842   5.008   9.978  1.0274  3.0854 -1.9319
 5014TIP3    H239238   4.856   5.148  10.033 -0.0581  1.4460  2.9951
 5015TIP3   OH239239   6.070   6.033  10.055 -0.0568 -0.5224  0.1662
 5015TIP3    H139240   6.157   6.017  10.018  0.7091  0.2314  1.5593
 5015TIP3    H239241   6.051   6.124  10.035 -0.6853 -0.7648 -0.3984
 5016TIP3   OH239242   4.422   2.185  11.110 -0.2617 -0.2586  0.2271
 5016TIP3    H139243   4.387   2.095  11.113  0.5122 -0.6424 -1.2222
 5016TIP3    H239244   4.510   2.175  11.075 -0.1085  1.0612  0.2007
 5017TIP3   OH239245   5.801   2.386  11.984  0.2672  0.5136 -0.3588
 5017TIP3    H139246   5.710   2.416  11.975 -0.1051  0.1316  1.6094
 5017TIP3    H239247   5.799   2.293  11.961 -0.3284 -0.0438  1.7252
 5018TIP3   OH239248   6.006   3.845  10.024 -0.4219 -0.2765  0.2673
 5018TIP3    H139249   6.015   3.900  10.102  0.7273  0.6129 -0.4593
 5018TIP3    H239250   5.992   3.756  10.059 -0.9800  0.2634  1.4676
 5019TIP3   OH239251   5.213   5.162   9.688 -0.0498  0.5329 -0.4703
 5019TIP3    H139252   5.244   5.109   9.761 -3.0544  1.6400  1.8160
 5019TIP3    H239253   5.204   5.100   9.615  0.7252 -1.1325  0.7779
 5020TIP3   OH239254   2.264   6.044  10.628  0.2241 -0.1029 -0.8233
 5020TIP3    H139255   2.219   6.024  10.711  0.3896 -1.9279 -1.1372
 5020TIP3    H239256   2.331   6.108  10.653  0.1291 -0.4524  0.4223
 5021TIP3   OH239257   0.104   0.148  10.132  0.2872  0.3347 -0.4995
 5021TIP3    H139258   0.051   0.228  10.133 -1.2668 -0.6051  1.8929
 5021TIP3    H239259   0.176   0.167  10.192 -0.1534 -0.0520  0.1717
 5022TIP3   OH239260   0.762   3.439  11.100 -0.4670 -0.4409 -0.0831
 5022TIP3    H139261   0.799   3.505  11.042 -0.3341  0.8847  1.4696
 5022TIP3    H239262   0.767   3.358  11.048 -0.2553  0.6459 -1.8694
 5023TIP3   OH239263   5.352   2.757  12.257  0.3427  0.5672  0.1684
 5023TIP3    H139264   5.277   2.698  12.259 -0.2735  1.3605  1.2749
 5023TIP3    H239265   5.323   2.835  12.303  2.1572  0.5353  1.4689
 5024TIP3   OH239266   4.566   5.530  10.017 -0.2685  0.0720  0.1426
 5024TIP3    H139267   4.478   5.538  10.054  0.4709  1.7711  1.6639
 5024TIP3    H239268   4.617   5.597  10.062  1.6469 -0.3942 -1.2324
 5025TIP3   OH239269   4.486   4.146  11.963  0.1935  0.0942 -0.2183
 5025TIP3    H139270   4.438   4.185  12.035 -0.5017 -0.6313 -0.2792
 5025TIP3    H239271   4.563   4.202  11.953  0.8073 -0.3106  1.7047
 5026TIP3   OH239272   3.330   1.310   9.607  0.3597 -0.5356 -0.3706
 5026TIP3    H139273   3.331   1.339   9.699 -1.3052  0.3077 -0.5742
 5026TIP3    H239274   3.317   1.391   9.557 -0.5011 -1.1851 -1.2328
 5027TIP3   OH239275   3.127   6.262  10.996  0.7586 -0.4428 -0.0922
 5027TIP3    H139276   3.157   6.244  11.085  0.3276  0.2285  0.1961
 5027TIP3    H239277   3.047   6.210  10.987  0.1554  0.3885  0.3333
 5028TIP3   OH239278   2.707   5.356  10.416  0.1196 -0.0482 -0.1119
 5028TIP3    H139279   2.801   5.337  10.412 -0.3968 -3.1277 -0.6291
 5028TIP3    H239280   2.679   5.358  10.325 -0.0861  2.7439 -0.0511
 5029TIP3   OH239281   5.093   6.436  10.314  0.2579 -0.5947 -0.2001
 5029TIP3    H139282   5.038   6.390  10.377 -1.8686 -0.0370 -1.5396
 5029TIP3    H239283   5.148   6.368  10.275 -1.1739 -1.6241 -0.4786
 5030TIP3   OH239284   4.493   0.009   8.940 -0.2091  0.1248 -0.1602
 5030TIP3    H139285   4.482   0.052   8.855 -0.6506  1.1403  0.3908
 5030TIP3    H239286   4.416   0.035   8.991  1.5263  2.2720  1.6486
 5031TIP3   OH239287   5.085   3.595  10.279 -0.8407 -0.0991 -0.0715
 5031TIP3    H139288   5.022   3.628  10.344 -0.7254  0.3808 -0.1989
 5031TIP3    H239289   5.135   3.672  10.253 -0.3860 -0.4275 -0.1831
 5032TIP3   OH239290   1.706   2.317  11.268  0.2482  0.2259 -0.4282
 5032TIP3    H139291   1.722   2.407  11.239  0.8555 -0.2246 -1.5338
 5032TIP3    H239292   1.722   2.319  11.363  2.5582  0.7820 -0.7746
 5033TIP3   OH239293   4.953   2.856  12.173  0.1842  0.2108 -0.5858
 5033TIP3    H139294   4.892   2.834  12.102  0.0233 -0.5012 -0.2328
 5033TIP3    H239295   5.017   2.786  12.172 -0.7825 -0.7516  1.0669
 5034TIP3   OH239296   4.171   5.801  10.716  0.4094  0.4181  0.8795
 5034TIP3    H139297   4.124   5.755  10.647 -0.3552  1.6138  0.5645
 5034TIP3    H239298   4.210   5.732  10.770 -0.4342 -0.5638  0.2576
 5035TIP3   OH239299   6.139   3.061  10.546  0.0745  0.5053 -0.2761
 5035TIP3    H139300   6.132   3.143  10.498  2.4418  1.1542  0.3156
 5035TIP3    H239301   6.172   3.087  10.632  0.5881 -1.0330  0.0231
 5036TIP3   OH239302   2.756   3.364  11.486  0.0048 -0.3698 -0.1332
 5036TIP3    H139303   2.789   3.283  11.448  1.9341 -0.4244  1.4899
 5036TIP3    H239304   2.700   3.335  11.558 -2.0373 -0.2347 -1.5682
 5037TIP3   OH239305   0.485   5.159  10.102 -0.2693  0.6043 -0.0144
 5037TIP3    H139306   0.459   5.200  10.184  0.4689  0.1127  0.4772
 5037TIP3    H239307   0.479   5.065  10.118 -0.7580  0.4986 -0.7408
 5038TIP3   OH239308   2.558   1.994  11.166 -0.0248  0.0511  0.1098
 5038TIP3    H139309   2.528   1.981  11.256  1.0295 -0.3212  0.4230
 5038TIP3    H239310   2.556   1.907  11.127 -0.8591  0.2735 -0.3580
 5039TIP3   OH239311   3.801   6.125   9.984 -0.2162  0.2190  0.5720
 5039TIP3    H139312   3.825   6.035   9.962 -1.2865 -0.0917  0.5746
 5039TIP3    H239313   3.808   6.172   9.901  1.1383  0.3274  0.7392
 5040TIP3   OH239314   3.547   3.736  10.972  0.5110  0.1267 -0.4284
 5040TIP3    H139315   3.475   3.749  10.910 -0.1450 -2.5465 -0.3402
 5040TIP3    H239316   3.571   3.644  10.962  0.9620 -0.1979  2.6806
 5041TIP3   OH239317   4.396   0.944  11.231 -0.3383 -0.1667  0.4800
 5041TIP3    H139318   4.463   1.000  11.270 -0.4408  1.2855 -1.3283
 5041TIP3    H239319   4.313   0.985  11.256 -0.4209  0.3980 -0.6920
 5042TIP3   OH239320   0.491   1.183  10.625 -0.0084  0.5141  0.0674
 5042TIP3    H139321   0.433   1.205  10.552 -1.7025  0.6754  1.4020
 5042TIP3    H239322   0.479   1.255  10.688  1.8902  0.7046  0.2882
 5043TIP3   OH239323   0.110   6.316   9.387 -0.0917 -0.7886 -0.1625
 5043TIP3    H139324   0.052   6.324   9.311 -0.8286  1.1004  0.5348
 5043TIP3    H239325   0.191   6.359   9.360 -1.2314  2.2687  0.8700
 5044TIP3   OH239326   3.891   0.208  10.836 -0.3870 -0.2970 -0.4057
 5044TIP3    H139327   3.894   0.116  10.864  1.1956  0.3182  1.6743
 5044TIP3    H239328   3.894   0.203  10.740 -1.0681 -2.4152 -0.3820
 5045TIP3   OH239329   3.349   6.478  11.404  0.0795 -0.4725  0.4347
 5045TIP3    H139330   3.404   6.500  11.328  0.3287 -1.6275  0.2652
 5045TIP3    H239331   3.273   6.536  11.396  1.2048  1.0712  0.6153
 5046TIP3   OH239332   3.593   1.728  10.265  0.1453 -0.4025 -0.0344
 5046TIP3    H139333   3.649   1.744  10.341  1.2922 -1.8033 -0.5437
 5046TIP3    H239334   3.603   1.807  10.211 -1.8678  1.3171  1.8756
 5047TIP3   OH239335   3.622   3.462   9.031  0.3859 -0.2972 -0.1950
 5047TIP3    H139336   3.560   3.480   9.102  0.4713  0.7674 -0.3783
 5047TIP3    H239337   3.596   3.376   8.999 -0.1619 -0.4449  0.6010
 5048TIP3   OH239338   2.849   6.460  11.257  0.3812 -0.0248 -0.1638
 5048TIP3    H139339   2.919   6.524  11.270 -0.7858  1.4079 -0.6975
 5048TIP3    H239340   2.790   6.474  11.331 -0.9892  1.0565 -1.4056
 5049TIP3   OH239341   3.966   5.974  11.330 -0.1872 -0.6107  0.6826
 5049TIP3    H139342   4.052   6.016  11.330 -0.3424 -0.2857  0.5140
 5049TIP3    H239343   3.974   5.902  11.267 -0.2636 -0.1028  0.0815
 5050TIP3   OH239344   3.011   1.742   8.301  0.1872  0.0765  0.2220
 5050TIP3    H139345   2.983   1.679   8.235  0.1318 -0.4331  0.7250
 5050TIP3    H239346   3.100   1.766   8.276 -0.0316  0.3122 -0.3480
 5051TIP3   OH239347   4.937   1.875   9.955  0.2778 -0.6178  0.2976
 5051TIP3    H139348   5.026   1.901   9.979  0.0748  0.4452 -0.0350
 5051TIP3    H239349   4.942   1.855   9.861 -0.0075  0.3935  0.0437
 5052TIP3   OH239350   5.346   1.335  10.911  0.0574  0.0480  0.1844
 5052TIP3    H139351   5.306   1.407  10.959  0.7303 -0.6861  1.9475
 5052TIP3    H239352   5.273   1.282  10.880 -0.4225 -0.6562  2.3581
 5053TIP3   OH239353   4.522   1.728  11.249 -0.5534  0.2483 -0.3257
 5053TIP3    H139354   4.521   1.697  11.339  1.0280 -1.1927 -0.7447
 5053TIP3    H239355   4.473   1.662  11.200  0.2985 -0.0747 -0.7821
 5054TIP3   OH239356   4.645   6.424   8.716  0.8027 -0.1031  0.1319
 5054TIP3    H139357   4.637   6.333   8.687 -0.4626 -0.2261  0.8176
 5054TIP3    H239358   4.678   6.417   8.806  2.2179  0.1881 -0.3429
 5055TIP3   OH239359   4.684   0.738   9.611 -0.3073  0.3144 -0.2530
 5055TIP3    H139360   4.763   0.691   9.637  1.3021  2.6016 -0.6733
 5055TIP3    H239361   4.615   0.705   9.668  1.8992  1.2773  3.2138
 5056TIP3   OH239362   4.742   0.635   8.344  0.3675  0.6951  0.1865
 5056TIP3    H139363   4.665   0.671   8.301 -0.3374 -0.3508  0.5483
 5056TIP3    H239364   4.799   0.711   8.357 -0.4935  1.4452 -0.2876
 5057TIP3   OH239365   6.301   2.385   9.184 -0.5616  0.3037 -0.1718
 5057TIP3    H139366   6.244   2.310   9.202 -0.9444  0.5419 -0.3617
 5057TIP3    H239367   6.264   2.423   9.104  1.2235 -0.8803 -1.6415
 5058TIP3   OH239368   1.401   6.063   9.849  0.0223 -0.0473  0.0147
 5058TIP3    H139369   1.417   6.158   9.851  1.3304 -0.2141 -0.9988
 5058TIP3    H239370   1.306   6.055   9.851 -0.1314  1.3192 -0.4499
 5059TIP3   OH239371   2.907   2.451   9.375  0.4995 -0.2634  0.4641
 5059TIP3    H139372   2.922   2.448   9.280  0.1344  0.8169  0.3609
 5059TIP3    H239373   2.914   2.543   9.398 -1.3094 -0.2622  1.1657
 5060TIP3   OH239374   1.110   5.190  12.137  0.3404 -0.6028  0.4354
 5060TIP3    H139375   1.061   5.271  12.156  1.5213  0.1531  0.3643
 5060TIP3    H239376   1.048   5.120  12.158 -0.6336  0.3083  0.7387
 5061TIP3   OH239377   5.186   2.544   9.462  0.1020  0.4507  0.2000
 5061TIP3    H139378   5.205   2.627   9.418 -0.1222 -0.0415 -0.8759
 5061TIP3    H239379   5.094   2.526   9.441  0.5710 -0.8285 -0.9236
 5062TIP3   OH239380   2.960   5.261  10.391 -0.2901 -0.4681  0.2777
 5062TIP3    H139381   2.998   5.345  10.364 -0.0709  0.1289  2.3293
 5062TIP3    H239382   2.993   5.199  10.326  0.9186  0.7343 -0.3170
 5063TIP3   OH239383   3.216   5.604  11.615 -0.2165  0.3050  0.5781
 5063TIP3    H139384   3.202   5.542  11.543  0.0876  1.4178 -0.4741
 5063TIP3    H239385   3.128   5.636  11.635 -0.1894  0.7625 -0.0168
 5064TIP3   OH239386   2.310   6.574   9.581  0.3670 -0.3580  1.2296
 5064TIP3    H139387   2.394   6.610   9.609  0.4986  2.5974 -2.2615
 5064TIP3    H239388   2.246   6.642   9.602 -0.7595 -1.4616  1.5125
 5065TIP3   OH239389   1.250   0.097  11.438 -0.0466  0.2175 -0.4505
 5065TIP3    H139390   1.313   0.131  11.375 -0.0074  1.1347  0.0734
 5065TIP3    H239391   1.302   0.076  11.515 -0.6077  3.0061  0.7949
 5066TIP3   OH239392   6.524   2.946   9.754  0.5133  0.5854  0.2498
 5066TIP3    H139393   6.499   2.905   9.671  0.9684 -0.7735  0.7455
 5066TIP3    H239394   6.497   2.883   9.821  0.9832  1.2315  1.0736
 5067TIP3   OH239395   4.370   1.584  11.962  0.1506  0.2791  0.2266
 5067TIP3    H139396   4.384   1.667  11.917 -0.8784  0.7530  0.7438
 5067TIP3    H239397   4.334   1.608  12.047 -1.6130 -0.7283 -0.1786
 5068TIP3   OH239398   0.994   6.439   8.250  0.5541 -0.3934 -0.0064
 5068TIP3    H139399   0.975   6.533   8.254  1.5843 -0.1462 -0.7739
 5068TIP3    H239400   0.908   6.398   8.241 -0.0217  0.3795  1.6161
 5069TIP3   OH239401   3.208   1.049  10.803  0.0474  0.1135 -0.3615
 5069TIP3    H139402   3.146   0.980  10.827 -0.8007  1.8510  3.1313
 5069TIP3    H239403   3.156   1.111  10.751 -0.1978 -0.1440 -0.4243
 5070TIP3   OH239404   5.616   3.445  11.032 -0.2339 -0.6137  0.5429
 5070TIP3    H139405   5.676   3.428  10.960  0.1160  0.8294  0.4466
 5070TIP3    H239406   5.672   3.450  11.110 -0.1243  1.0598  0.4057
 5071TIP3   OH239407   1.008   4.871  11.444  0.6558 -0.3148 -0.3408
 5071TIP3    H139408   1.032   4.945  11.499  1.1901 -0.7522  0.0222
 5071TIP3    H239409   0.974   4.805  11.505 -0.2837 -0.1862 -0.7106
 5072TIP3   OH239410   4.250   6.450  10.068 -0.1564  0.1488  0.3358
 5072TIP3    H139411   4.247   6.450  10.163 -0.4897 -0.1277  0.3249
 5072TIP3    H239412   4.243   6.358  10.044 -1.1562  0.2972  0.0100
 5073TIP3   OH239413   6.033   5.650   9.566  0.5650 -0.0863 -0.0944
 5073TIP3    H139414   6.092   5.714   9.607 -0.6119  1.1394 -0.2315
 5073TIP3    H239415   5.965   5.704   9.525 -0.1256 -1.4236 -0.7485
 5074TIP3   OH239416   2.071   4.589   9.585  0.2303 -0.2081  0.1575
 5074TIP3    H139417   2.139   4.599   9.518 -0.5293  2.1002 -0.3815
 5074TIP3    H239418   1.997   4.551   9.538  0.6410 -1.3649  0.4121
 5075TIP3   OH239419   4.587   0.769   8.583  0.1842 -0.2448 -0.6362
 5075TIP3    H139420   4.510   0.729   8.541  1.2118 -1.2124 -1.6763
 5075TIP3    H239421   4.611   0.840   8.524  0.0912  0.0613 -0.3067
 5076TIP3   OH239422   1.699   1.147  10.420  0.0036 -0.6473  0.3964
 5076TIP3    H139423   1.660   1.234  10.414 -1.1633 -1.1312  0.6253
 5076TIP3    H239424   1.769   1.156  10.484 -0.7964 -0.1054  1.2118
 5077TIP3   OH239425   2.512   5.992   8.879  0.7103  0.2373 -0.5173
 5077TIP3    H139426   2.423   6.007   8.846 -0.4233 -1.4996  1.5251
 5077TIP3    H239427   2.558   5.951   8.806 -0.5269  0.0211 -1.2063
 5078TIP3   OH239428   3.591   4.646  10.431 -0.0223  0.3159 -0.0816
 5078TIP3    H139429   3.562   4.732  10.461 -0.1704  0.9892 -2.0165
 5078TIP3    H239430   3.663   4.665  10.372  1.0669 -1.0308  0.7587
 5079TIP3   OH239431   5.448   0.159  12.115 -0.6180  0.5419 -0.0732
 5079TIP3    H139432   5.354   0.175  12.115 -0.5158  1.1901 -0.7723
 5079TIP3    H239433   5.472   0.163  12.208 -1.3475 -0.1141  0.1579
 5080TIP3   OH239434   5.033   4.269  12.143  0.1952 -0.2962 -0.1768
 5080TIP3    H139435   4.955   4.220  12.118  0.2684 -0.0298 -0.9625
 5080TIP3    H239436   5.015   4.359  12.115  0.0839  0.1359  1.1937
 5081TIP3   OH239437   6.242   4.186   9.912 -0.3517  0.3159 -0.4058
 5081TIP3    H139438   6.279   4.101   9.933 -1.0143 -0.3690 -1.8381
 5081TIP3    H239439   6.153   4.183   9.949  0.5275  1.5121  2.0112
 5082TIP3   OH239440   5.345   5.108  11.280 -0.1987 -0.0742 -0.1196
 5082TIP3    H139441   5.360   5.088  11.188  1.0378 -1.1191  0.2675
 5082TIP3    H239442   5.386   5.035  11.327  0.9848  1.4108  1.3013
 5083TIP3   OH239443   0.849   1.161   9.738  0.2694 -0.0582 -0.3846
 5083TIP3    H139444   0.905   1.096   9.780  2.6438  1.3975 -1.0680
 5083TIP3    H239445   0.864   1.148   9.644 -1.9400 -0.7338 -0.7035
 5084TIP3   OH239446   5.846   1.076   9.096 -0.4315  0.2654  0.2696
 5084TIP3    H139447   5.864   1.158   9.142 -2.0507  0.4051  0.7255
 5084TIP3    H239448   5.857   1.098   9.004  2.5376  0.0690  0.4800
 5085TIP3   OH239449   0.179   1.458  12.074 -0.2996 -0.0818  0.1171
 5085TIP3    H139450   0.186   1.461  11.978  1.2143 -0.5524  0.1839
 5085TIP3    H239451   0.225   1.378  12.099  0.2523  0.5817  1.3045
 5086TIP3   OH239452   1.640   1.381  12.097 -0.5482 -0.0690 -0.2510
 5086TIP3    H139453   1.718   1.391  12.042  0.5003 -1.7155  0.8035
 5086TIP3    H239454   1.635   1.462  12.147  0.5753  0.0237 -0.2658
 5087TIP3   OH239455   6.553   6.118   9.330 -0.4900 -0.0633  0.1268
 5087TIP3    H139456   6.635   6.079   9.363 -1.2262 -1.2166  0.6565
 5087TIP3    H239457   6.580   6.203   9.294  1.0700 -0.7571 -0.4491
 5088TIP3   OH239458   4.772   4.683  11.343 -0.1748  0.1697 -0.8089
 5088TIP3    H139459   4.839   4.626  11.381 -1.2950 -2.1548 -2.0930
 5088TIP3    H239460   4.754   4.747  11.412  0.2302 -1.8384  1.3067
 5089TIP3   OH239461   5.426   0.847  10.304 -0.2240  0.8250  0.4507
 5089TIP3    H139462   5.520   0.842  10.319  0.0756  1.0269 -1.2028
 5089TIP3    H239463   5.411   0.791  10.227 -1.9871 -1.9848  2.6135
 5090TIP3   OH239464   5.360   5.322  12.010  0.3940 -0.1418 -0.1500
 5090TIP3    H139465   5.430   5.376  11.972  0.0581  0.3639 -0.0576
 5090TIP3    H239466   5.285   5.337  11.954  0.1657 -0.1464  0.1507
 5091TIP3   OH239467   3.556   2.236  10.608  0.3231 -0.2700  0.2859
 5091TIP3    H139468   3.489   2.179  10.569  0.7226 -1.3665  1.1472
 5091TIP3    H239469   3.512   2.320  10.618 -0.3751 -0.4864 -0.7745
 5092TIP3   OH239470   3.818   1.476  10.226  0.1225  0.4095 -0.0202
 5092TIP3    H139471   3.820   1.443  10.316  1.2785 -0.7156 -0.4327
 5092TIP3    H239472   3.834   1.570  10.235 -2.6970  0.8835  1.1393
 5093TIP3   OH239473   4.809   2.853   9.323 -0.4641  0.4252 -0.3802
 5093TIP3    H139474   4.728   2.891   9.289 -1.2169 -0.4949  0.3313
 5093TIP3    H239475   4.851   2.925   9.370  0.2174  1.5088 -2.5355
 5094TIP3   OH239476   4.135   0.886  10.416 -0.2524 -0.3389  0.8303
 5094TIP3    H139477   4.106   0.934  10.494 -0.5641  2.6868 -0.9955
 5094TIP3    H239478   4.223   0.921  10.398  0.5289 -2.2459  0.7245
 5095TIP3   OH239479   1.265   4.796  12.065  0.2855  0.1314 -0.4820
 5095TIP3    H139480   1.196   4.798  12.132 -0.2325  1.2571 -1.0254
 5095TIP3    H239481   1.268   4.885  12.032  1.0884 -0.2332 -1.4169
 5096TIP3   OH239482   6.423   6.421  11.807 -0.1565  0.2334  0.5744
 5096TIP3    H139483   6.469   6.337  11.796  0.4973  0.7531 -0.9128
 5096TIP3    H239484   6.494   6.485  11.819 -0.5803  0.7859  0.1669
 5097TIP3   OH239485   6.282   2.213  10.781  0.0203  0.0602 -0.0513
 5097TIP3    H139486   6.284   2.166  10.698 -1.4580 -0.4675  0.1721
 5097TIP3    H239487   6.282   2.305  10.757 -0.0341 -0.0889 -0.6250
 5098TIP3   OH239488   5.978   3.703  11.425  0.1766  0.5814  0.2304
 5098TIP3    H139489   5.897   3.717  11.375  0.8597  0.8536 -0.8250
 5098TIP3    H239490   6.026   3.785  11.415  0.6861  0.3335  0.6602
 5099TIP3   OH239491   2.247   1.091  10.698 -0.0441  0.3248  0.0379
 5099TIP3    H139492   2.291   1.008  10.718 -1.2055 -0.3543 -0.1405
 5099TIP3    H239493   2.241   1.137  10.782  0.0525 -0.0464  0.2486
 5100TIP3   OH239494   1.560   6.126  11.678 -0.1074 -0.1665  0.4483
 5100TIP3    H139495   1.624   6.056  11.669  0.7425  0.7849 -1.7291
 5100TIP3    H239496   1.497   6.110  11.607  0.2666  1.3759 -0.2860
 5101TIP3   OH239497   0.180   0.546   9.367  0.3169 -0.7452  0.3695
 5101TIP3    H139498   0.192   0.464   9.415 -2.9445  0.1330  3.0975
 5101TIP3    H239499   0.111   0.526   9.303  0.6631 -0.4965 -0.0905
 5102TIP3   OH239500   5.637   4.218  10.019 -0.2054 -0.4824  0.1556
 5102TIP3    H139501   5.650   4.125  10.039  1.6797 -0.2979  0.0340
 5102TIP3    H239502   5.574   4.248  10.084  2.0628 -1.0217  2.8329
 5103TIP3   OH239503   3.483   5.130  12.400 -0.0647  0.3758  0.1898
 5103TIP3    H139504   3.523   5.066  12.341  0.9106  0.0930  1.1243
 5103TIP3    H239505   3.408   5.085  12.438 -0.7111  0.5686 -0.8398
 5104TIP3   OH239506   0.227   3.859  10.928  0.5293  0.5619  0.2739
 5104TIP3    H139507   0.304   3.913  10.907  0.1651  0.6928 -0.7511
 5104TIP3    H239508   0.264   3.775  10.956  1.0433  0.3104 -1.1031
 5105TIP3   OH239509   4.241   6.052  11.403  0.7887  0.3425 -0.7191
 5105TIP3    H139510   4.329   6.049  11.367  0.7553 -0.5504 -0.7416
 5105TIP3    H239511   4.227   6.145  11.425  1.8886  0.4186 -0.2885
 5106TIP3   OH239512   3.353   4.542   9.742  0.3857 -0.4119  0.0773
 5106TIP3    H139513   3.326   4.633   9.724  1.1068 -0.1766  0.1652
 5106TIP3    H239514   3.356   4.501   9.656 -0.9830 -0.6578  0.1261
 5107TIP3   OH239515   0.830   5.597   9.422  0.4444  0.3843  0.3359
 5107TIP3    H139516   0.901   5.538   9.397 -0.3391 -0.4223 -0.0581
 5107TIP3    H239517   0.751   5.542   9.418 -0.4558  1.7058 -1.0221
 5108TIP3   OH239518   2.257   6.001  12.245 -0.5247  0.3617 -0.6073
 5108TIP3    H139519   2.282   5.946  12.171 -1.1079  0.2975 -0.7598
 5108TIP3    H239520   2.301   5.961  12.320  1.6220  1.5074 -1.1665
 5109TIP3   OH239521   6.478   6.616   8.770 -0.2012  0.3523 -0.5878
 5109TIP3    H139522   6.413   6.551   8.743  0.6154 -0.3741 -0.8513
 5109TIP3    H239523   6.544   6.613   8.701  2.3510 -2.0987  1.7373
 5110TIP3   OH239524   6.344   4.049  10.273 -0.2811  0.2197 -0.2906
 5110TIP3    H139525   6.264   4.013  10.237  0.6556 -2.5734  0.2120
 5110TIP3    H239526   6.352   4.010  10.360  1.3357  0.8819 -0.0918
 5111TIP3   OH239527   6.060   5.655  10.896 -0.1551 -0.0355 -0.5511
 5111TIP3    H139528   6.011   5.574  10.910 -0.1410  0.1907  1.1029
 5111TIP3    H239529   6.146   5.626  10.865 -0.0809 -0.6839  0.2168
 5112TIP3   OH239530   5.885   1.938  10.284  0.3840 -0.3251 -0.3212
 5112TIP3    H139531   5.969   1.893  10.291  1.0162  0.6399 -1.4055
 5112TIP3    H239532   5.906   2.023  10.247 -0.7771  0.9042  1.6490
 5113TIP3   OH239533   1.376   4.427  10.314  0.2770  0.2492  0.3858
 5113TIP3    H139534   1.343   4.423  10.404  0.1542 -1.9553  0.2825
 5113TIP3    H239535   1.302   4.460  10.263  0.0286  0.5579  0.9387
 5114TIP3   OH239536   2.203   2.010  10.526  0.2674  0.1309  0.2863
 5114TIP3    H139537   2.274   2.003  10.590 -0.7555 -1.2044  1.3093
 5114TIP3    H239538   2.183   1.920  10.502 -0.5951  0.5318 -0.5660
 5115TIP3   OH239539   6.442   4.841   9.878  0.2254  0.4011  0.4870
 5115TIP3    H139540   6.462   4.935   9.873 -1.3090  0.7067 -0.3867
 5115TIP3    H239541   6.391   4.832   9.958  1.0761  0.1542  1.0136
 5116TIP3   OH239542   1.328   3.932  10.749 -0.2291 -0.0490 -0.4193
 5116TIP3    H139543   1.346   3.891  10.664 -0.2412  0.0179 -0.4546
 5116TIP3    H239544   1.327   3.860  10.811  0.5540 -0.0162 -0.3560
 5117TIP3   OH239545   0.976   5.441  12.130 -0.7252 -0.6523  0.5487
 5117TIP3    H139546   0.985   5.473  12.040  2.3420 -2.1436  0.1765
 5117TIP3    H239547   0.931   5.512  12.176  0.3055  1.4946 -1.5125
 5118TIP3   OH239548   3.395   1.976  12.171 -0.0462 -0.2399 -0.1443
 5118TIP3    H139549   3.335   1.947  12.102  0.8470 -1.6818 -0.3493
 5118TIP3    H239550   3.379   2.071  12.177  0.3171  0.0836 -2.8168
 5119TIP3   OH239551   5.930   6.654  11.349 -1.1928 -0.0642 -0.6884
 5119TIP3    H139552   5.939   6.570  11.304 -1.4113  0.3245 -1.4756
 5119TIP3    H239553   5.945   6.719  11.281  1.3117  0.5618  0.3573
 5120TIP3   OH239554   3.434   3.080  11.277 -0.3195 -0.4636 -0.0704
 5120TIP3    H139555   3.361   3.124  11.234  0.2790  1.5564  0.8929
 5120TIP3    H239556   3.397   3.044  11.358 -0.5390 -0.7096 -0.2766
 5121TIP3   OH239557   2.063   5.466   9.590  0.1100  0.0609  0.0694
 5121TIP3    H139558   2.033   5.433   9.506 -0.8701 -1.7125  1.0617
 5121TIP3    H239559   1.983   5.489   9.637  0.5862  0.0839  0.8907
 5122TIP3   OH239560   4.848   3.612  11.978 -0.1159  0.3285  0.0252
 5122TIP3    H139561   4.801   3.537  11.942  0.6222 -0.0510 -0.1744
 5122TIP3    H239562   4.924   3.573  12.022 -0.6266  0.8265  1.4267
 5123TIP3   OH239563   4.021   1.905   9.454 -0.0153  0.0749 -0.4633
 5123TIP3    H139564   3.951   1.933   9.395 -0.9981 -1.4766 -0.0871
 5123TIP3    H239565   4.037   1.813   9.431  0.9309  0.0013  0.3931
 5124TIP3   OH239566   1.621   4.797   9.589 -0.1874 -0.6442 -0.5629
 5124TIP3    H139567   1.600   4.866   9.526 -0.7489 -0.2356  0.0570
 5124TIP3    H239568   1.563   4.725   9.565 -0.8385 -0.2688 -0.1461
 5125TIP3   OH239569   4.776   6.146  10.703  0.2207 -0.1824  0.0630
 5125TIP3    H139570   4.758   6.057  10.673  0.4771  0.1849 -1.2332
 5125TIP3    H239571   4.735   6.151  10.789 -0.4474 -1.3203 -0.1708
 5126TIP3   OH239572   2.382   4.565  11.463 -0.3265  0.0246  0.4418
 5126TIP3    H139573   2.302   4.560  11.411 -0.6292 -0.1389  0.9093
 5126TIP3    H239574   2.367   4.503  11.535  0.5070 -0.5130  0.1504
 5127TIP3   OH239575   4.177   2.567   9.058  0.2477 -0.0565 -0.1624
 5127TIP3    H139576   4.083   2.587   9.051  0.3506  0.3654 -0.4147
 5127TIP3    H239577   4.200   2.534   8.971  0.3309 -0.1707 -0.0962
 5128TIP3   OH239578   1.519   0.543  11.091  0.9999  0.2017  0.0373
 5128TIP3    H139579   1.468   0.467  11.120 -0.7767  0.7979 -1.3434
 5128TIP3    H239580   1.593   0.506  11.043  1.7988 -0.6824  1.8456
 5129TIP3   OH239581   1.562   4.564  12.152 -0.8003  0.7696 -0.2541
 5129TIP3    H139582   1.518   4.532  12.074 -0.7770  1.1855 -0.4405
 5129TIP3    H239583   1.624   4.629  12.120 -1.0118  1.1700  0.1314
 5130TIP3   OH239584   5.212   3.639   9.945  0.0046 -0.1940 -0.4069
 5130TIP3    H139585   5.279   3.603  10.003  0.3619 -0.0391 -0.7193
 5130TIP3    H239586   5.260   3.665   9.866 -0.0733  1.8882  0.1737
 5131TIP3   OH239587   6.434   0.693  10.137 -0.2694 -0.0014 -0.4451
 5131TIP3    H139588   6.530   0.694  10.130 -0.1892 -1.7591  0.0566
 5131TIP3    H239589   6.417   0.712  10.230 -0.2871 -1.8999 -0.0284
 5132TIP3   OH239590   5.828   4.306  10.740  0.1187  0.8211 -0.4028
 5132TIP3    H139591   5.805   4.382  10.794 -1.3949 -0.2925  0.6009
 5132TIP3    H239592   5.916   4.282  10.769 -0.9680 -0.2722  2.3442
 5133TIP3   OH239593   3.809   2.536  11.426  0.3573  0.4038  0.2109
 5133TIP3    H139594   3.747   2.493  11.366  1.3837 -1.1921  0.2436
 5133TIP3    H239595   3.875   2.575  11.368  1.6313 -1.5787  0.2613
 5134TIP3   OH239596   5.356   4.802  10.685 -0.3782  0.4020 -0.5656
 5134TIP3    H139597   5.339   4.790  10.778  0.4037  0.6311 -0.3845
 5134TIP3    H239598   5.437   4.753  10.668 -0.7929 -0.0633 -1.2353
 5135TIP3   OH239599   1.439   2.205  12.259 -0.5714 -0.4038 -0.5363
 5135TIP3    H139600   1.437   2.281  12.318  1.4026 -1.0167  0.4003
 5135TIP3    H239601   1.429   2.243  12.172 -0.9849  0.7780 -0.0060
 5136TIP3   OH239602   0.068   4.350  11.984  0.4254  0.0034  0.5041
 5136TIP3    H139603   0.055   4.287  12.055  2.6632  1.2214  2.1074
 5136TIP3    H239604   0.162   4.350  11.968 -0.0369 -0.8692 -3.2045
 5137TIP3   OH239605   1.015   0.101  11.238 -0.2489  0.0293 -0.1429
 5137TIP3    H139606   1.102   0.067  11.259 -0.6088 -0.6022  0.3544
 5137TIP3    H239607   0.962   0.023  11.219 -0.3295  0.4891 -1.9812
 5138TIP3   OH239608   5.805   2.018  12.117  0.3643 -0.4324 -0.2125
 5138TIP3    H139609   5.755   2.096  12.142 -1.5301 -1.6841  0.1265
 5138TIP3    H239610   5.801   2.016  12.022 -1.1025 -0.9893 -0.1737
 5139TIP3   OH239611   0.286   3.640   9.353 -0.1380  0.3178 -0.2193
 5139TIP3    H139612   0.338   3.658   9.431 -1.3093  2.3885  0.1514
 5139TIP3    H239613   0.352   3.630   9.283  0.8559 -0.1289  0.7501
 5140TIP3   OH239614   1.413   0.676  11.491 -0.3892  0.1134 -0.2102
 5140TIP3    H139615   1.463   0.742  11.538 -0.7433  2.5351 -2.9719
 5140TIP3    H239616   1.479   0.623  11.446 -0.1817  0.9578 -0.9141
 5141TIP3   OH239617   3.657   1.154  11.888 -0.1611 -0.0380  0.5054
 5141TIP3    H139618   3.738   1.105  11.904  0.0220  0.1988  0.3078
 5141TIP3    H239619   3.685   1.232  11.841 -0.7290 -1.1299 -1.8482
 5142TIP3   OH239620   5.630   1.531   9.217 -0.4002 -0.0045 -0.7221
 5142TIP3    H139621   5.641   1.498   9.128  0.9172 -0.5733 -0.3715
 5142TIP3    H239622   5.596   1.620   9.206  1.9687  0.8475 -1.9161
 5143TIP3   OH239623   0.002   6.543  10.983  0.2757  0.2300  0.6037
 5143TIP3    H139624   0.027   6.530  11.074  0.1558  0.5542  0.6827
 5143TIP3    H239625   0.058   6.481  10.934 -0.8363 -1.1656  1.0300
 5144TIP3   OH239626   2.988   3.392   9.963  0.2268 -0.5459  0.1660
 5144TIP3    H139627   2.978   3.448  10.040  2.0730  0.0351  0.0298
 5144TIP3    H239628   2.983   3.303   9.996 -0.7572 -0.3148  0.6776
 5145TIP3   OH239629   2.954   1.113   8.861 -0.5515  0.0957  0.5789
 5145TIP3    H139630   3.001   1.124   8.943  1.2339 -1.4134 -0.1766
 5145TIP3    H239631   3.020   1.081   8.799 -1.6017  2.0185 -1.7190
 5146TIP3   OH239632   0.385   4.676  10.909 -0.0703 -0.4957 -0.3655
 5146TIP3    H139633   0.368   4.615  10.837  0.7091 -1.0882 -0.0738
 5146TIP3    H239634   0.351   4.632  10.986 -2.7974  1.0274 -0.5872
 5147TIP3   OH239635   3.634   3.637  11.597 -0.1364 -0.0959  0.2185
 5147TIP3    H139636   3.625   3.697  11.671  1.5552 -0.8952  1.1380
 5147TIP3    H239637   3.585   3.679  11.526  1.1604  2.5224  0.7267
 5148TIP3   OH239638   3.416   5.741  10.677  0.0919 -0.0925  0.3643
 5148TIP3    H139639   3.382   5.730  10.766  1.4649 -1.0570  0.8028
 5148TIP3    H239640   3.450   5.830  10.676 -1.1914  0.4251  0.3318
 5149TIP3   OH239641   2.809   5.728   9.642  0.9096 -0.3884 -0.3918
 5149TIP3    H139642   2.812   5.810   9.592  0.3950 -0.3131 -0.3069
 5149TIP3    H239643   2.892   5.685   9.623  2.5334  1.5110  1.8463
 5150TIP3   OH239644   0.018   4.487  10.173  0.1533 -0.3201  0.2870
 5150TIP3    H139645  -0.032   4.449  10.101  0.6756 -0.9891  0.2681
 5150TIP3    H239646   0.104   4.507  10.134 -0.0581  0.7626  0.3280
 5151TIP3   OH239647   3.296   3.237   9.774 -0.0130  0.0685 -0.3014
 5151TIP3    H139648   3.280   3.208   9.864  1.0499  1.7151  0.4803
 5151TIP3    H239649   3.257   3.324   9.770 -0.2590 -0.0900 -1.5172
 5152TIP3   OH239650   0.702   5.099   9.657 -0.1206  0.3639 -0.0069
 5152TIP3    H139651   0.710   5.184   9.700  0.9264 -0.2393  1.0573
 5152TIP3    H239652   0.728   5.036   9.724  1.4084 -0.6342 -1.4686
 5153TIP3   OH239653   5.864   0.530   9.861  0.1877 -0.1583  0.3790
 5153TIP3    H139654   5.800   0.459   9.867  0.2800 -0.3634 -0.8162
 5153TIP3    H239655   5.848   0.584   9.939 -3.4171  1.4309 -1.2132
 5154TIP3   OH239656   0.209   1.497  10.320  0.5231  0.5529 -0.4300
 5154TIP3    H139657   0.290   1.529  10.360  1.5779  0.0511 -2.0476
 5154TIP3    H239658   0.182   1.567  10.261 -0.3616  0.8032  0.2513
 5155TIP3   OH239659   6.060   6.268  11.814 -0.6803  0.7299 -0.1806
 5155TIP3    H139660   5.999   6.208  11.772 -1.3992  0.2744  1.4341
 5155TIP3    H239661   6.110   6.306  11.741 -1.7637 -0.0983 -1.4117
 5156TIP3   OH239662   3.784   0.616   9.739 -0.1559  0.0409 -0.5927
 5156TIP3    H139663   3.846   0.635   9.809 -1.7956 -1.3943  1.3827
 5156TIP3    H239664   3.829   0.641   9.659  1.0307  3.8752  1.0561
 5157TIP3   OH239665   3.733   6.693  12.354 -0.6227  0.7166  0.0333
 5157TIP3    H139666   3.822   6.662  12.372 -0.0804  2.4670  0.5154
 5157TIP3    H239667   3.684   6.671  12.434 -0.6299 -0.1983 -0.2107
 5158TIP3   OH239668   1.250   3.709  10.907 -0.3529  0.4222  0.2964
 5158TIP3    H139669   1.190   3.694  10.834 -0.7769  1.2362  0.4643
 5158TIP3    H239670   1.277   3.621  10.934 -0.1024  0.1030 -0.9003
 5159TIP3   OH239671   5.422   5.554   9.214  0.8403  0.2547 -0.0441
 5159TIP3    H139672   5.329   5.575   9.214  1.0603  1.2536 -0.0464
 5159TIP3    H239673   5.430   5.483   9.150 -0.3706 -2.0573  2.1758
 5160TIP3   OH239674   4.285   5.004  11.431  0.0987 -0.5081 -0.0275
 5160TIP3    H139675   4.190   4.994  11.439 -0.1450  1.0591 -0.6518
 5160TIP3    H239676   4.315   5.018  11.521 -0.4675  0.4503  0.0249
 5161TIP3   OH239677   5.995   1.673   9.301  0.0724 -0.6290 -0.3396
 5161TIP3    H139678   5.976   1.713   9.216 -1.2770 -0.4739  0.0136
 5161TIP3    H239679   5.913   1.680   9.350  0.8335 -0.6863  0.9959
 5162TIP3   OH239680   4.285   2.579  11.896  0.1610 -0.2752  0.8520
 5162TIP3    H139681   4.307   2.563  11.988 -0.5535  1.2246  1.3132
 5162TIP3    H239682   4.262   2.672  11.892  2.0641  0.2068 -1.2330
 5163TIP3   OH239683   0.425   5.299  11.927 -0.0735  0.1314  0.1611
 5163TIP3    H139684   0.445   5.297  11.833  0.9532 -2.6770  0.3300
 5163TIP3    H239685   0.427   5.391  11.951  2.3099  0.7532 -2.0529
 5164TIP3   OH239686   5.650   2.219   9.288  0.0487 -0.0583 -0.2412
 5164TIP3    H139687   5.652   2.148   9.223  4.0239  0.1571 -0.5698
 5164TIP3    H239688   5.681   2.296   9.241 -1.8664  1.4026  0.7425
 5165TIP3   OH239689   4.869   1.265  10.008  0.3017 -0.3117  0.0523
 5165TIP3    H139690   4.928   1.323   9.960  2.6510 -2.7804 -0.2304
 5165TIP3    H239691   4.786   1.271   9.960  0.6503  2.1925 -0.3702
 5166TIP3   OH239692   1.373   0.353  10.301 -0.1678  0.0464 -0.6123
 5166TIP3    H139693   1.303   0.288  10.300 -1.0353  0.9455  0.1213
 5166TIP3    H239694   1.330   0.435  10.279  0.1798  1.0175  1.9574
 5167TIP3   OH239695   0.242   1.246   9.924  0.6567 -0.0591 -0.0411
 5167TIP3    H139696   0.231   1.219   9.833  0.4920  3.3032 -1.1547
 5167TIP3    H239697   0.153   1.249   9.959  0.2820  2.2579 -1.0272
 5168TIP3   OH239698   3.016   5.208  12.168 -0.3164  0.4003 -0.3435
 5168TIP3    H139699   3.076   5.257  12.224  0.9147  0.5759 -1.7640
 5168TIP3    H239700   3.064   5.128  12.147 -1.2041 -0.1598 -0.2860
 5169TIP3   OH239701   1.022   1.076  10.714  0.4387 -0.2493  0.3975
 5169TIP3    H139702   0.989   1.015  10.648  1.1135  0.6320 -0.7979
 5169TIP3    H239703   0.961   1.149  10.711  1.6916  0.8081 -0.9121
 5170TIP3   OH239704   4.881   1.330  10.297 -0.1925 -0.3671 -0.1381
 5170TIP3    H139705   4.967   1.301  10.328  0.6640  3.3137  1.4984
 5170TIP3    H239706   4.882   1.314  10.203  1.9518 -1.1598 -0.0245
 5171TIP3   OH239707   0.284   1.117  11.570 -0.3353 -0.2721  0.4900
 5171TIP3    H139708   0.298   1.190  11.510  2.0923 -0.4358  0.7538
 5171TIP3    H239709   0.243   1.156  11.647 -0.6024  0.4935 -0.0324
 5172TIP3   OH239710   6.258   0.044  10.042  0.3848  0.0499 -0.0322
 5172TIP3    H139711   6.239   0.015   9.952 -0.3464 -0.6635  0.3432
 5172TIP3    H239712   6.349   0.019  10.057  0.7888  0.9264 -0.8561
 5173TIP3   OH239713   4.324   0.985   9.165  0.0977 -0.1169  0.1493
 5173TIP3    H139714   4.326   1.022   9.254  4.1344 -0.7469  0.5238
 5173TIP3    H239715   4.297   0.894   9.177 -0.6474  0.1487  0.5372
 5174TIP3   OH239716   6.009   4.426  11.550  0.4053 -0.1263 -0.3025
 5174TIP3    H139717   5.964   4.458  11.472  1.5849 -1.2574 -1.5039
 5174TIP3    H239718   6.096   4.465  11.545  1.3043 -2.0752 -0.9135
 5175TIP3   OH239719   4.171   1.714   9.112  0.4964  0.2229  0.0588
 5175TIP3    H139720   4.180   1.804   9.142  0.0500  0.4309 -0.4088
 5175TIP3    H239721   4.106   1.719   9.042  0.8590 -0.3792 -0.3311
 5176TIP3   OH239722   2.266   3.264  10.394 -0.2186  0.4696  0.1241
 5176TIP3    H139723   2.265   3.328  10.464  2.1451 -1.9576  2.6428
 5176TIP3    H239724   2.353   3.223  10.400  0.1914  0.2068 -4.4004
 5177TIP3   OH239725   0.642   3.570  12.091  0.0182  0.0664  0.2721
 5177TIP3    H139726   0.562   3.607  12.053 -0.5006 -1.9007 -0.6474
 5177TIP3    H239727   0.611   3.504  12.152  0.9467  0.1172  0.8204
 5178TIP3   OH239728   1.501   6.495  10.099 -0.1743 -0.1668 -0.4277
 5178TIP3    H139729   1.571   6.541  10.146 -0.7866  0.7602 -0.3984
 5178TIP3    H239730   1.547   6.440  10.036  0.5803  1.5928 -1.5006
 5179TIP3   OH239731   1.744   2.810  11.246 -0.2654  0.0946 -0.1888
 5179TIP3    H139732   1.687   2.733  11.244 -0.1705  0.0146  0.1555
 5179TIP3    H239733   1.786   2.811  11.160 -0.6288  0.0369 -0.3700
 5180TIP3   OH239734   2.672   3.874  11.510  0.0462 -0.2327  0.1164
 5180TIP3    H139735   2.692   3.893  11.602  0.6415 -2.1620  0.4307
 5180TIP3    H239736   2.581   3.899  11.500  0.2033  0.7807  0.9973
 5181TIP3   OH239737   3.564   0.596  11.609 -0.1270 -0.7109 -0.6999
 5181TIP3    H139738   3.584   0.661  11.542 -2.2502 -0.4271 -1.1240
 5181TIP3    H239739   3.529   0.521  11.559 -4.2608  0.4634  0.0622
 5182TIP3   OH239740   0.565   1.030   8.955 -0.0813 -0.3466  0.0677
 5182TIP3    H139741   0.614   0.966   8.901  0.2399  0.9032 -1.1907
 5182TIP3    H239742   0.577   0.999   9.045  1.3688 -1.2002 -0.3749
 5183TIP3   OH239743   3.663   4.569   9.281 -0.1391 -0.3065 -0.1820
 5183TIP3    H139744   3.716   4.575   9.360 -1.1301  0.1162  0.4745
 5183TIP3    H239745   3.726   4.567   9.209  0.7560  1.5128  0.4936
 5184TIP3   OH239746   3.170   0.234  10.659 -0.0723  0.1664 -0.0773
 5184TIP3    H139747   3.095   0.286  10.687 -0.1921  0.2771 -0.5898
 5184TIP3    H239748   3.145   0.144  10.678  0.0431  0.2728  0.6011
 5185TIP3   OH239749   3.641   4.537   9.763  0.1419 -0.2447 -0.4755
 5185TIP3    H139750   3.588   4.581   9.829  2.3407  1.4623  0.2774
 5185TIP3    H239751   3.588   4.462   9.735 -3.4610  2.3396 -1.1947
 5186TIP3   OH239752   2.798   5.488   9.426 -0.3082 -0.2651 -0.0781
 5186TIP3    H139753   2.745   5.561   9.393 -0.1875  0.2814  0.8891
 5186TIP3    H239754   2.880   5.529   9.455 -0.5772 -0.6419  1.2825
 5187TIP3   OH239755   2.850   3.530  11.861  0.2123  0.1822  0.2682
 5187TIP3    H139756   2.863   3.592  11.932  0.8355  0.2766  0.0787
 5187TIP3    H239757   2.826   3.584  11.786  1.7837  0.3209 -0.1695
 5188TIP3   OH239758   0.248   2.207  10.755 -0.1459  0.2684  0.0043
 5188TIP3    H139759   0.191   2.225  10.681 -0.9883 -0.6968  0.4068
 5188TIP3    H239760   0.237   2.282  10.813  0.4676  0.9965 -0.7992
 5189TIP3   OH239761   6.593   0.547  10.742 -0.2951 -0.5982 -1.2435
 5189TIP3    H139762   6.515   0.498  10.765  0.1349 -1.1831 -1.0023
 5189TIP3    H239763   6.564   0.638  10.738 -0.9480 -0.7893 -0.9926
 5190TIP3   OH239764   0.756   4.946  11.309 -0.3993 -0.0515  0.5811
 5190TIP3    H139765   0.841   4.925  11.347 -0.8224 -1.9982  0.5632
 5190TIP3    H239766   0.724   4.862  11.275 -1.9104  0.8240 -0.2474
 5191TIP3   OH239767   4.693   6.068   9.310 -0.1315  0.1194  0.1433
 5191TIP3    H139768   4.783   6.035   9.309  0.2593  1.0874  1.2157
 5191TIP3    H239769   4.660   6.051   9.221  0.6531 -1.4159  0.1091
 5192TIP3   OH239770   3.696   1.308  11.666 -0.4169  0.9303 -0.0683
 5192TIP3    H139771   3.750   1.278  11.593 -1.4993 -1.7960  0.1390
 5192TIP3    H239772   3.672   1.398  11.644 -0.4987  0.2756 -2.9283
 5193TIP3   OH239773   5.658   0.129  10.174 -0.1104  0.1043 -0.1516
 5193TIP3    H139774   5.572   0.141  10.136  0.0986  0.5156 -0.5008
 5193TIP3    H239775   5.657   0.182  10.253  0.0151  0.5707 -0.4589
 5194TIP3   OH239776   1.472   1.034  10.495  0.0954 -0.5281 -0.2991
 5194TIP3    H139777   1.543   1.098  10.488 -1.9543  2.1423  1.0166
 5194TIP3    H239778   1.498   0.976  10.566  0.8067  0.6682  0.4501
 5195TIP3   OH239779   4.985   4.218  10.577  0.1988  0.3127 -0.5722
 5195TIP3    H139780   5.056   4.188  10.633  0.2482  0.1444 -0.7200
 5195TIP3    H239781   4.971   4.145  10.517 -1.1891 -0.3211  0.4765
 5196TIP3   OH239782   0.967   5.605   9.751 -0.4967  0.2982 -0.6096
 5196TIP3    H139783   0.930   5.641   9.670 -0.3703 -0.5548 -1.0521
 5196TIP3    H239784   0.902   5.626   9.818 -1.3719 -0.4122 -1.2232
 5197TIP3   OH239785   5.458   4.620   9.435  0.2171  0.3307 -0.4361
 5197TIP3    H139786   5.441   4.585   9.523  0.6321  1.8019  0.2640
 5197TIP3    H239787   5.515   4.555   9.394  1.5523  0.4714  1.0748
 5198TIP3   OH239788   4.391   1.855  11.869 -0.3919 -0.1447 -0.0980
 5198TIP3    H139789   4.300   1.864  11.841 -0.3674  2.4431  0.4214
 5198TIP3    H239790   4.393   1.894  11.956  1.2965  0.2676 -0.2957
 5199TIP3   OH239791   1.710   2.368   9.901  0.4652  0.2300  0.2738
 5199TIP3    H139792   1.700   2.315   9.981 -0.1266 -0.1398 -0.0446
 5199TIP3    H239793   1.759   2.311   9.841 -1.7778 -0.7203 -0.7559
 5200TIP3   OH239794   2.572   4.183  10.445  0.4754  0.0729  0.0406
 5200TIP3    H139795   2.479   4.201  10.430  0.6975  1.1295 -0.1148
 5200TIP3    H239796   2.608   4.167  10.358  0.8312  1.6709 -0.1388
 5201TIP3   OH239797   0.362   6.485  11.130  0.1859  0.4377  0.0522
 5201TIP3    H139798   0.270   6.492  11.156  0.3765  1.0057  0.6083
 5201TIP3    H239799   0.364   6.517  11.040  0.0402  1.7442  0.4865
 5202TIP3   OH239800   3.729   5.548  10.076 -0.9780 -0.9940 -0.0304
 5202TIP3    H139801   3.739   5.604  10.152 -0.6377  0.3836 -1.0502
 5202TIP3    H239802   3.636   5.555  10.053 -1.1578 -1.6980  0.4595
 5203TIP3   OH239803   2.445   0.082  11.422 -0.0788 -0.1819 -0.3047
 5203TIP3    H139804   2.381   0.056  11.489 -0.0565  2.2661  0.7832
 5203TIP3    H239805   2.396   0.079  11.340 -1.0931  0.0054  0.2781
 5204TIP3   OH239806   5.029   3.851   9.149  0.5085 -0.6773  0.1651
 5204TIP3    H139807   5.039   3.784   9.217  1.3501  0.3889  1.1398
 5204TIP3    H239808   5.058   3.932   9.191  0.3505  0.1483 -1.2505
 5205TIP3   OH239809   1.630   1.279  10.790 -0.0560 -0.1104 -0.3205
 5205TIP3    H139810   1.571   1.309  10.721  1.3687 -0.8215 -1.9354
 5205TIP3    H239811   1.673   1.358  10.822 -3.3173  0.7784  2.4948
 5206TIP3   OH239812   3.243   0.346   8.547  0.0816  0.1666 -0.3846
 5206TIP3    H139813   3.329   0.307   8.535  0.0354  0.3334 -1.3942
 5206TIP3    H239814   3.197   0.329   8.465 -0.7497  0.3243  0.0326
 5207TIP3   OH239815   0.557   0.451   9.637  0.2649  0.0616  0.3846
 5207TIP3    H139816   0.509   0.534   9.632 -2.0920 -1.2620 -1.0061
 5207TIP3    H239817   0.622   0.456   9.567 -1.2488  0.0156 -1.1016
 5208TIP3   OH239818   6.210   3.423  11.633  0.2566  0.3471 -0.4226
 5208TIP3    H139819   6.220   3.353  11.568  2.9161 -0.1341  0.3888
 5208TIP3    H239820   6.141   3.479  11.597 -2.1291 -2.7365 -1.0030
 5209TIP3   OH239821   1.786   4.556  11.733 -0.2323  0.0540  0.4449
 5209TIP3    H139822   1.709   4.523  11.687  0.3299 -0.5569 -0.0861
 5209TIP3    H239823   1.828   4.615  11.671  0.1014 -0.1535  0.4713
 5210TIP3   OH239824   4.835   1.600  10.325 -0.1361  0.2607  0.4813
 5210TIP3    H139825   4.862   1.508  10.325  1.0967  0.5663 -1.1967
 5210TIP3    H239826   4.915   1.648  10.302 -1.7107  1.3376 -3.5197
 5211TIP3   OH239827   0.525   0.312  11.330  0.4277  0.3000 -0.3748
 5211TIP3    H139828   0.603   0.297  11.278  0.1560  1.6216 -1.2123
 5211TIP3    H239829   0.458   0.256  11.291 -0.0330  1.9615 -2.1325
 5212TIP3   OH239830   3.443   5.330  10.703 -0.3216 -0.2700 -0.3481
 5212TIP3    H139831   3.485   5.342  10.788 -0.3894  0.5556 -0.4267
 5212TIP3    H239832   3.510   5.355  10.639 -0.9311  1.1432 -0.4709
 5213TIP3   OH239833   0.073   3.826   9.356  0.5606 -0.0012  0.1568
 5213TIP3    H139834   0.123   3.750   9.329  0.1889 -0.0032 -0.5458
 5213TIP3    H239835   0.130   3.901   9.337  0.6479 -0.0575  0.1969
 5214TIP3   OH239836   4.985   0.220  11.595  0.2218 -0.1411 -0.2510
 5214TIP3    H139837   4.892   0.211  11.577 -0.1452  0.4326  1.2579
 5214TIP3    H239838   5.004   0.313  11.580  0.8678 -0.4968 -1.8449
 5215TIP3   OH239839   4.241   6.185  10.969 -0.4641  0.7589  0.1329
 5215TIP3    H139840   4.240   6.102  10.921 -0.1115  0.8964 -0.1194
 5215TIP3    H239841   4.322   6.181  11.020 -1.7980 -0.2617  2.2992
 5216TIP3   OH239842   6.098   0.187  10.915 -0.4636 -0.1817  0.0681
 5216TIP3    H139843   6.059   0.109  10.876  1.1160 -0.7428 -0.4335
 5216TIP3    H239844   6.169   0.211  10.857 -0.9412  1.6850  0.1936
 5217TIP3   OH239845   2.592   5.358  12.195 -0.0298 -0.5479 -0.3101
 5217TIP3    H139846   2.513   5.321  12.157 -1.8137  2.3460  0.2258
 5217TIP3    H239847   2.586   5.336  12.288 -1.6141  1.6037  0.2025
 5218TIP3   OH239848   4.957   3.105  10.219 -0.1623 -0.4025  0.2014
 5218TIP3    H139849   5.028   3.155  10.259  1.7836 -2.7908 -0.0240
 5218TIP3    H239850   4.915   3.167  10.159  0.6612  1.5386  1.5376
 5219TIP3   OH239851   0.756   5.053  12.361 -1.4006 -0.1769  0.2359
 5219TIP3    H139852   0.746   5.144  12.390 -0.2753  0.0519 -0.0655
 5219TIP3    H239853   0.791   5.060  12.272 -1.9731 -0.9080 -0.0513
 5220TIP3   OH239854   5.622   0.898   8.406  0.5622 -0.5513  0.2669
 5220TIP3    H139855   5.616   0.993   8.393  1.9285 -0.6527 -1.5428
 5220TIP3    H239856   5.549   0.862   8.355  0.1539 -0.4914  0.8033
 5221TIP3   OH239857   1.584   3.587   8.967  0.0459  0.0430 -0.3774
 5221TIP3    H139858   1.552   3.626   8.885  0.2258  1.1540  0.0687
 5221TIP3    H239859   1.654   3.646   8.995 -0.5413  0.1151  0.9826
 5222TIP3   OH239860   2.074   2.708   9.978 -0.1795 -0.1896  0.4467
 5222TIP3    H139861   2.069   2.663   9.894  1.4340  1.0509 -0.3791
 5222TIP3    H239862   2.143   2.661  10.026  0.4565  0.4625  0.1797
 5223TIP3   OH239863   2.366   4.776   9.600  0.8451 -0.1542  0.3980
 5223TIP3    H139864   2.403   4.756   9.514 -0.8395  1.8191 -0.8760
 5223TIP3    H239865   2.409   4.857   9.626 -2.1590  2.0659 -1.0207
 5224TIP3   OH239866   3.983   5.754  11.168  0.2427  0.8190 -0.0109
 5224TIP3    H139867   4.027   5.804  11.099  0.1509 -1.3658 -1.7328
 5224TIP3    H239868   4.048   5.690  11.195  0.4794  1.9741  2.4262
 5225TIP3   OH239869   3.986   3.306  10.662 -0.2774  0.0368 -0.1780
 5225TIP3    H139870   4.015   3.269  10.578  1.6998  0.1591  0.4111
 5225TIP3    H239871   4.042   3.382  10.675 -1.0744  0.4551  0.9141
 5226TIP3   OH239872   4.380   1.218  10.671  0.1590 -0.5682 -0.0438
 5226TIP3    H139873   4.405   1.290  10.613  1.1041 -0.7248  0.1520
 5226TIP3    H239874   4.285   1.220  10.672  0.1654  0.5452 -0.2161
 5227TIP3   OH239875   2.552   6.658   9.683 -0.3837  0.1700  0.1477
 5227TIP3    H139876   2.630   6.612   9.653 -0.7991 -0.0632 -0.5886
 5227TIP3    H239877   2.552   6.644   9.778  0.4870  0.2080  0.1597
 5228TIP3   OH239878   3.236   1.774   8.903 -0.7824 -0.1508  0.0736
 5228TIP3    H139879   3.262   1.684   8.889 -1.3771 -0.4457  0.7454
 5228TIP3    H239880   3.278   1.824   8.833 -1.5197 -1.1353 -1.1005
 5229TIP3   OH239881   2.450   2.242  10.445  0.3439 -0.2208 -0.2170
 5229TIP3    H139882   2.517   2.229  10.378  0.1524  1.2030 -0.7237
 5229TIP3    H239883   2.470   2.177  10.512  0.0935 -2.2010 -1.9703
 5230TIP3   OH239884   0.642   3.701   9.277  0.0467 -0.5219  0.3227
 5230TIP3    H139885   0.627   3.618   9.323  0.3805 -0.3965  0.6564
 5230TIP3    H239886   0.583   3.697   9.201 -0.8820 -0.5188  1.0282
 5231TIP3   OH239887   4.078   4.540  11.701 -0.0685 -0.3627 -0.4477
 5231TIP3    H139888   4.140   4.589  11.756  0.1701  0.2981 -1.2735
 5231TIP3    H239889   4.114   4.549  11.613  0.0830 -2.2131 -0.6108
 5232TIP3   OH239890   1.495   2.216  10.648 -0.3327  0.0005 -0.1188
 5232TIP3    H139891   1.474   2.288  10.589  0.9820  0.5235  0.0195
 5232TIP3    H239892   1.547   2.155  10.595 -0.1730 -0.1152  0.1670
 5233TIP3   OH239893   2.296   5.430  10.218  0.3953  0.4171  0.2236
 5233TIP3    H139894   2.353   5.435  10.142 -0.5597 -2.6504 -0.8323
 5233TIP3    H239895   2.356   5.421  10.292  1.3402 -0.1427 -0.5740
 5234TIP3   OH239896   2.716   2.577  12.105  0.2064 -0.2390  0.3572
 5234TIP3    H139897   2.702   2.529  12.187 -1.2356 -0.6078 -0.0731
 5234TIP3    H239898   2.808   2.563  12.085  0.1062 -1.8437  0.8787
 5235TIP3   OH239899   3.368   0.819  12.064 -0.3723  0.0963  0.8325
 5235TIP3    H139900   3.325   0.740  12.095  0.6050 -0.6063  0.4857
 5235TIP3    H239901   3.461   0.794  12.057 -0.2487  0.8276 -0.6296
 5236TIP3   OH239902   0.803   4.436   9.693 -0.4412 -0.3655 -0.3624
 5236TIP3    H139903   0.870   4.409   9.631  0.0668  0.3219 -0.1300
 5236TIP3    H239904   0.850   4.454   9.774 -1.4065 -4.0033  1.1846
 5237TIP3   OH239905   4.390   5.821  10.475  0.5955 -0.6074 -0.0063
 5237TIP3    H139906   4.302   5.831  10.439  0.7873 -1.2423 -0.6638
 5237TIP3    H239907   4.403   5.901  10.527 -0.6938 -0.9018  0.8306
 5238TIP3   OH239908   0.861   1.546  10.728  0.1210  0.1279  0.4254
 5238TIP3    H139909   0.784   1.602  10.733 -0.2220 -0.2857 -0.0347
 5238TIP3    H239910   0.923   1.583  10.790 -0.5599  0.3078  1.0084
 5239TIP3   OH239911   5.111   4.118  11.786  0.1674  0.1167 -0.6200
 5239TIP3    H139912   5.090   4.037  11.833  1.9795 -0.9472 -1.5156
 5239TIP3    H239913   5.158   4.088  11.708  1.2733  2.0627 -0.7611
 5240TIP3   OH239914   0.625   4.225   9.712  0.2565  0.1114  0.0496
 5240TIP3    H139915   0.631   4.191   9.623  0.5896 -0.4162  0.2688
 5240TIP3    H239916   0.665   4.312   9.707 -1.5137  0.9223 -0.7311
 5241TIP3   OH239917   3.581   0.305   9.024  0.3006 -0.8046 -0.0940
 5241TIP3    H139918   3.534   0.329   9.103  0.3834  1.1556 -0.5906
 5241TIP3    H239919   3.532   0.347   8.953  2.0716  0.2565 -0.7418
 5242TIP3   OH239920   2.012   6.248  11.849 -0.1928  0.0715 -0.0895
 5242TIP3    H139921   2.106   6.268  11.848 -0.2851  0.5544  0.5289
 5242TIP3    H239922   1.996   6.213  11.937 -0.4388 -0.7929 -0.4699
 5243TIP3   OH239923   4.714   0.379   9.426  0.7487 -0.5927 -0.5539
 5243TIP3    H139924   4.659   0.344   9.495 -0.4993 -1.4440 -1.9212
 5243TIP3    H239925   4.656   0.388   9.351  1.7302  1.6097 -1.1333
 5244TIP3   OH239926   3.239   1.896  11.955 -0.2593 -0.1437  0.5061
 5244TIP3    H139927   3.159   1.843  11.962  0.5048 -1.3835  0.1431
 5244TIP3    H239928   3.255   1.904  11.861 -0.5753  1.1000  0.5382
 5245TIP3   OH239929   4.474   3.778  10.001 -0.3505  0.2086 -0.2231
 5245TIP3    H139930   4.475   3.724   9.922  0.0166  1.2075 -0.9202
 5245TIP3    H239931   4.546   3.743  10.054  1.0434  1.1077 -1.4484
 5246TIP3   OH239932   1.373   2.431  10.506  0.6257 -0.2075  0.3410
 5246TIP3    H139933   1.362   2.500  10.441  0.3117 -1.7040 -1.2749
 5246TIP3    H239934   1.406   2.476  10.584 -0.6368  1.9048 -0.2619
 5247TIP3   OH239935   6.064   1.986  12.103  0.0725 -0.5787  0.3336
 5247TIP3    H139936   6.092   2.077  12.090  1.1347 -1.0108 -0.5029
 5247TIP3    H239937   5.971   1.993  12.126 -0.6456  0.6188 -2.4683
 5248TIP3   OH239938   4.250   5.806   8.495  0.0823  0.3215 -0.4740
 5248TIP3    H139939   4.190   5.863   8.542 -0.8573  1.1223 -2.5517
 5248TIP3    H239940   4.325   5.861   8.474 -0.3755  0.5532 -1.5875
 5249TIP3   OH239941   2.543   2.286  10.102 -0.4720  0.2232  0.4536
 5249TIP3    H139942   2.573   2.219  10.163  0.8228  0.5221  0.1855
 5249TIP3    H239943   2.508   2.238  10.027 -0.8929 -0.1380  0.8796
 5250TIP3   OH239944   4.172   1.784  10.439  0.2849  0.4109 -0.6024
 5250TIP3    H139945   4.157   1.878  10.436  0.4314  0.4141 -1.8720
 5250TIP3    H239946   4.143   1.752  10.353 -0.2220 -0.7771 -0.0181
 5251TIP3   OH239947   2.216   5.045  10.536 -0.6266  0.0394 -0.7548
 5251TIP3    H139948   2.227   4.968  10.591  2.3301  0.5645 -0.3966
 5251TIP3    H239949   2.164   5.105  10.589  0.3667 -0.2710  0.6414
 5252TIP3   OH239950   3.915   1.236  11.507 -0.2855  0.2829 -0.9259
 5252TIP3    H139951   3.930   1.200  11.420 -0.6475 -2.6003  0.0897
 5252TIP3    H239952   3.970   1.183  11.565 -0.4939  1.7356  0.6826
 5253TIP3   OH239953   6.531   6.050  11.129 -0.5280 -0.4103 -0.0263
 5253TIP3    H139954   6.609   6.087  11.170  0.9096 -1.1184 -1.9568
 5253TIP3    H239955   6.548   5.956  11.123 -1.7291 -0.6479 -0.0842
 5254TIP3   OH239956   2.329   2.172   9.590 -0.0272 -0.6485  0.0816
 5254TIP3    H139957   2.268   2.099   9.601  0.5986 -1.3700 -1.0207
 5254TIP3    H239958   2.305   2.211   9.506  1.0261 -0.9718 -0.3950
 5255TIP3   OH239959   4.799   1.002  10.128 -0.0203 -0.1171 -0.0507
 5255TIP3    H139960   4.831   1.077  10.076 -0.8259 -0.7029 -1.4614
 5255TIP3    H239961   4.859   0.931  10.105 -0.1025 -0.2619  0.1922
 5256TIP3   OH239962   3.121   0.282   8.307  0.7549 -0.1133  0.0762
 5256TIP3    H139963   3.200   0.274   8.254  0.9365 -0.4757  0.3950
 5256TIP3    H239964   3.069   0.349   8.263  0.0368 -1.7313 -1.6714
 5257TIP3   OH239965   1.929   3.777  11.890  0.0555 -0.4937  0.8057
 5257TIP3    H139966   1.944   3.871  11.881  0.3104 -0.0107  4.6570
 5257TIP3    H239967   2.013   3.738  11.866 -0.4163  0.0015 -2.1002
 5258TIP3   OH239968   5.705   3.849  11.749  0.3817 -0.4101 -0.2684
 5258TIP3    H139969   5.627   3.892  11.713  0.5125  0.8399  0.8488
 5258TIP3    H239970   5.776   3.911  11.732  0.8441 -0.8264  0.1325
 5259TIP3   OH239971   3.421   1.613  10.016 -0.0598 -0.1730 -0.1422
 5259TIP3    H139972   3.491   1.620  10.081  1.1128 -0.4479 -1.3213
 5259TIP3    H239973   3.392   1.703  10.000  1.5190  0.1946 -1.1688
 5260TIP3   OH239974   6.515   4.617  11.655 -0.0043 -0.2908 -0.5541
 5260TIP3    H139975   6.589   4.563  11.683  0.1848  0.7707  1.1575
 5260TIP3    H239976   6.438   4.564  11.672  0.3138 -1.4381 -2.4228
 5261TIP3   OH239977   4.426   2.222  10.290  0.3494 -0.1002 -0.2524
 5261TIP3    H139978   4.468   2.307  10.285  0.9929 -0.3422  0.8948
 5261TIP3    H239979   4.363   2.230  10.361  0.6468 -0.6779  0.0838
 5262TIP3   OH239980   1.317   4.559  10.014  0.2948 -0.8274  0.2077
 5262TIP3    H139981   1.245   4.500   9.993 -0.7758  0.1842  0.9450
 5262TIP3    H239982   1.339   4.600   9.930 -1.1170  0.0747  0.2548
 5263TIP3   OH239983   3.767   6.486   9.027 -0.0416  0.0353  0.5652
 5263TIP3    H139984   3.734   6.419   8.968 -0.3105 -1.3962  2.2395
 5263TIP3    H239985   3.837   6.530   8.979 -1.5489  0.2941 -1.5042
 5264TIP3   OH239986   0.003   0.729  10.074  0.4062  0.3251 -0.6317
 5264TIP3    H139987   0.047   0.804  10.114 -1.0744 -0.1317  2.0844
 5264TIP3    H239988   0.059   0.655  10.094  0.0404  0.2020 -0.0510
 5265TIP3   OH239989   3.072   3.733  11.986  0.0645 -0.6684 -0.2320
 5265TIP3    H139990   3.134   3.750  11.915  0.3671 -3.9225 -0.9039
 5265TIP3    H239991   3.117   3.670  12.042 -1.0656  0.1146  1.6508
 5266TIP3   OH239992   3.356   0.620  11.797 -0.8949  0.3915  0.1758
 5266TIP3    H139993   3.301   0.628  11.719 -1.4562 -1.9682  0.2513
 5266TIP3    H239994   3.441   0.593  11.763 -1.6732 -2.6949  0.3768
 5267TIP3   OH239995   6.692   3.466  11.520 -0.0392  1.0558  0.5267
 5267TIP3    H139996   6.681   3.480  11.614  1.1906  3.3622  0.4252
 5267TIP3    H239997   6.783   3.491  11.504  0.1684 -0.5633 -1.1115
 5268TIP3   OH239998   1.593   5.641   9.625  0.1471  0.0142 -0.2681
 5268TIP3    H139999   1.525   5.708   9.612  0.4899 -0.0300 -3.0749
 5268TIP3    H240000   1.649   5.676   9.694 -1.6807  0.9000  0.8512
 5269TIP3   OH240001   2.803   0.478  10.498 -0.4701 -0.1379  0.6358
 5269TIP3    H140002   2.738   0.548  10.506 -0.9470 -0.6010  0.9053
 5269TIP3    H240003   2.801   0.434  10.583  1.1209  0.6194  1.1102
 5270TIP3   OH240004   2.122   0.190  10.953 -0.3131  0.1612  0.4758
 5270TIP3    H140005   2.029   0.175  10.938 -0.5301 -0.8747  2.5514
 5270TIP3    H240006   2.127   0.247  11.029  0.7505 -0.1973  0.7009
 5271TIP3   OH240007   3.398   0.086  10.546  0.2510 -0.1140  0.6468
 5271TIP3    H140008   3.451   0.165  10.534  0.3689 -0.1281  1.0857
 5271TIP3    H240009   3.353   0.099  10.630 -1.8463  0.7218 -0.5104
 5272TIP3   OH240010   1.373   3.036  10.419 -0.1357  0.4795  0.2706
 5272TIP3    H140011   1.347   3.095  10.349 -1.4086  0.3085  0.5669
 5272TIP3    H240012   1.296   3.030  10.475  0.3738 -0.5154  0.8976
 5273TIP3   OH240013   4.258   5.610  10.906  0.1260 -0.7344 -0.0451
 5273TIP3    H140014   4.226   5.578  10.991  1.1501 -0.2826  0.5288
 5273TIP3    H240015   4.291   5.531  10.862 -3.3545 -1.5947 -1.4754
 5274TIP3   OH240016   5.832   5.362   9.765  0.9845  0.1232 -0.9708
 5274TIP3    H140017   5.894   5.342   9.695  1.1765 -0.8360 -0.5418
 5274TIP3    H240018   5.882   5.352   9.845  0.0770 -1.5175 -0.5731
 5275TIP3   OH240019   2.342   4.005   9.076 -0.6577  0.2849  0.2847
 5275TIP3    H140020   2.360   4.007   8.982  0.7063  2.1795  0.5361
 5275TIP3    H240021   2.266   4.062   9.087 -3.6307 -3.2565 -0.0770
 5276TIP3   OH240022   3.663   3.403  10.331 -0.1655 -0.6344  0.4805
 5276TIP3    H140023   3.716   3.479  10.354  0.3558 -0.5528 -0.9160
 5276TIP3    H240024   3.573   3.429  10.351  0.1846 -0.3542  1.7839
 5277TIP3   OH240025   4.509   2.644  10.829 -0.6342 -0.3213 -0.5877
 5277TIP3    H140026   4.522   2.631  10.923  0.2283  0.1319 -0.6301
 5277TIP3    H240027   4.445   2.714  10.822 -0.0205  0.2739 -0.3244
 5278TIP3   OH240028   1.956   2.420  10.455  0.1985 -0.1495  0.7757
 5278TIP3    H140029   1.961   2.505  10.411 -1.2402 -0.1130  0.6521
 5278TIP3    H240030   1.931   2.359  10.386  1.2298 -0.7054  0.8627
 5279TIP3   OH240031   1.658   0.584   9.396  0.6398 -0.3089 -0.4706
 5279TIP3    H140032   1.686   0.526   9.468  0.1414 -1.3218 -1.0733
 5279TIP3    H240033   1.599   0.647   9.437  0.0438 -1.1246 -0.0529
 5280TIP3   OH240034   2.172   2.685   9.695 -0.0492 -0.5685 -0.3207
 5280TIP3    H140035   2.111   2.756   9.674  0.5810  0.3123  0.7374
 5280TIP3    H240036   2.247   2.700   9.637 -0.8684 -1.7662 -1.7635
 5281TIP3   OH240037   5.657   3.728  10.501  0.3092 -0.3992 -0.0326
 5281TIP3    H140038   5.632   3.816  10.530 -1.1177 -0.2768 -1.4750
 5281TIP3    H240039   5.690   3.685  10.580 -2.3281  0.2424  1.5404
 5282TIP3   OH240040   4.417   0.389   9.069 -0.1350  0.0715 -0.0658
 5282TIP3    H140041   4.499   0.413   9.111 -1.2955  2.9181  0.7782
 5282TIP3    H240042   4.394   0.465   9.016 -2.1324 -0.7340 -0.4535
 5283TIP3   OH240043   0.316   6.427  10.066 -0.1474 -0.2365  0.1400
 5283TIP3    H140044   0.357   6.506  10.031 -0.2980  0.1543  0.8265
 5283TIP3    H240045   0.301   6.372   9.990  1.1581 -0.1610 -0.2037
 5284TIP3   OH240046   1.855   1.666  10.909  0.2379 -0.4024 -0.5974
 5284TIP3    H140047   1.822   1.747  10.870 -2.9547 -0.3658  1.7901
 5284TIP3    H240048   1.916   1.695  10.977 -1.1358  0.0961  0.4665
 5285TIP3   OH240049   2.006   0.104  11.755  0.1163  0.4780 -0.6750
 5285TIP3    H140050   1.965   0.124  11.671 -0.8465 -0.8222 -0.5474
 5285TIP3    H240051   1.960   0.026  11.786  2.7873 -1.1935 -0.6027
 5286TIP3   OH240052   6.360   5.766  11.547 -0.1402 -0.1399 -0.5572
 5286TIP3    H140053   6.269   5.776  11.574 -0.0383 -0.9908  0.1553
 5286TIP3    H240054   6.355   5.749  11.453 -0.6954  0.0616 -0.5717
 5287TIP3   OH240055   4.458   0.621   9.746  0.2375 -0.3685 -0.8501
 5287TIP3    H140056   4.398   0.691   9.719  0.1599 -0.5333 -1.0992
 5287TIP3    H240057   4.447   0.617   9.841 -1.9911 -2.0607 -1.1061
 5288TIP3   OH240058   5.568   1.967   9.988 -0.1757 -0.3333  0.4165
 5288TIP3    H140059   5.545   1.875  10.003  0.8563 -0.5136  0.9368
 5288TIP3    H240060   5.638   1.985  10.050  1.4702  0.0345 -1.4360
 5289TIP3   OH240061   5.023   1.377  10.593  0.0789 -0.5534 -0.7456
 5289TIP3    H140062   5.080   1.444  10.555  0.6624 -0.4833  0.2302
 5289TIP3    H240063   4.934   1.406  10.571  0.2046  1.5791  1.2628
 5290TIP3   OH240064   3.552   1.587   8.934  0.2700  0.2295 -0.4664
 5290TIP3    H140065   3.480   1.560   8.877 -0.3453 -0.5213  0.6358
 5290TIP3    H240066   3.626   1.602   8.875 -0.1312 -1.2639 -1.3921
 5291TIP3   OH240067   0.936   6.073   9.266 -0.2709 -0.7274 -0.3920
 5291TIP3    H140068   0.867   6.077   9.199 -0.2496  0.0209 -0.3824
 5291TIP3    H240069   1.017   6.090   9.217 -0.3642  0.9277 -0.0324
 5292TIP3   OH240070   4.468   1.074  12.025 -0.2989  0.3707 -0.4654
 5292TIP3    H140071   4.432   1.070  12.114  1.9934  3.1229  0.7147
 5292TIP3    H240072   4.472   1.167  12.005  2.0611 -0.0424 -2.2448
 5293TIP3   OH240073   5.032   5.407  10.212 -0.1913 -0.4346  0.1111
 5293TIP3    H140074   5.059   5.316  10.197  4.6873  0.8303 -0.4173
 5293TIP3    H240075   5.016   5.441  10.124 -1.4470 -0.5435  0.2736
 5294TIP3   OH240076   0.653   5.315  12.376 -0.0063 -0.2955 -0.4564
 5294TIP3    H140077   0.617   5.368  12.448  0.2403  0.3691 -0.8140
 5294TIP3    H240078   0.581   5.307  12.314 -0.5224 -1.6755  0.2777
 5295TIP3   OH240079   2.949   2.048  10.259 -0.7291 -0.1932 -0.0672
 5295TIP3    H140080   3.008   2.002  10.199  0.9256 -1.0059  2.0501
 5295TIP3    H240081   2.940   2.135  10.222  2.7029  0.3186  0.0052
 5296TIP3   OH240082   4.364   0.165  11.520  0.0482  0.2683  0.1140
 5296TIP3    H140083   4.322   0.158  11.435  0.2719  1.9847 -0.1695
 5296TIP3    H240084   4.397   0.255  11.524  1.8215 -0.3701  1.1827
 5297TIP3   OH240085   3.524   0.529  10.990  0.1578 -0.2025  0.0227
 5297TIP3    H140086   3.595   0.558  10.933  0.9310 -0.8794  0.6169
 5297TIP3    H240087   3.450   0.586  10.967  0.4899 -0.3529 -1.5307
 5298TIP3   OH240088   1.360   1.673  10.461 -0.4035 -0.3195  0.4475
 5298TIP3    H140089   1.436   1.675  10.518  0.5559 -0.4798 -0.7833
 5298TIP3    H240090   1.302   1.741  10.496  1.2188  1.2810  0.2123
 5299TIP3   OH240091   1.590   4.952   9.023  0.3011  0.9344 -0.0840
 5299TIP3    H140092   1.499   4.981   9.032 -0.3024 -1.0596  0.7413
 5299TIP3    H240093   1.603   4.890   9.095  2.0753  0.5635 -0.6687
 5300TIP3   OH240094   6.444   2.773  10.322 -0.3367 -0.8652  0.3762
 5300TIP3    H140095   6.535   2.750  10.300 -0.0329  0.1570  0.5344
 5300TIP3    H240096   6.441   2.868  10.314 -0.9052 -0.6954  2.2057
 5301TIP3   OH240097   3.445   4.366  11.983  0.2675 -0.4964 -0.1104
 5301TIP3    H140098   3.511   4.358  11.915  0.3128 -0.6122 -0.0525
 5301TIP3    H240099   3.364   4.337  11.942  0.8560 -3.8458  0.8150
 5302TIP3   OH240100   2.650   5.358  10.152  0.1112  0.5638  0.1016
 5302TIP3    H140101   2.581   5.390  10.093 -2.4536 -1.4589  1.7765
 5302TIP3    H240102   2.672   5.271  10.119  0.4428  0.4066  0.7140
 5303TIP3   OH240103   1.552   0.481  10.128  0.7849  0.2510 -0.4381
 5303TIP3    H140104   1.473   0.455  10.176  0.2800  0.2757 -1.2403
 5303TIP3    H240105   1.523   0.551  10.069  1.4673  0.4581 -0.5407
 5304TIP3   OH240106   5.552   4.196  11.286  0.5982 -0.6134 -0.5650
 5304TIP3    H140107   5.621   4.139  11.253  0.9672 -0.8081  0.4929
 5304TIP3    H240108   5.587   4.231  11.368 -0.5771 -0.7470  0.0132
 5305TIP3   OH240109   1.511   4.847  11.616 -0.5303  0.1322 -0.3344
 5305TIP3    H140110   1.582   4.854  11.679  0.1685  0.7781 -1.1787
 5305TIP3    H240111   1.436   4.888  11.660 -0.5650 -1.0257  0.7707
 5306TIP3   OH240112   2.758   6.619  12.379  0.5019  0.1767  0.4587
 5306TIP3    H140113   2.784   6.543  12.430  0.0511 -0.0691  0.3262
 5306TIP3    H240114   2.798   6.606  12.293 -0.0553 -0.2034  0.2537
 5307TIP3   OH240115   1.580   4.212  12.211 -0.1296 -0.1664  0.3411
 5307TIP3    H140116   1.553   4.303  12.209  1.1545  0.2647  1.2360
 5307TIP3    H240117   1.539   4.173  12.134  0.1160  1.4045 -0.6340
 5308TIP3   OH240118   3.993   5.677  10.534 -0.0301 -0.0754 -0.4403
 5308TIP3    H140119   3.961   5.611  10.473 -0.6893  0.9668 -1.2423
 5308TIP3    H240120   3.917   5.699  10.589 -0.1512  0.8787 -0.9708
 5309TIP3   OH240121   2.832   3.969  10.843 -0.3081  0.2619 -0.3814
 5309TIP3    H140122   2.773   4.035  10.880 -1.3201  0.7731 -2.7334
 5309TIP3    H240123   2.812   3.970  10.749  2.8031 -0.2336 -1.1303
 5310TIP3   OH240124   0.762   1.978  11.811 -0.1464 -0.1058 -0.2805
 5310TIP3    H140125   0.819   1.900  11.816 -0.7183 -0.4989  0.1556
 5310TIP3    H240126   0.725   1.974  11.723 -0.4547 -0.5268 -0.1337
 5311TIP3   OH240127   0.354   4.414   9.960  0.2777 -0.7310  0.0821
 5311TIP3    H140128   0.443   4.432   9.929 -0.7507  2.7907 -1.3378
 5311TIP3    H240129   0.345   4.467  10.039 -1.0596  0.4134 -0.7953
 5312TIP3   OH240130   3.428   3.522  10.770 -0.8088 -0.0603 -0.2143
 5312TIP3    H140131   3.390   3.598  10.814 -0.3633  0.0776 -0.0626
 5312TIP3    H240132   3.443   3.552  10.680  1.2058  0.6972  0.3277
 5313TIP3   OH240133   5.082   2.273  10.377  0.1494 -0.0335  0.2199
 5313TIP3    H140134   5.126   2.265  10.461 -2.3687  1.3011  1.7883
 5313TIP3    H240135   5.000   2.225  10.387  0.0930 -0.4560 -1.7416
 5314TIP3   OH240136   1.493   5.171  10.550 -0.1325 -0.6230 -0.0477
 5314TIP3    H140137   1.429   5.104  10.527 -0.4855  0.4959 -2.6315
 5314TIP3    H240138   1.441   5.250  10.566  0.5108  0.3341 -2.3106
 5315TIP3   OH240139   3.109   0.400   8.814  0.5562  0.0175  0.4210
 5315TIP3    H140140   3.144   0.374   8.729 -0.3184 -0.1855  0.1114
 5315TIP3    H240141   3.028   0.447   8.793  0.8766  0.8994  1.0866
 5316TIP3   OH240142   3.840   1.271  12.174  0.5594  0.1709 -0.4054
 5316TIP3    H140143   3.898   1.347  12.183  0.3651  0.3242 -0.4327
 5316TIP3    H240144   3.755   1.309  12.151  0.8621 -0.1581 -2.1922
 5317TIP3   OH240145   1.460   5.338   9.883 -0.6093  0.0512  0.3241
 5317TIP3    H140146   1.380   5.389   9.869 -0.0183  0.7488 -0.5970
 5317TIP3    H240147   1.515   5.358   9.808 -0.4007 -2.0717 -0.1582
 5318TIP3   OH240148   2.555   2.107  11.921  0.3832 -0.1203 -0.1026
 5318TIP3    H140149   2.543   2.089  12.014  1.3639 -0.6409 -0.0623
 5318TIP3    H240150   2.485   2.057  11.878 -1.1848  1.5110  0.4299
 5319TIP3   OH240151   4.592   4.694   8.713 -0.7625  0.3977  0.9652
 5319TIP3    H140152   4.545   4.734   8.786 -0.2007  1.6806  0.6474
 5319TIP3    H240153   4.541   4.717   8.636 -3.2373 -3.6596  1.0736
 5320TIP3   OH240154   6.559   5.090   9.482  0.0837 -0.2771 -0.7825
 5320TIP3    H140155   6.590   5.004   9.512 -0.6974 -0.6554 -1.0177
 5320TIP3    H240156   6.575   5.149   9.556 -3.2083 -1.4918  1.1133
 5321TIP3   OH240157   5.563   2.023  11.472 -0.7085 -0.3488  0.3667
 5321TIP3    H140158   5.582   2.110  11.507  0.1903 -0.4731  0.2118
 5321TIP3    H240159   5.593   1.963  11.541  2.3571 -0.6522 -1.0621
 5322TIP3   OH240160   6.446   2.859  11.492  0.4425  0.3573 -0.2937
 5322TIP3    H140161   6.373   2.841  11.551  0.8758 -0.6032 -0.0251
 5322TIP3    H240162   6.522   2.820  11.536  1.3467  2.3550  0.0081
 5323TIP3   OH240163   1.634   2.038   8.522 -0.2000  0.1195 -0.9172
 5323TIP3    H140164   1.574   2.106   8.490  1.4157  1.8318 -0.4760
 5323TIP3    H240165   1.718   2.060   8.482  0.6839 -0.8070  0.3554
 5324TIP3   OH240166   5.260   6.025  11.341  0.5907 -0.1318 -0.2337
 5324TIP3    H140167   5.322   5.998  11.408  0.3896 -0.5508 -0.2160
 5324TIP3    H240168   5.291   6.112  11.314  0.2663  0.3738  0.9133
 5325TIP3   OH240169   3.712   2.163  10.816  0.3845 -0.0684 -0.2077
 5325TIP3    H140170   3.778   2.129  10.756  0.5821 -0.1443  0.0478
 5325TIP3    H240171   3.635   2.177  10.762  0.5514 -0.1624 -0.4726
 5326TIP3   OH240172   0.578   1.343  11.806 -0.2231  0.2957  0.0409
 5326TIP3    H140173   0.661   1.374  11.843 -0.6292  2.7490 -0.9085
 5326TIP3    H240174   0.526   1.318  11.883  0.7215  0.4956  0.7668
 5327TIP3   OH240175   5.521   4.067  12.305 -0.0017  0.3684  0.1356
 5327TIP3    H140176   5.479   4.136  12.253  1.7832  1.2414 -0.2604
 5327TIP3    H240177   5.609   4.102  12.322  0.7444 -1.5690  0.4452
 5328TIP3   OH240178   6.389   0.385  11.600  0.5494 -0.3431  0.9754
 5328TIP3    H140179   6.294   0.379  11.611  0.6375 -0.7281  1.5592
 5328TIP3    H240180   6.422   0.300  11.630  1.0189 -0.4758  0.0905
 5329TIP3   OH240181   1.180   1.465  10.376 -0.7371  0.0972  0.0637
 5329TIP3    H140182   1.251   1.522  10.406 -0.1377 -0.3905 -0.3983
 5329TIP3    H240183   1.202   1.378  10.410 -1.0314 -0.0905 -0.2179
 5330TIP3   OH240184   6.216   1.842   8.914  0.1753  0.4156 -0.5234
 5330TIP3    H140185   6.301   1.820   8.876 -1.2376 -1.5288 -2.8086
 5330TIP3    H240186   6.170   1.888   8.844 -1.7126 -1.2458 -0.4435
 5331TIP3   OH240187   1.068   4.419  11.089 -0.2959 -0.1822 -0.3964
 5331TIP3    H140188   1.130   4.458  11.151 -1.8821  2.8282 -0.5433
 5331TIP3    H240189   1.124   4.371  11.027  1.4077 -2.6440  2.7278
 5332TIP3   OH240190   1.447   0.902  12.070  0.0401  0.3186  0.0740
 5332TIP3    H140191   1.537   0.934  12.070 -0.1210  0.8046  0.4765
 5332TIP3    H240192   1.397   0.972  12.113 -0.5555  0.1336 -0.3022
 5333TIP3   OH240193   5.728   0.880   8.656 -0.4543 -0.6895 -0.6629
 5333TIP3    H140194   5.680   0.804   8.689  2.0630 -1.8719  0.6203
 5333TIP3    H240195   5.689   0.898   8.571 -4.0380 -0.5930  0.8256
 5334TIP3   OH240196   1.543   6.060  11.244 -0.4217  0.0001 -0.2843
 5334TIP3    H140197   1.542   5.965  11.232 -0.8809 -0.0794  0.3126
 5334TIP3    H240198   1.485   6.075  11.319  2.2346  0.4394  1.8188
 5335TIP3   OH240199   4.949   6.114  11.901  0.3275 -0.0163  0.6998
 5335TIP3    H140200   4.860   6.148  11.913  0.4993  0.3991  0.8321
 5335TIP3    H240201   4.999   6.154  11.972  0.8041  0.4291  0.1245
 5336TIP3   OH240202   1.516   4.722  11.897  0.2275  0.4024  0.6899
 5336TIP3    H140203   1.468   4.761  11.970  1.0363 -0.4595  1.7169
 5336TIP3    H240204   1.468   4.643  11.875 -0.6561  1.2267 -0.5080
 5337TIP3   OH240205   2.276   1.253  10.922  0.2641 -0.4005 -0.1458
 5337TIP3    H140206   2.298   1.337  10.961 -2.1772  1.1705 -1.8920
 5337TIP3    H240207   2.195   1.227  10.965 -0.4550 -0.4707 -1.4951
 5338TIP3   OH240208   3.893   1.143  11.249 -0.2071 -0.2030 -0.3135
 5338TIP3    H140209   3.836   1.158  11.173  1.6063  0.4303 -1.6322
 5338TIP3    H240210   3.939   1.062  11.229 -0.7620 -0.8241  0.8371
 5339TIP3   OH240211   3.290   3.760  10.853  0.0630 -0.1188 -0.5140
 5339TIP3    H140212   3.212   3.709  10.878 -0.5406  0.1380 -1.8057
 5339TIP3    H240213   3.260   3.851  10.852  1.0726  0.3073  1.5328
 5340TIP3   OH240214   6.354   4.035   9.432  0.1398 -0.6892 -0.2038
 5340TIP3    H140215   6.433   4.033   9.378  0.7966  0.4065  0.6756
 5340TIP3    H240216   6.386   4.043   9.522 -0.9582 -0.1322  0.1615
 5341TIP3   OH240217   4.448   1.247  11.063 -0.1944 -0.0627  0.3307
 5341TIP3    H140218   4.439   1.301  10.984  1.5420 -0.3146 -0.0762
 5341TIP3    H240219   4.413   1.162  11.039  0.5146 -0.1987 -0.2676
 5342TIP3   OH240220   6.179   2.228   8.900  0.1979 -0.3806  0.1826
 5342TIP3    H140221   6.159   2.174   8.824  1.1587 -0.0037 -0.3640
 5342TIP3    H240222   6.165   2.318   8.870  0.1494 -0.2489  0.5878
 5343TIP3   OH240223   5.319   2.867   9.688  0.2376  0.6442 -0.4144
 5343TIP3    H140224   5.341   2.886   9.597  0.0611 -1.0011 -0.8430
 5343TIP3    H240225   5.224   2.861   9.689  0.0996  2.4427  0.2948
 5344TIP3   OH240226   3.303   3.982   9.883 -0.6215  0.7195  0.3562
 5344TIP3    H140227   3.346   4.047   9.939 -1.0145  0.4143  1.0179
 5344TIP3    H240228   3.242   3.937   9.941  0.7373 -1.3158  0.3096
 5345TIP3   OH240229   1.153   0.233  10.420 -0.0958 -0.6863  0.6386
 5345TIP3    H140230   1.101   0.160  10.453 -0.4067 -0.4355  0.7084
 5345TIP3    H240231   1.154   0.296  10.492  0.6389 -0.8534  0.7881
 5346TIP3   OH240232   0.910   1.991  10.755  0.1717 -0.6120  0.1784
 5346TIP3    H140233   0.970   2.047  10.704  0.6129 -0.9187  0.3588
 5346TIP3    H240234   0.967   1.937  10.809 -0.2933 -0.3913  0.9028
 5347TIP3   OH240235   3.652   0.949   9.889  0.2206 -0.4947 -1.1852
 5347TIP3    H140236   3.594   0.882   9.924  1.1992 -1.4614 -1.3608
 5347TIP3    H240237   3.640   0.944   9.794  0.9707 -1.0651 -1.2560
 5348TIP3   OH240238   6.662   2.519   9.392 -0.2786 -0.1769  0.2882
 5348TIP3    H140239   6.736   2.498   9.449  0.4971  0.0441 -0.6076
 5348TIP3    H240240   6.694   2.499   9.304 -0.2095  2.7487 -0.4257
 5349TIP3   OH240241   6.222   5.995  11.729 -0.2887  0.2887 -0.0157
 5349TIP3    H140242   6.261   6.078  11.756 -0.7002  0.7487 -0.7826
 5349TIP3    H240243   6.245   5.933  11.798  1.9191  0.4888 -0.5010
 5350TIP3   OH240244   5.224   2.364  11.161  0.2364 -0.2822 -0.2944
 5350TIP3    H140245   5.168   2.322  11.096  0.0968 -1.5248  0.5919
 5350TIP3    H240246   5.300   2.306  11.167  0.1075 -0.3492  0.8533
 5351TIP3   OH240247   1.252   3.930  12.122  0.2402  0.5206  0.1892
 5351TIP3    H140248   1.318   3.868  12.153  0.0557 -0.5150 -1.3891
 5351TIP3    H240249   1.301   4.000  12.079  0.4467  1.5028  1.9338
 5352TIP3   OH240250   6.261   0.078   9.091 -0.0022  0.3526 -0.6371
 5352TIP3    H140251   6.309   0.048   9.168  1.6605  1.6402 -1.0940
 5352TIP3    H240252   6.235   0.168   9.113 -0.0071  0.5267 -1.3398
 5353TIP3   OH240253   2.886   6.386  11.831 -0.5418  0.7738  0.1340
 5353TIP3    H140254   2.939   6.466  11.838  0.5318  0.1038 -0.2086
 5353TIP3    H240255   2.928   6.324  11.891 -1.8236  0.6894  0.9884
 5354TIP3   OH240256   4.452   2.889   9.793  0.3893  0.7807 -0.1904
 5354TIP3    H140257   4.479   2.897   9.701 -0.9876  0.6179 -0.6219
 5354TIP3    H240258   4.524   2.841   9.835  0.5873 -0.0221 -1.4060
 5355TIP3   OH240259   4.437   1.402   9.701  0.2410 -0.3295 -0.2507
 5355TIP3    H140260   4.492   1.466   9.746 -1.9199  1.4493  0.0551
 5355TIP3    H240261   4.472   1.399   9.612  1.8849 -0.6112  0.3763
 5356TIP3   OH240262   6.172   2.746  11.219  0.1381 -0.1351 -0.5032
 5356TIP3    H140263   6.089   2.749  11.267 -0.2517 -0.6894 -1.1213
 5356TIP3    H240264   6.185   2.654  11.199  0.9063 -0.0471 -0.4227
 5357TIP3   OH240265   6.220   0.490  10.325  0.6709 -0.7818  0.4585
 5357TIP3    H140266   6.190   0.556  10.263  0.0347 -0.6632  0.8902
 5357TIP3    H240267   6.307   0.464  10.293  0.1680 -1.0409 -0.7268
 5358TIP3   OH240268   0.635   4.495  11.136  0.6809 -0.0333 -0.1415
 5358TIP3    H140269   0.676   4.497  11.222  1.8678  0.6689 -0.6952
 5358TIP3    H240270   0.699   4.452  11.079  0.0932 -0.1114 -0.7596
 5359TIP3   OH240271   5.210   1.036  10.210 -0.0447  0.3174 -0.0825
 5359TIP3    H140272   5.200   1.119  10.256 -0.5824  0.1242  0.1632
 5359TIP3    H240273   5.273   0.987  10.263  0.5090  0.6873 -0.3995
 5360TIP3   OH240274   1.723   0.382   9.610  0.5512 -0.2325  0.4415
 5360TIP3    H140275   1.735   0.331   9.529  2.2739 -0.1416  0.6095
 5360TIP3    H240276   1.799   0.439   9.613 -0.1312  0.6414  1.5215
 5361TIP3   OH240277   1.716   6.154  10.872 -0.0252 -0.0480  0.3494
 5361TIP3    H140278   1.726   6.213  10.798 -0.8656  1.4446  1.3808
 5361TIP3    H240279   1.629   6.114  10.860  0.1305 -0.3353  0.1702
 5362TIP3   OH240280   2.855   0.392  12.266 -0.4443  0.0731 -0.1217
 5362TIP3    H140281   2.902   0.309  12.258  0.7600  0.8790 -2.2530
 5362TIP3    H240282   2.916   0.450  12.312 -1.1031 -0.0785  0.9644
 5363TIP3   OH240283   1.353   4.299  11.068 -0.2503 -0.0237 -0.3729
 5363TIP3    H140284   1.407   4.253  11.004  2.3615 -0.5408  1.9936
 5363TIP3    H240285   1.362   4.248  11.149 -1.9078  1.5537  0.9073
 5364TIP3   OH240286   4.211   3.086  12.241 -0.0410  0.6047  0.1928
 5364TIP3    H140287   4.242   2.998  12.259  0.1638  0.1937 -1.9504
 5364TIP3    H240288   4.272   3.121  12.177 -0.8840  1.8099  0.0095
 5365TIP3   OH240289   1.827   2.111   8.343 -0.2687  0.5176 -0.1755
 5365TIP3    H140290   1.742   2.134   8.305 -0.7535  0.8015  1.0643
 5365TIP3    H240291   1.867   2.054   8.277 -1.7472 -0.2900 -0.4176
 5366TIP3   OH240292   0.883   0.407  11.383 -0.1520 -0.0917 -0.3658
 5366TIP3    H140293   0.828   0.383  11.308  0.3619  0.6302 -0.9962
 5366TIP3    H240294   0.944   0.334  11.393 -0.9617 -0.7163  0.0882
 5367TIP3   OH240295   0.780   0.719  10.451 -0.8033 -0.6522  0.3992
 5367TIP3    H140296   0.732   0.638  10.434  0.3301 -0.9462 -1.8584
 5367TIP3    H240297   0.855   0.715  10.391  0.1295  1.3691  1.3343
 5368TIP3   OH240298   2.686   4.300  10.212  0.2703  0.4382  0.0714
 5368TIP3    H140299   2.707   4.291  10.120 -0.1908 -0.3490  0.0332
 5368TIP3    H240300   2.768   4.282  10.258  0.4892  0.7893 -0.1774
 5369TIP3   OH240301   1.610   2.164   9.699 -0.0499 -0.2553  0.2837
 5369TIP3    H140302   1.697   2.148   9.735 -0.0977  0.4300  0.7143
 5369TIP3    H240303   1.625   2.225   9.627  0.0302 -1.5157 -0.8169
 5370TIP3   OH240304   5.972   1.087  11.956  0.1854  0.0987  0.3962
 5370TIP3    H140305   5.905   1.021  11.973 -3.2120  2.5980 -2.0240
 5370TIP3    H240306   5.975   1.139  12.037 -2.2962  1.0172 -0.0047
 5371TIP3   OH240307   0.122   3.000   9.246 -0.7306 -0.2862 -0.0211
 5371TIP3    H140308   0.066   3.077   9.258 -0.5067  0.2289 -1.9045
 5371TIP3    H240309   0.162   3.013   9.160 -0.4916 -2.3820 -0.2847
 5372TIP3   OH240310   2.046   2.715  11.544 -0.1625 -0.5250 -0.1815
 5372TIP3    H140311   2.133   2.752  11.532  0.5131 -2.1017 -0.3125
 5372TIP3    H240312   1.987   2.791  11.542  0.9106  0.3275 -2.7312
 5373TIP3   OH240313   4.957   3.693  10.493 -1.1937 -0.4651  0.0919
 5373TIP3    H140314   4.999   3.748  10.559  0.0835 -1.0626 -0.1845
 5373TIP3    H240315   4.880   3.657  10.537  0.6220 -2.3667  1.9606
 5374TIP3   OH240316   3.764   0.050  11.822  0.1158 -0.4995  0.0969
 5374TIP3    H140317   3.761   0.101  11.741 -0.8372  1.3036  1.2044
 5374TIP3    H240318   3.787   0.114  11.890  2.2812 -2.2007  1.1155
 5375TIP3   OH240319   0.876   4.944  10.596  0.0249 -0.0221  0.3155
 5375TIP3    H140320   0.825   4.985  10.526 -0.3572  0.1827  0.7143
 5375TIP3    H240321   0.819   4.945  10.672  0.7571  0.5550  0.8738
 5376TIP3   OH240322   4.589   0.661   9.358 -0.1283 -0.0184 -0.2172
 5376TIP3    H140323   4.610   0.677   9.450 -1.4096  3.6786 -0.4166
 5376TIP3    H240324   4.638   0.727   9.310 -0.8441 -0.7482 -2.0560
 5377TIP3   OH240325   1.017   0.306  11.002 -0.0419 -0.2372  0.0712
 5377TIP3    H140326   1.075   0.307  10.925 -0.4579 -0.5277 -0.2460
 5377TIP3    H240327   1.073   0.275  11.073  0.4865  0.5248  0.0079
 5378TIP3   OH240328   3.573   6.603  10.701 -0.1468 -0.1852  0.2807
 5378TIP3    H140329   3.510   6.655  10.651 -0.5523 -0.6306  0.3192
 5378TIP3    H240330   3.572   6.517  10.658 -1.3916 -0.9503  1.7460
 5379TIP3   OH240331   0.703   6.312  10.417 -0.3675 -0.0001 -0.4301
 5379TIP3    H140332   0.791   6.342  10.394  0.3981 -0.7240  1.3851
 5379TIP3    H240333   0.713   6.218  10.432 -1.7080 -0.3024 -1.2904
 5380TIP3   OH240334   3.058   6.636   8.850  0.2949 -0.2840 -0.3519
 5380TIP3    H140335   3.116   6.579   8.800  0.3653 -0.6786  0.1669
 5380TIP3    H240336   3.006   6.682   8.784 -0.4749 -1.6977 -0.7701
 5381TIP3   OH240337   2.919   0.693   9.416 -0.1663  0.6070  0.5715
 5381TIP3    H140338   3.000   0.680   9.465 -0.4187 -0.9134  0.6285
 5381TIP3    H240339   2.852   0.650   9.470 -0.8266  0.9079 -0.0049
 5382TIP3   OH240340   1.263   5.575   9.417 -0.0152  0.3447 -0.0599
 5382TIP3    H140341   1.228   5.622   9.341 -2.6348 -0.1105  0.7709
 5382TIP3    H240342   1.249   5.634   9.491 -1.1787 -0.7484  0.6327
 5383TIP3   OH240343   3.819   0.170  10.543  0.3529  0.1054  0.0071
 5383TIP3    H140344   3.790   0.121  10.466  0.3581 -1.0006  0.6717
 5383TIP3    H240345   3.758   0.243  10.550 -0.3897 -0.4630 -0.3662
 5384TIP3   OH240346   0.080   2.509  10.012 -0.3609  0.5634 -0.0521
 5384TIP3    H140347   0.136   2.474   9.942  0.5838 -0.1167  1.0009
 5384TIP3    H240348   0.138   2.565  10.063 -1.3549  2.0495 -0.4942
 5385TIP3   OH240349   2.627   3.058  11.396  0.1721  0.4108  0.6207
 5385TIP3    H140350   2.703   3.004  11.416 -0.3488 -0.6079 -0.0764
 5385TIP3    H240351   2.628   3.067  11.301 -1.8642 -1.6420  0.3080
 5386TIP3   OH240352   6.463   0.848   9.433  0.3824 -0.3101 -0.6000
 5386TIP3    H140353   6.388   0.792   9.412  0.8590 -0.7777 -1.0780
 5386TIP3    H240354   6.499   0.812   9.514 -0.3472  0.3701  0.0428
 5387TIP3   OH240355   2.387   0.068   9.166 -0.1374  0.0335 -0.4485
 5387TIP3    H140356   2.321   0.082   9.234  1.0801  1.3967  0.5128
 5387TIP3    H240357   2.443  -0.001   9.201  0.0655  0.2186 -0.4118
 5388TIP3   OH240358   2.120   6.304   8.056  0.3504 -0.6760 -0.1915
 5388TIP3    H140359   2.147   6.320   8.147  1.1289 -1.0520 -0.3538
 5388TIP3    H240360   2.172   6.364   8.004  0.7674 -1.2969 -0.4952
 5389TIP3   OH240361   4.086   4.952   9.892  0.4153  0.0025  0.5813
 5389TIP3    H140362   4.122   4.865   9.877 -0.4064 -0.4478  1.1458
 5389TIP3    H240363   4.119   5.005   9.820 -1.0797 -1.3767 -1.2037
 5390TIP3   OH240364   5.022   4.469  10.673  0.5288  0.5134  0.5645
 5390TIP3    H140365   5.008   4.392  10.618 -1.8254  1.8291 -0.8293
 5390TIP3    H240366   5.105   4.451  10.718  0.3117 -2.6002 -0.0294
 5391TIP3   OH240367   4.617   0.471   3.272 -0.0611  0.1490  0.3012
 5391TIP3    H140368   4.637   0.400   3.211 -1.5544  0.7268 -0.9281
 5391TIP3    H240369   4.603   0.427   3.356 -1.6133 -1.1317 -0.5701
 5392TIP3   OH240370   0.969   2.976   3.275 -0.4081 -0.0290  0.8052
 5392TIP3    H140371   0.880   2.951   3.300 -0.9366  2.5345  1.7254
 5392TIP3    H240372   0.970   3.071   3.279  1.9220  0.1125 -0.8623
 5393TIP3   OH240373   1.033   4.653   5.161 -0.1071  0.3567  0.0665
 5393TIP3    H140374   0.981   4.652   5.241 -0.9914  2.2350 -0.4127
 5393TIP3    H240375   1.070   4.565   5.155 -0.8567 -0.1402  1.9735
 5394TIP3   OH240376   4.006   3.739   2.776 -0.0109 -0.7777 -0.0001
 5394TIP3    H140377   3.928   3.739   2.831  0.5336  0.4922  0.8223
 5394TIP3    H240378   4.080   3.738   2.837  0.6110 -0.5286 -0.7195
 5395TIP3   OH240379   0.511   2.336   4.030  0.2312 -0.3791  0.3679
 5395TIP3    H140380   0.601   2.335   4.063 -0.2485 -1.3314  1.7381
 5395TIP3    H240381   0.474   2.417   4.066  0.5098 -0.0279 -0.1287
 5396TIP3   OH240382   1.666   2.529   0.509  0.0773  0.2517 -0.1211
 5396TIP3    H140383   1.750   2.559   0.544 -0.2916 -0.7524  1.7512
 5396TIP3    H240384   1.607   2.603   0.521 -0.1055 -0.1537  1.7181
 5397TIP3   OH240385   1.079   4.280   2.069 -0.3423  0.0080 -0.1736
 5397TIP3    H140386   1.084   4.374   2.085  1.8024 -0.1115  0.0893
 5397TIP3    H240387   0.989   4.266   2.038  0.0836  2.5775 -3.0646
 5398TIP3   OH240388   3.278   1.842   3.022  0.8134 -0.1410  0.1747
 5398TIP3    H140389   3.358   1.818   2.975 -0.2663  1.3526 -2.7475
 5398TIP3    H240390   3.207   1.803   2.970 -0.4557  1.0802  0.9218
 5399TIP3   OH240391   1.495   4.589   4.431 -0.4323  0.9425 -0.3115
 5399TIP3    H140392   1.473   4.506   4.472 -2.1688  1.2313 -0.5947
 5399TIP3    H240393   1.591   4.592   4.433 -0.1202 -2.1853 -2.4416
 5400TIP3   OH240394   2.977   2.926   4.046 -0.1727 -0.5010  0.3687
 5400TIP3    H140395   2.953   3.017   4.028  0.7599 -0.1314  0.9372
 5400TIP3    H240396   2.976   2.884   3.960  1.5725  0.5931 -0.2325
 5401TIP3   OH240397   2.125   0.838   3.588  0.1071  0.0442  0.6486
 5401TIP3    H140398   2.156   0.794   3.667 -4.9284 -1.4338  2.2048
 5401TIP3    H240399   2.054   0.894   3.619  0.1006  1.9768 -2.5078
 5402TIP3   OH240400   4.011   5.682   2.025  0.3493  0.6457  0.4113
 5402TIP3    H140401   4.007   5.588   2.007  0.2281  0.7886 -0.3483
 5402TIP3    H240402   4.035   5.687   2.118 -1.5016 -0.1448  0.9918
 5403TIP3   OH240403   5.231   6.614   2.620  0.3100 -0.3925 -0.0919
 5403TIP3    H140404   5.235   6.529   2.576  1.0585 -0.2978 -0.2306
 5403TIP3    H240405   5.194   6.674   2.554  1.5418 -0.2259 -0.6599
 5404TIP3   OH240406   5.654   3.631   1.214 -0.2806  0.0247 -0.4998
 5404TIP3    H140407   5.667   3.572   1.289  0.7752  2.4378  1.3619
 5404TIP3    H240408   5.737   3.629   1.167 -0.4110 -0.3297 -0.7148
 5405TIP3   OH240409   6.336   1.225   1.445 -0.3457  0.3874 -0.2594
 5405TIP3    H140410   6.264   1.166   1.468  2.0094 -1.4421  3.2797
 5405TIP3    H240411   6.313   1.308   1.486 -0.2159 -0.3572  1.3822
 5406TIP3   OH240412   3.593   0.797   2.769  0.1861 -0.1731  0.2295
 5406TIP3    H140413   3.607   0.810   2.675  1.5899 -1.0554  0.2833
 5406TIP3    H240414   3.532   0.866   2.794 -0.4754 -0.1310 -1.3887
 5407TIP3   OH240415   0.670   2.284   2.063  0.3602  0.1567 -0.3456
 5407TIP3    H140416   0.701   2.369   2.034 -0.9465  0.4604 -0.9488
 5407TIP3    H240417   0.704   2.275   2.152 -0.3450  1.7993  0.1364
 5408TIP3   OH240418   5.824   3.405   3.636  0.1263 -0.4209  0.1378
 5408TIP3    H140419   5.884   3.344   3.594 -0.1410 -1.4785  1.2675
 5408TIP3    H240420   5.879   3.456   3.696 -0.4204 -3.3411  3.3786
 5409TIP3   OH240421   2.177   5.877   3.253 -0.1740  0.3312 -0.1270
 5409TIP3    H140422   2.267   5.868   3.283 -0.9613  0.3783  2.4925
 5409TIP3    H240423   2.168   5.970   3.232  0.7484  0.0650 -1.8194
 5410TIP3   OH240424   4.473   3.851   2.727  0.2951  0.2402 -0.2534
 5410TIP3    H140425   4.425   3.769   2.732  2.7824 -1.3103  0.0674
 5410TIP3    H240426   4.519   3.846   2.643 -0.2032  1.7494 -0.6409
 5411TIP3   OH240427   5.672   3.868   1.356 -0.4985 -0.3921  0.1861
 5411TIP3    H140428   5.626   3.784   1.347 -1.0593 -0.1867  0.9812
 5411TIP3    H240429   5.715   3.882   1.272 -1.0757 -1.0837 -0.2294
 5412TIP3   OH240430   6.234   5.482   3.542 -0.6150  0.1525 -0.3871
 5412TIP3    H140431   6.281   5.519   3.616  1.1599 -1.1608 -0.7848
 5412TIP3    H240432   6.247   5.387   3.550 -3.0752 -0.2682 -0.6489
 5413TIP3   OH240433   5.804   3.379   0.961  0.4513 -0.2346 -0.0191
 5413TIP3    H140434   5.725   3.337   0.925  0.4737 -0.2188 -0.0873
 5413TIP3    H240435   5.792   3.472   0.942  0.5516 -0.2488 -0.1554
 5414TIP3   OH240436   0.107   6.659   1.030 -0.0893 -0.1736  0.2301
 5414TIP3    H140437   0.035   6.638   1.090 -1.5342 -0.0435 -1.3629
 5414TIP3    H240438   0.133   6.748   1.056 -1.6122  0.4238 -0.1369
 5415TIP3   OH240439   3.295   2.727   1.847  0.5695  0.0829 -0.4345
 5415TIP3    H140440   3.272   2.812   1.885 -0.9584 -2.2428  4.6886
 5415TIP3    H240441   3.213   2.695   1.809  0.6231  0.0614 -0.5322
 5416TIP3   OH240442   4.616   0.948   0.466  0.0878 -0.6939 -0.3817
 5416TIP3    H140443   4.629   0.869   0.519  1.0286  0.4928  1.2561
 5416TIP3    H240444   4.690   0.948   0.405  1.0922 -0.2334  0.7810
 5417TIP3   OH240445   4.974   0.360   2.726 -0.1624  0.2927  0.8124
 5417TIP3    H140446   4.976   0.264   2.724  0.5766  0.3077  0.6430
 5417TIP3    H240447   5.066   0.386   2.728 -0.3260  1.0435 -0.6171
 5418TIP3   OH240448   0.029   1.052   1.522  0.0641  0.0888  0.0292
 5418TIP3    H140449   0.083   0.997   1.578 -0.0100 -1.0192 -0.9641
 5418TIP3    H240450   0.088   1.085   1.455  0.1257  1.3219  0.6437
 5419TIP3   OH240451   4.942   4.869   2.606 -0.3012  0.0586 -0.1448
 5419TIP3    H140452   4.904   4.845   2.691  0.6096 -0.6869  0.0710
 5419TIP3    H240453   4.993   4.948   2.624  1.0345 -0.8804  0.3375
 5420TIP3   OH240454   3.845   4.801   0.593  0.7643 -0.3402  0.0049
 5420TIP3    H140455   3.817   4.892   0.578  1.2423 -0.0690  0.7153
 5420TIP3    H240456   3.917   4.808   0.656  0.3875 -1.2528  0.5651
 5421TIP3   OH240457   2.991   5.505   1.531 -0.3914 -0.1022  0.5791
 5421TIP3    H140458   3.067   5.459   1.497 -1.1003 -0.0598 -1.1521
 5421TIP3    H240459   3.022   5.546   1.612  1.5612  0.3426 -0.3336
 5422TIP3   OH240460   4.118   5.594   1.621  0.4777 -0.3069 -0.7879
 5422TIP3    H140461   4.025   5.577   1.611  0.2943  1.1595 -1.9387
 5422TIP3    H240462   4.125   5.645   1.702  0.2793 -0.4126 -0.7049
 5423TIP3   OH240463   1.564   4.105   4.176  0.2635 -0.2623 -0.2447
 5423TIP3    H140464   1.487   4.053   4.153  0.3486 -1.6468  2.3032
 5423TIP3    H240465   1.636   4.042   4.178  0.4115 -0.1395  2.6984
 5424TIP3   OH240466   3.188   6.684   2.437  0.2149  0.1473  0.4042
 5424TIP3    H140467   3.184   6.775   2.464 -0.2865  0.0821  0.5654
 5424TIP3    H240468   3.236   6.640   2.507  1.6883  0.5222 -0.3432
 5425TIP3   OH240469   1.309   2.007   0.837  0.2829  0.0337  0.2763
 5425TIP3    H140470   1.287   2.095   0.807  1.5164  0.1910 -0.2053
 5425TIP3    H240471   1.307   2.012   0.932 -0.0743  0.4658  0.2468
 5426TIP3   OH240472   1.716   3.185   1.655  0.1263  0.0950  0.3665
 5426TIP3    H140473   1.718   3.155   1.747  1.8487  0.8069  0.6117
 5426TIP3    H240474   1.796   3.237   1.646 -0.7205  1.1922 -1.1804
 5427TIP3   OH240475   2.960   1.527   1.417  0.2207  0.2241 -0.3230
 5427TIP3    H140476   2.888   1.486   1.464 -0.1207  0.4025 -0.6838
 5427TIP3    H240477   2.949   1.499   1.326 -0.3860  1.6003 -0.7014
 5428TIP3   OH240478   5.993   3.128   3.672  0.0472  0.2054  0.0324
 5428TIP3    H140479   6.047   3.206   3.676 -1.5119  1.2816  1.7629
 5428TIP3    H240480   5.977   3.106   3.764 -0.4132 -1.5413 -0.4314
 5429TIP3   OH240481   0.118   5.808   2.551  1.1614 -0.6055  0.0341
 5429TIP3    H140482   0.205   5.848   2.541  0.1662  2.1539  1.3875
 5429TIP3    H240483   0.118   5.773   2.640  0.8918 -0.5590  0.0536
 5430TIP3   OH240484   1.968   5.673   3.724  0.1199  0.1585 -0.6365
 5430TIP3    H140485   2.038   5.714   3.775 -0.2534  1.1315 -0.8884
 5430TIP3    H240486   2.008   5.594   3.688  0.6009 -0.1799  0.5687
 5431TIP3   OH240487   2.684   4.192   3.120  0.1647 -0.0839 -0.0340
 5431TIP3    H140488   2.716   4.210   3.209 -1.8735  0.5126  0.6452
 5431TIP3    H240489   2.718   4.263   3.067  0.0835  0.4561  0.6297
 5432TIP3   OH240490   5.575   6.427   3.296  0.5858 -0.3326 -0.0356
 5432TIP3    H140491   5.524   6.500   3.330  1.0693  0.1013 -0.2301
 5432TIP3    H240492   5.565   6.432   3.201  0.4824 -0.6201 -0.0407
 5433TIP3   OH240493   0.169   4.260   1.669 -0.4701 -0.0015  0.3426
 5433TIP3    H140494   0.196   4.352   1.665  1.8690 -0.6353 -0.0860
 5433TIP3    H240495   0.117   4.247   1.590  1.4821  0.3414 -1.0753
 5434TIP3   OH240496   6.634   0.649   2.132 -0.0535 -0.5259  0.3406
 5434TIP3    H140497   6.549   0.686   2.110 -0.4829 -0.2188  2.3576
 5434TIP3    H240498   6.645   0.667   2.225  1.9790 -1.0591  0.2488
 5435TIP3   OH240499   6.002   1.560   3.056  0.2251 -0.1763 -0.5963
 5435TIP3    H140500   6.009   1.531   3.147  2.2703 -0.1026 -0.6862
 5435TIP3    H240501   5.909   1.582   3.045 -0.1451 -0.5965  1.3307
 5436TIP3   OH240502   4.151   5.796   1.845 -0.5577  0.0099  0.1357
 5436TIP3    H140503   4.085   5.857   1.813  0.8810  1.5732 -0.0074
 5436TIP3    H240504   4.115   5.762   1.927 -1.4863  0.9350  0.1382
 5437TIP3   OH240505   0.589   1.907   0.852 -0.3211 -0.0449 -0.5697
 5437TIP3    H140506   0.602   1.835   0.791  0.8613  0.3814 -0.8465
 5437TIP3    H240507   0.677   1.939   0.871 -0.8307  1.6837 -0.8995
 5438TIP3   OH240508   3.335   3.810   3.694  0.0217 -0.0262 -0.0535
 5438TIP3    H140509   3.269   3.774   3.753  0.3270  1.5604  1.3524
 5438TIP3    H240510   3.313   3.903   3.687  1.2322  0.2391 -0.7367
 5439TIP3   OH240511   2.304   1.730   0.869  0.1368  0.1026  0.9552
 5439TIP3    H140512   2.337   1.646   0.835 -1.3845 -0.6222  1.2065
 5439TIP3    H240513   2.228   1.749   0.814  1.7447  2.5176 -0.6205
 5440TIP3   OH240514   0.783   2.851   1.414 -0.4409  0.4454  0.1405
 5440TIP3    H140515   0.712   2.788   1.399  1.0442 -1.1603 -0.4846
 5440TIP3    H240516   0.804   2.886   1.328 -0.2706  0.6862  0.2769
 5441TIP3   OH240517   5.181   4.052   2.231 -0.5046  0.3347  0.0439
 5441TIP3    H140518   5.192   4.084   2.321  0.0292  0.7884 -0.1758
 5441TIP3    H240519   5.258   3.998   2.215  0.8664  2.4526 -1.0496
 5442TIP3   OH240520   0.757   4.714   2.752 -0.6602 -0.1141 -0.2429
 5442TIP3    H140521   0.840   4.673   2.729 -0.5044  0.5756 -0.9205
 5442TIP3    H240522   0.712   4.648   2.805  0.9084  0.0322  1.3947
 5443TIP3   OH240523   1.701   1.655   3.423 -0.4887 -0.6753  0.2184
 5443TIP3    H140524   1.748   1.652   3.339 -1.2123  2.1190 -0.3843
 5443TIP3    H240525   1.748   1.593   3.479  1.1677 -1.2367 -1.6775
 5444TIP3   OH240526   5.541   6.256   3.516  0.2267 -0.4525 -0.2908
 5444TIP3    H140527   5.615   6.200   3.540 -1.4524 -2.0321  1.5767
 5444TIP3    H240528   5.573   6.308   3.442  3.2542 -0.8784  0.5826
 5445TIP3   OH240529   1.133   1.888   1.753  0.3460 -0.3196  0.9724
 5445TIP3    H140530   1.205   1.922   1.700 -0.1618 -0.6856  0.0139
 5445TIP3    H240531   1.160   1.800   1.777 -1.2450 -2.0146 -2.5887
 5446TIP3   OH240532   1.563   0.365   1.581 -0.2130  0.4889 -0.3641
 5446TIP3    H140533   1.553   0.356   1.486 -0.7073  2.5240 -0.5442
 5446TIP3    H240534   1.587   0.456   1.594 -1.5088  0.6091  1.5514
 5447TIP3   OH240535   0.651   0.657   1.129 -0.0207  0.3407 -0.4116
 5447TIP3    H140536   0.734   0.610   1.142  0.4230  1.3129  0.4572
 5447TIP3    H240537   0.677   0.745   1.104 -0.8164  0.4846 -0.7558
 5448TIP3   OH240538   1.395   0.470   2.349  0.0221  0.0855 -0.2629
 5448TIP3    H140539   1.360   0.416   2.420 -1.2339  0.0092 -0.9180
 5448TIP3    H240540   1.429   0.407   2.285  0.6192  0.1398 -0.0046
 5449TIP3   OH240541   5.859   1.198   2.198 -0.3015  0.3628 -0.5964
 5449TIP3    H140542   5.805   1.248   2.137 -1.4898 -0.5434 -0.3092
 5449TIP3    H240543   5.806   1.123   2.223  1.0313 -0.4925 -0.1785
 5450TIP3   OH240544   4.314   1.944   0.501 -0.3714 -0.0533  0.3908
 5450TIP3    H140545   4.245   1.886   0.533 -0.7897  0.4900  0.4848
 5450TIP3    H240546   4.267   2.020   0.466  0.1767  0.3604  0.5383
 5451TIP3   OH240547   6.663   2.817   0.728  0.2442  0.0452 -0.1741
 5451TIP3    H140548   6.594   2.801   0.664  0.1912 -1.4000  0.2156
 5451TIP3    H240549   6.718   2.738   0.725 -1.2072 -1.2994  3.3695
 5452TIP3   OH240550   3.952   4.555   0.471 -0.2430  0.2293 -0.0063
 5452TIP3    H140551   4.001   4.564   0.389 -1.7908 -0.8810 -1.1196
 5452TIP3    H240552   3.906   4.638   0.481 -1.4053 -0.2120 -1.2579
 5453TIP3   OH240553   2.785   6.448   3.386 -0.2813 -0.4244 -0.7064
 5453TIP3    H140554   2.722   6.402   3.442  0.9913 -1.2781  0.0602
 5453TIP3    H240555   2.833   6.379   3.340  0.4704  0.1838 -0.8616
 5454TIP3   OH240556   1.412   3.464   3.454 -0.1418 -0.1942  0.3099
 5454TIP3    H140557   1.432   3.557   3.456 -0.6458 -0.0216 -1.2499
 5454TIP3    H240558   1.316   3.460   3.455 -0.1246 -0.7084  0.4306
 5455TIP3   OH240559   1.775   0.592   1.118 -0.0023  0.0512 -0.4677
 5455TIP3    H140560   1.787   0.594   1.213 -0.6685 -1.2523 -0.3277
 5455TIP3    H240561   1.863   0.608   1.083  0.1072  1.3200  0.3415
 5456TIP3   OH240562   6.580   3.757   3.173 -0.6321 -0.5509 -0.2521
 5456TIP3    H140563   6.497   3.719   3.142 -0.5744 -0.1720 -0.9040
 5456TIP3    H240564   6.642   3.735   3.103 -0.0665 -1.2483  0.4572
 5457TIP3   OH240565   2.823   4.326   1.743  0.8163 -0.0319 -0.2209
 5457TIP3    H140566   2.779   4.331   1.658 -0.3196 -0.7165  0.3056
 5457TIP3    H240567   2.762   4.279   1.799  0.9083  1.6786  1.4095
 5458TIP3   OH240568   6.392   5.017   2.638  0.3868 -0.1517 -0.5273
 5458TIP3    H140569   6.383   5.050   2.727 -2.5600 -1.1466 -0.3645
 5458TIP3    H240570   6.468   4.959   2.641  0.1482 -0.4269  1.4136
 5459TIP3   OH240571   1.098   5.498   3.107 -0.0333  0.4966 -0.2239
 5459TIP3    H140572   1.134   5.542   3.183  2.2792  3.1746 -2.6414
 5459TIP3    H240573   1.051   5.566   3.059 -0.6271 -0.8616 -1.6775
 5460TIP3   OH240574   2.663   3.756   4.592 -0.3455  0.0917  0.1272
 5460TIP3    H140575   2.650   3.718   4.505  0.7214 -0.2421  0.1069
 5460TIP3    H240576   2.678   3.849   4.576  1.7319 -0.2557 -0.2407
 5461TIP3   OH240577   3.999   4.128   1.006 -0.2197  1.2525  0.1165
 5461TIP3    H140578   3.932   4.105   1.070 -0.5134 -0.6384 -0.8163
 5461TIP3    H240579   3.955   4.190   0.947 -1.3523 -0.3006 -0.7509
 5462TIP3   OH240580   5.633   4.347   3.089 -0.1861  0.1785 -0.2597
 5462TIP3    H140581   5.568   4.286   3.126 -0.0185 -0.4477 -0.9612
 5462TIP3    H240582   5.630   4.330   2.995  2.1791 -1.0847 -0.1957
 5463TIP3   OH240583   4.512   2.304   2.143 -0.2229 -0.4001  0.2142
 5463TIP3    H140584   4.456   2.278   2.070 -2.0479  3.3863  0.0183
 5463TIP3    H240585   4.473   2.261   2.219 -0.6273 -1.3429 -0.4997
 5464TIP3   OH240586   4.266   1.718   1.848 -0.2574 -0.3287 -0.0670
 5464TIP3    H140587   4.311   1.665   1.915 -0.6179  0.0274  0.4641
 5464TIP3    H240588   4.192   1.664   1.821 -0.2007 -0.4095 -0.0615
 5465TIP3   OH240589   1.966   6.544   1.234  0.4606 -0.3297 -0.0544
 5465TIP3    H140590   1.920   6.509   1.157  0.7452  1.0494 -0.8885
 5465TIP3    H240591   1.970   6.639   1.218  1.9733 -0.2081  0.8864
 5466TIP3   OH240592   3.788   1.329   1.371  0.6891  0.5606  0.3209
 5466TIP3    H140593   3.808   1.235   1.369 -1.5228  0.0495 -0.1132
 5466TIP3    H240594   3.713   1.339   1.312 -0.1658  2.3279  1.6181
 5467TIP3   OH240595   6.389   0.809   1.180 -0.0679 -0.3625 -0.1782
 5467TIP3    H140596   6.461   0.766   1.135 -0.7492  0.4811 -2.1823
 5467TIP3    H240597   6.335   0.737   1.212  0.4380 -0.9967 -0.7243
 5468TIP3   OH240598   1.259   1.372   2.002  0.1013  0.1231 -0.2300
 5468TIP3    H140599   1.325   1.372   2.072  0.9572  1.3186 -1.0127
 5468TIP3    H240600   1.304   1.333   1.927 -0.1925  0.6454 -0.6763
 5469TIP3   OH240601   1.116   5.072   2.213  0.5526 -0.3617  0.3071
 5469TIP3    H140602   1.164   4.993   2.191  0.1134 -0.6916  0.5234
 5469TIP3    H240603   1.043   5.074   2.151  1.0349  0.3274 -0.2617
 5470TIP3   OH240604   1.781   0.658   1.369  0.2116 -0.9378  0.8718
 5470TIP3    H140605   1.766   0.628   1.459 -1.3467 -2.7900  0.0472
 5470TIP3    H240606   1.712   0.723   1.354  0.0454 -1.1396  0.7722
 5471TIP3   OH240607   0.628   3.610   5.348 -0.6744 -0.5003 -0.0243
 5471TIP3    H140608   0.708   3.600   5.401 -0.5767 -3.3434 -0.5403
 5471TIP3    H240609   0.656   3.660   5.272  0.7066 -1.5036 -0.2342
 5472TIP3   OH240610   3.056   0.793   2.667 -0.4667  0.0270 -0.0602
 5472TIP3    H140611   3.113   0.722   2.697  1.2370  1.4234  0.1941
 5472TIP3    H240612   3.089   0.815   2.580 -0.5234  0.9413  0.1371
 5473TIP3   OH240613   2.896   4.113   1.161 -0.2077  0.3627  0.9662
 5473TIP3    H140614   2.844   4.034   1.154 -3.2065  2.0128  2.4821
 5473TIP3    H240615   2.893   4.153   1.074  0.3768 -0.5801  0.4997
 5474TIP3   OH240616   4.175   2.391   2.422 -0.5009  0.5214 -0.2650
 5474TIP3    H140617   4.253   2.337   2.409 -0.4395  0.1067  1.5651
 5474TIP3    H240618   4.112   2.357   2.359  0.2740 -0.1687 -0.6953
 5475TIP3   OH240619   5.265   4.038   3.127 -0.1558  0.5109  0.3126
 5475TIP3    H140620   5.234   4.038   3.036  1.9555  1.2041 -0.4657
 5475TIP3    H240621   5.321   4.115   3.133  1.3661 -0.6391  1.5986
 5476TIP3   OH240622   1.440   0.130   4.064 -0.7168 -0.0843 -0.9114
 5476TIP3    H140623   1.491   0.048   4.059 -2.6593 -1.3600 -0.8124
 5476TIP3    H240624   1.497   0.190   4.111  0.0905 -1.9576  0.6546
 5477TIP3   OH240625   3.542   3.421   4.417 -0.6619  1.1192 -0.2937
 5477TIP3    H140626   3.578   3.440   4.331  1.1700 -1.1775 -0.1460
 5477TIP3    H240627   3.610   3.447   4.479 -1.5401  1.7953  0.4374
 5478TIP3   OH240628   2.741   0.551   2.315  0.2821  0.3859  0.6638
 5478TIP3    H140629   2.756   0.626   2.371  1.0854  0.2867  0.5982
 5478TIP3    H240630   2.724   0.478   2.375 -0.1858  0.5507  0.7346
 5479TIP3   OH240631   0.207   1.676   1.617 -0.4062  0.2381 -0.0890
 5479TIP3    H140632   0.163   1.692   1.534 -1.3036  0.3448  0.3925
 5479TIP3    H240633   0.213   1.762   1.658  1.9408  0.5369 -0.9300
 5480TIP3   OH240634   1.590   4.251   2.718  0.3984  0.4141 -0.6162
 5480TIP3    H140635   1.502   4.221   2.741  0.3859  1.6969  1.3116
 5480TIP3    H240636   1.647   4.177   2.741  0.0497  0.5364  0.7803
 5481TIP3   OH240637   5.926   2.820   1.222  0.0844 -0.4378 -0.4429
 5481TIP3    H140638   5.903   2.738   1.179  1.1942 -0.6456 -0.6796
 5481TIP3    H240639   6.022   2.821   1.222  0.0955  0.9416 -0.6096
 5482TIP3   OH240640   2.466   1.220   3.153  0.1335  0.9734 -0.4456
 5482TIP3    H140641   2.515   1.206   3.234  0.6860  0.2484 -0.8913
 5482TIP3    H240642   2.392   1.275   3.178 -0.7552 -0.7413  0.9190
 5483TIP3   OH240643   2.768   2.839   2.914  0.3088 -0.5788 -0.1821
 5483TIP3    H140644   2.751   2.909   2.850 -1.4663 -0.0195  0.8157
 5483TIP3    H240645   2.780   2.760   2.861  1.2179  0.2665 -1.2886
 5484TIP3   OH240646   4.863   4.643   3.393  0.2788 -0.2097 -0.4770
 5484TIP3    H140647   4.814   4.613   3.317 -0.7680 -0.4285  0.2686
 5484TIP3    H240648   4.826   4.595   3.467  1.7828 -0.5652  0.0949
 5485TIP3   OH240649   0.582   0.073   3.413 -0.2979  0.2202 -1.1923
 5485TIP3    H140650   0.514   0.095   3.476 -0.5341  0.7115 -1.6137
 5485TIP3    H240651   0.544   0.004   3.359 -0.2645  0.1209 -1.0891
 5486TIP3   OH240652   3.730   5.748   2.078 -0.3943  0.5788  0.0334
 5486TIP3    H140653   3.824   5.747   2.059 -0.2295  1.0650  0.8173
 5486TIP3    H240654   3.710   5.659   2.106 -0.5712 -0.0724 -1.9721
 5487TIP3   OH240655   0.480   3.411   2.770 -0.1263  0.2018  0.1205
 5487TIP3    H140656   0.439   3.469   2.833 -1.0276 -1.3000  0.9683
 5487TIP3    H240657   0.435   3.429   2.687  0.6307  1.7320  0.0113
 5488TIP3   OH240658   1.543   3.162   1.444  0.3418 -0.4751  0.2868
 5488TIP3    H140659   1.614   3.197   1.499  0.0549  0.3792  0.1332
 5488TIP3    H240660   1.463   3.194   1.485 -0.0519 -2.4065  1.1374
 5489TIP3   OH240661   4.241   6.558   0.568 -0.2042 -0.3923  0.2601
 5489TIP3    H140662   4.330   6.523   0.575 -0.0109  0.3067  1.6114
 5489TIP3    H240663   4.184   6.485   0.595  0.1298 -0.0846  1.8999
 5490TIP3   OH240664   2.420   0.727   3.595 -0.2559  0.1237 -0.3357
 5490TIP3    H140665   2.343   0.779   3.573 -0.1063 -0.5322 -2.6109
 5490TIP3    H240666   2.489   0.791   3.611 -0.5533  0.6700 -1.1683
 5491TIP3   OH240667   5.279   6.448   0.696 -0.3128  0.1499 -0.3678
 5491TIP3    H140668   5.368   6.469   0.723 -0.5323  0.5977  0.0189
 5491TIP3    H240669   5.238   6.409   0.773 -0.1977 -0.8556 -0.8023
 5492TIP3   OH240670   6.679   2.068   1.385 -0.2920 -0.5306  0.9004
 5492TIP3    H140671   6.694   2.014   1.307 -1.2280  0.1508  0.2284
 5492TIP3    H240672   6.598   2.114   1.367  1.4394  2.6261  0.5747
 5493TIP3   OH240673   3.842   1.198   2.520  0.4652  0.4317  0.2338
 5493TIP3    H140674   3.773   1.236   2.465 -0.1508  0.2035  0.8428
 5493TIP3    H240675   3.910   1.266   2.524  2.5208 -0.9529 -4.2175
 5494TIP3   OH240676   5.714   4.603   0.632  0.1026 -0.5122 -0.2102
 5494TIP3    H140677   5.621   4.622   0.647  0.0871 -2.0827  2.0580
 5494TIP3    H240678   5.730   4.521   0.678  2.8792  0.2753  0.3859
 5495TIP3   OH240679   1.704   2.551   0.830  0.4115  0.4785 -0.1630
 5495TIP3    H140680   1.766   2.523   0.763 -0.6465  0.3773 -1.1510
 5495TIP3    H240681   1.622   2.509   0.805 -0.7252  2.7107 -0.4814
 5496TIP3   OH240682   2.298   0.836   0.698 -0.0527  0.0412  0.1513
 5496TIP3    H140683   2.283   0.741   0.696  1.9769 -0.3799  1.6878
 5496TIP3    H240684   2.392   0.845   0.716  0.0382  2.3738 -1.1403
 5497TIP3   OH240685   5.341   3.712   1.192 -0.1780  0.2388 -0.4830
 5497TIP3    H140686   5.422   3.728   1.144 -0.1222  0.4731 -0.3107
 5497TIP3    H240687   5.277   3.771   1.153 -0.1733  0.3151 -0.3762
 5498TIP3   OH240688   1.314   0.360   1.689 -0.2148  0.4840 -0.1472
 5498TIP3    H140689   1.271   0.276   1.676  0.0387  0.3165  0.0855
 5498TIP3    H240690   1.386   0.360   1.627  0.5149  0.0183  0.6797
 5499TIP3   OH240691   1.146   0.356   2.402  0.4863 -0.6670 -0.1600
 5499TIP3    H140692   1.095   0.369   2.482 -2.0805  0.3239 -1.8419
 5499TIP3    H240693   1.161   0.261   2.399  1.4120 -0.6440  1.8685
 5500TIP3   OH240694   2.642   1.446   1.166  0.2118  0.1099 -0.1996
 5500TIP3    H140695   2.587   1.507   1.215  0.7850  1.1173 -0.7818
 5500TIP3    H240696   2.619   1.461   1.074  0.1429 -0.7790 -0.3425
 5501TIP3   OH240697   6.590   0.259   2.002 -0.3833 -0.0972  0.1311
 5501TIP3    H140698   6.656   0.325   2.025 -1.6093  0.6939  1.4790
 5501TIP3    H240699   6.594   0.254   1.906  2.5415 -1.0599  0.1908
 5502TIP3   OH240700   4.489   0.850   3.008  0.5796  0.7078  0.6738
 5502TIP3    H140701   4.520   0.851   3.099 -0.3860 -1.3582  1.1026
 5502TIP3    H240702   4.420   0.916   3.006 -0.4161 -0.2258  1.9096
 5503TIP3   OH240703   6.521   2.115   2.094 -0.5800  0.4585  0.2065
 5503TIP3    H140704   6.564   2.082   2.015 -2.4636 -0.4409 -0.5096
 5503TIP3    H240705   6.511   2.037   2.149  0.8691  1.1078  1.4375
 5504TIP3   OH240706   1.969   4.328   2.445  0.2603  0.1003 -0.9012
 5504TIP3    H140707   1.994   4.379   2.522 -1.4375  0.1753 -0.3746
 5504TIP3    H240708   2.051   4.286   2.417  0.5654 -1.6526  2.1943
 5505TIP3   OH240709   3.460   1.706   3.253 -0.1121  0.3254  0.2814
 5505TIP3    H140710   3.414   1.780   3.293 -0.1414  0.8089 -0.6239
 5505TIP3    H240711   3.518   1.746   3.188  1.7311 -0.2393  1.4853
 5506TIP3   OH240712   6.464   6.301   2.153 -0.4142  0.4749 -0.4936
 5506TIP3    H140713   6.471   6.250   2.234  2.4698  0.2649 -0.8020
 5506TIP3    H240714   6.554   6.324   2.130 -1.3246  2.4582 -2.4597
 5507TIP3   OH240715   6.594   3.972   2.665 -0.1523  0.0338 -0.5263
 5507TIP3    H140716   6.534   3.986   2.738  1.1108 -1.9798  0.9764
 5507TIP3    H240717   6.536   3.962   2.589 -1.5633  0.7094  0.3995
 5508TIP3   OH240718   0.564   4.846   1.869  1.0037 -0.2053 -0.1925
 5508TIP3    H140719   0.495   4.780   1.875 -0.6715  1.5637  2.3399
 5508TIP3    H240720   0.614   4.836   1.950  0.7408  1.4909  0.2293
 5509TIP3   OH240721   5.650   4.733   0.895  0.2202  0.3878 -0.2448
 5509TIP3    H140722   5.575   4.745   0.953  0.6148  1.0105  0.1482
 5509TIP3    H240723   5.613   4.737   0.807 -0.3763 -0.5106 -0.0552
 5510TIP3   OH240724   5.133   3.026   1.166 -0.5644  0.4293 -0.5356
 5510TIP3    H140725   5.212   3.012   1.217 -0.4264  0.2421 -0.7963
 5510TIP3    H240726   5.115   3.120   1.174  1.5146  1.1683 -3.0729
 5511TIP3   OH240727   6.374   2.323   1.539 -0.1554 -0.5579 -0.1788
 5511TIP3    H140728   6.434   2.323   1.614 -1.3560  2.0485  0.8833
 5511TIP3    H240729   6.429   2.296   1.465  1.7499 -0.4936  1.1293
 5512TIP3   OH240730   1.472   3.889   1.804 -0.0782 -0.0881  0.1058
 5512TIP3    H140731   1.519   3.835   1.741 -2.4201 -0.5720 -1.3372
 5512TIP3    H240732   1.478   3.978   1.770  1.2499  0.1713  0.9117
 5513TIP3   OH240733   3.489   4.910   1.258  0.2128  0.0933  0.1839
 5513TIP3    H140734   3.492   4.840   1.193  1.8107 -2.2607  2.5898
 5513TIP3    H240735   3.415   4.887   1.315 -0.2460  1.2912  0.0962
 5514TIP3   OH240736   4.637   1.260   1.709  0.0420 -0.5687  0.0346
 5514TIP3    H140737   4.632   1.248   1.615 -0.6041 -0.8852  0.1055
 5514TIP3    H240738   4.550   1.291   1.734 -0.2712 -1.9677  0.7350
 5515TIP3   OH240739   5.081   4.657   1.052 -0.2156 -0.4371  0.4865
 5515TIP3    H140740   5.110   4.650   0.961 -2.3832 -0.7706 -0.2319
 5515TIP3    H240741   5.023   4.733   1.053  0.8159  0.3695  1.9115
 5516TIP3   OH240742   2.160   0.864   3.147 -0.5558  0.3510 -0.2729
 5516TIP3    H140743   2.113   0.832   3.224  1.7415 -0.9033  0.7023
 5516TIP3    H240744   2.160   0.790   3.086 -3.2122  1.6372 -2.0390
 5517TIP3   OH240745   0.251   0.842  11.899 -0.2198  0.8090  0.4059
 5517TIP3    H140746   0.320   0.873  11.840 -0.6543 -1.0020 -1.1610
 5517TIP3    H240747   0.261   0.747  11.899 -1.5407  0.6375  1.6668
 5518TIP3   OH240748   2.083   0.616   1.476 -0.6867 -0.0803  0.0062
 5518TIP3    H140749   2.031   0.664   1.411 -1.1930 -0.7660 -0.1065
 5518TIP3    H240750   2.019   0.563   1.523  0.0570 -2.1050 -1.1435
 5519TIP3   OH240751   3.968   5.210   0.768  0.0721  0.2921 -0.0827
 5519TIP3    H140752   4.055   5.249   0.761 -0.2582  0.8285 -1.4272
 5519TIP3    H240753   3.979   5.137   0.830  1.1596  1.1913  0.8332
 5520TIP3   OH240754   1.874   3.738   1.049 -0.1629  0.4223 -0.1894
 5520TIP3    H140755   1.805   3.724   0.984  0.9879 -1.3710 -1.0952
 5520TIP3    H240756   1.924   3.657   1.049 -1.5809 -0.8385  4.8403
 5521TIP3   OH240757   6.466   3.923   0.720  0.1669  0.3604  1.1708
 5521TIP3    H140758   6.534   3.883   0.667 -0.8167  1.7009 -1.2769
 5521TIP3    H240759   6.462   3.869   0.800  2.0508 -1.4626  0.1182
 5522TIP3   OH240760   3.940   2.265   1.087 -0.1819 -0.7700 -0.0419
 5522TIP3    H140761   3.892   2.208   1.147 -1.6324  2.0907  1.7147
 5522TIP3    H240762   4.029   2.269   1.123 -1.0599  1.0212  2.1942
 5523TIP3   OH240763   0.907   3.999   0.707  0.9484 -1.6547 -0.5358
 5523TIP3    H140764   0.936   4.070   0.649  0.5020 -0.2740  0.8413
 5523TIP3    H240765   0.977   3.991   0.772 -1.0295  1.0122  2.2151
 5524TIP3   OH240766   2.331   2.698   4.043 -0.2560  0.1436 -0.5966
 5524TIP3    H140767   2.405   2.660   4.088 -0.7432  0.7246  0.7311
 5524TIP3    H240768   2.283   2.623   4.008  0.8161 -0.2436 -1.2896
 5525TIP3   OH240769   3.387   2.495   0.986 -0.4287 -0.1314  0.0427
 5525TIP3    H140770   3.340   2.574   0.960  0.0228 -0.8152 -3.4249
 5525TIP3    H240771   3.323   2.442   1.032 -1.3082  1.3886  0.6204
 5526TIP3   OH240772   4.141   0.876   2.812 -0.4845 -0.3470 -0.3178
 5526TIP3    H140773   4.205   0.932   2.857  0.0982 -1.2508  0.0130
 5526TIP3    H240774   4.189   0.795   2.794 -1.7861 -1.3870  0.7249
 5527TIP3   OH240775   3.134   0.856   3.332 -0.0056 -0.3366  0.8598
 5527TIP3    H140776   3.102   0.836   3.420  1.5891 -1.3531  1.2481
 5527TIP3    H240777   3.170   0.773   3.300  1.5815  0.5546  0.2103
 5528TIP3   OH240778   6.277   0.556   1.218  0.6505 -0.1657  0.1036
 5528TIP3    H140779   6.335   0.522   1.287 -0.8666 -0.5429  1.2387
 5528TIP3    H240780   6.266   0.483   1.158  0.9347 -0.2562  0.1566
 5529TIP3   OH240781   3.814   2.477  10.290 -0.1351 -0.1854  0.4645
 5529TIP3    H140782   3.823   2.451  10.382 -1.2543  0.0010  0.6434
 5529TIP3    H240783   3.882   2.544  10.278  0.7642 -1.0101  0.8317
 5530TIP3   OH240784   2.985   1.283   3.413 -0.3717  0.4179 -0.0470
 5530TIP3    H140785   3.017   1.302   3.501  0.3278  1.4025 -0.5043
 5530TIP3    H240786   3.028   1.200   3.389  1.9266  1.7013 -0.6426
 5531TIP3   OH240787   3.363   5.782   1.670 -0.2613 -0.5162 -0.2041
 5531TIP3    H140788   3.401   5.782   1.582  0.7424 -0.1043  0.2182
 5531TIP3    H240789   3.282   5.833   1.661  0.3167  0.3353 -0.6896
 5532TIP3   OH240790   0.964   6.011   2.779  0.2575  0.6454  0.5323
 5532TIP3    H140791   0.993   5.987   2.867  1.1025  3.0312  0.9926
 5532TIP3    H240792   0.945   6.104   2.785 -1.4385  0.4864 -1.3969
 5533TIP3   OH240793   3.845   6.613   1.139 -0.5056  0.4422  0.3458
 5533TIP3    H140794   3.941   6.620   1.140 -0.5253  2.0692 -1.6135
 5533TIP3    H240795   3.822   6.616   1.046 -2.5740  2.6542  0.8327
 5534TIP3   OH240796   0.592   4.986   2.367 -0.4225  0.1045  0.0989
 5534TIP3    H140797   0.567   5.059   2.310 -2.2374  0.8163  1.6912
 5534TIP3    H240798   0.605   5.026   2.453 -0.3874 -1.2830  0.7640
 5535TIP3   OH240799   0.929   3.019   2.166  0.3715  0.0629  0.6641
 5535TIP3    H140800   0.850   3.057   2.127 -1.1091 -2.1253  1.3570
 5535TIP3    H240801   0.918   3.029   2.260  1.3032  0.4174  0.7470
 5536TIP3   OH240802   6.406   1.213   2.166  0.0954  0.0070  0.2100
 5536TIP3    H140803   6.431   1.304   2.154  0.7076 -0.0754  0.7869
 5536TIP3    H240804   6.383   1.206   2.259  1.5932 -0.7672  0.5517
 5537TIP3   OH240805   3.648   0.818   2.481 -0.1872 -0.3298 -0.1407
 5537TIP3    H140806   3.658   0.732   2.440  1.4131 -1.3471  2.2113
 5537TIP3    H240807   3.725   0.867   2.452 -0.6496  0.0398 -0.7745
 5538TIP3   OH240808   3.020   4.752   1.192 -0.0274 -0.3116 -0.1878
 5538TIP3    H140809   3.072   4.721   1.266  0.8718 -0.3368 -0.8093
 5538TIP3    H240810   3.068   4.829   1.159 -0.1234 -0.6120 -1.0593
 5539TIP3   OH240811   6.545   0.213   1.709  0.5647  0.4259  0.0625
 5539TIP3    H140812   6.626   0.181   1.669  1.1238  0.9711  0.7375
 5539TIP3    H240813   6.475   0.178   1.653  1.2841  0.4919 -0.9031
 5540TIP3   OH240814   4.591   1.583   0.654  0.3555 -0.1737 -0.2092
 5540TIP3    H140815   4.566   1.649   0.589 -0.4836  0.1106  0.3781
 5540TIP3    H240816   4.643   1.631   0.718 -0.0624 -0.1176  0.0963
 5541TIP3   OH240817   4.702   3.449   4.218  0.0537  0.0580  0.1128
 5541TIP3    H140818   4.699   3.520   4.282  0.9696 -0.2831  0.5572
 5541TIP3    H240819   4.648   3.380   4.256 -0.3662  0.2986 -0.0457
 5542TIP3   OH240820   0.039   1.270   1.135  0.2941  0.7041 -0.3063
 5542TIP3    H140821   0.132   1.292   1.142  0.4054  0.3707 -0.7335
 5542TIP3    H240822   0.002   1.336   1.076 -0.1952  2.1646  1.5444
 5543TIP3   OH240823   1.043   0.125   1.359  0.3823  0.2627 -0.0903
 5543TIP3    H140824   0.969   0.185   1.349 -0.1573 -0.3631  0.0356
 5543TIP3    H240825   1.119   0.182   1.374  0.2783  0.9988 -2.1180
 5544TIP3   OH240826   1.259   1.764   4.203  0.0633 -0.3836 -0.2124
 5544TIP3    H140827   1.249   1.728   4.115  1.4106  0.0435 -0.5675
 5544TIP3    H240828   1.240   1.857   4.194  1.6701 -0.0414 -0.4006
 5545TIP3   OH240829   4.584   1.939   1.615 -0.1663  0.2530 -0.1547
 5545TIP3    H140830   4.676   1.922   1.633 -0.2991  0.3277  0.6362
 5545TIP3    H240831   4.585   1.992   1.535  0.4733  0.2639 -0.1474
 5546TIP3   OH240832   5.666   6.651   2.100 -0.0656  0.8071 -0.1520
 5546TIP3    H140833   5.654   6.586   2.031 -1.7137  0.6352  0.2510
 5546TIP3    H240834   5.706   6.603   2.172 -0.2660  0.4939 -0.2482
 5547TIP3   OH240835   3.494   5.399   0.800  1.1066  0.4362 -0.3229
 5547TIP3    H140836   3.499   5.306   0.822  1.8824  0.7005  0.7137
 5547TIP3    H240837   3.585   5.425   0.787  1.0871  1.4358  1.2279
 5548TIP3   OH240838   3.037   6.195   1.463 -0.1541  0.5768  0.9391
 5548TIP3    H140839   3.125   6.162   1.484 -0.3089 -0.2134  0.4090
 5548TIP3    H240840   2.978   6.129   1.498 -0.5907  1.6145  2.1990
 5549TIP3   OH240841   0.213   4.501   3.129  0.0796 -0.6486 -0.2242
 5549TIP3    H140842   0.213   4.550   3.211 -0.5655 -0.5693 -0.2665
 5549TIP3    H240843   0.122   4.476   3.115 -0.3425  1.6806 -2.3115
 5550TIP3   OH240844   0.610   0.315   3.531 -0.8685  0.0227  0.0702
 5550TIP3    H140845   0.688   0.341   3.581 -0.9495 -0.4590  0.4569
 5550TIP3    H240846   0.632   0.228   3.497 -0.6422  0.5264 -1.1057
 5551TIP3   OH240847   2.334   6.236   2.603  0.1525 -0.2722  0.1627
 5551TIP3    H140848   2.243   6.207   2.602  0.2141 -0.5785  1.4992
 5551TIP3    H240849   2.372   6.194   2.680  1.4137 -0.0870 -0.3229
 5552TIP3   OH240850   6.222   0.439   2.106 -0.7296  0.1692 -0.4202
 5552TIP3    H140851   6.147   0.380   2.098 -2.2321  1.5905  2.0397
 5552TIP3    H240852   6.184   0.527   2.104  0.9688  0.9559  0.1001
 5553TIP3   OH240853   4.894   5.092   4.066 -0.4538  0.2342  0.2389
 5553TIP3    H140854   4.951   5.017   4.053 -1.0516 -0.1393 -0.2775
 5553TIP3    H240855   4.908   5.147   3.989 -0.7018  0.1972  0.1663
 5554TIP3   OH240856   5.122   6.102   3.117 -0.4793  0.2946 -0.0858
 5554TIP3    H140857   5.215   6.090   3.100 -0.3495 -0.8075  1.2107
 5554TIP3    H240858   5.115   6.106   3.212 -1.8223 -0.3368 -0.1322
 5555TIP3   OH240859   4.045   2.227   2.731  0.5005  0.0812 -0.5918
 5555TIP3    H140860   3.999   2.311   2.722  0.3035  0.0057 -0.3103
 5555TIP3    H240861   4.133   2.244   2.699  0.2178  0.1812 -1.3281
 5556TIP3   OH240862   4.970   4.789   3.658 -0.2207  0.2269  0.0329
 5556TIP3    H140863   5.042   4.731   3.633 -0.6690  0.2470 -1.4048
 5556TIP3    H240864   4.891   4.736   3.649 -0.5877  0.8754 -0.7729
 5557TIP3   OH240865   1.613   6.154   1.191 -0.2581  0.0450  0.4534
 5557TIP3    H140866   1.663   6.128   1.114  1.0465  2.7513  0.2568
 5557TIP3    H240867   1.678   6.164   1.260 -0.8809  1.1540  0.9075
 5558TIP3   OH240868   6.686   4.377   2.692  0.7069  0.6416  0.3529
 5558TIP3    H140869   6.730   4.293   2.682  1.2611  1.0943 -1.7320
 5558TIP3    H240870   6.719   4.429   2.618  0.6772  2.8127  1.7858
 5559TIP3   OH240871   3.448   6.352   0.922 -0.5923 -0.2515  0.1852
 5559TIP3    H140872   3.401   6.299   0.987 -0.5357  0.2209  0.6149
 5559TIP3    H240873   3.447   6.440   0.958  1.4765 -0.3956  0.6858
 5560TIP3   OH240874   4.411   1.531   1.997 -0.1930  0.0227  0.1780
 5560TIP3    H140875   4.373   1.511   2.082 -0.5974  0.4262  0.0972
 5560TIP3    H240876   4.409   1.448   1.949 -1.1011  0.0665  0.1290
 5561TIP3   OH240877   6.387   3.130   0.992 -1.0158  0.0143 -0.4389
 5561TIP3    H140878   6.317   3.075   0.956 -0.7957  0.5654 -1.7815
 5561TIP3    H240879   6.358   3.152   1.080 -0.4871 -3.3704  0.7427
 5562TIP3   OH240880   2.041   0.893   1.401  0.4402  0.3197 -0.1837
 5562TIP3    H140881   2.053   0.964   1.464  0.6960  0.5863 -0.5318
 5562TIP3    H240882   1.977   0.926   1.339  0.9517  0.4545 -0.6468
 5563TIP3   OH240883   0.879   1.326   2.338 -0.1336  0.2324  0.4842
 5563TIP3    H140884   0.912   1.315   2.250 -0.8352  0.2140  0.2159
 5563TIP3    H240885   0.811   1.393   2.330 -1.2832 -0.8537  0.7182
 5564TIP3   OH240886   0.000   4.171   1.486 -0.5396 -0.7545 -0.6379
 5564TIP3    H140887   0.077   4.175   1.428 -0.5433  1.5838 -0.5962
 5564TIP3    H240888  -0.030   4.080   1.480  1.7492 -1.5477 -1.2645
 5565TIP3   OH240889   5.277   1.792   1.927 -0.1971 -0.1476 -0.5211
 5565TIP3    H140890   5.253   1.704   1.897  1.2241 -0.7124 -0.0609
 5565TIP3    H240891   5.370   1.786   1.950 -0.4158  1.0948  0.8842
 5566TIP3   OH240892   2.612   4.446   1.580  0.1332 -0.2731  0.1701
 5566TIP3    H140893   2.589   4.521   1.635  0.3401  0.4643 -0.7331
 5566TIP3    H240894   2.529   4.419   1.541  0.4977  1.9029 -2.4749
 5567TIP3   OH240895   4.393   3.520   3.779  0.3596  0.0694 -0.1764
 5567TIP3    H140896   4.444   3.518   3.860 -0.9282  0.7595  0.6968
 5567TIP3    H240897   4.338   3.598   3.788 -0.0160 -0.0063 -1.5954
 5568TIP3   OH240898   1.089   6.146   1.122  0.0609 -0.0057 -0.1428
 5568TIP3    H140899   1.048   6.229   1.148  0.7036  0.6213 -1.0713
 5568TIP3    H240900   1.181   6.157   1.146  0.1252 -0.5124 -0.1513
 5569TIP3   OH240901   0.007   6.650   2.044  0.1598 -0.2016 -0.9416
 5569TIP3    H140902   0.053   6.723   2.002  0.6008 -0.6107 -1.1767
 5569TIP3    H240903  -0.071   6.637   1.991  1.0940 -1.2205 -2.1349
 5570TIP3   OH240904   1.928   4.904   2.983 -0.0327 -0.5769 -0.1030
 5570TIP3    H140905   1.856   4.843   2.973 -1.0042  0.7411 -1.6636
 5570TIP3    H240906   1.999   4.869   2.929 -1.5673  1.0029 -3.4153
 5571TIP3   OH240907   6.121   3.166   4.138 -0.1455  0.9003 -0.2384
 5571TIP3    H140908   6.056   3.136   4.075  0.9068  1.2180 -1.5301
 5571TIP3    H240909   6.205   3.149   4.096  0.6533  0.0970  1.5718
 5572TIP3   OH240910   0.385   3.079   0.446 -0.1621  0.6945  0.0857
 5572TIP3    H140911   0.378   3.164   0.490  1.2337  0.6180  0.5231
 5572TIP3    H240912   0.461   3.038   0.487 -0.1210 -0.2854 -0.9333
 5573TIP3   OH240913   3.009   5.306   2.250  0.7449 -0.5818  0.5431
 5573TIP3    H140914   3.025   5.400   2.251 -1.0119 -0.2142  2.5926
 5573TIP3    H240915   3.078   5.270   2.194  2.4074  1.7372  0.9595
 5574TIP3   OH240916   2.382   3.911   3.590  0.1465 -0.4315  0.0508
 5574TIP3    H140917   2.448   3.859   3.636 -1.6974 -0.0024  3.5063
 5574TIP3    H240918   2.321   3.847   3.554 -0.2810 -0.7456  1.3137
 5575TIP3   OH240919   2.525   0.590   1.320 -0.4272 -0.3140  0.4352
 5575TIP3    H140920   2.501   0.683   1.324 -1.1029 -0.5009  1.1067
 5575TIP3    H240921   2.462   0.547   1.378 -1.1155 -1.4079 -1.0737
 5576TIP3   OH240922   5.637   6.039   3.026  0.0953 -0.1147  0.2221
 5576TIP3    H140923   5.641   6.007   2.936 -1.4316 -0.8386  0.3781
 5576TIP3    H240924   5.701   6.110   3.029 -0.5641  0.6411 -1.7391
 5577TIP3   OH240925   6.416   2.926   1.985 -0.3134 -0.2684  0.5445
 5577TIP3    H140926   6.461   2.939   2.069  0.2636  0.4580  0.1469
 5577TIP3    H240927   6.326   2.903   2.009  0.2382 -1.7099  1.3659
 5578TIP3   OH240928   1.749   3.497   4.115 -0.5556 -0.2788  0.1346
 5578TIP3    H140929   1.823   3.536   4.162 -0.8381  1.0707 -0.5013
 5578TIP3    H240930   1.677   3.558   4.130 -1.5452 -1.5283  0.6727
 5579TIP3   OH240931   3.690   0.967   1.172  0.1444 -0.6058 -0.1525
 5579TIP3    H140932   3.605   0.980   1.214 -0.1415 -0.7715 -0.6616
 5579TIP3    H240933   3.670   0.970   1.078  1.2147  3.2789 -0.4444
 5580TIP3   OH240934   5.517   0.978   1.813  0.0164 -0.5623  0.3149
 5580TIP3    H140935   5.469   1.034   1.874  0.6280  0.7893 -0.4012
 5580TIP3    H240936   5.464   0.978   1.733  0.6170  0.0008 -0.0939
 5581TIP3   OH240937   3.212   2.654   2.682 -0.0327 -0.1933 -0.2992
 5581TIP3    H140938   3.200   2.577   2.736 -1.7434 -0.9414 -1.6387
 5581TIP3    H240939   3.180   2.727   2.735 -0.3358 -0.7037  0.2188
 5582TIP3   OH240940   1.996   4.864   3.691 -0.4433  0.0435  0.2668
 5582TIP3    H140941   2.051   4.928   3.735 -0.3548 -0.3030  0.6717
 5582TIP3    H240942   1.954   4.816   3.762  0.0136 -0.8007 -0.0174
 5583TIP3   OH240943   3.869   1.150   3.556  0.4267 -0.6862 -0.3796
 5583TIP3    H140944   3.830   1.234   3.579  0.5117 -0.4427 -1.1031
 5583TIP3    H240945   3.814   1.085   3.600  0.9156 -0.2279  0.9725
 5584TIP3   OH240946   6.250   2.202   2.278 -0.0379 -0.2271  0.1188
 5584TIP3    H140947   6.159   2.226   2.298 -0.3831 -1.5994  0.2750
 5584TIP3    H240948   6.249   2.183   2.184  0.2616  0.4962 -0.0308
 5585TIP3   OH240949   3.441   5.525   1.233 -0.0530  0.1167  0.2599
 5585TIP3    H140950   3.531   5.492   1.228  0.2200  0.5042  2.2149
 5585TIP3    H240951   3.449   5.613   1.269 -1.2819 -0.2477  1.4980
 5586TIP3   OH240952   2.596   0.081   1.412 -0.3484  0.4094  0.6007
 5586TIP3    H140953   2.604   0.009   1.475 -2.5730  0.2020  0.7392
 5586TIP3    H240954   2.579   0.158   1.467 -1.2459  0.4190  0.3232
 5587TIP3   OH240955   3.809   4.200   1.239  0.0964  0.7580  0.0954
 5587TIP3    H140956   3.827   4.268   1.304 -1.0223  1.5217 -0.3592
 5587TIP3    H240957   3.715   4.204   1.226 -0.1730 -1.6521  0.8475
 5588TIP3   OH240958   0.948   0.715   3.037 -0.0500 -0.0347  0.9459
 5588TIP3    H140959   0.972   0.664   3.114 -1.5043  0.3973  1.7158
 5588TIP3    H240960   0.881   0.663   2.993 -0.1798  0.3344  0.6979
 5589TIP3   OH240961   4.409   5.600   1.200  0.3337  0.0886 -0.3387
 5589TIP3    H140962   4.446   5.529   1.252  1.6541 -0.9870 -2.5766
 5589TIP3    H240963   4.454   5.678   1.232 -0.7314 -0.1043  1.7820
 5590TIP3   OH240964   4.003   3.424   2.164 -0.2752  0.4902  0.3680
 5590TIP3    H140965   4.023   3.511   2.130 -0.0090  0.3625  0.1967
 5590TIP3    H240966   4.046   3.422   2.250 -0.2797  0.5264  0.3712
 5591TIP3   OH240967   0.160   0.872   2.203 -0.2411 -0.5550  0.0657
 5591TIP3    H140968   0.079   0.918   2.182  0.0364  1.6535  3.0835
 5591TIP3    H240969   0.140   0.779   2.191 -2.1258  0.0895 -2.3632
 5592TIP3   OH240970   2.414   2.883   1.094 -0.2804 -0.2148 -0.2409
 5592TIP3    H140971   2.344   2.817   1.096 -0.0166 -0.5163  2.2293
 5592TIP3    H240972   2.473   2.858   1.166  1.5840  0.8910 -1.3066
 5593TIP3   OH240973   2.828   0.624   2.660  0.2540  0.1411  0.0233
 5593TIP3    H140974   2.874   0.706   2.643  1.2759 -0.2125  0.9216
 5593TIP3    H240975   2.738   0.650   2.681  0.0004  0.8531 -1.7222
 5594TIP3   OH240976   0.581   0.714   2.295  0.7590 -0.1515  0.3505
 5594TIP3    H140977   0.512   0.648   2.288 -0.0823  0.6455  0.9031
 5594TIP3    H240978   0.535   0.795   2.314  1.8374  0.4492  0.4913
 5595TIP3   OH240979   5.920   2.869   2.984 -0.6455  0.3353 -0.3625
 5595TIP3    H140980   5.980   2.883   3.057 -0.1700  1.1984 -0.9070
 5595TIP3    H240981   5.862   2.798   3.014 -0.7781  1.0042  1.0338
 5596TIP3   OH240982   1.658   4.759   2.535 -0.7838  0.8072  0.6094
 5596TIP3    H140983   1.739   4.788   2.493 -0.2355 -0.8894  0.4071
 5596TIP3    H240984   1.663   4.793   2.624 -0.6125  2.0510  0.1364
 5597TIP3   OH240985   1.226   3.735   2.813  0.2582  0.1732 -0.3134
 5597TIP3    H140986   1.290   3.761   2.879 -0.4486  2.0133 -0.2874
 5597TIP3    H240987   1.165   3.679   2.860  1.4520 -1.0795 -0.1894
 5598TIP3   OH240988   2.625   2.858   4.430 -0.5972 -0.7977 -0.3929
 5598TIP3    H140989   2.577   2.936   4.400 -0.6846 -1.2835 -1.5503
 5598TIP3    H240990   2.716   2.877   4.407 -0.5465 -0.8335 -0.2223
 5599TIP3   OH240991   0.022   2.627   4.244  0.4884 -0.0794 -0.9213
 5599TIP3    H140992  -0.053   2.595   4.192  0.0876 -0.2356 -0.2629
 5599TIP3    H240993   0.005   2.720   4.255 -0.6813 -0.4549  0.9078
 5600TIP3   OH240994   0.036   3.547   4.528  0.7254 -0.6877 -0.3781
 5600TIP3    H140995   0.123   3.530   4.566  0.7169 -0.8359 -0.4228
 5600TIP3    H240996  -0.025   3.506   4.589  0.4596  1.9202  1.2338
 5601TIP3   OH240997   5.764   5.122   1.927 -0.0408  0.2638 -0.0509
 5601TIP3    H140998   5.743   5.206   1.886  0.3365 -0.2477 -1.3789
 5601TIP3    H240999   5.680   5.088   1.956 -0.0397  1.7267  1.8560
 5602TIP3   OH241000   3.630   1.624   0.920  0.3496  0.2626 -0.6313
 5602TIP3    H141001   3.668   1.641   0.834 -0.8048  0.3523 -1.1418
 5602TIP3    H241002   3.604   1.710   0.952 -0.2724  0.1092 -0.7085
 5603TIP3   OH241003   1.076   3.872   4.813  0.4316 -0.5018 -0.0143
 5603TIP3    H141004   1.005   3.845   4.871  1.0638 -0.2812  0.8763
 5603TIP3    H241005   1.130   3.794   4.803  0.9666 -0.2211  0.6506
 5604TIP3   OH241006   2.658   1.574   2.691  0.3814 -0.1470  0.2396
 5604TIP3    H141007   2.569   1.569   2.725  0.9226 -0.9093  1.6147
 5604TIP3    H241008   2.673   1.668   2.677 -0.3366  0.0553  0.7901
 5605TIP3   OH241009   3.395   4.021   1.019 -0.5006 -0.7557  0.0631
 5605TIP3    H141010   3.333   4.087   0.987 -0.4950 -0.5503  0.4626
 5605TIP3    H241011   3.339   3.949   1.050 -0.5869 -0.2179  1.2003
 5606TIP3   OH241012   6.363   1.795   3.261  0.4226  0.2283  0.1504
 5606TIP3    H141013   6.300   1.801   3.189 -1.2718  0.3430  1.5762
 5606TIP3    H241014   6.333   1.720   3.313  0.8238  0.9242  1.4355
 5607TIP3   OH241015   3.508   4.052   2.763  0.2152  0.2537  0.4004
 5607TIP3    H141016   3.571   4.115   2.798  1.6284 -0.1761 -1.2114
 5607TIP3    H241017   3.471   4.097   2.686 -1.3417  0.4203  1.2155
 5608TIP3   OH241018   4.341   4.664   1.157  0.0773  0.1841  0.5964
 5608TIP3    H141019   4.353   4.658   1.252 -2.0357 -2.9797  0.8164
 5608TIP3    H241020   4.337   4.573   1.128  0.7939  1.0508 -2.6075
 5609TIP3   OH241021   4.591   1.882   2.433  0.6726 -0.5194 -0.2744
 5609TIP3    H141022   4.507   1.907   2.473  0.6665 -1.4576  0.3345
 5609TIP3    H241023   4.568   1.815   2.369  1.1883 -2.7395  1.7496
 5610TIP3   OH241024   0.297   2.874   1.124  0.3773  0.3966  0.1184
 5610TIP3    H141025   0.362   2.934   1.161  1.0033  0.1179 -0.5139
 5610TIP3    H241026   0.344   2.825   1.057 -0.2401 -0.4950  0.3104
 5611TIP3   OH241027   4.298   0.356   3.044  0.0064  0.2727  0.1011
 5611TIP3    H141028   4.215   0.310   3.055  0.4264 -0.3969  0.5692
 5611TIP3    H241029   4.288   0.438   3.092 -0.4603  0.3064 -0.0491
 5612TIP3   OH241030   3.029   6.054   1.078  0.2790  0.8212  0.2839
 5612TIP3    H141031   3.068   6.086   0.996 -0.0180 -0.7851 -0.5201
 5612TIP3    H241032   2.978   6.128   1.110  0.8115  1.6490 -0.7180
 5613TIP3   OH241033   0.797   5.191   2.863 -0.0464  0.4218 -0.1867
 5613TIP3    H141034   0.888   5.211   2.885 -0.3060  0.0878  1.2723
 5613TIP3    H241035   0.803   5.138   2.783  1.1350 -0.5907  0.5364
 5614TIP3   OH241036   0.462   6.254   2.943  0.5351  0.2679 -0.0262
 5614TIP3    H141037   0.438   6.261   2.851  4.7253  2.0178 -1.2283
 5614TIP3    H241038   0.482   6.161   2.955 -0.2632 -0.0170 -0.7969
 5615TIP3   OH241039   0.457   6.590   1.209  0.2020 -0.7125  0.5782
 5615TIP3    H141040   0.420   6.678   1.209 -0.3949 -0.9515 -0.3469
 5615TIP3    H241041   0.515   6.588   1.286  0.6252  0.6482  0.3175
 5616TIP3   OH241042   3.098   2.684   1.112  0.0980  0.3952  0.3578
 5616TIP3    H141043   3.034   2.617   1.087 -0.7646  0.5660  1.9704
 5616TIP3    H241044   3.052   2.767   1.098  1.1267  0.7080 -1.5288
 5617TIP3   OH241045   6.227   4.515   2.643 -0.6089  0.3621  0.1511
 5617TIP3    H141046   6.240   4.601   2.602  0.0997  0.1515 -0.0747
 5617TIP3    H241047   6.211   4.536   2.735 -0.2201  0.7252  0.1389
 5618TIP3   OH241048   2.397   1.754   1.935 -0.0217 -0.1265 -0.3883
 5618TIP3    H141049   2.457   1.809   1.885  0.2760  0.7807  0.9388
 5618TIP3    H241050   2.453   1.692   1.981 -0.0531  0.7282  0.8596
 5619TIP3   OH241051   5.143   5.387   2.683 -0.1920  0.1965  0.3660
 5619TIP3    H141052   5.114   5.330   2.754  1.3681 -0.5233  0.4565
 5619TIP3    H241053   5.131   5.333   2.604  1.5550 -0.3996  0.4803
 5620TIP3   OH241054   5.619   5.572   1.236  0.5389 -0.2243  0.2492
 5620TIP3    H141055   5.596   5.545   1.147 -1.4177  1.2053  0.2585
 5620TIP3    H241056   5.576   5.656   1.248  2.9420  0.9271  1.6628
 5621TIP3   OH241057   4.916   3.695   1.058 -0.2383  0.3742  0.7559
 5621TIP3    H141058   4.831   3.733   1.037  0.9098  3.1188  0.7409
 5621TIP3    H241059   4.931   3.630   0.989 -1.6424  0.9150 -0.0871
 5622TIP3   OH241060   0.202   0.666   0.452 -0.2359 -0.3849  0.4283
 5622TIP3    H141061   0.137   0.599   0.475 -2.1481  0.8189 -1.1817
 5622TIP3    H241062   0.257   0.625   0.386 -1.8336 -0.2382 -1.0710
 5623TIP3   OH241063   1.795   4.663   3.016 -0.6973  0.6407 -0.3326
 5623TIP3    H141064   1.791   4.599   2.944 -1.3440  0.7304 -0.3890
 5623TIP3    H241065   1.821   4.612   3.092 -0.6450  0.4164 -0.4994
 5624TIP3   OH241066   3.848   3.340   1.638  0.4919 -0.4250 -0.0730
 5624TIP3    H141067   3.887   3.339   1.726  1.5718  0.4795 -0.5140
 5624TIP3    H241068   3.923   3.350   1.579 -0.2629 -0.5677 -1.0722
 5625TIP3   OH241069   0.309   4.291   0.536  0.0610 -0.0013 -0.3312
 5625TIP3    H141070   0.284   4.239   0.612  0.8816 -0.0765 -0.1005
 5625TIP3    H241071   0.280   4.240   0.461  1.9022 -1.3919 -0.1428
 5626TIP3   OH241072   5.135   1.512   3.051 -0.2101  0.4682  0.1940
 5626TIP3    H141073   5.067   1.569   3.087 -0.6600  1.2178 -1.7013
 5626TIP3    H241074   5.217   1.549   3.082 -0.5896  0.6846  0.9596
 5627TIP3   OH241075   3.709   4.043   2.457  0.1553 -0.5490 -0.0489
 5627TIP3    H141076   3.796   4.082   2.465  0.6681 -1.8905  1.3631
 5627TIP3    H241077   3.664   4.067   2.538 -1.3062  1.2257 -1.3140
 5628TIP3   OH241078   5.267   2.744   1.273 -0.5975 -0.1297  0.4404
 5628TIP3    H141079   5.361   2.737   1.293 -0.5347  1.1116  0.6683
 5628TIP3    H241080   5.235   2.809   1.336 -1.1030  1.2769 -1.2127
 5629TIP3   OH241081   2.347   4.775   3.142 -0.3489  0.7103  0.3786
 5629TIP3    H141082   2.306   4.694   3.112 -2.8337  2.5474 -1.5150
 5629TIP3    H241083   2.382   4.753   3.229 -1.0409 -2.3031 -0.0052
 5630TIP3   OH241084   4.487   3.599   1.978 -0.3376  0.1431 -0.4609
 5630TIP3    H141085   4.402   3.566   1.948 -1.0771  1.4804  0.1058
 5630TIP3    H241086   4.468   3.687   2.010  1.2992  0.5096 -0.4575
 5631TIP3   OH241087   2.400   4.139   1.110 -0.1955 -0.0629 -0.4204
 5631TIP3    H141088   2.421   4.222   1.066 -0.4447  0.8036  1.0168
 5631TIP3    H241089   2.461   4.135   1.184  2.0270 -2.7678 -2.1891
 5632TIP3   OH241090   2.804   4.436   2.474 -0.4219  0.3963 -0.1259
 5632TIP3    H141091   2.790   4.516   2.423  0.0538 -0.2126 -1.2209
 5632TIP3    H241092   2.716   4.409   2.500 -0.6622  0.7408 -0.5747
 5633TIP3   OH241093   2.972   5.348   3.341 -0.0928  0.8305  0.3493
 5633TIP3    H141094   2.966   5.275   3.280 -1.4450  0.0692  1.3477
 5633TIP3    H241095   2.969   5.426   3.285 -0.5278  0.1509 -0.6083
 5634TIP3   OH241096   0.200   0.146   3.039  0.6696  0.2501 -0.1084
 5634TIP3    H141097   0.176   0.057   3.011 -0.3305 -0.3025  2.2846
 5634TIP3    H241098   0.250   0.132   3.119  0.5766  1.8675  0.2463
 5635TIP3   OH241099   3.832   4.689   3.865  0.0995 -0.2931 -0.0766
 5635TIP3    H141100   3.794   4.768   3.825  1.5630 -0.5866 -2.1880
 5635TIP3    H241101   3.898   4.722   3.925  0.0167  0.1235 -0.2093
 5636TIP3   OH241102   2.683   6.282   3.568 -0.5220  0.1373 -0.2140
 5636TIP3    H141103   2.600   6.260   3.610 -1.8812  0.3108 -2.6026
 5636TIP3    H241104   2.735   6.322   3.637 -1.8177 -1.3645  1.7379
 5637TIP3   OH241105   4.835   4.627   0.743 -0.6825  0.0622 -0.5671
 5637TIP3    H141106   4.920   4.667   0.761 -1.3627  0.5656  2.0083
 5637TIP3    H241107   4.772   4.697   0.758 -1.5946 -0.2283 -2.6987
 5638TIP3   OH241108   6.650   2.079   3.692  0.0711  0.2349 -0.1072
 5638TIP3    H141109   6.650   2.055   3.785 -0.8050  0.8799  0.0754
 5638TIP3    H241110   6.726   2.136   3.682  0.7583 -0.6282 -0.0237
 5639TIP3   OH241111   1.300   5.378   2.318 -0.1332  0.2665 -0.0001
 5639TIP3    H141112   1.279   5.389   2.411 -0.5218  0.7798 -0.1420
 5639TIP3    H241113   1.386   5.336   2.317  0.1697  0.8613  0.5899
 5640TIP3   OH241114   6.537   4.535   2.990 -0.1221  0.3943 -0.2597
 5640TIP3    H141115   6.587   4.569   2.916 -0.6008  0.9791 -0.3165
 5640TIP3    H241116   6.447   4.559   2.971 -0.6933 -2.0483 -0.9609
 5641TIP3   OH241117   5.673   2.534   2.209 -0.7405  0.3921 -0.2115
 5641TIP3    H141118   5.764   2.510   2.229 -1.2120 -1.2001  0.0958
 5641TIP3    H241119   5.667   2.526   2.114 -0.0676  2.3927 -0.4759
 5642TIP3   OH241120   4.417   4.442   3.426 -0.5670  1.0543 -0.0723
 5642TIP3    H141121   4.364   4.493   3.364 -2.5038 -1.2940 -0.4845
 5642TIP3    H241122   4.375   4.458   3.511 -1.6194 -0.3036 -0.3041
 5643TIP3   OH241123   0.420   2.465   2.368 -0.1351  0.1035  0.1860
 5643TIP3    H141124   0.486   2.495   2.305  0.3224  0.4776  0.8294
 5643TIP3    H241125   0.355   2.419   2.315  1.6543 -2.0442 -0.2524
 5644TIP3   OH241126   0.075   6.394   2.144 -0.1862  0.0602 -0.0535
 5644TIP3    H141127   0.149   6.403   2.203 -0.9599 -0.8813  1.0952
 5644TIP3    H241128   0.045   6.484   2.129  2.0172  0.6217 -1.7096
 5645TIP3   OH241129   1.891   1.016   3.388  0.7266  0.3969 -0.4358
 5645TIP3    H141130   1.962   0.976   3.437  0.7452 -0.0392 -0.8103
 5645TIP3    H241131   1.883   1.104   3.424  0.9525  0.1924  0.1233
 5646TIP3   OH241132   3.948   1.670   3.325  0.1243 -0.3362 -0.0216
 5646TIP3    H141133   3.876   1.718   3.366 -0.3707 -0.5190 -0.6594
 5646TIP3    H241134   3.975   1.726   3.252  0.9395 -0.0538  0.4814
 5647TIP3   OH241135   5.382   1.960   2.619 -0.5234 -0.0311  0.3276
 5647TIP3    H141136   5.371   1.893   2.687 -0.0293 -0.8909 -0.4251
 5647TIP3    H241137   5.331   2.035   2.651  0.2799 -0.1525  1.9935
 5648TIP3   OH241138   5.390   3.042   1.314  0.7796  0.1405  0.6453
 5648TIP3    H141139   5.444   3.086   1.249  0.9903 -0.2014  0.5884
 5648TIP3    H241140   5.436   2.961   1.333  1.3366  0.7631  2.0994
 5649TIP3   OH241141   0.377   3.166   2.910 -0.0213 -0.5912  0.2588
 5649TIP3    H141142   0.455   3.124   2.947 -0.7359 -1.2174  1.1286
 5649TIP3    H241143   0.410   3.232   2.850  1.1586 -2.1757 -0.8885
 5650TIP3   OH241144   6.584   0.443   1.129  0.1044  0.4806 -0.1053
 5650TIP3    H141145   6.625   0.502   1.066  0.9898  0.6782  0.6289
 5650TIP3    H241146   6.566   0.364   1.079  2.1285  0.0770 -0.3093
 5651TIP3   OH241147   3.566   2.698   3.430  0.0797  0.8876  0.4319
 5651TIP3    H141148   3.474   2.699   3.455 -0.0548  0.7716 -0.0533
 5651TIP3    H241149   3.577   2.775   3.374 -0.0842  0.0617 -0.7691
 5652TIP3   OH241150   6.533   2.972   2.320 -0.0449 -0.1751  0.3547
 5652TIP3    H141151   6.628   2.963   2.323  0.1638  0.7631 -1.6449
 5652TIP3    H241152   6.518   3.065   2.339 -0.4425 -0.0402 -0.5809
 5653TIP3   OH241153   0.591   3.222   1.433  0.0147 -0.2338 -0.3524
 5653TIP3    H141154   0.588   3.135   1.471  0.5398 -0.3857 -0.6423
 5653TIP3    H241155   0.591   3.281   1.508  3.8848 -0.5774  0.1179
 5654TIP3   OH241156   0.818   3.047   1.680  0.5850 -0.3800  0.1542
 5654TIP3    H141157   0.804   2.971   1.623 -0.3243 -1.6206  1.9285
 5654TIP3    H241158   0.734   3.059   1.726  0.0848  2.8360 -1.2887
 5655TIP3   OH241159   4.440   3.569   2.856 -0.0592  0.0593  0.1951
 5655TIP3    H141160   4.428   3.537   2.946  0.5060  1.5303  0.8201
 5655TIP3    H241161   4.446   3.490   2.803 -0.7261 -0.8352  1.4086
 5656TIP3   OH241162   1.414   1.857   2.004 -0.6175  0.2569 -0.0745
 5656TIP3    H141163   1.349   1.807   1.954 -0.6739 -0.7105  0.9363
 5656TIP3    H241164   1.449   1.920   1.941 -1.8834  0.1883 -0.8822
 5657TIP3   OH241165   2.065   1.564   1.105 -0.2624  0.1897  0.1415
 5657TIP3    H141166   2.012   1.495   1.066  0.2938  0.2747 -0.8020
 5657TIP3    H241167   2.025   1.646   1.075 -0.2089  0.2644  0.2719
 5658TIP3   OH241168   4.129   5.541   2.253  0.1389  0.7366  0.4316
 5658TIP3    H141169   4.187   5.466   2.264 -0.3464  0.2414 -0.2920
 5658TIP3    H241170   4.049   5.517   2.299 -1.4909 -0.8886 -2.9001
 5659TIP3   OH241171   2.951   6.693   1.118  0.0417 -0.1889 -0.2829
 5659TIP3    H141172   3.016   6.690   1.188 -1.1455  2.1351  1.0329
 5659TIP3    H241173   2.871   6.659   1.158 -0.9446  2.2105 -0.0662
 5660TIP3   OH241174   0.347   4.332   4.415 -0.1117 -0.3582 -0.1532
 5660TIP3    H141175   0.300   4.373   4.342 -0.8944 -0.4851  0.2741
 5660TIP3    H241176   0.291   4.347   4.491  0.1626 -1.2036  0.2227
 5661TIP3   OH241177   4.597   0.797   2.756  0.2851  0.0921  0.2943
 5661TIP3    H141178   4.572   0.810   2.848  0.2499  0.6189  0.2161
 5661TIP3    H241179   4.516   0.810   2.708 -0.1327 -2.1267  0.3127
 5662TIP3   OH241180   0.131   2.847   2.751  0.9010 -0.0249  0.3410
 5662TIP3    H141181   0.216   2.863   2.709  0.9263  1.5909  0.9338
 5662TIP3    H241182   0.076   2.812   2.681  1.6242  0.4069 -0.4612
 5663TIP3   OH241183   1.444   1.519   3.928 -0.1422  0.3231 -0.3607
 5663TIP3    H141184   1.363   1.569   3.929  0.4384  1.2838  0.9928
 5663TIP3    H241185   1.422   1.436   3.971 -0.6873  0.0578 -1.1146
 5664TIP3   OH241186   3.225   0.437   1.312  0.0035  0.2637  0.1683
 5664TIP3    H141187   3.154   0.373   1.316  0.5905 -0.3702  0.8846
 5664TIP3    H241188   3.302   0.386   1.288 -0.4118  1.5468 -4.9930
 5665TIP3   OH241189   3.342   3.460   0.803  0.2616 -0.6519  0.4171
 5665TIP3    H141190   3.282   3.518   0.850 -0.0640 -0.5482 -0.1182
 5665TIP3    H241191   3.311   3.372   0.822 -0.2639 -0.5871 -0.1208
 5666TIP3   OH241192   0.487   3.270   5.088 -0.0301 -0.3544  0.1602
 5666TIP3    H141193   0.532   3.192   5.118 -0.3334 -0.3079  0.7594
 5666TIP3    H241194   0.437   3.300   5.165  0.5207  0.7411  0.1096
 5667TIP3   OH241195   3.261   5.884   2.799 -0.1740  0.2375 -0.1633
 5667TIP3    H141196   3.348   5.844   2.790  0.5027  1.9247 -1.7328
 5667TIP3    H241197   3.200   5.810   2.798  1.2530 -1.1081  2.3686
 5668TIP3   OH241198   0.942   4.634   3.329 -0.0920 -0.1907 -0.1280
 5668TIP3    H141199   0.924   4.725   3.304  2.7895  0.8309  1.0759
 5668TIP3    H241200   0.998   4.601   3.259 -0.8244 -0.9488 -0.3715
 5669TIP3   OH241201   6.677   2.543   1.921 -0.2829 -0.2223  0.6274
 5669TIP3    H141202   6.771   2.528   1.926 -0.1893  0.1882  0.1896
 5669TIP3    H241203   6.650   2.562   2.011 -0.1513 -1.4803  0.9476
 5670TIP3   OH241204   4.625   4.774   0.474  0.0329 -0.0193  0.9437
 5670TIP3    H141205   4.536   4.758   0.504 -0.3038  1.1879  0.6445
 5670TIP3    H241206   4.616   4.840   0.406  1.0680 -0.6232  0.1965
 5671TIP3   OH241207   5.495   2.632   5.061 -0.0381 -0.0689  0.3369
 5671TIP3    H141208   5.497   2.542   5.095 -0.7793  0.6230  2.3615
 5671TIP3    H241209   5.541   2.627   4.977 -1.2247 -2.5958 -0.2611
 5672TIP3   OH241210   3.774   4.142   3.655  0.1639  0.4563  0.1430
 5672TIP3    H141211   3.855   4.154   3.606  0.3485 -1.4410 -0.0851
 5672TIP3    H241212   3.750   4.051   3.641 -1.6511  0.7816  0.7834
 5673TIP3   OH241213   3.525   5.931   1.880  0.1728 -0.4685 -0.0404
 5673TIP3    H141214   3.565   6.002   1.831 -2.4326  0.6140 -0.7401
 5673TIP3    H241215   3.520   5.859   1.817  0.6673 -0.5027 -0.0467
 5674TIP3   OH241216   5.851   3.245   2.506  0.6901  0.0886  0.2425
 5674TIP3    H141217   5.781   3.181   2.520  1.5868 -1.2061 -0.9339
 5674TIP3    H241218   5.929   3.205   2.545  0.9482  1.2081  0.9317
 5675TIP3   OH241219   4.945   5.467   3.055 -0.4342  0.1275 -0.8249
 5675TIP3    H141220   5.010   5.399   3.038 -0.9660 -1.1753  1.8372
 5675TIP3    H241221   4.927   5.505   2.969  1.3966 -1.6822 -2.1100
 5676TIP3   OH241222   3.726   4.918   2.137 -0.4221 -0.2266  1.0661
 5676TIP3    H141223   3.733   4.825   2.159 -0.0126 -0.2952  0.6399
 5676TIP3    H241224   3.799   4.959   2.184  0.5100 -0.3841 -0.2132
 5677TIP3   OH241225   4.391   0.391   2.054  0.3342  0.0304  0.3309
 5677TIP3    H141226   4.318   0.331   2.048  0.4134  0.0122 -0.6270
 5677TIP3    H241227   4.411   0.397   2.148  2.4382 -3.9988  0.3393
 5678TIP3   OH241228   3.014   5.873   3.166 -0.4326 -0.0727 -0.3971
 5678TIP3    H141229   2.957   5.912   3.232  0.8499  0.7915  0.2468
 5678TIP3    H241230   3.078   5.822   3.216 -0.9284 -1.4654 -1.1334
 5679TIP3   OH241231   1.945   1.785   2.994 -0.1417  0.5441  0.0337
 5679TIP3    H141232   1.883   1.856   3.012 -1.3803  0.1659 -2.4167
 5679TIP3    H241233   2.006   1.821   2.930 -1.5475 -0.8874 -2.2375
 5680TIP3   OH241234   4.972   0.954   1.838 -0.2158 -0.0393 -0.1540
 5680TIP3    H141235   4.942   1.041   1.814 -0.4761  0.2484  1.1210
 5680TIP3    H241236   4.897   0.897   1.821 -0.2151  0.0689 -0.5157
 5681TIP3   OH241237   4.344   3.786   0.915 -0.2538  0.3332  0.3655
 5681TIP3    H141238   4.363   3.844   0.842 -1.1846 -0.1202 -0.2447
 5681TIP3    H241239   4.275   3.830   0.964 -1.0885 -0.3324 -0.2003
 5682TIP3   OH241240   1.970   0.462   3.575 -0.4307  0.3597  0.4335
 5682TIP3    H141241   1.993   0.430   3.662 -0.7067 -1.5178 -0.1301
 5682TIP3    H241242   2.034   0.421   3.517 -0.3095  1.5059 -0.2846
 5683TIP3   OH241243   4.350   6.697   1.997 -0.9934  0.4569 -0.1325
 5683TIP3    H141244   4.288   6.659   2.060 -0.1137 -1.6242 -0.4565
 5683TIP3    H241245   4.434   6.698   2.044 -0.0873 -2.1211 -1.5152
 5684TIP3   OH241246   2.419   3.436   3.793  0.3729 -0.2717 -0.6148
 5684TIP3    H141247   2.485   3.444   3.724  1.2173  2.8914  0.4308
 5684TIP3    H241248   2.467   3.453   3.874 -1.1303 -1.2863  0.5413
 5685TIP3   OH241249   3.364   4.653   2.432  0.3058  0.1957 -0.2413
 5685TIP3    H141250   3.295   4.640   2.497 -0.9671 -1.5135 -1.8285
 5685TIP3    H241251   3.317   4.668   2.350  1.7959 -1.0219 -1.3676
 5686TIP3   OH241252   4.679   3.829   0.949 -0.7848  0.6125 -0.0581
 5686TIP3    H141253   4.731   3.903   0.978 -1.8977  1.4698 -0.1793
 5686TIP3    H241254   4.624   3.864   0.879 -0.6263 -0.5709 -0.8063
 5687TIP3   OH241255   6.001   2.018   2.010 -0.6076  0.8193 -0.0396
 5687TIP3    H141256   5.935   2.082   1.982 -0.4223  0.9421 -0.1997
 5687TIP3    H241257   6.084   2.059   1.989 -0.4997  0.2176 -0.8272
 5688TIP3   OH241258   2.750   3.473   1.247 -0.5127  0.4032  0.2805
 5688TIP3    H141259   2.781   3.540   1.308  0.6456  0.9111 -0.8080
 5688TIP3    H241260   2.661   3.500   1.224 -0.7684  0.4844  1.3264
 5689TIP3   OH241261   6.293   5.179   3.542  0.3432 -0.0492 -0.2520
 5689TIP3    H141262   6.261   5.098   3.503 -1.4366  0.1639  0.6538
 5689TIP3    H241263   6.297   5.160   3.636 -0.8183  1.1101  0.0561
 5690TIP3   OH241264   4.179   3.933   1.693 -0.0056 -0.2990 -0.1258
 5690TIP3    H141265   4.173   3.844   1.659  2.1511 -0.0159 -1.4760
 5690TIP3    H241266   4.161   3.989   1.617  2.6862  0.3416 -0.4149
 5691TIP3   OH241267   4.167   0.032   2.898  0.0357  0.3673  0.1480
 5691TIP3    H141268   4.219  -0.021   2.958  0.9252 -1.2737 -1.9277
 5691TIP3    H241269   4.216   0.030   2.815 -2.2566  0.5060 -1.3077
 5692TIP3   OH241270   3.872   0.934   2.333 -0.0852  0.3179 -0.0195
 5692TIP3    H141271   3.927   0.962   2.259 -0.2086  0.0875 -0.2000
 5692TIP3    H241272   3.850   1.016   2.378 -0.1550  0.4793 -0.3390
 5693TIP3   OH241273   4.931   2.577   3.407  0.0298  0.7876 -0.0375
 5693TIP3    H141274   4.901   2.598   3.496  0.4937  0.2678  0.2483
 5693TIP3    H241275   4.977   2.655   3.378 -0.2652  1.0220  0.1192
 5694TIP3   OH241276   1.348   0.682   0.953  0.0599 -0.2212  0.5137
 5694TIP3    H141277   1.405   0.733   1.011 -0.1164  0.9745 -0.3199
 5694TIP3    H241278   1.403   0.609   0.924  0.8963  0.4355  0.3911
 5695TIP3   OH241279   6.279   1.409   1.645 -0.1827 -0.4282 -0.5527
 5695TIP3    H141280   6.189   1.415   1.675 -0.8715 -4.8717 -1.0585
 5695TIP3    H241281   6.324   1.360   1.714  1.8049  1.2388 -0.5613
 5696TIP3   OH241282   5.685   5.362   3.791  0.5767 -0.0169  0.0274
 5696TIP3    H141283   5.632   5.361   3.712 -1.0012  0.7579  1.0212
 5696TIP3    H241284   5.697   5.456   3.810 -0.0150 -0.1799  1.2880
 5697TIP3   OH241285   1.384   2.228   2.602  0.2344  0.2303 -0.6557
 5697TIP3    H141286   1.326   2.155   2.579 -0.1074  0.3521 -0.1895
 5697TIP3    H241287   1.334   2.306   2.578 -0.3111  0.3776  0.8729
 5698TIP3   OH241288   6.653   4.096   3.495 -0.0968  0.5854  0.3284
 5698TIP3    H141289   6.687   4.038   3.428 -1.8608  2.0295 -1.9647
 5698TIP3    H241290   6.587   4.044   3.541  0.6415 -0.1943  0.5399
 5699TIP3   OH241291   6.162   1.548   1.394 -0.5029  0.0051  0.1974
 5699TIP3    H141292   6.134   1.640   1.394 -2.0190 -0.4213  0.0049
 5699TIP3    H241293   6.187   1.531   1.485 -3.1195 -0.1627  0.9724
 5700TIP3   OH241294   0.489   0.294   3.241 -0.4802 -0.2744  0.1072
 5700TIP3    H141295   0.496   0.272   3.334 -2.9601  3.6660  1.4801
 5700TIP3    H241296   0.421   0.236   3.208  0.1171 -1.4164  0.7873
 5701TIP3   OH241297   6.602   0.868   3.179  0.4673 -0.0823  0.3224
 5701TIP3    H141298   6.571   0.871   3.270 -1.5009 -0.0872 -0.2908
 5701TIP3    H241299   6.697   0.873   3.186  0.3403  3.2322  2.2743
 5702TIP3   OH241300   1.272   5.459   2.563  0.4877 -0.0228 -0.2330
 5702TIP3    H141301   1.308   5.409   2.636  0.0258 -1.2497 -0.8033
 5702TIP3    H241302   1.308   5.547   2.573  2.2250 -0.7305  0.2174
 5703TIP3   OH241303   6.315   4.034   2.135  0.9099 -0.4541 -0.2238
 5703TIP3    H141304   6.253   4.084   2.082  2.1665  1.2863 -0.1618
 5703TIP3    H241305   6.297   3.942   2.114 -1.3549 -0.0078 -0.5137
 5704TIP3   OH241306   1.767   2.124   3.485  0.4337  0.1322 -0.4143
 5704TIP3    H141307   1.844   2.090   3.439 -0.4432 -0.6371 -1.3435
 5704TIP3    H241308   1.712   2.047   3.500  0.4824  0.4324  1.5563
 5705TIP3   OH241309   0.170   1.678   0.417 -0.2120 -0.4202  0.3526
 5705TIP3    H141310   0.128   1.627   0.486  0.9730 -0.1611  1.3203
 5705TIP3    H241311   0.117   1.664   0.339 -1.0658 -1.4665  1.1071
 5706TIP3   OH241312   1.112   3.758   3.248  0.1515 -0.3307  0.1239
 5706TIP3    H141313   1.105   3.847   3.213 -1.9867  0.0692  1.4167
 5706TIP3    H241314   1.110   3.770   3.343  1.8561 -1.6552  0.3633
 5707TIP3   OH241315   5.821   4.820   2.875 -0.1571 -0.0530  0.1896
 5707TIP3    H141316   5.770   4.828   2.795 -2.7224  0.9411  1.8100
 5707TIP3    H241317   5.762   4.776   2.937  2.6022 -3.1454  0.9070
 5708TIP3   OH241318   5.923   2.254   2.217  0.5466  0.1900  0.4966
 5708TIP3    H141319   5.911   2.347   2.237 -2.2003 -0.0660  0.4990
 5708TIP3    H241320   5.939   2.252   2.122 -0.9738  0.6384  0.1937
 5709TIP3   OH241321   3.324   1.182   3.963 -0.0702  0.0305 -0.2759
 5709TIP3    H141322   3.417   1.159   3.969 -0.6039 -2.0768  1.3478
 5709TIP3    H241323   3.279   1.102   3.989 -2.3728  0.9193 -1.3266
 5710TIP3   OH241324   3.653   1.248   2.332  0.0069  0.2247  0.3827
 5710TIP3    H141325   3.601   1.181   2.288  1.4172 -0.9139  0.3746
 5710TIP3    H241326   3.717   1.276   2.267  1.2615 -0.5153  1.2490
 5711TIP3   OH241327   3.620   4.589   0.630  0.3163 -0.2799 -0.3472
 5711TIP3    H141328   3.706   4.606   0.593  1.5962 -1.6250  1.7774
 5711TIP3    H241329   3.611   4.494   0.626 -0.8738 -0.1884 -0.1229
 5712TIP3   OH241330   4.181   0.086   3.452  0.0071 -0.1893 -0.1626
 5712TIP3    H141331   4.245   0.058   3.519 -1.3631 -0.0299  1.2637
 5712TIP3    H241332   4.175   0.181   3.463 -0.4005 -0.1926 -0.3536
 5713TIP3   OH241333   4.029   1.899   3.134  0.2633 -0.2928  0.4763
 5713TIP3    H141334   4.005   1.947   3.214  0.5889 -1.7893  1.5256
 5713TIP3    H241335   4.017   1.963   3.064 -3.5986  0.1022  1.2356
 5714TIP3   OH241336   1.527   4.033   1.128 -0.1217 -0.7603 -0.6873
 5714TIP3    H141337   1.545   3.947   1.091 -0.1880 -0.7006 -0.8566
 5714TIP3    H241338   1.448   4.020   1.181  0.5996 -1.1010  0.3276
 5715TIP3   OH241339   5.141   0.543   0.388 -0.1317 -0.3503  0.4004
 5715TIP3    H141340   5.181   0.513   0.470 -0.4463 -1.9474  0.0002
 5715TIP3    H241341   5.180   0.488   0.321 -0.2208  0.6343 -0.4833
 5716TIP3   OH241342   3.637   1.554   2.340  0.2970  0.6383 -0.0816
 5716TIP3    H141343   3.692   1.569   2.417 -1.6041 -0.0739  1.5019
 5716TIP3    H241344   3.634   1.459   2.329 -0.3658  0.6767 -0.3217
 5717TIP3   OH241345   4.991   3.951   3.007  0.1408 -0.4974 -0.7260
 5717TIP3    H141346   4.923   3.981   2.947 -0.9637 -1.2594  0.1100
 5717TIP3    H241347   4.971   3.996   3.090  0.0908 -1.4469 -0.2167
 5718TIP3   OH241348   3.725   6.031   1.183  0.1122  0.1107 -0.2364
 5718TIP3    H141349   3.768   6.111   1.154 -0.2652 -0.3916 -2.3569
 5718TIP3    H241350   3.790   5.962   1.171 -0.0691 -0.1178  0.0742
 5719TIP3   OH241351   0.507   4.796   0.776  0.4185 -0.1234  0.0839
 5719TIP3    H141352   0.559   4.842   0.841 -1.3847 -0.3161  1.7413
 5719TIP3    H241353   0.555   4.715   0.759 -0.5349 -1.6424  3.6623
 5720TIP3   OH241354   5.676   0.466   1.043 -0.3896  0.0149  0.2231
 5720TIP3    H141355   5.623   0.526   0.990  0.9671 -0.0285 -1.2552
 5720TIP3    H241356   5.667   0.499   1.133 -1.9317  0.7046 -0.1525
 5721TIP3   OH241357   1.144   3.604   2.570  0.4392  0.3152 -0.2685
 5721TIP3    H141358   1.192   3.628   2.490 -0.3789  0.9568 -0.5890
 5721TIP3    H241359   1.178   3.663   2.637  1.4798 -0.5598 -0.0151
 5722TIP3   OH241360   6.029   4.696   1.642  0.1270  0.4789  0.0632
 5722TIP3    H141361   6.062   4.698   1.732 -0.1140 -1.3665  0.2471
 5722TIP3    H241362   5.977   4.776   1.633  1.0421  1.2309  1.2011
 5723TIP3   OH241363   0.763   5.375   1.021 -0.3732  0.3357 -0.2087
 5723TIP3    H141364   0.691   5.349   0.963  0.5071  0.9648 -1.6353
 5723TIP3    H241365   0.837   5.322   0.991 -0.1042  0.0327  0.9433
 5724TIP3   OH241366   5.229   3.857   0.645 -0.3556 -0.2097  0.5462
 5724TIP3    H141367   5.255   3.919   0.713  1.1206 -0.2237  0.0507
 5724TIP3    H241368   5.270   3.891   0.565 -1.5812 -0.4980 -0.2282
 5725TIP3   OH241369   0.505   0.353   0.730 -0.1901 -0.2907  0.1431
 5725TIP3    H141370   0.473   0.288   0.667 -1.7694 -0.0947  0.7027
 5725TIP3    H241371   0.544   0.302   0.800  1.6757 -0.5127 -0.9819
 5726TIP3   OH241372   0.538   4.771   1.163  0.4763 -0.1547  0.3615
 5726TIP3    H141373   0.524   4.860   1.196  2.4460 -0.1168  1.2439
 5726TIP3    H241374   0.555   4.718   1.240  1.3647 -0.8603 -0.2857
 5727TIP3   OH241375   2.292   6.689   3.823 -0.1375  0.2766  0.5045
 5727TIP3    H141376   2.312   6.595   3.819  3.0235  0.8123  0.9097
 5727TIP3    H241377   2.197   6.693   3.835 -0.5215 -2.8170 -0.5874
 5728TIP3   OH241378   3.159   1.829   2.215 -0.5426 -0.0447  0.0866
 5728TIP3    H141379   3.102   1.803   2.288  1.5347 -2.4980  0.9693
 5728TIP3    H241380   3.164   1.751   2.160  0.2678  0.8388 -1.1441
 5729TIP3   OH241381   5.677   4.019   3.655 -0.2813  0.0524  0.1922
 5729TIP3    H141382   5.767   4.008   3.627 -0.6018  0.3699 -1.0274
 5729TIP3    H241383   5.638   3.932   3.649 -0.4673  0.2005 -0.8100
 5730TIP3   OH241384   5.250   4.094   1.916  0.9774 -0.5620 -0.1617
 5730TIP3    H141385   5.238   4.102   2.011 -0.2551 -0.6137 -0.2971
 5730TIP3    H241386   5.260   4.000   1.901 -0.0648 -0.6750 -0.2023
 5731TIP3   OH241387   2.453   4.908   3.620 -0.0887 -0.4323  0.8847
 5731TIP3    H141388   2.426   4.956   3.698 -1.8144  0.7417 -0.3449
 5731TIP3    H241389   2.514   4.968   3.575  1.2154 -1.2671  1.4904
 5732TIP3   OH241390   4.755   4.668   2.281 -0.4862  0.2151 -0.0091
 5732TIP3    H141391   4.774   4.656   2.188 -1.1185  2.2641 -0.4506
 5732TIP3    H241392   4.839   4.691   2.320 -0.2756 -0.3613 -0.1137
 5733TIP3   OH241393   3.744   2.640   2.418 -0.0762 -0.4506 -0.4083
 5733TIP3    H141394   3.705   2.555   2.442 -1.8629  0.6208  0.7364
 5733TIP3    H241395   3.684   2.676   2.353  0.0574  0.3997 -0.0729
 5734TIP3   OH241396   0.375   2.149   2.842  0.5040 -0.3009 -0.3282
 5734TIP3    H141397   0.454   2.096   2.835 -0.1194 -1.2969 -0.1059
 5734TIP3    H241398   0.333   2.143   2.756 -1.3544 -3.1391  0.6475
 5735TIP3   OH241399   1.432   3.251   0.844  0.7820  0.5433  1.5626
 5735TIP3    H141400   1.526   3.233   0.835  0.3207 -2.5154  1.9324
 5735TIP3    H241401   1.405   3.201   0.921 -1.5032 -0.3574  0.2831
 5736TIP3   OH241402   0.093   2.318   3.712 -0.3545 -0.9748  0.1833
 5736TIP3    H141403   0.055   2.402   3.738 -0.8269 -1.1919  0.2111
 5736TIP3    H241404   0.187   2.333   3.712 -0.4410 -0.4116  0.0782
 5737TIP3   OH241405   0.572   2.768   3.057 -0.2132 -0.1111  0.1643
 5737TIP3    H141406   0.557   2.700   2.991 -0.3041  0.2273 -0.1686
 5737TIP3    H241407   0.654   2.809   3.030 -0.5191  0.3747 -0.0422
 5738TIP3   OH241408   5.491   4.392   2.813  0.3099 -0.4607  0.4358
 5738TIP3    H141409   5.569   4.448   2.806 -0.4725  0.5435 -0.6739
 5738TIP3    H241410   5.418   4.453   2.820 -0.3673 -1.3871  2.1300
 5739TIP3   OH241411   0.081   4.962   3.997 -0.2263  0.1502 -0.0490
 5739TIP3    H141412   0.095   4.995   4.085 -0.6698  1.6341 -0.5053
 5739TIP3    H241413   0.064   4.869   4.008  3.3213 -0.5053  1.0991
 5740TIP3   OH241414   2.944   2.635   3.052  0.0320  0.6185  0.4167
 5740TIP3    H141415   2.887   2.619   2.977  1.2979  0.9981 -0.6612
 5740TIP3    H241416   2.885   2.642   3.126 -1.1429 -1.4239 -0.2563
 5741TIP3   OH241417   4.684   4.839   1.542  0.0837  0.1000 -0.4966
 5741TIP3    H141418   4.669   4.786   1.464 -1.0321  1.0325 -0.9447
 5741TIP3    H241419   4.727   4.779   1.604  0.5955 -0.7715 -1.6481
 5742TIP3   OH241420   5.539   5.821   1.127  0.0557 -0.3535 -0.7607
 5742TIP3    H141421   5.616   5.876   1.139 -0.5442  0.8077 -1.9790
 5742TIP3    H241422   5.495   5.857   1.050 -1.1800 -1.6044 -0.6846
 5743TIP3   OH241423   1.119   3.172  11.375  0.3951  0.1810  0.6331
 5743TIP3    H141424   1.122   3.143  11.466  1.6340  0.1322  0.5956
 5743TIP3    H241425   1.113   3.091  11.324 -3.6222  0.2321  0.6790
 5744TIP3   OH241426   5.326   0.629   1.590 -0.2282  0.1618  0.5379
 5744TIP3    H141427   5.347   0.643   1.682 -0.8297  0.1507  0.6861
 5744TIP3    H241428   5.398   0.668   1.542  1.8416 -2.7356  1.0143
 5745TIP3   OH241429   0.189   0.140   2.696  0.3368 -0.0945 -0.2843
 5745TIP3    H141430   0.247   0.146   2.621  1.8220 -0.3987  0.8053
 5745TIP3    H241431   0.124   0.074   2.671  0.6027  0.0551 -1.4045
 5746TIP3   OH241432   1.255   6.222   1.731  0.1168 -0.9971 -0.2113
 5746TIP3    H141433   1.241   6.132   1.762  0.7147 -1.7060 -1.8876
 5746TIP3    H241434   1.334   6.251   1.777 -0.2029 -1.2362  0.5063
 5747TIP3   OH241435   6.162   2.611   2.540  0.0779  0.5116 -0.0433
 5747TIP3    H141436   6.237   2.603   2.599  0.2152 -1.9815 -0.4258
 5747TIP3    H241437   6.196   2.659   2.465  1.4130 -0.7821 -0.3162
 5748TIP3   OH241438   4.808   5.359   2.638 -0.4690 -0.2083  0.4192
 5748TIP3    H141439   4.740   5.298   2.610 -2.8450  1.0196  3.0956
 5748TIP3    H241440   4.857   5.311   2.705  1.0886 -0.8875 -1.1093
 5749TIP3   OH241441   1.250   4.781   2.139 -0.2335  0.8495 -0.0271
 5749TIP3    H141442   1.312   4.752   2.073 -0.9151  1.9036 -1.1653
 5749TIP3    H241443   1.303   4.797   2.217  0.5507 -0.6301 -0.2158
 5750TIP3   OH241444   1.389   4.292   1.901  0.1267  0.3026  0.8292
 5750TIP3    H141445   1.478   4.258   1.896 -0.9716 -2.6221 -2.6763
 5750TIP3    H241446   1.341   4.230   1.956 -0.2534  0.6056  0.8532
 5751TIP3   OH241447   6.585   5.053   2.971  0.1613  0.5880 -0.0348
 5751TIP3    H141448   6.588   4.970   2.924  0.3239 -0.6695  2.0488
 5751TIP3    H241449   6.523   5.038   3.043  1.0379  1.8814  1.0457
 5752TIP3   OH241450   6.276   0.735   1.747  0.2250  0.0923 -0.3693
 5752TIP3    H141451   6.193   0.735   1.795  0.5098  1.9308  0.2139
 5752TIP3    H241452   6.272   0.657   1.692 -0.4608 -1.7134  2.0590
 5753TIP3   OH241453   3.713   1.745   3.411  0.2060  0.3611  0.4064
 5753TIP3    H141454   3.625   1.752   3.373 -0.3336  2.7438  1.8619
 5753TIP3    H241455   3.700   1.694   3.491  0.0326  0.9789  0.7877
 5754TIP3   OH241456   1.875   5.125   1.276 -0.0545  0.1186  0.7448
 5754TIP3    H141457   1.838   5.037   1.276  1.5034 -0.5702  0.4606
 5754TIP3    H241458   1.886   5.146   1.183 -0.0981  0.4712  0.8184
 5755TIP3   OH241459   0.786   6.598   1.975 -0.3526 -0.0620  0.7760
 5755TIP3    H141460   0.704   6.587   1.927 -1.6300  1.0389  2.5358
 5755TIP3    H241461   0.781   6.688   2.009  0.5568 -0.7004  2.7348
 5756TIP3   OH241462   0.721   6.303   0.621 -0.2168 -0.9499  0.0693
 5756TIP3    H141463   0.716   6.211   0.648 -0.3677 -0.5644  1.4612
 5756TIP3    H241464   0.796   6.307   0.561  2.3112 -1.3656  2.9087
 5757TIP3   OH241465   2.822   6.228   3.216  0.5741  0.1043  0.0379
 5757TIP3    H141466   2.911   6.193   3.216  0.2251 -0.8078  0.0520
 5757TIP3    H241467   2.801   6.240   3.123  0.1113 -1.2885 -0.0598
 5758TIP3   OH241468   5.322   2.561   2.192 -0.4787  0.6430 -0.8622
 5758TIP3    H141469   5.255   2.611   2.145 -0.6814  1.6228  0.4144
 5758TIP3    H241470   5.397   2.620   2.198 -0.8145  0.9391  0.9000
 5759TIP3   OH241471   1.719   2.101   1.659 -0.4414 -0.8294  0.0071
 5759TIP3    H141472   1.742   2.041   1.588  1.2200  1.6590 -1.7215
 5759TIP3    H241473   1.682   2.177   1.614  0.6456  0.8375  1.7865
 5760TIP3   OH241474   4.650   5.074   1.652 -0.3669 -0.0339  0.5588
 5760TIP3    H141475   4.574   5.089   1.596 -0.0893 -1.7568 -0.3483
 5760TIP3    H241476   4.678   4.985   1.631  1.6698  0.4092  1.1430
 5761TIP3   OH241477   0.750   2.147   2.643 -0.8858  0.5078  0.0636
 5761TIP3    H141478   0.754   2.241   2.663 -0.8769  0.4249  0.4634
 5761TIP3    H241479   0.731   2.106   2.727  1.5833 -0.0428  0.4217
 5762TIP3   OH241480   0.157   5.865   2.180 -0.6225 -0.4169 -0.0302
 5762TIP3    H141481   0.121   5.858   2.091 -1.6301 -1.5091  0.4250
 5762TIP3    H241482   0.083   5.895   2.232  0.2149  1.1421  0.3089
 5763TIP3   OH241483   0.908   6.499   2.213  0.4274 -0.0216  0.2150
 5763TIP3    H141484   0.902   6.510   2.118  1.0344  0.8340  0.2647
 5763TIP3    H241485   0.831   6.544   2.247  0.0906 -0.5227  0.1134
 5764TIP3   OH241486   0.713   4.062   2.326 -0.2878  0.5520 -0.1296
 5764TIP3    H141487   0.631   4.026   2.293 -1.0538  0.2502  1.9861
 5764TIP3    H241488   0.774   4.054   2.252 -1.7800 -0.4665 -1.3033
 5765TIP3   OH241489   4.328   1.671   3.352  0.0143 -0.2670 -0.8801
 5765TIP3    H141490   4.418   1.650   3.374 -0.5683 -0.0167  2.0841
 5765TIP3    H241491   4.329   1.765   3.333  0.3135 -0.2093 -0.5713
 5766TIP3   OH241492   5.453   5.812   2.957 -0.2220  0.2318  0.2923
 5766TIP3    H141493   5.534   5.789   2.911 -0.1877  0.8672  0.0206
 5766TIP3    H241494   5.428   5.897   2.920  0.2544  1.1848  2.0430
 5767TIP3   OH241495   4.997   4.022   4.338 -0.3395 -0.2225 -0.9823
 5767TIP3    H141496   5.053   3.944   4.331  1.0607  0.4948  1.0692
 5767TIP3    H241497   5.041   4.087   4.283  0.6139  0.1701  0.1873
 5768TIP3   OH241498   5.654   4.864   2.361 -0.1233 -0.2856 -1.1164
 5768TIP3    H141499   5.747   4.846   2.345 -0.1012 -0.2628 -1.0136
 5768TIP3    H241500   5.608   4.810   2.297 -0.0849 -1.3410 -0.2813
 5769TIP3   OH241501   6.671   3.685   3.871 -0.2678 -0.1831 -0.3973
 5769TIP3    H141502   6.723   3.741   3.928  0.2236 -1.2920  0.2754
 5769TIP3    H241503   6.635   3.619   3.930 -1.3317 -0.2324 -1.0755
 5770TIP3   OH241504   2.295   0.160   0.944  0.6227 -0.7853  0.2854
 5770TIP3    H141505   2.351   0.173   1.020  0.8621  0.0730 -0.0240
 5770TIP3    H241506   2.265   0.070   0.951  2.5479 -1.4785  0.1347
 5771TIP3   OH241507   5.095   6.092   3.382  0.6330 -0.1104  0.3187
 5771TIP3    H141508   5.042   6.161   3.422  2.3576 -0.0084  2.6538
 5771TIP3    H241509   5.176   6.091   3.434  1.9649 -1.7921 -1.6320
 5772TIP3   OH241510   4.329   3.696   1.240  0.0859 -0.1179  0.8564
 5772TIP3    H141511   4.303   3.673   1.329 -0.8124  1.3063  0.9914
 5772TIP3    H241512   4.246   3.706   1.192  0.5519 -0.8203 -0.1399
 5773TIP3   OH241513   2.073   3.022   3.660 -0.1846  0.0959 -0.1933
 5773TIP3    H141514   1.992   3.048   3.615  0.0350  0.0817 -0.6023
 5773TIP3    H241515   2.103   3.102   3.702 -0.9081 -0.1143  0.7474
 5774TIP3   OH241516   1.210   2.303   3.358  0.1680  0.3874  0.5803
 5774TIP3    H141517   1.271   2.229   3.356 -0.8874 -0.5724  1.8776
 5774TIP3    H241518   1.246   2.366   3.295  1.5197 -0.8886  0.0189
 5775TIP3   OH241519   5.096   0.327   2.308  0.4174 -0.5023  0.3652
 5775TIP3    H141520   5.115   0.344   2.215  1.4609  3.3990  1.1019
 5775TIP3    H241521   5.004   0.352   2.318  0.5946  0.1033  0.5388
 5776TIP3   OH241522   2.685   3.896   1.142  0.5056 -0.5713  0.0517
 5776TIP3    H141523   2.722   3.828   1.198  0.5609 -0.8148 -0.2801
 5776TIP3    H241524   2.644   3.848   1.070  1.3449 -0.2196 -0.6781
 5777TIP3   OH241525   5.565   5.171   2.250 -0.3396  0.6207  0.0143
 5777TIP3    H141526   5.620   5.115   2.305 -0.7679  1.6211  1.5233
 5777TIP3    H241527   5.578   5.137   2.161  1.5145 -0.1411  0.5215
 5778TIP3   OH241528   1.997   1.353   2.168 -0.2879  0.4379  0.0945
 5778TIP3    H141529   1.971   1.274   2.214 -0.5080  0.8444  0.6857
 5778TIP3    H241530   1.938   1.357   2.093  0.2256 -0.3483 -0.3663
 5779TIP3   OH241531   2.224   4.731   1.225  0.6778  0.1524  0.0109
 5779TIP3    H141532   2.187   4.784   1.296  0.1188  0.8301 -0.7521
 5779TIP3    H241533   2.241   4.794   1.155 -0.0088 -0.6681 -0.9301
 5780TIP3   OH241534   6.007   1.391   1.707  0.5287  0.5761  0.0255
 5780TIP3    H141535   5.984   1.403   1.615 -0.3743  0.7894  0.2668
 5780TIP3    H241536   5.971   1.305   1.730 -0.7861  1.2479  0.6137
 5781TIP3   OH241537   4.898   1.203   1.759  0.0143  0.6516  0.1718
 5781TIP3    H141538   4.917   1.268   1.826 -1.1192 -0.8671  2.1228
 5781TIP3    H241539   4.811   1.226   1.727 -0.1844  0.4146  0.5221
 5782TIP3   OH241540   5.409   4.558   1.802  0.2321  0.2331  0.6705
 5782TIP3    H141541   5.420   4.463   1.805  1.7849  0.3480 -0.4085
 5782TIP3    H241542   5.375   4.575   1.715 -0.6317  0.6348  1.0777
 5783TIP3   OH241543   3.897   5.729   1.241 -0.5362 -0.0497  0.1263
 5783TIP3    H141544   3.909   5.734   1.147 -1.9451 -0.0841 -0.0715
 5783TIP3    H241545   3.981   5.699   1.275  0.3213  1.0195 -1.0081
 5784TIP3   OH241546   4.262   5.230   2.627 -0.0052  0.2629  0.0983
 5784TIP3    H141547   4.237   5.310   2.673 -1.6460 -0.0245 -0.1942
 5784TIP3    H241548   4.330   5.190   2.680  0.9298  1.9176  0.1707
 5785TIP3   OH241549   0.262   4.911   2.888 -0.2594 -0.6172 -0.2428
 5785TIP3    H141550   0.338   4.963   2.863  0.9669 -0.4296  3.2562
 5785TIP3    H241551   0.187   4.968   2.873  0.5922  0.3287 -0.9709
 5786TIP3   OH241552   2.946   4.086   2.327  0.1280 -0.2177  0.4326
 5786TIP3    H141553   2.973   3.994   2.323 -0.1280 -0.3763  1.8339
 5786TIP3    H241554   2.963   4.112   2.418 -0.1212  1.0254  0.1415
 5787TIP3   OH241555   1.207   3.134   4.177 -0.5588  0.3300 -0.2724
 5787TIP3    H141556   1.183   3.109   4.266 -0.8381 -0.2631 -0.5111
 5787TIP3    H241557   1.285   3.081   4.158  0.6953  1.8759  0.3171
 5788TIP3   OH241558   6.106   4.735   3.861  0.4677 -0.2957 -0.7228
 5788TIP3    H141559   6.078   4.765   3.947  1.0355  0.3214 -0.7380
 5788TIP3    H241560   6.033   4.755   3.803  0.2795 -0.2540 -0.4725
 5789TIP3   OH241561   2.022   0.395   3.002 -0.2552 -0.1370  0.2745
 5789TIP3    H141562   2.004   0.449   3.079  1.9430  1.7486 -0.4057
 5789TIP3    H241563   2.063   0.316   3.038 -1.3839 -0.3576  1.1482
 5790TIP3   OH241564   6.657   5.987   3.009 -0.2060  0.1861  0.6338
 5790TIP3    H141565   6.711   5.963   3.084 -0.3143 -1.4557  0.2277
 5790TIP3    H241566   6.623   5.904   2.976 -0.8403  0.9443 -0.7315
 5791TIP3   OH241567   6.614   3.636   4.308 -0.0720 -0.8512  0.1937
 5791TIP3    H141568   6.650   3.598   4.388 -0.2354 -2.1510 -0.3138
 5791TIP3    H241569   6.554   3.703   4.338 -0.1435 -1.3317  1.1674
 5792TIP3   OH241570   6.324   5.781   1.845 -0.3472  0.5137 -0.0474
 5792TIP3    H141571   6.380   5.762   1.770  0.1528  1.4231  0.0865
 5792TIP3    H241572   6.374   5.843   1.898  0.0162 -1.2721  1.8688
 5793TIP3   OH241573   5.426   5.445   1.850  0.4352 -0.2654  0.4054
 5793TIP3    H141574   5.477   5.379   1.802 -0.3001  0.9684 -2.2894
 5793TIP3    H241575   5.335   5.428   1.824  0.0862  0.8781  0.8426
 5794TIP3   OH241576   5.208   1.185   1.392  0.2314  0.4100 -0.0513
 5794TIP3    H141577   5.119   1.155   1.407  0.6488 -1.2566 -0.6120
 5794TIP3    H241578   5.221   1.257   1.453 -1.5641  0.8326 -0.1326
 5795TIP3   OH241579   5.129   1.397   2.748 -0.0015  0.6184 -0.0041
 5795TIP3    H141580   5.129   1.350   2.831 -1.6475  1.1347  0.3356
 5795TIP3    H241581   5.083   1.479   2.768 -0.6299  0.6507 -1.4703
 5796TIP3   OH241582   6.580   1.061   1.860  0.0698 -0.9322  0.1722
 5796TIP3    H141583   6.610   1.052   1.950  0.0587  0.2518  0.3190
 5796TIP3    H241584   6.486   1.042   1.864 -0.4119  1.2763  0.8696
 5797TIP3   OH241585   5.642   3.640   4.187 -0.3517  0.6670 -0.0507
 5797TIP3    H141586   5.577   3.705   4.216 -0.4535  1.2537 -1.5033
 5797TIP3    H241587   5.651   3.580   4.261 -2.9927  0.2140 -0.0300
 5798TIP3   OH241588   5.858   5.569   3.940  0.1820 -0.0502 -0.2272
 5798TIP3    H141589   5.905   5.591   3.859  0.2184 -1.1202 -0.5056
 5798TIP3    H241590   5.789   5.635   3.946  2.3164  2.2560  0.7585
 5799TIP3   OH241591   1.420   5.011   1.907 -0.1164  0.0854 -0.4000
 5799TIP3    H141592   1.359   4.938   1.896  0.7420 -0.8769  0.9109
 5799TIP3    H241593   1.413   5.034   1.999  0.8548  0.5404 -0.4349
 5800TIP3   OH241594   4.687   5.788   1.931  0.6335  0.0747 -0.0171
 5800TIP3    H141595   4.705   5.806   1.838 -1.0286  1.3202 -0.1415
 5800TIP3    H241596   4.688   5.693   1.937  0.5822 -0.0352 -1.3495
 5801TIP3   OH241597   0.583   3.089   3.052 -0.7588  0.0820  0.6558
 5801TIP3    H141598   0.628   3.006   3.066  1.1499  0.6969 -1.2565
 5801TIP3    H241599   0.591   3.135   3.136  1.2215 -0.3254  0.7371
 5802TIP3   OH241600   0.689   0.339   1.893 -0.3451 -0.4768  0.3948
 5802TIP3    H141601   0.665   0.416   1.945  0.7820  0.3157 -0.2164
 5802TIP3    H241602   0.734   0.282   1.955  0.5003  0.2181  0.4355
 5803TIP3   OH241603   2.024   0.631   0.976  0.3123  0.1369  0.2518
 5803TIP3    H141604   2.063   0.719   0.971 -0.0587  0.2968  0.1088
 5803TIP3    H241605   2.081   0.577   0.922 -0.9466  0.8554 -1.9629
 5804TIP3   OH241606   5.918   1.955   0.996 -0.6248  0.2043  0.1705
 5804TIP3    H141607   5.942   2.045   1.015 -1.1387 -0.0598  2.3166
 5804TIP3    H241608   5.825   1.960   0.974 -0.7211  0.1796  0.5613
 5805TIP3   OH241609   2.319   1.897   1.303 -0.5836 -0.2013 -0.2132
 5805TIP3    H141610   2.377   1.823   1.286 -2.1959 -1.3783 -0.8355
 5805TIP3    H241611   2.279   1.878   1.387  0.4370  0.9909  0.5897
 5806TIP3   OH241612   6.517   3.365   1.009 -0.2604 -0.5435 -0.4467
 5806TIP3    H141613   6.609   3.348   1.030  0.3253  1.3453 -1.3405
 5806TIP3    H241614   6.482   3.279   0.985  1.0337 -1.4333  0.6628
 5807TIP3   OH241615   3.280   6.439   0.723 -0.6259  1.2887  0.3770
 5807TIP3    H141616   3.295   6.439   0.818 -1.7343  0.8417  0.5598
 5807TIP3    H241617   3.187   6.423   0.713 -0.7348  2.4307 -0.7676
 5808TIP3   OH241618   4.578   5.519   0.736 -0.0081  0.3093 -0.3138
 5808TIP3    H141619   4.624   5.452   0.685 -0.7618 -0.4708  0.0042
 5808TIP3    H241620   4.601   5.499   0.827  0.0391  0.7031 -0.2368
 5809TIP3   OH241621   2.615   6.622   1.057 -0.4772  0.2783  0.0864
 5809TIP3    H141622   2.625   6.717   1.070 -0.2788  0.1569  0.8974
 5809TIP3    H241623   2.640   6.607   0.966 -0.6751  1.0316 -0.0973
 5810TIP3   OH241624   2.891   2.838   1.408  0.6624 -0.0692  0.8531
 5810TIP3    H141625   2.812   2.798   1.443  0.6136  0.7323  1.6750
 5810TIP3    H241626   2.962   2.803   1.463  0.9998 -1.3473 -0.3236
 5811TIP3   OH241627   4.954   3.265   1.626  0.0489 -0.1338  0.4077
 5811TIP3    H141628   4.865   3.242   1.599  0.1997 -1.2169  0.7839
 5811TIP3    H241629   5.007   3.189   1.601  0.7370  0.1887  0.8501
 5812TIP3   OH241630   3.938   3.336   1.903  0.5044 -0.4650 -1.0065
 5812TIP3    H141631   3.977   3.370   1.984  0.7113  1.2234 -1.7610
 5812TIP3    H241632   3.950   3.241   1.908 -0.5631 -0.5431  1.4660
 5813TIP3   OH241633   1.454   2.739   0.577 -0.3687 -0.7500 -0.1274
 5813TIP3    H141634   1.416   2.681   0.642 -0.4235  0.6972  1.1794
 5813TIP3    H241635   1.425   2.826   0.602  0.1490 -0.0758 -1.7227
 5814TIP3   OH241636   1.489   4.557   2.544  0.1281  0.1990  0.1465
 5814TIP3    H141637   1.554   4.627   2.547  2.6117 -1.8996  3.9727
 5814TIP3    H241638   1.540   4.479   2.519 -1.3353 -1.1504  1.1927
 5815TIP3   OH241639   5.461   3.835   1.705 -0.3470 -0.3905 -0.3093
 5815TIP3    H141640   5.402   3.811   1.777 -0.4598 -0.4166 -0.4087
 5815TIP3    H241641   5.539   3.870   1.748  0.0050 -1.3496 -0.1398
 5816TIP3   OH241642   6.409   1.351   2.753 -0.3526 -0.0597 -0.3928
 5816TIP3    H141643   6.385   1.399   2.832 -1.7554 -0.7574 -0.3585
 5816TIP3    H241644   6.504   1.348   2.755 -0.3564 -0.2487  1.3838
 5817TIP3   OH241645   4.436   2.638   1.977 -0.0613  0.0323  0.2194
 5817TIP3    H141646   4.451   2.617   1.885 -1.0466 -0.2457  0.1138
 5817TIP3    H241647   4.424   2.733   1.977  0.1573  0.0615  0.0944
 5818TIP3   OH241648   5.968   2.193   0.829 -0.2705 -0.0942 -0.0358
 5818TIP3    H141649   6.051   2.183   0.782  0.0840  1.0613  0.3069
 5818TIP3    H241650   5.901   2.180   0.762  0.2306  1.3332 -0.8565
 5819TIP3   OH241651   4.723   2.359   1.715  0.3669  0.6066 -0.0312
 5819TIP3    H141652   4.652   2.318   1.764  1.6305 -1.4310  0.1957
 5819TIP3    H241653   4.693   2.361   1.625 -0.5581  1.1387  0.2784
 5820TIP3   OH241654   2.893   1.681   2.098 -1.2804  0.1634 -0.0994
 5820TIP3    H141655   2.983   1.650   2.086 -0.5832  1.4916  1.4649
 5820TIP3    H241656   2.847   1.649   2.019  1.2075  1.9208 -2.4498
 5821TIP3   OH241657   5.170   0.297   0.833  0.1345  0.0687 -0.1120
 5821TIP3    H141658   5.083   0.303   0.871  0.6964  1.4719  1.0593
 5821TIP3    H241659   5.229   0.328   0.902  1.4470  0.3012 -1.2823
 5822TIP3   OH241660   0.925   1.118   1.863  0.2596 -0.3852 -0.0310
 5822TIP3    H141661   0.892   1.045   1.915 -0.0117 -0.8832 -0.8750
 5822TIP3    H241662   0.942   1.080   1.777 -1.2428  0.8483 -0.9156
 5823TIP3   OH241663   6.694   2.787   3.273 -0.3841 -0.5007 -0.0789
 5823TIP3    H141664   6.679   2.879   3.254 -2.0928 -0.0813  2.7501
 5823TIP3    H241665   6.783   2.770   3.243 -0.8722  1.3250 -2.9726
 5824TIP3   OH241666   0.308   4.223   3.660 -0.0061  0.4805 -0.2864
 5824TIP3    H141667   0.315   4.277   3.581 -0.8240  0.2830 -0.5039
 5824TIP3    H241668   0.360   4.145   3.640  0.7220  0.9261 -0.1847
 5825TIP3   OH241669   1.480   2.595   2.096  0.7295 -0.0086  0.1962
 5825TIP3    H141670   1.471   2.658   2.025 -0.5153 -1.0687 -0.6559
 5825TIP3    H241671   1.442   2.514   2.061  1.3662 -0.9629  1.5853
 5826TIP3   OH241672   3.297   2.168   1.538 -0.4596  0.2928  0.2162
 5826TIP3    H141673   3.380   2.177   1.586 -1.6905  1.0842  2.3155
 5826TIP3    H241674   3.283   2.073   1.533 -0.0135  0.1731  0.9563
 5827TIP3   OH241675   6.419   0.982   1.634  0.4573 -0.9937  0.7463
 5827TIP3    H141676   6.347   0.936   1.591  0.0179 -0.8839  1.3370
 5827TIP3    H241677   6.392   0.986   1.726  0.8138 -0.1823  0.8244
 5828TIP3   OH241678   4.791   5.762   1.241  0.3449  0.1826 -0.2071
 5828TIP3    H141679   4.860   5.750   1.306 -0.2868 -1.4713  0.2045
 5828TIP3    H241680   4.712   5.775   1.293  0.0080 -0.0612 -0.6508
 5829TIP3   OH241681   5.203   5.971   1.872  0.2293  0.2902 -0.5450
 5829TIP3    H141682   5.298   5.982   1.866  0.3104  0.0605  0.1794
 5829TIP3    H241683   5.179   6.015   1.954  0.0196 -1.4407  0.3710
 5830TIP3   OH241684   0.152   4.224   3.073 -0.6115 -0.7808  0.0360
 5830TIP3    H141685   0.193   4.180   2.998 -3.0468  0.3636 -2.1534
 5830TIP3    H241686   0.179   4.315   3.066 -0.1819 -0.8100  1.1153
 5831TIP3   OH241687   6.587   1.167   3.310 -0.0434 -0.1325 -0.3905
 5831TIP3    H141688   6.672   1.189   3.349 -0.2878 -2.3738  1.6585
 5831TIP3    H241689   6.559   1.089   3.357 -1.7484 -1.4110 -3.2597
 5832TIP3   OH241690   0.797   3.619   0.476 -0.4972 -0.4031 -0.4162
 5832TIP3    H141691   0.778   3.668   0.396 -0.4958  0.7515  0.2709
 5832TIP3    H241692   0.722   3.635   0.533 -0.8517 -1.8339 -0.4534
 5833TIP3   OH241693   2.975   0.069   3.331 -0.4639  0.4937 -0.6175
 5833TIP3    H141694   2.988   0.113   3.247  3.0167 -1.2642 -1.1923
 5833TIP3    H241695   3.050   0.096   3.384 -1.1421 -0.5309  0.9417
 5834TIP3   OH241696   6.062   2.397   3.640 -0.3329  0.0528  0.2760
 5834TIP3    H141697   6.137   2.453   3.623  0.1165 -0.5331  0.3064
 5834TIP3    H241698   6.100   2.313   3.666 -0.8769 -1.5425 -3.5231
 5835TIP3   OH241699   1.448   1.299   2.164 -0.8409 -0.3828 -0.2557
 5835TIP3    H141700   1.423   1.219   2.210  1.0643 -1.1450 -0.4464
 5835TIP3    H241701   1.490   1.353   2.231  0.8141 -0.9724 -0.7514
 5836TIP3   OH241702   1.899   1.875   4.057  0.0416 -0.4706  0.1357
 5836TIP3    H141703   1.870   1.933   3.987  0.2703  0.8449  1.0996
 5836TIP3    H241704   1.966   1.820   4.016  0.7365  0.8037 -0.4819
 5837TIP3   OH241705   2.789   3.056   3.099  0.1174  0.1329  0.2674
 5837TIP3    H141706   2.885   3.061   3.097  0.0880  2.0881  1.5340
 5837TIP3    H241707   2.768   2.980   3.045  2.3991 -0.6221  0.3452
 5838TIP3   OH241708   2.047   3.196   0.730 -0.4998 -0.0283 -0.4908
 5838TIP3    H141709   2.075   3.110   0.760  1.1059  1.2680  2.1712
 5838TIP3    H241710   2.100   3.214   0.653  0.6708 -0.6250  0.1598
 5839TIP3   OH241711   4.244   5.306   2.352  0.1938 -0.0295 -0.5684
 5839TIP3    H141712   4.166   5.254   2.333  1.5135 -2.7260  0.8340
 5839TIP3    H241713   4.250   5.305   2.448  2.6123 -1.0483 -0.6661
 5840TIP3   OH241714   4.946   3.739   0.644  0.4173 -0.0673  0.7244
 5840TIP3    H141715   4.972   3.803   0.711  0.6868  0.4528  0.1394
 5840TIP3    H241716   5.025   3.688   0.628  0.4137 -0.0525  0.6564
 5841TIP3   OH241717   0.095   1.567   2.896 -0.1039  0.4744 -0.3660
 5841TIP3    H141718   0.168   1.595   2.840 -0.9713  0.8037 -1.3750
 5841TIP3    H241719   0.018   1.603   2.853 -0.7058  2.2087  1.9611
 5842TIP3   OH241720   3.224   1.133   3.362 -0.0834 -0.8672 -0.0770
 5842TIP3    H141721   3.178   1.051   3.345  3.0874 -2.9378  0.5516
 5842TIP3    H241722   3.247   1.167   3.276 -0.5967 -1.1442 -0.3234
 5843TIP3   OH241723   4.760   2.406   3.283 -0.7022 -0.2250 -0.1550
 5843TIP3    H141724   4.815   2.463   3.336 -0.2723 -0.7778 -0.0110
 5843TIP3    H241725   4.771   2.440   3.193 -1.2662  0.5704  0.0579
 5844TIP3   OH241726   5.094   2.187   0.962  0.2940  0.0466 -0.7114
 5844TIP3    H141727   5.188   2.180   0.978  0.1705  0.4168  0.2365
 5844TIP3    H241728   5.086   2.247   0.888  0.8371 -0.7062 -1.3923
 5845TIP3   OH241729   5.067   5.253   2.432  0.4257  0.4373 -0.0897
 5845TIP3    H141730   5.119   5.261   2.352  1.1599 -2.1318  0.0370
 5845TIP3    H241731   4.978   5.238   2.401 -0.0578  3.2346 -0.3160
 5846TIP3   OH241732   5.065   2.995   2.559 -0.7791 -0.5483  0.0744
 5846TIP3    H141733   4.995   3.053   2.530 -1.6173 -1.0134  1.0838
 5846TIP3    H241734   5.146   3.038   2.530 -1.3860  0.9435  0.4994
 5847TIP3   OH241735   1.725   6.280   2.225  0.4962 -0.3551 -0.0551
 5847TIP3    H141736   1.809   6.257   2.265  0.0771 -0.1384  0.9792
 5847TIP3    H241737   1.659   6.237   2.279 -0.1343  0.7479  0.1061
 5848TIP3   OH241738   0.286   3.780   4.772  0.0532 -0.7474  0.4007
 5848TIP3    H141739   0.211   3.790   4.830  0.3776  0.1040  0.6935
 5848TIP3    H241740   0.362   3.801   4.827  0.5781 -2.2042  0.2813
 5849TIP3   OH241741   5.255   6.370   1.920 -0.0175 -0.6538  0.3100
 5849TIP3    H141742   5.220   6.297   1.971  0.2578 -1.0317 -0.0304
 5849TIP3    H241743   5.341   6.339   1.890 -0.3379 -0.6039 -0.7121
 5850TIP3   OH241744   6.500   5.722   2.962  0.5233 -0.3781  0.0527
 5850TIP3    H141745   6.532   5.733   3.052 -3.2358  2.5642  1.3195
 5850TIP3    H241746   6.463   5.633   2.961  3.6709 -1.8166  0.1327
 5851TIP3   OH241747   4.894   0.735   0.695 -0.2765  0.0089 -0.2716
 5851TIP3    H141748   4.937   0.660   0.737 -2.8060 -2.1665 -1.2757
 5851TIP3    H241749   4.961   0.770   0.636  0.9242 -1.6073  0.0410
 5852TIP3   OH241750   2.846   4.358   2.991  0.4877  0.0465 -0.4670
 5852TIP3    H141751   2.903   4.341   3.066 -0.1796  1.2717  0.3381
 5852TIP3    H241752   2.902   4.399   2.926  0.4170  1.9373  0.6045
 5853TIP3   OH241753   4.865   4.175   3.191  0.2400 -0.2952  0.0723
 5853TIP3    H141754   4.879   4.221   3.109 -1.4162 -0.0124 -0.0770
 5853TIP3    H241755   4.791   4.220   3.232 -0.2223 -1.6463  0.7997
 5854TIP3   OH241756   4.188   2.515   3.569  0.5340  0.4810  0.2674
 5854TIP3    H141757   4.113   2.502   3.512  1.2740  0.1156 -0.6430
 5854TIP3    H241758   4.159   2.482   3.654 -0.2305  0.0718 -0.1396
 5855TIP3   OH241759   1.973   1.695   2.119  0.0936  0.0164  0.1044
 5855TIP3    H141760   1.997   1.628   2.055 -2.2297 -1.0162  0.2097
 5855TIP3    H241761   1.985   1.778   2.072  1.1197 -0.5616 -0.6996
 5856TIP3   OH241762   4.248   3.377   0.806  0.8485  0.6710 -0.3342
 5856TIP3    H141763   4.172   3.347   0.757  0.6032  0.9040 -0.0937
 5856TIP3    H241764   4.222   3.460   0.844  1.3274  0.9025 -0.5016
 5857TIP3   OH241765   5.525   4.652   2.216  0.3878  0.2022  0.0146
 5857TIP3    H141766   5.585   4.579   2.201 -0.8226 -0.8579  0.1654
 5857TIP3    H241767   5.446   4.611   2.252 -0.2012  1.6305  0.4115
 5858TIP3   OH241768   2.057   6.222   1.625 -0.0679  0.2652  0.2777
 5858TIP3    H141769   2.097   6.140   1.596  1.5610  0.4889  1.7548
 5858TIP3    H241770   2.086   6.287   1.561  0.0693  0.0052  0.0736
 5859TIP3   OH241771   2.678   0.245   3.859  0.2296  0.6337  0.1283
 5859TIP3    H141772   2.661   0.320   3.916 -0.4904  0.2705  0.4011
 5859TIP3    H241773   2.727   0.184   3.913 -1.3307 -0.1549  0.7242
 5860TIP3   OH241774   5.429   6.307   1.213  0.2209 -0.2255  0.4542
 5860TIP3    H141775   5.396   6.397   1.214 -1.6042 -0.7927 -1.3245
 5860TIP3    H241776   5.383   6.264   1.285 -1.0428 -0.3591 -0.3934
 5861TIP3   OH241777   0.826   3.391   3.741 -0.4560  0.1580  0.3748
 5861TIP3    H141778   0.918   3.416   3.743 -0.1401 -0.8015 -0.8058
 5861TIP3    H241779   0.786   3.441   3.811  0.2982  3.1497 -1.1600
 5862TIP3   OH241780   4.351   4.264   1.833 -0.8928  0.3162 -0.1345
 5862TIP3    H141781   4.443   4.282   1.814 -0.4066 -1.6517  0.2081
 5862TIP3    H241782   4.352   4.216   1.915 -2.2402  0.1784 -0.1765
 5863TIP3   OH241783   4.846   0.198   1.756  0.1768  0.7667  0.5919
 5863TIP3    H141784   4.902   0.124   1.730  1.9806  1.7431  1.4683
 5863TIP3    H241785   4.802   0.223   1.675 -1.1036 -1.7152  0.4366
 5864TIP3   OH241786   0.759   3.606   4.478  0.5670  0.0057  0.2704
 5864TIP3    H141787   0.765   3.604   4.382 -0.6015 -0.0027  0.1827
 5864TIP3    H241788   0.679   3.558   4.498  0.5942  0.3350  1.2337
 5865TIP3   OH241789   4.111   2.886   2.549  0.0133  0.0158 -0.2161
 5865TIP3    H141790   4.051   2.811   2.554 -1.0941  0.8518 -0.4532
 5865TIP3    H241791   4.143   2.884   2.459  1.6256 -1.3537  0.3313
 5866TIP3   OH241792   0.465   2.906   4.708 -0.2233 -0.5574  0.0416
 5866TIP3    H141793   0.462   2.883   4.615 -1.6657 -0.8749  0.1511
 5866TIP3    H241794   0.385   2.870   4.745  1.4074 -2.5296  1.9260
 5867TIP3   OH241795   2.155   0.993   2.255 -0.5643 -0.5143 -0.3573
 5867TIP3    H141796   2.084   1.032   2.305 -0.5647 -1.4185  0.3770
 5867TIP3    H241797   2.136   1.016   2.164 -0.7053  0.9396  0.0105
 5868TIP3   OH241798   2.702   0.006   3.296  0.2189 -0.1698 -0.6153
 5868TIP3    H141799   2.734  -0.083   3.305  0.2013 -0.1155  0.0038
 5868TIP3    H241800   2.780   0.061   3.300  0.0991 -0.0673  0.4475
 5869TIP3   OH241801   0.420   5.433   0.855 -0.0160 -0.4215  0.3629
 5869TIP3    H141802   0.354   5.372   0.823 -0.7205  0.1642  0.6640
 5869TIP3    H241803   0.423   5.418   0.949 -0.5292  0.3204  0.5024
 5870TIP3   OH241804   0.205   5.551   2.126 -0.3477  0.2634 -0.8734
 5870TIP3    H141805   0.115   5.532   2.101 -0.0689 -1.4939 -0.6988
 5870TIP3    H241806   0.200   5.571   2.219 -0.4542 -1.0509 -0.5668
 5871TIP3   OH241807   3.854   1.323   0.576 -0.1042  0.0649  0.4336
 5871TIP3    H141808   3.923   1.386   0.554  0.9466 -1.4923 -0.9616
 5871TIP3    H241809   3.867   1.305   0.669  1.9640 -0.8264  0.0234
 5872TIP3   OH241810   0.704   4.122   4.096 -0.4077 -0.1160 -0.0786
 5872TIP3    H141811   0.641   4.053   4.075  0.5400 -0.9854 -0.1525
 5872TIP3    H241812   0.687   4.190   4.031  1.2298 -1.9708 -2.6837
 5873TIP3   OH241813   2.193   0.690   1.961 -0.0775 -0.0288 -0.2311
 5873TIP3    H141814   2.184   0.599   1.930  0.0142  0.6821 -2.5162
 5873TIP3    H241815   2.104   0.723   1.966  0.0007  0.4197 -1.6011
 5874TIP3   OH241816   1.531   2.092   0.389 -0.2176  0.0062 -0.0307
 5874TIP3    H141817   1.441   2.108   0.417 -0.6384  0.5972 -1.5820
 5874TIP3    H241818   1.522   2.038   0.310  0.8241 -0.4434  0.1482
 5875TIP3   OH241819   0.557   2.453   3.207  0.1494  0.2112 -0.5297
 5875TIP3    H141820   0.640   2.440   3.162 -0.3905 -0.1190 -1.4629
 5875TIP3    H241821   0.508   2.372   3.192  0.3854 -0.4275  1.6776
 5876TIP3   OH241822   6.216   1.771   0.747  0.3079 -0.3818  0.6804
 5876TIP3    H141823   6.223   1.801   0.838 -1.5245  1.6069  0.2504
 5876TIP3    H241824   6.303   1.785   0.711  0.4366  1.1264  1.4938
 5877TIP3   OH241825   4.434   2.012   1.156  0.0237  0.1190 -0.1404
 5877TIP3    H141826   4.403   2.091   1.110  1.1854  1.0126  0.5528
 5877TIP3    H241827   4.477   1.960   1.088 -0.2279  0.3675 -0.4929
 5878TIP3   OH241828   1.883   5.285   1.483  0.4270  0.1184 -0.1274
 5878TIP3    H141829   1.810   5.346   1.473  1.1970  0.8891 -1.5263
 5878TIP3    H241830   1.879   5.231   1.404 -0.0433 -1.4410  0.9417
 5879TIP3   OH241831   0.691   2.374   3.703 -0.1054 -0.2822  0.3758
 5879TIP3    H141832   0.739   2.415   3.631  1.0709 -1.3079  0.5448
 5879TIP3    H241833   0.664   2.447   3.759  1.5878  0.3084  0.4727
 5880TIP3   OH241834   3.625   2.134   2.574  0.1526 -0.2115 -0.3048
 5880TIP3    H141835   3.647   2.222   2.545  1.6367 -0.4799 -0.0741
 5880TIP3    H241836   3.666   2.076   2.510 -1.5029 -0.7624 -0.9310
 5881TIP3   OH241837   2.190   4.839   2.590  0.5503  0.3270  0.1903
 5881TIP3    H141838   2.274   4.885   2.590  0.5899  0.3343 -1.5709
 5881TIP3    H241839   2.164   4.837   2.497  0.5329 -3.0944  0.1262
 5882TIP3   OH241840   0.848   0.114   3.001  0.5038 -0.0780  0.1032
 5882TIP3    H141841   0.782   0.183   3.004  0.9822  0.4603 -0.9399
 5882TIP3    H241842   0.931   0.162   2.994  0.7828 -0.7456 -1.5635
 5883TIP3   OH241843   2.865   2.190   3.477 -0.4970  0.1335 -0.7999
 5883TIP3    H141844   2.815   2.121   3.435 -0.1654 -0.6984  0.1336
 5883TIP3    H241845   2.933   2.144   3.526  1.2905  1.2405 -2.1313
 5884TIP3   OH241846   3.750   4.566   3.256 -0.4315 -0.1961  0.0134
 5884TIP3    H141847   3.707   4.560   3.342 -0.8752 -0.4004 -0.2221
 5884TIP3    H241848   3.837   4.528   3.270  0.0887  1.1759  0.7562
 5885TIP3   OH241849   0.757   5.250   3.447 -0.4626  0.0277 -0.1056
 5885TIP3    H141850   0.810   5.209   3.515 -0.7229  1.1141  0.7884
 5885TIP3    H241851   0.821   5.284   3.384 -0.2580 -3.5718 -2.0880
 5886TIP3   OH241852   3.249   6.672   2.982 -0.3323 -0.0984 -0.0563
 5886TIP3    H141853   3.328   6.723   2.969 -0.6278  0.0265 -1.4758
 5886TIP3    H241854   3.178   6.737   2.982 -0.6353 -0.4087 -1.1052
 5887TIP3   OH241855   6.097   1.854   1.551 -0.2776  0.4121  0.4117
 5887TIP3    H141856   6.026   1.895   1.502  1.1958  1.1169 -1.2536
 5887TIP3    H241857   6.143   1.928   1.593 -0.1607  0.0304  0.9727
 5888TIP3   OH241858   1.156   2.388   2.220  0.3396  0.2688 -0.0786
 5888TIP3    H141859   1.069   2.421   2.196  0.2169  0.2334  0.3074
 5888TIP3    H241860   1.166   2.413   2.312  1.0779  0.9908 -0.3426
 5889TIP3   OH241861   5.466   3.547   3.992  0.1832  0.4795  0.7161
 5889TIP3    H141862   5.513   3.525   3.911  0.3416 -1.6862  1.3346
 5889TIP3    H241863   5.536   3.574   4.052  0.3432 -0.1371  0.8154
 5890TIP3   OH241864   5.715   4.198   0.970 -0.0252  0.6314  0.2876
 5890TIP3    H141865   5.751   4.279   1.007 -0.4684  1.4136 -0.9234
 5890TIP3    H241866   5.620   4.209   0.974 -0.1581 -0.6814  1.8704
 5891TIP3   OH241867   0.641   6.172   0.940 -0.0632  0.3737  0.0675
 5891TIP3    H141868   0.566   6.203   0.889 -1.1435  1.3671  2.1199
 5891TIP3    H241869   0.716   6.184   0.882 -1.4016 -0.2542 -1.9023
 5892TIP3   OH241870   5.122   5.162   3.273  0.5453 -0.1892 -0.3754
 5892TIP3    H141871   5.120   5.092   3.338  1.2808 -0.2153 -0.3734
 5892TIP3    H241872   5.192   5.221   3.303  1.5415 -0.6883 -1.6285
 5893TIP3   OH241873   2.838   2.441   1.585  0.2141 -0.0789 -1.0074
 5893TIP3    H141874   2.886   2.358   1.596  0.5745  0.2412 -0.1078
 5893TIP3    H241875   2.764   2.418   1.528 -0.8248 -1.4974  0.7976
 5894TIP3   OH241876   3.448   5.810   1.415  0.1114  0.5304 -0.0419
 5894TIP3    H141877   3.538   5.777   1.409 -0.3634 -0.6364 -1.1615
 5894TIP3    H241878   3.442   5.876   1.345  0.2077  0.8783  0.2787
 5895TIP3   OH241879   0.878   1.309   2.912 -0.4685  0.3319  1.0039
 5895TIP3    H141880   0.963   1.353   2.919 -0.3555 -0.0733  2.3046
 5895TIP3    H241881   0.841   1.343   2.830  1.1890  0.0691  0.0872
 5896TIP3   OH241882   0.664   1.406   3.052 -0.4489 -0.4941  0.2474
 5896TIP3    H141883   0.702   1.364   2.975 -0.3864  0.1148 -0.0637
 5896TIP3    H241884   0.708   1.491   3.056 -2.0150  0.3921 -0.3392
 5897TIP3   OH241885   0.285   2.169   2.564 -0.3122 -0.0756  0.3710
 5897TIP3    H141886   0.346   2.163   2.490 -0.6085 -1.8330  0.2276
 5897TIP3    H241887   0.201   2.140   2.528 -0.6164 -0.2750  1.2125
 5898TIP3   OH241888   4.844   0.191   0.625  0.7042  0.2413  0.0975
 5898TIP3    H141889   4.872   0.271   0.668  0.1946 -0.0716  1.0269
 5898TIP3    H241890   4.779   0.153   0.684  1.4844 -1.2417  0.0526
 5899TIP3   OH241891   4.377   5.566   2.956  0.2253  0.3062  0.2054
 5899TIP3    H141892   4.302   5.607   2.999  1.5480  1.9252  1.1055
 5899TIP3    H241893   4.342   5.532   2.874 -1.4469  1.2143  0.4948
 5900TIP3   OH241894   5.766   0.859   3.549  0.8038 -0.0446 -0.5371
 5900TIP3    H141895   5.701   0.807   3.597  0.9588 -0.8790 -1.2009
 5900TIP3    H241896   5.837   0.797   3.531  0.4812  0.0681 -2.3617
 5901TIP3   OH241897   1.833   1.875   3.307 -0.5710  0.0424 -0.2723
 5901TIP3    H141898   1.774   1.815   3.352 -1.3554  0.5841 -0.5539
 5901TIP3    H241899   1.792   1.889   3.221 -0.1620  0.6203 -0.3783
 5902TIP3   OH241900   3.180   0.486   2.245  0.1284  0.1423  0.3650
 5902TIP3    H141901   3.115   0.431   2.290  1.5645 -0.5288  1.7214
 5902TIP3    H241902   3.159   0.477   2.152 -0.7735 -1.3068  0.6716
 5903TIP3   OH241903   0.257   1.114   2.480  0.5273 -0.2492 -0.5509
 5903TIP3    H141904   0.200   1.154   2.414 -1.0964  0.7584  1.3543
 5903TIP3    H241905   0.203   1.111   2.559  2.2908 -1.7017  0.6675
 5904TIP3   OH241906   0.402   2.274   1.666 -0.7643  0.4049  0.2115
 5904TIP3    H141907   0.347   2.280   1.588 -0.5503  0.3583  0.0562
 5904TIP3    H241908   0.420   2.181   1.676  0.3839  0.5254 -0.5150
 5905TIP3   OH241909   4.406   1.927   3.344 -0.1876 -0.3726  0.2815
 5905TIP3    H141910   4.446   1.998   3.295  1.7729 -0.9915  0.9079
 5905TIP3    H241911   4.358   1.970   3.415 -0.0373  0.3685 -0.0663
 5906TIP3   OH241912   1.467   1.262   2.620 -0.2580 -0.1435 -0.3334
 5906TIP3    H141913   1.515   1.232   2.543  0.3786  0.3752 -0.1495
 5906TIP3    H241914   1.497   1.205   2.691  2.3210  1.9285  0.4166
 5907TIP3   OH241915   2.117   2.210   2.767  0.0466 -0.5351  0.3415
 5907TIP3    H141916   2.139   2.224   2.675  0.8968 -1.3384  0.3990
 5907TIP3    H241917   2.181   2.264   2.814 -1.5926  1.4013  0.4706
 5908TIP3   OH241918   6.626   0.726   2.393  0.8214 -0.0281  0.2059
 5908TIP3    H141919   6.579   0.656   2.439  1.4556  0.8802  2.3575
 5908TIP3    H241920   6.562   0.797   2.385  1.0399  0.2430  0.7805
 5909TIP3   OH241921   2.396   0.240   1.210  0.6440  0.7022 -0.3407
 5909TIP3    H141922   2.339   0.227   1.286 -0.0505  0.1550 -0.9351
 5909TIP3    H241923   2.483   0.254   1.247  0.4698 -0.3957  0.5315
 5910TIP3   OH241924   2.299   2.403   1.791  0.3074 -0.2965 -0.0427
 5910TIP3    H141925   2.331   2.464   1.724 -1.0866 -1.8100 -2.2257
 5910TIP3    H241926   2.365   2.334   1.793 -0.4368 -1.0772 -1.1348
 5911TIP3   OH241927   6.001   5.550   2.111  0.0296 -0.0520 -0.0321
 5911TIP3    H141928   5.998   5.464   2.151  0.9540 -0.5095 -0.8952
 5911TIP3    H241929   6.091   5.558   2.078  0.4561  1.8706  1.3793
 5912TIP3   OH241930   5.193   5.043   2.103  0.3469  0.1411  0.3658
 5912TIP3    H141931   5.189   5.025   2.009 -0.6855  0.7891  0.2587
 5912TIP3    H241932   5.162   4.963   2.145  0.7462 -0.1257  0.1486
 5913TIP3   OH241933   6.073   5.640   1.551  0.1385 -0.1958 -0.0617
 5913TIP3    H141934   5.992   5.610   1.509 -0.9587  2.1825  0.1960
 5913TIP3    H241935   6.043   5.691   1.626  1.9037  0.4796  0.2198
 5914TIP3   OH241936   3.185   2.877   4.395  0.6437  0.3638 -0.4355
 5914TIP3    H141937   3.236   2.829   4.330  0.0200  0.6589 -1.1592
 5914TIP3    H241938   3.250   2.932   4.441  1.3262 -0.9801  0.2645
 5915TIP3   OH241939   0.971   4.687   1.243 -0.1945 -0.6849  0.1824
 5915TIP3    H141940   1.051   4.677   1.192 -1.3006 -1.0641 -1.5602
 5915TIP3    H241941   0.946   4.597   1.267  0.4725 -0.4945  1.7095
 5916TIP3   OH241942   0.839   3.806   3.802  0.1506 -0.5198 -0.4862
 5916TIP3    H141943   0.750   3.783   3.831 -0.1966 -0.9116 -1.7843
 5916TIP3    H241944   0.896   3.745   3.849  0.0856  1.5673  2.5747
 5917TIP3   OH241945   4.622   4.332   1.835 -0.1389  0.0796  0.2236
 5917TIP3    H141946   4.657   4.261   1.780 -1.1991  1.5600 -2.5906
 5917TIP3    H241947   4.695   4.356   1.891  0.8064 -2.0445  0.0303
 5918TIP3   OH241948   3.102   4.218   2.140 -0.0995 -0.1164 -0.3958
 5918TIP3    H141949   3.062   4.173   2.215  0.8973 -0.3119  0.0299
 5918TIP3    H241950   3.093   4.311   2.161  2.1871 -0.1464  1.1268
 5919TIP3   OH241951   0.348   3.700   1.842  0.3375  0.2789 -0.0670
 5919TIP3    H141952   0.328   3.787   1.877  0.0619  0.3100 -0.2993
 5919TIP3    H241953   0.309   3.639   1.905 -0.4051  0.3368 -0.4547
 5920TIP3   OH241954   4.366   5.144   2.934 -0.3612 -0.2454 -0.2749
 5920TIP3    H141955   4.451   5.165   2.971  0.1404 -0.3659 -1.3089
 5920TIP3    H241956   4.304   5.159   3.005  0.2998  1.7739 -0.0661
 5921TIP3   OH241957   2.187   3.450   3.950  0.5428  0.6541  0.1534
 5921TIP3    H141958   2.273   3.438   3.909  0.4329  0.9963 -0.1835
 5921TIP3    H241959   2.194   3.406   4.034  0.5377 -0.7085 -0.5332
 5922TIP3   OH241960   3.921   2.684   0.679 -0.0000 -0.3394  0.1985
 5922TIP3    H141961   3.982   2.721   0.742  0.6610 -2.0802  0.6329
 5922TIP3    H241962   3.860   2.756   0.658 -0.7358  0.0864  3.3736
 5923TIP3   OH241963   3.800   5.434   0.791  0.4178  0.3594 -1.3641
 5923TIP3    H141964   3.860   5.497   0.829 -1.1338  0.3042  1.4724
 5923TIP3    H241965   3.846   5.350   0.796  0.1909  0.3017  0.8428
 5924TIP3   OH241966   5.409   2.873   2.518 -0.5131  0.2195 -0.0396
 5924TIP3    H141967   5.489   2.823   2.532 -0.3338  0.0935 -1.3553
 5924TIP3    H241968   5.373   2.839   2.436 -0.6331  1.8936 -0.7340
 5925TIP3   OH241969   1.200   2.478   2.870 -0.0285 -0.2712 -0.3096
 5925TIP3    H141970   1.278   2.443   2.911  0.5119 -1.2513 -2.0460
 5925TIP3    H241971   1.231   2.550   2.815 -0.8249  1.4839  1.4038
 5926TIP3   OH241972   2.054   4.478   3.517 -0.1319 -0.1284  0.0245
 5926TIP3    H141973   2.061   4.573   3.508 -0.2530  0.0139  1.2243
 5926TIP3    H241974   1.964   4.458   3.492  0.0792 -0.0099 -0.8394
 5927TIP3   OH241975   6.087   3.135   0.859  0.1777  0.3386  0.4300
 5927TIP3    H141976   6.122   3.046   0.864  0.1956  0.3402  0.3484
 5927TIP3    H241977   6.038   3.147   0.940 -1.5257 -0.4721 -0.4100
 5928TIP3   OH241978   6.313   5.520   1.563  0.0168 -0.1454 -0.8712
 5928TIP3    H141979   6.349   5.600   1.524 -1.0432 -0.1911 -1.9837
 5928TIP3    H241980   6.218   5.531   1.559 -0.1876 -0.0287  2.0096
 5929TIP3   OH241981   5.064   0.636   2.789  0.0355  0.4775  0.1809
 5929TIP3    H141982   5.117   0.562   2.758  0.6314  0.1228  1.9597
 5929TIP3    H241983   5.127   0.706   2.805  0.0233  0.0360  2.3657
 5930TIP3   OH241984   4.669   0.573   1.128 -0.0375  0.2467  0.2169
 5930TIP3    H141985   4.679   0.583   1.033  0.6582 -1.8330  0.0222
 5930TIP3    H241986   4.577   0.591   1.144 -0.2664  0.1748 -0.9235
 5931TIP3   OH241987   4.622   5.502   2.861 -0.1480  0.3223 -0.2832
 5931TIP3    H141988   4.619   5.541   2.774  0.9599  1.5399  0.1751
 5931TIP3    H241989   4.539   5.528   2.902  0.2642  1.6735 -0.2414
 5932TIP3   OH241990   5.642   1.947   2.219  0.2303  0.3501 -0.0782
 5932TIP3    H141991   5.552   1.959   2.247  0.5939  0.3098  1.1720
 5932TIP3    H241992   5.652   1.852   2.211  0.7589  0.1593  2.0363
 5933TIP3   OH241993   3.978   2.207   3.171  0.0242 -0.0023 -0.0106
 5933TIP3    H141994   3.931   2.186   3.251 -0.5350  1.2557  0.0108
 5933TIP3    H241995   3.932   2.158   3.102 -1.4987  1.3790 -0.0252
 5934TIP3   OH241996   0.576   4.237   0.446  0.4768  0.6809  0.0861
 5934TIP3    H141997   0.654   4.261   0.495  1.7817 -1.5991 -0.7279
 5934TIP3    H241998   0.508   4.296   0.479  2.1921  1.8253  1.7918
 5935TIP3   OH241999   5.103   5.027   1.844  0.7872 -0.4121  0.2083
 5935TIP3    H142000   5.029   5.049   1.787  0.2817 -1.1096  0.5841
 5935TIP3    H242001   5.166   4.984   1.785  1.0008  0.3908 -0.1587
 5936TIP3   OH242002   4.337   2.719   2.686  0.6650 -0.3111 -0.2886
 5936TIP3    H142003   4.261   2.703   2.743  0.4197 -0.3414 -0.6191
 5936TIP3    H242004   4.309   2.792   2.630  0.7364 -0.5795 -0.6750
 5937TIP3   OH242005   1.764   4.379   3.604  0.2113 -0.3537  0.3866
 5937TIP3    H142006   1.802   4.325   3.535  0.3185 -1.5395  1.3367
 5937TIP3    H242007   1.805   4.348   3.685 -1.7875 -0.7858  1.2911
 5938TIP3   OH242008   0.654   3.014   0.928 -0.5391  0.3332  0.0344
 5938TIP3    H142009   0.674   3.008   1.021 -0.1777  0.0929 -0.0582
 5938TIP3    H242010   0.618   3.102   0.917  1.8568  1.3950 -0.0513
 5939TIP3   OH242011   1.903   3.058   4.613 -0.1608  0.4988 -0.2758
 5939TIP3    H142012   1.956   2.988   4.574 -0.5255  0.6791 -1.1334
 5939TIP3    H242013   1.828   3.067   4.553  0.6821  2.6952 -1.1111
 5940TIP3   OH242014   5.807   4.085   2.133 -0.6209  0.0347  0.0542
 5940TIP3    H142015   5.890   4.115   2.170  0.6381 -3.1082  0.1692
 5940TIP3    H242016   5.823   4.082   2.039 -1.7172  2.2765 -0.2457
 5941TIP3   OH242017   3.580   4.851   0.810 -0.3083  0.2752 -0.1410
 5941TIP3    H142018   3.560   4.782   0.747  0.4217  0.4716 -0.6006
 5941TIP3    H242019   3.657   4.820   0.857 -1.0324 -0.0132  0.8961
 5942TIP3   OH242020   0.448   2.961   1.549  0.1359  0.8916 -0.3425
 5942TIP3    H142021   0.429   3.004   1.632  1.1101 -0.2592  0.5085
 5942TIP3    H242022   0.497   2.883   1.573 -2.7405 -1.5441 -1.6406
 5943TIP3   OH242023   2.124   5.678   1.790  0.1375  0.1002  0.2175
 5943TIP3    H142024   2.081   5.623   1.725  1.7984 -1.3986  0.3283
 5943TIP3    H242025   2.145   5.759   1.743  0.7647 -0.7255 -0.9633
 5944TIP3   OH242026   1.821   5.041   2.009  0.4747 -0.4406  0.1186
 5944TIP3    H142027   1.730   5.044   1.981 -0.0982  0.3203  1.8895
 5944TIP3    H242028   1.871   5.068   1.932 -0.9118  0.5940 -0.4606
 5945TIP3   OH242029   5.304   1.718   2.376 -0.1373 -0.0177  0.1386
 5945TIP3    H142030   5.366   1.646   2.387  0.5566  0.1734 -2.1948
 5945TIP3    H242031   5.219   1.676   2.363 -0.1527 -0.3247  1.1580
 5946TIP3   OH242032   1.533   3.572   2.792  0.4412 -0.1571  0.5866
 5946TIP3    H142033   1.472   3.633   2.833 -0.6897 -1.2852  0.6304
 5946TIP3    H242034   1.549   3.609   2.705  1.2136  1.1369  1.2404
 5947TIP3   OH242035   6.440   2.821   3.734  0.2376  0.8278  0.0572
 5947TIP3    H142036   6.434   2.770   3.653 -0.1692  1.9209 -0.6304
 5947TIP3    H242037   6.389   2.770   3.797  0.7650 -0.1703 -0.2897
 5948TIP3   OH242038   5.199   3.597   0.596 -0.2025 -0.3884 -0.4848
 5948TIP3    H142039   5.286   3.559   0.607  0.2936  0.5955 -0.8576
 5948TIP3    H242040   5.213   3.691   0.606 -0.9308 -0.0655 -2.1846
 5949TIP3   OH242041   0.963   2.698   2.861  0.3759  0.1382  0.1026
 5949TIP3    H142042   1.023   2.698   2.936 -0.1462  0.3099  0.5213
 5949TIP3    H242043   0.993   2.625   2.807  0.7395 -0.0037  0.4889
 5950TIP3   OH242044   5.482   4.775   1.970  0.4849  0.1884 -0.1886
 5950TIP3    H142045   5.454   4.699   1.919  1.2461 -0.0535 -0.2470
 5950TIP3    H242046   5.473   4.748   2.061 -0.0276  0.3201 -0.1926
 5951TIP3   OH242047   2.933   3.648   1.010  0.3403 -0.3011  0.0331
 5951TIP3    H142048   2.878   3.719   0.979 -1.1658 -0.8454  1.3068
 5951TIP3    H242049   2.919   3.577   0.947  0.3529 -0.1075 -0.1872
 5952TIP3   OH242050   5.327   2.245   1.287 -0.0925  0.2751  0.0803
 5952TIP3    H142051   5.253   2.306   1.287 -1.3253 -1.1294 -1.1818
 5952TIP3    H242052   5.292   2.164   1.325  1.4013  0.1848  1.3683
 5953TIP3   OH242053   1.687   1.736   1.013 -1.0603 -0.2201 -0.3514
 5953TIP3    H142054   1.657   1.784   1.090 -1.2080 -0.3669 -0.3175
 5953TIP3    H242055   1.678   1.643   1.037 -2.3861 -0.2962 -1.0250
 5954TIP3   OH242056   0.964   3.623   3.954  0.2249  0.3296 -0.5735
 5954TIP3    H142057   0.895   3.567   3.989 -0.1465  2.0320  1.6159
 5954TIP3    H242058   1.029   3.562   3.919 -0.7118 -1.4206  0.6170
 5955TIP3   OH242059   6.591   5.692   3.219  0.0067  0.6638  0.4100
 5955TIP3    H142060   6.501   5.673   3.246  0.4230 -0.5732  1.0239
 5955TIP3    H242061   6.639   5.612   3.240  1.7732  2.1335  2.3740
 5956TIP3   OH242062   4.604   5.650   9.489 -0.7425 -0.4577 -0.0486
 5956TIP3    H142063   4.592   5.745   9.488  0.5083 -0.2838 -1.3204
 5956TIP3    H242064   4.611   5.627   9.582 -0.6368  0.7475  0.2544
 5957TIP3   OH242065   3.235   0.323   3.051 -0.3705  0.2266 -0.2435
 5957TIP3    H142066   3.148   0.301   3.017 -0.6306  1.1435 -0.2003
 5957TIP3    H242067   3.287   0.339   2.972 -0.1441 -0.6532 -0.2783
 5958TIP3   OH242068   1.485   1.392   1.458  0.8514 -0.0275  0.2723
 5958TIP3    H142069   1.480   1.432   1.371 -1.9369  2.0461  1.2455
 5958TIP3    H242070   1.443   1.455   1.516 -0.4007 -2.7769  2.6138
 5959TIP3   OH242071   5.371   2.973   3.416  0.4389  0.4907 -0.5219
 5959TIP3    H142072   5.334   2.900   3.466 -0.4120 -0.4216 -2.3864
 5959TIP3    H242073   5.300   3.000   3.357  1.6855  0.9327 -1.8603
 5960TIP3   OH242074   1.967   1.669   2.397 -0.6165  0.5097 -0.4170
 5960TIP3    H142075   2.055   1.630   2.395 -0.2197  1.3723 -0.2613
 5960TIP3    H242076   1.950   1.694   2.307  0.7240  3.3686  0.0057
 5961TIP3   OH242077   5.693   5.206   0.966  0.3757 -0.5096 -0.5419
 5961TIP3    H142078   5.610   5.163   0.987  0.6587 -0.8226 -0.0608
 5961TIP3    H242079   5.746   5.137   0.926  0.0827 -0.0860 -1.6965
 5962TIP3   OH242080   1.646   5.458   1.443 -0.5543 -0.1624  0.0495
 5962TIP3    H142081   1.592   5.455   1.364 -2.6616 -0.6550  1.4324
 5962TIP3    H242082   1.613   5.534   1.491  1.4515  0.7947 -0.0030
 5963TIP3   OH242083   2.039   3.679   1.271  0.6576  0.5958 -0.0087
 5963TIP3    H142084   1.990   3.725   1.203 -1.3822 -1.6737 -0.2331
 5963TIP3    H242085   2.129   3.673   1.236 -0.4800 -1.2783 -3.0704
 5964TIP3   OH242086   3.684   6.506   1.697  0.2292  0.2563  0.1792
 5964TIP3    H142087   3.699   6.586   1.646 -0.5562  0.9377  0.9733
 5964TIP3    H242088   3.698   6.533   1.788  0.1238 -0.5618  0.4420
 5965TIP3   OH242089   5.008   2.557   4.110 -0.1593  0.0775  0.9041
 5965TIP3    H142090   5.066   2.626   4.077 -1.3243  1.7134  2.1325
 5965TIP3    H242091   4.960   2.529   4.033  2.2773 -1.4439 -0.1909
 5966TIP3   OH242092   4.588   1.725   1.885 -0.1513  0.1065  0.0333
 5966TIP3    H142093   4.682   1.708   1.894  0.0286 -0.4898 -2.3114
 5966TIP3    H242094   4.546   1.644   1.912  0.0535  0.1457  0.4661
 5967TIP3   OH242095   0.705   5.753   0.901  0.6242  1.0346  0.0373
 5967TIP3    H142096   0.660   5.744   0.985 -2.5081 -1.0273 -1.6506
 5967TIP3    H242097   0.798   5.746   0.923 -0.0614  0.2076  3.2525
 5968TIP3   OH242098   5.952   1.210   0.758 -0.0987  0.2304 -0.1848
 5968TIP3    H142099   5.882   1.244   0.814  0.6184  1.9469 -0.2557
 5968TIP3    H242100   5.999   1.288   0.728 -0.6801 -0.5238 -3.5445
 5969TIP3   OH242101   2.151   4.855   2.314 -0.9872  0.3117  0.2903
 5969TIP3    H142102   2.144   4.948   2.293  0.1294  0.4099  0.2930
 5969TIP3    H242103   2.112   4.811   2.238 -0.1685  0.7559 -0.4107
 5970TIP3   OH242104   2.791   3.005   0.820  0.4647 -0.4065 -0.2789
 5970TIP3    H142105   2.704   2.966   0.828  0.2235 -0.3821 -2.3568
 5970TIP3    H242106   2.776   3.092   0.785  1.3201 -0.3764 -0.6024
 5971TIP3   OH242107   5.153   4.564   3.591  0.1553 -0.8075 -0.1652
 5971TIP3    H142108   5.166   4.557   3.496 -0.4653 -1.2500 -0.2186
 5971TIP3    H242109   5.163   4.474   3.623 -0.7230 -0.8318  0.0506
 5972TIP3   OH242110   0.084   6.414   1.809  0.2292 -0.2408  0.2964
 5972TIP3    H142111   0.098   6.474   1.882 -1.3801  1.1853 -0.5002
 5972TIP3    H242112  -0.001   6.374   1.827  0.1792 -0.4584 -0.4038
 5973TIP3   OH242113   4.740   1.726   0.821  0.4273 -0.1634  0.1022
 5973TIP3    H142114   4.704   1.810   0.850  0.6936 -0.1045  0.2703
 5973TIP3    H242115   4.784   1.691   0.899  1.5273  0.1944 -0.3312
 5974TIP3   OH242116   1.002   1.606   3.017 -0.0067  0.1980  0.0859
 5974TIP3    H142117   1.087   1.590   3.058  0.1526  1.3560  0.2321
 5974TIP3    H242118   0.942   1.619   3.090  0.4623  3.2371  0.0513
 5975TIP3   OH242119   3.142   1.828   0.920  0.0456 -0.5670 -0.0630
 5975TIP3    H142120   3.110   1.826   1.011 -1.2173  0.0175 -0.4770
 5975TIP3    H242121   3.121   1.741   0.886 -1.0095 -0.2357 -0.2872
 5976TIP3   OH242122   1.322   3.980   4.202 -0.4464 -1.2117  0.0472
 5976TIP3    H142123   1.373   3.914   4.248 -0.8748 -0.0922  2.2611
 5976TIP3    H242124   1.278   4.029   4.271  0.7455  2.1625 -1.3473
 5977TIP3   OH242125   2.904   3.531   2.999 -0.2883 -0.4753  0.0284
 5977TIP3    H142126   2.883   3.447   3.039 -1.3717  0.3745  1.3322
 5977TIP3    H242127   2.856   3.595   3.051  1.7055  1.1269  0.0502
 5978TIP3   OH242128   2.109   3.224   3.136  0.2041 -0.2503  0.2986
 5978TIP3    H142129   2.153   3.254   3.215  0.4218  1.7046 -0.5153
 5978TIP3    H242130   2.098   3.303   3.083 -2.0431 -1.1023 -0.6132
 5979TIP3   OH242131   2.251   6.616   3.195  0.2671  0.5890  0.2255
 5979TIP3    H142132   2.282   6.668   3.121  0.4995  1.0153  0.6167
 5979TIP3    H242133   2.330   6.597   3.245  0.1467  0.0759  0.2251
 5980TIP3   OH242134   3.139   5.652   2.501  0.0800 -0.3821 -0.8223
 5980TIP3    H142135   3.093   5.590   2.557  1.5141 -1.0606 -0.3484
 5980TIP3    H242136   3.079   5.725   2.491  0.3590  0.5491  2.9781
 5981TIP3   OH242137   5.857   2.556   1.162 -0.1262  0.3856  0.7281
 5981TIP3    H142138   5.824   2.476   1.121  0.1235  0.0760  1.1264
 5981TIP3    H242139   5.927   2.527   1.220  0.6026  0.9955  0.1879
 5982TIP3   OH242140   3.744   2.362   3.673  0.2048 -0.0743  0.0905
 5982TIP3    H142141   3.689   2.411   3.734 -0.7693 -1.1598  0.0958
 5982TIP3    H242142   3.779   2.289   3.724  2.8446  1.3089  0.4966
 5983TIP3   OH242143   1.278   4.202   3.784 -0.1130 -0.3566 -0.1081
 5983TIP3    H142144   1.360   4.237   3.750  0.0242  0.7934  1.2821
 5983TIP3    H242145   1.274   4.234   3.874 -2.2968  0.0220 -0.2665
 5984TIP3   OH242146   5.219   0.870   2.202  0.6628 -0.3152 -0.0090
 5984TIP3    H142147   5.199   0.806   2.270 -0.2516  1.3921  1.4242
 5984TIP3    H242148   5.288   0.924   2.239 -1.3397  1.9993  0.5778
 5985TIP3   OH242149   4.535   1.904   3.585 -0.1932  0.5552  0.6843
 5985TIP3    H142150   4.501   1.900   3.496  0.0736  0.4620  0.5869
 5985TIP3    H242151   4.459   1.886   3.640 -0.6204  1.7512  0.5265
 5986TIP3   OH242152   0.770   3.417   4.232 -0.7397  0.1494  0.1394
 5986TIP3    H142153   0.862   3.441   4.246 -1.1771  1.1084  1.6304
 5986TIP3    H242154   0.769   3.374   4.146  1.3272 -1.2215  0.7398
 5987TIP3   OH242155   4.655   3.764   0.637 -0.3811  0.1812 -0.6385
 5987TIP3    H142156   4.664   3.689   0.578 -1.6216 -0.4325 -0.0797
 5987TIP3    H242157   4.745   3.794   0.651  0.4328 -2.5631  0.8349
 5988TIP3   OH242158   5.998   1.554   2.140 -0.3285  0.6893 -0.0448
 5988TIP3    H142159   5.938   1.481   2.125 -1.3190  1.1053  1.7186
 5988TIP3    H242160   5.973   1.620   2.075 -1.5071  0.6869  0.3895
 5989TIP3   OH242161   0.894   2.000   2.095  0.5537 -0.0101 -0.3389
 5989TIP3    H142162   0.947   1.929   2.131 -0.4736 -0.4077  0.4178
 5989TIP3    H242163   0.837   2.026   2.167  1.8117  2.5192 -0.1535
 5990TIP3   OH242164   3.424   1.866   2.319  0.0309 -0.2231  0.1481
 5990TIP3    H142165   3.396   1.888   2.408 -0.9089 -1.7671  0.2818
 5990TIP3    H242166   3.344   1.834   2.276  0.2668  1.3283 -1.5590
 5991TIP3   OH242167   5.933   1.049   3.630  0.1690  0.1626 -0.0596
 5991TIP3    H142168   5.884   1.130   3.645  0.6757  0.2061  1.4934
 5991TIP3    H242169   5.868   0.988   3.595 -0.4089  0.9664 -0.4261
 5992TIP3   OH242170   4.693   3.196   1.563  0.1441 -0.4415  0.3381
 5992TIP3    H142171   4.635   3.121   1.580 -1.5060  0.3178 -1.5412
 5992TIP3    H242172   4.657   3.266   1.617 -1.4771  0.3189 -1.5622
 5993TIP3   OH242173   0.957   4.416   2.995  0.3660  0.2346  0.2680
 5993TIP3    H142174   0.918   4.329   2.982 -1.1984  0.9247  0.1710
 5993TIP3    H242175   0.974   4.448   2.907 -0.6362  0.6935  0.2244
 5994TIP3   OH242176   1.533   5.992   2.046 -0.0453 -0.1585 -0.1607
 5994TIP3    H142177   1.487   5.975   1.964 -0.0085 -1.6123  0.0903
 5994TIP3    H242178   1.465   6.028   2.104  0.0235  1.2628 -0.9220
 5995TIP3   OH242179   3.560   0.062   2.832  0.9278 -0.2424  0.6557
 5995TIP3    H142180   3.547  -0.006   2.899  0.3895  0.3397  1.1572
 5995TIP3    H242181   3.624   0.122   2.871  1.5563 -0.5624  0.1308
 5996TIP3   OH242182   0.771   5.305   1.481 -0.1447 -0.0690  0.2657
 5996TIP3    H142183   0.699   5.321   1.541 -0.2587 -0.7841  0.3283
 5996TIP3    H242184   0.813   5.390   1.471 -0.7409  0.2656  0.5554
 5997TIP3   OH242185   1.858   4.731   0.940 -0.2238  0.2494 -0.1056
 5997TIP3    H142186   1.900   4.730   1.026  1.9338 -1.7512 -1.0754
 5997TIP3    H242187   1.865   4.822   0.911 -0.5873  0.8542  1.6275
 5998TIP3   OH242188   5.225   3.831   1.904  0.9458 -0.1981 -0.0564
 5998TIP3    H142189   5.191   3.798   1.987  0.2710 -0.3195 -0.3749
 5998TIP3    H242190   5.158   3.808   1.840 -0.1388  2.8219 -0.1317
 5999TIP3   OH242191   1.763   1.079   2.007  0.0698  0.2484 -0.2654
 5999TIP3    H142192   1.692   1.044   1.953  0.4802 -2.1483  0.6121
 5999TIP3    H242193   1.785   1.162   1.966 -0.6331 -0.7475 -2.8845
 6000TIP3   OH242194   1.294   3.506   0.698 -0.2076 -0.1830  0.1960
 6000TIP3    H142195   1.297   3.439   0.766  0.7906 -0.4317 -0.0716
 6000TIP3    H242196   1.320   3.587   0.742  1.4665 -0.5335 -0.0687
 6001TIP3   OH242197   0.461   3.742   2.571  0.2029 -0.0887 -0.3838
 6001TIP3    H142198   0.510   3.728   2.490 -0.7275 -0.8325 -0.8362
 6001TIP3    H242199   0.508   3.691   2.637  1.3697  1.0781 -0.2723
 6002TIP3   OH242200   1.873   2.199   1.031 -0.1486 -0.1336  0.4901
 6002TIP3    H142201   1.828   2.203   0.947  0.9868 -1.7226 -0.2531
 6002TIP3    H242202   1.858   2.284   1.071 -0.5405  0.7390 -1.4144
 6003TIP3   OH242203   4.020   5.970   3.659  0.4170  0.2381 -0.1604
 6003TIP3    H142204   3.971   6.036   3.709 -1.8917 -0.5241 -1.2802
 6003TIP3    H242205   4.019   5.892   3.714  0.5426  0.2735 -0.1068
 6004TIP3   OH242206   5.348   6.057   3.476 -0.5008  0.0533 -0.0879
 6004TIP3    H142207   5.314   6.089   3.560 -1.4031 -2.8764  0.7840
 6004TIP3    H242208   5.419   6.118   3.455 -0.7522  1.3647  2.3908
 6005TIP3   OH242209   0.125   4.897   1.953 -0.4459 -0.5998  0.2307
 6005TIP3    H142210   0.165   4.875   1.869 -2.0735  1.0505 -1.0653
 6005TIP3    H242211   0.063   4.825   1.969 -1.0009 -0.3295 -0.6221
 6006TIP3   OH242212   5.393   5.320   0.773 -0.2500 -0.9121 -0.1279
 6006TIP3    H142213   5.443   5.239   0.763  0.0207 -0.7442 -0.1380
 6006TIP3    H242214   5.317   5.295   0.826 -0.7022 -1.3937 -0.9806
 6007TIP3   OH242215   5.278   0.115   1.959  0.3123 -0.2721 -0.3370
 6007TIP3    H142216   5.337   0.084   2.028 -0.5298 -0.0311  0.4978
 6007TIP3    H242217   5.260   0.206   1.982 -0.3538 -0.3334 -0.6057
 6008TIP3   OH242218   0.977   5.209   0.870 -0.2231 -0.3829  0.1061
 6008TIP3    H142219   0.953   5.128   0.825  0.0128 -0.0472 -0.6381
 6008TIP3    H242220   1.031   5.180   0.944 -0.9183 -0.9678  0.4108
 6009TIP3   OH242221   6.008   5.238   2.572 -0.1318  0.0586 -0.2006
 6009TIP3    H142222   6.032   5.146   2.582  2.2381  0.5136 -1.1496
 6009TIP3    H242223   6.061   5.284   2.637 -1.1351  0.7997  0.1211
 6010TIP3   OH242224   0.532   4.792   2.597  0.0203 -0.5354 -0.3373
 6010TIP3    H142225   0.602   4.798   2.661 -0.3227  0.8544 -0.0584
 6010TIP3    H242226   0.567   4.834   2.519 -0.4092 -0.0601 -0.2787
 6011TIP3   OH242227   4.839   6.497   3.581 -0.0319  0.1391 -0.1943
 6011TIP3    H142228   4.772   6.565   3.577 -0.6823 -0.4049  0.9437
 6011TIP3    H242229   4.921   6.542   3.562 -0.8619  0.5265 -3.3529
 6012TIP3   OH242230   3.409   3.323   3.243 -0.3394 -0.3302  0.4419
 6012TIP3    H142231   3.325   3.363   3.264 -0.0808  0.4498 -0.0142
 6012TIP3    H242232   3.452   3.384   3.184  0.9682 -0.2284  1.4309
 6013TIP3   OH242233   5.289   0.225   3.160 -0.3429 -0.3503  0.3446
 6013TIP3    H142234   5.249   0.292   3.104  0.2732 -0.4791 -0.2640
 6013TIP3    H242235   5.214   0.179   3.198 -0.7975 -0.7440 -0.9609
 6014TIP3   OH242236   5.680   4.668   4.290  0.0143 -0.0059  0.3444
 6014TIP3    H142237   5.673   4.643   4.198  0.4287 -0.6767  0.4888
 6014TIP3    H242238   5.609   4.621   4.334  1.3398 -1.7227  0.7642
 6015TIP3   OH242239   0.171   2.058   0.860  0.2033  0.2425  0.0720
 6015TIP3    H142240   0.122   2.100   0.789  0.5897  0.9800  0.2388
 6015TIP3    H242241   0.255   2.102   0.860  0.9092 -1.0343 -0.2377
 6016TIP3   OH242242   4.819   4.385   0.843 -0.1682 -0.2259  0.4123
 6016TIP3    H142243   4.906   4.345   0.849 -0.2403 -1.0391 -2.4562
 6016TIP3    H242244   4.837   4.478   0.830  0.1492 -0.0127  2.1274
 6017TIP3   OH242245   5.060   1.987   2.750 -0.4309 -0.0030  0.3735
 6017TIP3    H142246   5.071   1.977   2.656  0.3761  3.6998 -0.0692
 6017TIP3    H242247   4.969   1.962   2.767 -0.9746  0.4626 -1.6302
 6018TIP3   OH242248   0.120   4.161   2.613  0.8167 -0.8452 -0.3075
 6018TIP3    H142249   0.156   4.178   2.526  3.3181 -1.1040  0.5940
 6018TIP3    H242250   0.067   4.083   2.602  0.8211 -0.6773 -1.6724
 6019TIP3   OH242251   5.821   6.441   2.899 -0.0605  0.0191 -0.1347
 6019TIP3    H142252   5.741   6.446   2.951  0.1743 -0.2518  0.2575
 6019TIP3    H242253   5.892   6.441   2.963  0.2093 -0.9234 -0.4090
 6020TIP3   OH242254   2.349   0.159   3.028 -0.4087  0.6008 -0.3424
 6020TIP3    H142255   2.388   0.076   3.002 -0.8580 -0.2597  1.5741
 6020TIP3    H242256   2.420   0.206   3.073 -0.5409  0.6367 -0.1687
 6021TIP3   OH242257   0.436   2.612   3.547 -0.1878  0.0073  0.9591
 6021TIP3    H142258   0.421   2.540   3.608  3.7127 -2.4154 -0.5514
 6021TIP3    H242259   0.392   2.585   3.466 -0.9922  0.7115  1.1437
 6022TIP3   OH242260   1.866   4.989   0.862  0.0372 -0.6997  0.0340
 6022TIP3    H142261   1.919   5.034   0.928 -0.5595  0.1583 -0.0587
 6022TIP3    H242262   1.912   5.004   0.780  0.2578 -0.9268  0.1167
 6023TIP3   OH242263   3.604   2.387   2.458 -0.0257 -0.0421 -0.3574
 6023TIP3    H142264   3.533   2.421   2.512  0.2196  1.0557 -0.6857
 6023TIP3    H242265   3.567   2.380   2.370 -0.0942 -0.7051 -0.2763
 6024TIP3   OH242266   3.256   6.421   0.308 -0.4988  0.0793 -0.3486
 6024TIP3    H142267   3.260   6.380   0.222  0.4452 -0.9514  0.1649
 6024TIP3    H242268   3.199   6.363   0.360  0.7593 -0.5813  0.3505
 6025TIP3   OH242269   6.204   2.078   2.879 -0.0136 -0.0368 -0.3133
 6025TIP3    H142270   6.163   2.057   2.795  0.8099  0.3144 -0.8165
 6025TIP3    H242271   6.296   2.057   2.866  0.3395  1.2012  0.0915
 6026TIP3   OH242272   1.601   2.522   1.354  0.2529  0.3529  0.1058
 6026TIP3    H142273   1.572   2.605   1.392  0.7057  0.4284  0.2821
 6026TIP3    H242274   1.696   2.524   1.359  0.2596 -0.2890  0.3455
 6027TIP3   OH242275   4.032   3.224   2.880  0.7299 -0.4535 -0.7627
 6027TIP3    H142276   3.979   3.297   2.848  1.2013  1.1011  1.7531
 6027TIP3    H242277   3.969   3.152   2.890 -0.2674  0.3876 -0.8334
 6028TIP3   OH242278   0.392   0.489   3.617 -0.5634  0.4537  0.3762
 6028TIP3    H142279   0.456   0.418   3.613  0.0527  0.7938  2.8099
 6028TIP3    H242280   0.348   0.477   3.701 -3.8674  0.1761 -1.2568
 6029TIP3   OH242281   0.616   3.120   4.746  0.6592  0.2570  0.0473
 6029TIP3    H142282   0.683   3.118   4.814  1.1334 -0.6241 -0.4323
 6029TIP3    H242283   0.563   3.042   4.763  0.7126  0.0952 -0.5219
 6030TIP3   OH242284   1.354   1.091   2.311 -0.0593  1.1019  0.6687
 6030TIP3    H142285   1.283   1.119   2.369 -0.4628  1.5407 -0.0224
 6030TIP3    H242286   1.314   1.025   2.254 -0.0241  1.6167  0.0326
 6031TIP3   OH242287   2.731   2.580   2.100  0.0784  0.5064  0.3094
 6031TIP3    H142288   2.802   2.518   2.083  0.3991  0.6726  0.9996
 6031TIP3    H242289   2.690   2.548   2.181 -1.1283 -0.0224 -0.4752
 6032TIP3   OH242290   5.951   4.951   3.062 -0.2004  0.1627 -0.1322
 6032TIP3    H142291   5.990   4.898   3.133 -0.7593  0.3105  0.2977
 6032TIP3    H242292   5.902   4.887   3.010  1.5465 -0.2364 -1.3895
 6033TIP3   OH242293   5.308   5.466   1.146 -0.2013 -0.0040 -0.8317
 6033TIP3    H142294   5.332   5.545   1.097  1.1362  0.5637  0.6398
 6033TIP3    H242295   5.306   5.397   1.080 -2.2596  1.3474 -2.3229
 6034TIP3   OH242296   2.949   0.362   2.378 -0.3672 -0.1704  0.2331
 6034TIP3    H142297   2.883   0.362   2.447 -0.9369 -1.6489 -0.2672
 6034TIP3    H242298   2.913   0.305   2.310  0.0829  1.4116 -1.3981
 6035TIP3   OH242299   6.453   3.167   1.861 -0.3615  0.2403 -0.3989
 6035TIP3    H142300   6.449   3.079   1.897  1.6324  0.1175 -0.3640
 6035TIP3    H242301   6.436   3.225   1.936  2.1659 -0.0523  0.4893
 6036TIP3   OH242302   1.607   1.660   0.599  0.1751 -0.0947 -0.9035
 6036TIP3    H142303   1.649   1.733   0.552 -0.7805  1.5802  0.7347
 6036TIP3    H242304   1.680   1.617   0.644  0.4429  1.9077  0.7545
 6037TIP3   OH242305   4.719   4.604   3.616 -0.0802 -0.4347  0.1773
 6037TIP3    H142306   4.658   4.555   3.671 -0.2640 -1.0227 -0.5372
 6037TIP3    H242307   4.664   4.647   3.551  0.2478 -0.9903 -0.4861
 6038TIP3   OH242308   0.381   2.846   2.640  0.6881 -0.1058  0.1562
 6038TIP3    H142309   0.427   2.763   2.655 -0.1018 -0.4329  0.8917
 6038TIP3    H242310   0.444   2.914   2.665  1.1094 -0.5095  0.1977
 6039TIP3   OH242311   5.590   1.489   3.104  0.4878 -0.1075  0.4620
 6039TIP3    H142312   5.610   1.482   3.198  1.4972 -0.7377  0.2158
 6039TIP3    H242313   5.505   1.532   3.101  0.1337 -0.6629  1.6972
 6040TIP3   OH242314   5.539   2.333   3.053  0.4768 -0.0185 -0.3517
 6040TIP3    H142315   5.570   2.320   3.143  0.5164 -0.4056 -0.4165
 6040TIP3    H242316   5.489   2.254   3.034  1.2686 -0.3855 -0.9998
 6041TIP3   OH242317   2.750   1.192   1.212  0.1005 -0.5238  0.5064
 6041TIP3    H142318   2.782   1.186   1.302  1.2213 -1.5975  0.0663
 6041TIP3    H242319   2.721   1.283   1.203 -0.3978 -0.4891  2.0504
 6042TIP3   OH242320   0.505   5.924   1.030  0.1895  0.0207  0.3339
 6042TIP3    H142321   0.571   5.961   0.972  0.1178 -1.6781 -0.9071
 6042TIP3    H242322   0.437   5.992   1.036  0.7767  0.7036 -0.5819
 6043TIP3   OH242323   0.617   6.482   1.439 -0.6284  0.0044  0.7619
 6043TIP3    H142324   0.706   6.447   1.440 -0.3510  0.4327 -1.9865
 6043TIP3    H242325   0.565   6.416   1.484  1.0995  0.0143  2.9572
 6044TIP3   OH242326   0.116   0.227   2.225 -0.6571  0.0644  0.4722
 6044TIP3    H142327   0.101   0.232   2.131  0.1984 -1.0244  0.2600
 6044TIP3    H242328   0.159   0.142   2.238 -0.1240  0.5082  1.7542
 6045TIP3   OH242329   6.623   6.674   2.361  0.3048  0.4960 -0.3304
 6045TIP3    H142330   6.707   6.685   2.317  0.3602 -1.4549 -0.8341
 6045TIP3    H242331   6.558   6.681   2.290  0.3451 -1.8938 -0.6873
 6046TIP3   OH242332   4.084   3.979   3.678 -0.3541 -0.1185 -0.0280
 6046TIP3    H142333   4.160   3.999   3.732 -0.2591 -1.2362  0.2698
 6046TIP3    H242334   4.015   3.956   3.740 -0.1254 -1.8308 -0.3428
 6047TIP3   OH242335   6.222   4.179   3.395  0.0124  0.5422  0.0696
 6047TIP3    H142336   6.264   4.095   3.415 -1.0135  0.3385  1.5636
 6047TIP3    H242337   6.284   4.225   3.339  1.0557 -0.7897  0.0894
 6048TIP3   OH242338   1.955   6.674   2.325  0.2074 -0.1717  0.0554
 6048TIP3    H142339   2.019   6.602   2.321  0.0924 -0.4486  2.1875
 6048TIP3    H242340   1.870   6.631   2.320  0.1466  0.0186 -0.6923
 6049TIP3   OH242341   1.684   1.204   2.472 -0.4113  0.5482  0.0548
 6049TIP3    H142342   1.756   1.207   2.536 -1.9717  0.3514  1.9340
 6049TIP3    H242343   1.670   1.296   2.447 -0.2237  0.7153  0.5504
 6050TIP3   OH242344   0.968   5.894   3.055  0.2228  0.7789 -0.7749
 6050TIP3    H142345   0.904   5.965   3.054 -1.6501 -0.8403 -0.9987
 6050TIP3    H242346   1.000   5.891   3.145 -1.5988  0.2860 -0.1171
 6051TIP3   OH242347   2.663   3.556   2.320 -0.1877  0.3062 -0.6879
 6051TIP3    H142348   2.703   3.504   2.389 -2.5093  0.7295  1.1059
 6051TIP3    H242349   2.602   3.496   2.277 -3.8353  1.6046  2.2233
 6052TIP3   OH242350   6.011   6.329   2.141  0.2308  0.0733 -0.4742
 6052TIP3    H142351   6.066   6.295   2.212 -0.3096 -0.4253 -0.2909
 6052TIP3    H242352   6.072   6.339   2.067  0.8686  0.9201  0.1393
 6053TIP3   OH242353   5.852   5.559   2.508  0.0420  0.1683  0.4454
 6053TIP3    H142354   5.884   5.633   2.456  2.6009 -1.1793 -0.0782
 6053TIP3    H242355   5.757   5.566   2.504  0.1901  3.1485  0.0529
 6054TIP3   OH242356   5.601   5.476   0.972 -0.0817 -0.3160 -0.2469
 6054TIP3    H142357   5.552   5.524   0.904 -0.7623  0.3384  0.6719
 6054TIP3    H242358   5.591   5.384   0.948 -0.8462 -0.1299 -0.6965
 6055TIP3   OH242359   3.233   0.843   1.618  0.0387 -0.3418  0.0264
 6055TIP3    H142360   3.163   0.811   1.562 -0.9944 -0.3402  1.2548
 6055TIP3    H242361   3.310   0.792   1.592 -0.5493 -0.7261 -0.9919
 6056TIP3   OH242362   2.183   4.039   3.276 -0.2740 -0.2866  0.4223
 6056TIP3    H142363   2.275   4.063   3.275 -0.3866  0.1523  0.0277
 6056TIP3    H242364   2.141   4.107   3.330 -0.6043  0.4810 -0.7534
 6057TIP3   OH242365   4.675   2.888   1.353  0.9706 -0.2597 -0.4553
 6057TIP3    H142366   4.747   2.951   1.355 -0.0621  1.0028 -1.7802
 6057TIP3    H242367   4.615   2.920   1.286 -1.1649 -0.9222  1.0066
 6058TIP3   OH242368   4.855   2.914   3.541 -0.4248 -0.2626  0.3724
 6058TIP3    H142369   4.806   2.906   3.459  0.5046 -0.3469 -0.1805
 6058TIP3    H242370   4.883   3.006   3.543 -0.1685 -0.3437  0.4482
 6059TIP3   OH242371   3.240   3.772   1.074  0.2789 -0.2867 -0.0475
 6059TIP3    H142372   3.281   3.689   1.098  0.6948 -0.2065 -0.4579
 6059TIP3    H242373   3.178   3.790   1.144  2.4567  0.6691  1.7407
 6060TIP3   OH242374   1.265   5.086   3.938 -0.3164  0.2079  0.3230
 6060TIP3    H142375   1.347   5.131   3.917  1.0367 -2.0779  0.3809
 6060TIP3    H242376   1.277   5.053   4.027  0.5269 -3.6471 -1.0072
 6061TIP3   OH242377   0.465   6.560   3.300  0.5333 -0.1126  0.3220
 6061TIP3    H142378   0.507   6.531   3.219  1.4330 -0.2834  0.8322
 6061TIP3    H242379   0.456   6.481   3.353  0.7868  0.1341  0.7469
 6062TIP3   OH242380   2.705   0.121   0.644  0.2058 -0.2001 -0.2162
 6062TIP3    H142381   2.774   0.177   0.680  0.3364 -0.3385 -0.2516
 6062TIP3    H242382   2.624   0.162   0.672  0.3077 -0.5350  0.5899
 6063TIP3   OH242383   2.394   3.795   2.334 -0.0795  0.5019  0.0934
 6063TIP3    H142384   2.478   3.835   2.359 -0.3130  0.2489  1.3355
 6063TIP3    H242385   2.328   3.846   2.381 -0.5797  0.3058 -0.3881
 6064TIP3   OH242386   1.074   0.267   3.023 -0.6938  0.0112 -0.1008
 6064TIP3    H142387   1.117   0.350   3.005 -1.5724  0.6140  0.5189
 6064TIP3    H242388   1.108   0.241   3.109 -2.0546  0.8505  0.7308
 6065TIP3   OH242389   5.531   4.050   3.099  0.1834 -0.0720  0.4656
 6065TIP3    H142390   5.502   3.978   3.155  0.2364 -0.8513 -0.4693
 6065TIP3    H242391   5.602   4.013   3.047  0.7456  0.8977  0.5199
 6066TIP3   OH242392   2.428   4.147   3.182  0.1926 -0.2720 -0.0465
 6066TIP3    H142393   2.383   4.186   3.107 -0.1155 -1.6005 -0.5960
 6066TIP3    H242394   2.520   4.172   3.172 -0.1230  0.9659  0.0798
 6067TIP3   OH242395   3.201   4.371   1.174 -0.4231 -0.0680 -0.3773
 6067TIP3    H142396   3.236   4.459   1.162 -1.3277  0.1935 -1.1561
 6067TIP3    H242397   3.196   4.334   1.086  0.9011 -1.3028  0.0146
 6068TIP3   OH242398   6.171   2.942   3.563  0.4299 -0.0163 -0.0537
 6068TIP3    H142399   6.232   2.945   3.637  0.8225  2.3200 -0.4131
 6068TIP3    H242400   6.099   3.000   3.589 -0.2488 -0.4798 -0.8365
 6069TIP3   OH242401   0.978   1.219   1.027 -0.3005 -0.0100 -0.2850
 6069TIP3    H142402   0.950   1.134   0.992  1.6357 -0.6101 -0.4881
 6069TIP3    H242403   1.065   1.233   0.989  0.6190  0.7349  1.9518
 6070TIP3   OH242404   1.371   3.052   3.790 -0.0654  0.0368  0.7391
 6070TIP3    H142405   1.451   3.000   3.779  0.1646  0.6516 -0.9692
 6070TIP3    H242406   1.300   2.988   3.795  0.0249 -0.5578 -2.9045
 6071TIP3   OH242407   6.021   1.759   2.791 -0.0521  0.2085  0.0323
 6071TIP3    H142408   5.949   1.770   2.729 -0.1649 -0.2854  0.0713
 6071TIP3    H242409   6.029   1.664   2.802  1.2747  0.1994 -0.7646
 6072TIP3   OH242410   5.248   0.469   2.663  0.0930 -0.2091  0.0975
 6072TIP3    H142411   5.224   0.479   2.571 -0.9970 -0.1411  0.3770
 6072TIP3    H242412   5.309   0.395   2.664  1.0233  0.5176 -0.8149
 6073TIP3   OH242413   5.759   1.525   2.758  0.0974  0.0674  0.2793
 6073TIP3    H142414   5.783   1.434   2.776 -0.9406 -0.3222 -0.2138
 6073TIP3    H242415   5.770   1.570   2.842 -1.5984 -1.0238  1.1437
 6074TIP3   OH242416   4.283   3.697   3.413  0.2851  0.1402 -0.3161
 6074TIP3    H142417   4.361   3.645   3.434 -0.1417  0.5414  2.7972
 6074TIP3    H242418   4.314   3.788   3.416 -0.0944  0.2611  0.0893
 6075TIP3   OH242419   4.595   5.209   2.569  0.6799 -0.1992 -0.2523
 6075TIP3    H142420   4.585   5.129   2.517 -1.9766  0.6803 -1.2689
 6075TIP3    H242421   4.575   5.280   2.509 -0.2771  1.0089  1.3934
 6076TIP3   OH242422   2.320   4.942   4.501 -0.1913  0.3619  0.3118
 6076TIP3    H142423   2.322   4.893   4.584 -0.5264 -0.5881 -0.2331
 6076TIP3    H242424   2.344   5.032   4.526 -0.5325  0.1467  1.4761
 6077TIP3   OH242425   0.502   6.442   1.859 -0.3708 -0.0249  0.4154
 6077TIP3    H142426   0.586   6.446   1.814 -0.8753  0.7892 -0.5113
 6077TIP3    H242427   0.480   6.349   1.862  0.9840 -0.3343  1.5291
 6078TIP3   OH242428   4.967   3.136   3.140  0.1908 -0.1286  0.5111
 6078TIP3    H142429   4.899   3.077   3.105  0.0495  0.1801  0.2542
 6078TIP3    H242430   5.040   3.127   3.079  0.3046 -0.3131  0.6768
 6079TIP3   OH242431   4.457   5.831   2.668  0.3156 -0.2122  0.3058
 6079TIP3    H142432   4.540   5.784   2.662 -0.0308 -0.6690 -1.2080
 6079TIP3    H242433   4.434   5.852   2.578  0.6358  3.2491  0.9100
 6080TIP3   OH242434   3.610   3.446   2.584 -0.0289  0.1655  0.7344
 6080TIP3    H142435   3.575   3.528   2.619 -0.7196  1.8631 -3.3052
 6080TIP3    H242436   3.537   3.408   2.536  1.0385 -1.4400  0.3141
 6081TIP3   OH242437   0.197   3.051   1.410  0.1587 -0.0910 -0.3143
 6081TIP3    H142438   0.156   3.082   1.490 -0.3872 -1.4998 -0.0207
 6081TIP3    H242439   0.278   3.009   1.439  1.2790  1.6373 -0.7793
 6082TIP3   OH242440   2.674   2.116   3.109  0.1625 -0.0316 -0.0404
 6082TIP3    H142441   2.653   2.090   3.019  0.4106  2.3621 -0.8785
 6082TIP3    H242442   2.638   2.047   3.163 -1.3584 -0.8076 -1.9118
 6083TIP3   OH242443   3.389   5.536   2.503 -0.1656  0.1357 -0.1210
 6083TIP3    H142444   3.323   5.605   2.505  0.6087  0.9239  2.3745
 6083TIP3    H242445   3.467   5.577   2.541  0.8919 -1.5897 -0.3205
 6084TIP3   OH242446   5.487   2.442   3.623  0.3331  0.3838  0.3399
 6084TIP3    H142447   5.460   2.484   3.542 -0.5454 -0.2182  0.3065
 6084TIP3    H242448   5.432   2.364   3.629  1.9631 -0.8027  0.3774
 6085TIP3   OH242449   0.190   2.290   1.129 -0.1358 -0.1675  0.4833
 6085TIP3    H142450   0.132   2.256   1.061 -1.1502  0.6236  0.9307
 6085TIP3    H242451   0.224   2.372   1.094 -1.7963  0.9854  1.4700
 6086TIP3   OH242452   5.629   0.949   0.620 -0.0562 -0.1842 -0.3598
 6086TIP3    H142453   5.702   0.996   0.580  2.1433 -1.8149  1.5018
 6086TIP3    H242454   5.587   1.013   0.677  1.3745  0.1942  0.2963
 6087TIP3   OH242455   0.412   5.384   2.410  0.1159  0.5386 -0.2186
 6087TIP3    H142456   0.457   5.311   2.454 -0.8692 -0.0831 -0.2057
 6087TIP3    H242457   0.361   5.426   2.479  1.9255  2.2968  0.1358
 6088TIP3   OH242458   2.544   5.102   2.357 -0.0316  0.2653 -0.0781
 6088TIP3    H142459   2.623   5.136   2.399  0.4574 -1.7262  0.7525
 6088TIP3    H242460   2.569   5.086   2.266 -0.3086  2.1524 -0.5085
 6089TIP3   OH242461   3.002   0.356   3.626  0.5895  0.2744 -0.1995
 6089TIP3    H142462   2.997   0.406   3.707  1.2654  1.2819 -0.7676
 6089TIP3    H242463   2.995   0.421   3.556  0.0252 -0.5755 -0.9644
 6090TIP3   OH242464   0.499   1.225   2.569  0.2967  0.0941 -1.0231
 6090TIP3    H142465   0.542   1.167   2.507  0.3983  0.9573 -1.7865
 6090TIP3    H242466   0.410   1.235   2.535 -0.3780 -1.2417  0.2470
 6091TIP3   OH242467   0.126   4.463   3.770 -0.2807  0.4724  0.0307
 6091TIP3    H142468   0.193   4.531   3.775  0.8925 -0.3357 -2.5990
 6091TIP3    H242469   0.169   4.385   3.806 -0.2673  0.2721 -0.4091
 6092TIP3   OH242470   5.091   4.423   1.630 -0.2322  0.0017  0.1612
 6092TIP3    H142471   5.016   4.415   1.571 -1.7527  1.2767  1.7912
 6092TIP3    H242472   5.095   4.339   1.675 -0.2685 -0.2962 -0.3842
 6093TIP3   OH242473   2.040   5.486   2.383 -0.4942  0.4592  0.0963
 6093TIP3    H142474   2.019   5.579   2.375 -0.6235  0.5916  1.7215
 6093TIP3    H242475   1.956   5.444   2.403 -0.5406 -0.1171 -1.1530
 6094TIP3   OH242476   4.931   2.099   1.827  0.3007  0.0381  0.1604
 6094TIP3    H142477   4.969   2.187   1.817  0.5618 -0.1006 -0.0962
 6094TIP3    H242478   4.872   2.106   1.902 -0.5013  0.7216 -0.5114
 6095TIP3   OH242479   2.329   6.363   1.864 -0.1161  0.3427 -0.1309
 6095TIP3    H142480   2.288   6.432   1.916  0.6487  0.1800  0.7114
 6095TIP3    H242481   2.417   6.355   1.900  0.2010 -0.2543 -1.0076
 6096TIP3   OH242482   1.505   4.248   0.684  0.2545 -0.3397  0.2491
 6096TIP3    H142483   1.588   4.204   0.666  0.4829 -0.0666  0.6324
 6096TIP3    H242484   1.472   4.274   0.598  1.0189  0.3781  0.1699
 6097TIP3   OH242485   3.849   6.115   0.832 -0.2558  0.8111 -0.4454
 6097TIP3    H142486   3.759   6.141   0.810  0.1449  2.0023 -0.7042
 6097TIP3    H242487   3.877   6.179   0.897  0.3714  0.3585 -0.2614
 6098TIP3   OH242488   3.680   3.647   3.204 -0.0511  0.5733  0.2933
 6098TIP3    H142489   3.751   3.710   3.195  0.5630  0.1531  1.7666
 6098TIP3    H242490   3.688   3.615   3.294 -1.2960 -0.4673  0.0697
 6099TIP3   OH242491   0.442   2.174   0.375  0.0953 -0.1586 -0.1007
 6099TIP3    H142492   0.473   2.169   0.285  0.8797  0.4705  0.1256
 6099TIP3    H242493   0.387   2.096   0.386  0.5017 -0.5704 -0.9241
 6100TIP3   OH242494   4.675   3.456   0.530  0.3569  0.3730 -0.1414
 6100TIP3    H142495   4.624   3.424   0.606  0.6390  0.4245  0.0703
 6100TIP3    H242496   4.763   3.424   0.546 -0.1030 -2.0385 -1.8233
 6101TIP3   OH242497   3.003   6.700   0.646  0.2298  0.1728 -0.3666
 6101TIP3    H142498   2.916   6.734   0.625 -0.2544 -2.0042 -2.3224
 6101TIP3    H242499   3.057   6.723   0.571  0.8340 -0.1063 -0.0247
 6102TIP3   OH242500   4.858   6.048   4.073 -0.3952 -0.2674  0.5943
 6102TIP3    H142501   4.951   6.031   4.058 -0.4891 -1.1120  0.9477
 6102TIP3    H242502   4.816   6.023   3.990 -0.6598 -2.9218  1.4295
 6103TIP3   OH242503   6.163   4.319   3.629  0.1886 -0.1511  0.4010
 6103TIP3    H142504   6.194   4.279   3.548  0.1018  0.5047  0.0450
 6103TIP3    H242505   6.170   4.248   3.694 -1.2291 -1.1564 -0.4965
 6104TIP3   OH242506   4.032   4.934   1.189  0.0655  0.0050 -0.0986
 6104TIP3    H142507   3.939   4.940   1.169 -0.3530  0.0704  1.6363
 6104TIP3    H242508   4.061   4.854   1.145 -1.3501 -1.2074  1.0272
 6105TIP3   OH242509   1.986   0.178   1.334  1.2049 -0.2879  0.0583
 6105TIP3    H142510   1.907   0.177   1.387  1.8720 -0.6390  1.0796
 6105TIP3    H242511   2.013   0.270   1.334  1.3224 -0.3199  0.5197
 6106TIP3   OH242512   3.546   3.822   2.060  0.1167 -0.4484  0.7822
 6106TIP3    H142513   3.605   3.861   2.125  0.0114 -0.6959  1.0232
 6106TIP3    H242514   3.603   3.804   1.985  0.0977  0.5367  0.5093
 6107TIP3   OH242515   2.327   3.853   0.865  0.3595 -0.3273 -0.1339
 6107TIP3    H142516   2.278   3.934   0.850  1.0452  0.0031 -0.6545
 6107TIP3    H242517   2.314   3.802   0.785  1.7454  0.2367 -0.7428
 6108TIP3   OH242518   3.673   4.254   3.895  0.9159 -0.6986  0.5306
 6108TIP3    H142519   3.656   4.333   3.844 -1.4544 -2.2111 -1.2421
 6108TIP3    H242520   3.728   4.200   3.839  1.2404 -0.9495  1.0790
 6109TIP3   OH242521   0.138   5.500   2.965  0.3035  0.3454  0.5183
 6109TIP3    H142522   0.192   5.521   3.041 -1.0522 -1.2030  1.9756
 6109TIP3    H242523   0.114   5.408   2.976 -0.4227  0.2251 -1.5017
 6110TIP3   OH242524   6.371   0.080   3.099  0.1913  0.2326 -0.4674
 6110TIP3    H142525   6.354   0.001   3.151  1.3150  0.5161  0.3778
 6110TIP3    H242526   6.329   0.150   3.148 -1.7808  0.0639 -1.7902
 6111TIP3   OH242527   6.620   4.240   3.254 -0.6886 -0.3613 -0.2141
 6111TIP3    H142528   6.703   4.229   3.208 -0.1841 -1.1253  0.8453
 6111TIP3    H242529   6.638   4.212   3.344 -2.4386 -1.9456 -0.2978
 6112TIP3   OH242530   4.234   0.912   1.691  0.1529 -0.4860 -0.3415
 6112TIP3    H142531   4.257   1.002   1.670 -0.1408 -0.5378 -0.9031
 6112TIP3    H242532   4.202   0.875   1.608 -1.0166 -0.7017  0.1844
 6113TIP3   OH242533   0.824   0.287   2.685 -0.4407 -0.2472 -0.4088
 6113TIP3    H142534   0.753   0.348   2.708 -1.7915 -1.9091 -0.0046
 6113TIP3    H242535   0.893   0.344   2.650 -1.0727  1.6505  1.2364
 6114TIP3   OH242536   5.671   4.362   0.721 -0.1055  0.5010 -0.0913
 6114TIP3    H142537   5.640   4.340   0.809 -0.5331  0.2771 -0.2938
 6114TIP3    H242538   5.679   4.278   0.676  2.2805  0.3766  0.4083
 6115TIP3   OH242539   1.579   0.377   1.922 -0.3128 -0.4179 -0.3112
 6115TIP3    H142540   1.586   0.387   1.827  1.3488 -0.2354 -0.2065
 6115TIP3    H242541   1.515   0.443   1.949  1.4504  1.7071 -0.9994
 6116TIP3   OH242542   1.239   0.100   1.738  0.0465 -0.4301 -0.0349
 6116TIP3    H142543   1.192   0.043   1.798  0.4053 -1.9192 -1.1137
 6116TIP3    H242544   1.329   0.101   1.771 -0.3072  1.0047  1.0083
 6117TIP3   OH242545   5.213   2.664   0.991 -0.0863  0.0736 -0.0390
 6117TIP3    H142546   5.307   2.679   0.981  0.1077 -1.1780 -0.3452
 6117TIP3    H242547   5.194   2.693   1.080  0.3937  1.1918 -0.2806
 6118TIP3   OH242548   6.021   0.806   1.909  0.1788  0.4358 -0.0579
 6118TIP3    H142549   6.049   0.898   1.907 -0.0543  0.5172  0.2261
 6118TIP3    H242550   5.928   0.809   1.889 -0.1166  0.3960  1.1890
 6119TIP3   OH242551   2.850   0.722   0.718  0.0427  0.0275 -0.0636
 6119TIP3    H142552   2.816   0.693   0.803 -0.0372 -1.2457 -0.5066
 6119TIP3    H242553   2.892   0.806   0.737 -1.7190  0.7671  0.8479
 6120TIP3   OH242554   4.690   0.196   2.590 -0.4295  0.3862  0.2168
 6120TIP3    H142555   4.716   0.283   2.618  0.5959  0.0147  0.4781
 6120TIP3    H242556   4.653   0.155   2.668  0.3353  0.1299  0.4499
 6121TIP3   OH242557   2.880   3.054   1.986 -0.4457 -0.6796  0.0791
 6121TIP3    H142558   2.925   3.138   1.985 -0.5402 -0.5187  2.7505
 6121TIP3    H242559   2.795   3.072   1.945 -0.2721  0.4040  0.1638
 6122TIP3   OH242560   1.158   5.499   1.856 -0.0605 -0.1833  0.6397
 6122TIP3    H142561   1.170   5.418   1.906  1.3894  0.5043  1.4620
 6122TIP3    H242562   1.180   5.569   1.917 -0.8027  0.8312 -0.2081
 6123TIP3   OH242563   1.263   2.891   2.692 -0.0718 -0.2297  0.1258
 6123TIP3    H142564   1.213   2.915   2.613 -0.1276  0.1031  0.2585
 6123TIP3    H242565   1.274   2.974   2.738  1.2051 -0.1765 -0.2450
 6124TIP3   OH242566   0.083   5.264   2.642  0.3038  0.3609 -0.1471
 6124TIP3    H142567   0.102   5.183   2.690  0.9278  0.4818 -0.1830
 6124TIP3    H242568   0.013   5.240   2.581 -0.5459  0.2178  0.8641
 6125TIP3   OH242569   2.894   1.911   3.862  0.1261 -0.1220 -0.6876
 6125TIP3    H142570   2.809   1.867   3.854  0.5798 -1.2764  0.4756
 6125TIP3    H242571   2.949   1.848   3.909  0.9380  1.5460  0.6924
 6126TIP3   OH242572   4.173   4.999   1.418 -0.1728  0.2184 -0.1918
 6126TIP3    H142573   4.126   5.070   1.460  2.0035  0.9244  1.2024
 6126TIP3    H242574   4.133   4.991   1.331 -2.1644  1.3712  0.5788
 6127TIP3   OH242575   2.150   3.235   1.215  0.5326 -0.1483 -0.6274
 6127TIP3    H142576   2.192   3.308   1.260  1.4409  0.1650 -1.9175
 6127TIP3    H242577   2.132   3.269   1.127 -0.0979 -1.1161 -0.8861
 6128TIP3   OH242578   5.573   1.789   1.963  0.4105 -0.5163 -0.4043
 6128TIP3    H142579   5.667   1.798   1.974  0.5882 -0.1578 -2.0344
 6128TIP3    H242580   5.545   1.737   2.038  1.7543  0.1639  0.5984
 6129TIP3   OH242581   5.665   4.872   2.656 -0.2234  0.0254  0.1306
 6129TIP3    H142582   5.701   4.961   2.661 -3.0403  1.2688  0.3679
 6129TIP3    H242583   5.649   4.858   2.563  0.7412 -0.5024  0.0310
 6130TIP3   OH242584   5.404   2.868   3.871  0.1664 -0.2811  0.3281
 6130TIP3    H142585   5.452   2.893   3.950 -0.3165  0.0042  0.5358
 6130TIP3    H242586   5.430   2.778   3.855  1.4290  0.1325 -0.0498
 6131TIP3   OH242587   5.424   4.283   1.004  0.0188  0.6802 -0.4808
 6131TIP3    H142588   5.481   4.335   1.062  1.1421 -0.0351 -0.9219
 6131TIP3    H242589   5.381   4.220   1.063 -0.0548  0.9856 -0.2020
 6132TIP3   OH242590   6.167   3.065   4.814  0.6282  0.1636 -0.7604
 6132TIP3    H142591   6.092   3.058   4.755  0.2089  0.3359 -0.2590
 6132TIP3    H242592   6.129   3.095   4.896  1.3037  0.6232 -0.6134
 6133TIP3   OH242593   1.000   5.442   2.259 -0.0775 -0.9415  0.3616
 6133TIP3    H142594   1.039   5.355   2.248  0.8090 -0.4574 -0.4268
 6133TIP3    H242595   1.029   5.471   2.345 -1.1736 -1.8113  1.0520
 6134TIP3   OH242596   0.672   4.475   2.857  0.3356 -0.4181 -0.5563
 6134TIP3    H142597   0.703   4.401   2.909  2.0243  0.1246 -0.7290
 6134TIP3    H242598   0.661   4.439   2.769 -0.3000 -0.8047 -0.3226
 6135TIP3   OH242599   4.792   4.906   3.097 -0.0384 -0.0752  0.1441
 6135TIP3    H142600   4.808   4.987   3.146 -0.2558  1.1591 -1.7044
 6135TIP3    H242601   4.701   4.884   3.117 -0.0282  0.2347  0.5458
 6136TIP3   OH242602   1.801   1.588   2.799 -0.5201  0.4505 -0.3478
 6136TIP3    H142603   1.884   1.623   2.833 -0.9354  0.6613  0.4676
 6136TIP3    H242604   1.735   1.617   2.862 -1.3956  1.2910 -1.5920
 6137TIP3   OH242605   2.045   3.967   2.236 -0.0938 -0.0021  0.6973
 6137TIP3    H142606   2.128   4.013   2.228  0.8948 -1.6461  0.9849
 6137TIP3    H242607   2.000   4.010   2.308  0.0155  1.6012 -0.1615
 6138TIP3   OH242608   6.035   2.309   2.552  0.5296  0.1790 -0.8916
 6138TIP3    H142609   6.030   2.359   2.471  1.9142  1.8029 -0.0516
 6138TIP3    H242610   5.945   2.304   2.583  0.0335 -0.1547 -2.3196
 6139TIP3   OH242611   3.407   4.957   2.511  0.0424 -0.2278 -0.0403
 6139TIP3    H142612   3.410   4.862   2.526 -0.0741 -0.1345  0.5814
 6139TIP3    H242613   3.491   4.978   2.472 -1.2147 -1.1719 -3.6939
 6140TIP3   OH242614   3.083   3.474   2.474 -1.1127 -0.1364  0.5227
 6140TIP3    H142615   3.163   3.512   2.439 -1.0415 -0.9178 -0.2015
 6140TIP3    H242616   3.098   3.467   2.568 -1.0785  1.4621  0.6738
 6141TIP3   OH242617   5.930   5.329   2.285  0.0336 -0.2124  0.0131
 6141TIP3    H142618   5.941   5.352   2.377 -0.7768  0.6523 -0.0836
 6141TIP3    H242619   5.969   5.242   2.277 -0.5294 -0.6179  1.3354
 6142TIP3   OH242620   1.034   3.486   4.286  0.3385 -0.3373  1.1026
 6142TIP3    H142621   1.099   3.462   4.351 -0.0176 -0.2541  1.4941
 6142TIP3    H242622   1.039   3.582   4.282  1.2130 -0.4089  0.1116
 6143TIP3   OH242623   1.787   5.535   3.151 -0.0366  0.0369 -0.3087
 6143TIP3    H142624   1.743   5.532   3.066  0.1730  0.6738 -0.4424
 6143TIP3    H242625   1.719   5.565   3.211  0.1108  0.6459 -0.4463
 6144TIP3   OH242626   4.270   2.985   3.809  0.5160 -1.2188  1.0386
 6144TIP3    H142627   4.324   2.939   3.874 -0.0397  0.0235  2.4472
 6144TIP3    H242628   4.210   3.037   3.861  1.5617  1.6468 -0.4258
 6145TIP3   OH242629   5.413   2.609   1.804 -0.5718 -0.1561  0.2988
 6145TIP3    H142630   5.465   2.619   1.725 -0.7151  1.2011  0.3599
 6145TIP3    H242631   5.461   2.545   1.857 -1.1591 -2.1434 -1.4147
 6146TIP3   OH242632   6.353   4.008   1.049  0.0248  0.2924  0.1813
 6146TIP3    H142633   6.304   3.973   1.123  1.4269 -1.1096  0.5010
 6146TIP3    H242634   6.412   3.937   1.024  0.8837  1.4117 -1.0879
 6147TIP3   OH242635   6.326   0.533   2.740 -0.5798  0.6014 -0.1881
 6147TIP3    H142636   6.269   0.551   2.814  2.7889  2.8842  2.1418
 6147TIP3    H242637   6.351   0.620   2.708  1.4711 -0.2750 -1.1357
 6148TIP3   OH242638   3.346   6.518   3.194  0.0049  0.0326  0.2917
 6148TIP3    H142639   3.300   6.563   3.123 -0.8881  1.1727  1.5431
 6148TIP3    H242640   3.276   6.487   3.251  0.7435  0.2693  1.3417
 6149TIP3   OH242641   2.593   4.022   3.395 -0.4940 -0.2135  0.2341
 6149TIP3    H142642   2.557   3.950   3.447 -0.7230 -0.1783  0.1210
 6149TIP3    H242643   2.527   4.041   3.329 -0.5497  0.2782  0.4281
 6150TIP3   OH242644   5.508   2.680   1.016 -0.0176 -0.1295  0.1831
 6150TIP3    H142645   5.560   2.684   1.096 -1.3859  1.0039  1.0648
 6150TIP3    H242646   5.489   2.772   0.996 -0.7488 -0.4682 -0.7269
 6151TIP3   OH242647   4.568   3.053   3.314 -0.0078  0.2897 -0.0840
 6151TIP3    H142648   4.491   3.070   3.259  0.9607  1.8280 -1.0191
 6151TIP3    H242649   4.596   2.965   3.288 -1.3904 -0.2859  0.2407
 6152TIP3   OH242650   2.538   0.422   1.929 -0.0133  0.0800  0.1869
 6152TIP3    H142651   2.558   0.474   2.007  0.5822 -0.2738  0.2766
 6152TIP3    H242652   2.498   0.484   1.868 -1.8431  0.0781  1.2919
 6153TIP3   OH242653   2.180   5.805   3.869 -0.6266 -0.4165  0.1318
 6153TIP3    H142654   2.272   5.785   3.886 -0.5998 -1.2190 -0.8246
 6153TIP3    H242655   2.139   5.805   3.955  0.4235  0.8276  0.6506
 6154TIP3   OH242656   6.541   1.337   3.566 -0.6407  0.2809 -0.2640
 6154TIP3    H142657   6.456   1.294   3.558 -0.3071 -1.2710  2.8586
 6154TIP3    H242658   6.604   1.271   3.537 -0.2248 -1.0372  3.1826
 6155TIP3   OH242659   3.517   0.278   0.929  0.0490  0.1920  0.0120
 6155TIP3    H142660   3.603   0.237   0.938 -0.5889 -0.8007  2.6804
 6155TIP3    H242661   3.512   0.305   0.837  2.2347 -1.8575 -0.8035
 6156TIP3   OH242662   2.121   1.746   0.582  0.7562  0.1653 -0.0322
 6156TIP3    H142663   2.061   1.676   0.610 -0.4134  1.2862  0.3684
 6156TIP3    H242664   2.075   1.789   0.510  1.0175  1.1249  0.3649
 6157TIP3   OH242665   1.452   1.468   3.246  0.3173  0.3240  0.6126
 6157TIP3    H142666   1.376   1.417   3.276 -1.2160  1.3040 -1.3314
 6157TIP3    H242667   1.418   1.520   3.173  3.7259 -2.1447 -3.1571
 6158TIP3   OH242668   5.858   2.057   2.380 -0.0993 -0.0574  0.7051
 6158TIP3    H142669   5.762   2.052   2.375 -0.0764 -0.1530  0.2678
 6158TIP3    H242670   5.881   2.124   2.316 -0.0693  2.2450  3.0035
 6159TIP3   OH242671   5.664   2.737   2.575 -0.1920  0.5494 -0.4677
 6159TIP3    H142672   5.640   2.716   2.666 -0.3805 -0.5533 -0.7525
 6159TIP3    H242673   5.744   2.686   2.560 -0.5547  0.1592 -1.1328
 6160TIP3   OH242674   3.453   3.743   0.653 -0.2813  0.2332 -0.1027
 6160TIP3    H142675   3.369   3.703   0.673  0.1528 -0.1878  0.9890
 6160TIP3    H242676   3.518   3.678   0.682  0.4150  0.4320 -1.1776
 6161TIP3   OH242677   5.380   2.222   1.010 -0.1787 -0.0467 -0.1333
 6161TIP3    H142678   5.380   2.258   1.099 -0.4079  0.4593 -0.3401
 6161TIP3    H242679   5.405   2.130   1.022  1.3634  0.4054  0.2969
 6162TIP3   OH242680   5.451   5.293   2.706  0.5604 -0.0372  0.0126
 6162TIP3    H142681   5.507   5.227   2.747 -1.1173 -0.7740  1.1905
 6162TIP3    H242682   5.381   5.308   2.769 -0.4717  1.0231 -1.3291
 6163TIP3   OH242683   6.546   5.728   1.674 -0.1776  0.2495 -0.3592
 6163TIP3    H142684   6.537   5.822   1.657 -1.0250 -0.1177 -2.1221
 6163TIP3    H242685   6.639   5.710   1.658  0.2565  0.9757  1.1689
 6164TIP3   OH242686   0.985   1.762   3.746  0.6385 -0.0350 -0.0296
 6164TIP3    H142687   0.897   1.783   3.774  0.4558 -0.1668 -0.4913
 6164TIP3    H242688   0.973   1.697   3.676  1.0390  0.8796 -0.9697
 6165TIP3   OH242689   5.612   3.413   3.241  0.7860 -0.0089 -0.5574
 6165TIP3    H142690   5.655   3.339   3.199  1.7317 -0.4313  1.0787
 6165TIP3    H242691   5.582   3.468   3.169  0.5920 -1.6724 -1.7962
 6166TIP3   OH242692   4.773   3.935   4.201 -0.5721  0.0273  0.4714
 6166TIP3    H142693   4.829   3.978   4.266  0.6017 -1.2048  0.3361
 6166TIP3    H242694   4.696   3.908   4.251  0.8446 -2.0094  1.7574
 6167TIP3   OH242695   0.932   4.233   5.790 -0.0670 -0.0976  0.0002
 6167TIP3    H142696   0.896   4.232   5.701 -1.0334 -0.3491  0.3743
 6167TIP3    H242697   0.968   4.146   5.802  2.7230  0.7873 -1.1396
 6168TIP3   OH242698   5.309   3.048   0.557 -0.1893 -0.4659  0.0705
 6168TIP3    H142699   5.396   3.015   0.579  0.4029 -1.2331 -3.0096
 6168TIP3    H242700   5.310   3.139   0.586  1.5704 -0.5085  0.2593
 6169TIP3   OH242701   1.246   2.846  11.388  0.1072  0.6555  0.2974
 6169TIP3    H142702   1.203   2.777  11.337 -0.1599  0.9636  0.1015
 6169TIP3    H242703   1.195   2.850  11.469  1.4777 -0.9336  1.3191
 6170TIP3   OH242704   3.925   4.372   4.456 -0.1843 -0.0914 -0.1121
 6170TIP3    H142705   3.885   4.341   4.375  2.0446 -0.4605 -1.1636
 6170TIP3    H242706   3.928   4.295   4.513 -3.9133  0.6783  1.3967
 6171TIP3   OH242707   3.242   1.213   3.075 -0.0442 -0.3638 -0.4947
 6171TIP3    H142708   3.244   1.175   2.987 -1.1818 -1.5238 -0.0538
 6171TIP3    H242709   3.194   1.295   3.064  1.7938  0.6678 -1.3280
 6172TIP3   OH242710   6.500   3.122   1.427 -0.7787  0.5415 -0.3669
 6172TIP3    H142711   6.560   3.124   1.501 -0.9326 -0.0063 -0.2240
 6172TIP3    H242712   6.557   3.130   1.350 -0.5576  0.4262 -0.2172
 6173TIP3   OH242713   0.641   1.714   2.059  0.2009 -0.3646 -0.2949
 6173TIP3    H142714   0.578   1.644   2.040 -1.6201  1.0818  0.1472
 6173TIP3    H242715   0.624   1.737   2.150  0.6612  0.7558 -0.4803
 6174TIP3   OH242716   2.963   6.325   1.210  0.6176 -0.2056  0.3303
 6174TIP3    H142717   2.994   6.309   1.299  1.0093 -2.6608 -0.1868
 6174TIP3    H242718   2.917   6.409   1.215  2.7567  0.9348  2.2759
 6175TIP3   OH242719   4.753   4.188   2.247 -0.3395 -0.0800 -0.1730
 6175TIP3    H142720   4.793   4.216   2.164 -1.2842  0.3155 -0.5089
 6175TIP3    H242721   4.788   4.100   2.262  2.3898  1.0427  0.7032
 6176TIP3   OH242722   3.953   6.165   0.527  0.2996  0.5309 -0.2441
 6176TIP3    H142723   3.974   6.092   0.470  1.4855 -0.1498  1.0295
 6176TIP3    H242724   3.861   6.151   0.550  0.9803 -1.6205  1.4385
 6177TIP3   OH242725   5.725   0.192   1.960 -0.0492  0.1714 -0.0694
 6177TIP3    H142726   5.779   0.223   2.033 -2.0164  2.2325  0.6493
 6177TIP3    H242727   5.717   0.097   1.975  2.7279 -0.1096  0.1279
 6178TIP3   OH242728   5.381   5.420   2.459  0.3061  0.6439 -0.2552
 6178TIP3    H142729   5.409   5.348   2.515 -0.1863  1.3612  0.9359
 6178TIP3    H242730   5.333   5.377   2.388 -0.3374 -0.1867  0.6530
 6179TIP3   OH242731   1.406   1.961   2.264 -0.3553 -0.1078  0.1212
 6179TIP3    H142732   1.385   1.900   2.194 -1.1127 -0.0155  0.2549
 6179TIP3    H242733   1.442   2.038   2.219  0.8253 -0.7335 -0.0272
 6180TIP3   OH242734   0.552   2.484   0.617 -0.4130  0.1958  0.2555
 6180TIP3    H142735   0.520   2.570   0.645 -0.4339  0.0524  0.6774
 6180TIP3    H242736   0.647   2.495   0.611 -0.5670  0.8538 -1.7889
 6181TIP3   OH242737   3.823   3.464   1.323 -0.2233  0.6473 -0.7203
 6181TIP3    H142738   3.870   3.419   1.254 -0.6140  0.7681 -1.0695
 6181TIP3    H242739   3.733   3.433   1.315  0.2796 -1.7388  1.6898
 6182TIP3   OH242740   6.427   1.782   1.376  0.0449  0.1922 -0.4345
 6182TIP3    H142741   6.460   1.725   1.307 -0.2731 -0.1547 -0.3009
 6182TIP3    H242742   6.480   1.761   1.453 -0.4658 -0.3517 -0.2250
 6183TIP3   OH242743   6.610   6.604   1.212  0.3198  0.1977 -0.0736
 6183TIP3    H142744   6.606   6.572   1.302  2.4899 -1.5389 -0.5295
 6183TIP3    H242745   6.579   6.531   1.159  0.0815  0.8230 -0.8135
 6184TIP3   OH242746   3.800   2.411   0.734 -0.2882 -0.1263  0.2394
 6184TIP3    H142747   3.770   2.425   0.824  0.1615  0.6873  0.2716
 6184TIP3    H242748   3.795   2.498   0.693  0.4712 -0.2895 -0.2187
 6185TIP3   OH242749   0.461   1.485   0.929 -0.0280 -0.1171 -0.1237
 6185TIP3    H142750   0.456   1.520   0.840  0.2561  0.0802 -0.0610
 6185TIP3    H242751   0.537   1.528   0.968  0.6174 -1.1667 -0.2011
 6186TIP3   OH242752   1.066   5.710   2.664  0.4563  0.5931  0.6652
 6186TIP3    H142753   0.977   5.687   2.691  0.8642 -1.8485  0.1783
 6186TIP3    H242754   1.112   5.728   2.746  0.3158 -1.4903  1.2776
 6187TIP3   OH242755   4.941   1.718   1.399 -0.2724 -0.7430  0.6011
 6187TIP3    H142756   4.859   1.760   1.422  1.2389  2.0971  1.2926
 6187TIP3    H242757   4.974   1.768   1.325  1.6504 -0.6034  1.4858
 6188TIP3   OH242758   5.659   3.414   4.360 -0.3295 -0.2710  0.3326
 6188TIP3    H142759   5.647   3.460   4.443 -0.4972 -0.0708  0.2004
 6188TIP3    H242760   5.583   3.356   4.354  1.5266 -3.1096  2.0986
 6189TIP3   OH242761   0.511   3.455   4.172  0.1716  0.2517 -0.3838
 6189TIP3    H142762   0.593   3.445   4.221 -0.5414 -0.2222  0.7611
 6189TIP3    H242763   0.446   3.410   4.226 -0.3826 -1.7757 -2.5611
 6190TIP3   OH242764   5.075   2.556   0.778  0.3810 -0.5199  0.2436
 6190TIP3    H142765   5.052   2.641   0.740  1.4401 -0.8604 -1.2509
 6190TIP3    H242766   5.124   2.578   0.857 -0.0624  0.2432  0.3237
 6191TIP3   OH242767   4.208   5.744   2.800 -0.1564 -0.1325 -0.0420
 6191TIP3    H142768   4.189   5.827   2.843  2.4797 -0.0561  1.2149
 6191TIP3    H242769   4.296   5.756   2.763 -0.3726 -1.8499 -1.2205
 6192TIP3   OH242770   3.139   3.170   3.340 -0.3624  0.1337 -0.1103
 6192TIP3    H142771   3.049   3.177   3.370 -0.9020  0.9842 -1.8304
 6192TIP3    H242772   3.167   3.260   3.324  0.4459 -0.1902 -0.5896
 6193TIP3   OH242773   1.628   5.736   2.987 -0.2217  0.1148  0.4460
 6193TIP3    H142774   1.696   5.768   3.046  0.4224  1.2722 -0.8732
 6193TIP3    H242775   1.647   5.778   2.903 -0.9483 -1.6671 -0.6718
 6194TIP3   OH242776   6.406   4.082   2.822  0.5669  0.3587 -0.1064
 6194TIP3    H142777   6.401   4.169   2.783 -0.3264  0.6866  0.7184
 6194TIP3    H242778   6.457   4.094   2.902  1.0338 -0.0150 -0.3384
 6195TIP3   OH242779   1.584   1.004   0.587 -0.6101 -0.4759 -0.2141
 6195TIP3    H142780   1.678   1.003   0.603 -0.2230  2.8174 -1.4250
 6195TIP3    H242781   1.567   0.927   0.533  1.4689 -0.8231 -0.4431
 6196TIP3   OH242782   3.944   5.806   2.409  0.2734  0.0875 -0.0331
 6196TIP3    H142783   3.891   5.869   2.360 -1.4254 -0.4972  0.9518
 6196TIP3    H242784   3.911   5.721   2.381 -0.3014 -0.2677  1.6135
 6197TIP3   OH242785   3.915   4.443   2.263  0.1953 -0.1082  0.1046
 6197TIP3    H142786   3.907   4.401   2.178  0.2720 -0.1077  0.0975
 6197TIP3    H242787   3.921   4.371   2.325  0.0190 -0.1100  0.1214
 6198TIP3   OH242788   4.249   4.817   1.622 -0.1279 -0.0621  0.0816
 6198TIP3    H142789   4.182   4.797   1.688 -0.6923 -0.8146 -0.7121
 6198TIP3    H242790   4.204   4.874   1.559  0.3711  0.5337  0.2485
 6199TIP3   OH242791   5.884   4.619   3.370 -0.4249 -0.0478 -0.6202
 6199TIP3    H142792   5.799   4.656   3.344 -0.7442 -1.0005 -0.9611
 6199TIP3    H242793   5.938   4.628   3.291  0.4720  2.3889  0.1602
 6200TIP3   OH242794   0.041   3.289   0.761 -0.2738  0.4916 -0.4051
 6200TIP3    H142795   0.086   3.350   0.819 -0.8381  0.9587 -0.4399
 6200TIP3    H242796   0.089   3.207   0.768 -0.9628  0.2134  1.5529
 6201TIP3   OH242797   4.779   2.177   2.031 -0.3131 -0.1068  0.3083
 6201TIP3    H142798   4.761   2.145   2.119 -2.1706  0.2992  0.1142
 6201TIP3    H242799   4.806   2.268   2.044  0.0141 -0.2290  0.4949
 6202TIP3   OH242800   6.452   4.173   1.757  0.0083  0.4701 -0.0516
 6202TIP3    H142801   6.449   4.195   1.850  0.1618 -1.5017  0.4753
 6202TIP3    H242802   6.510   4.238   1.719 -0.0632  1.3245  1.2204
 6203TIP3   OH242803   5.790   6.471   2.290  0.2724  0.1387  0.0092
 6203TIP3    H142804   5.835   6.424   2.220 -0.0985 -0.6573  0.2946
 6203TIP3    H242805   5.861   6.509   2.342  0.5770 -0.0387 -0.2713
 6204TIP3   OH242806   1.413   4.553   2.033  0.0002 -0.0827  0.5991
 6204TIP3    H142807   1.414   4.461   2.007 -2.6738 -0.0771  0.1220
 6204TIP3    H242808   1.459   4.556   2.117 -0.2516 -1.9526  0.8309
 6205TIP3   OH242809   4.913   1.417   1.433 -0.6956  0.4518  0.6485
 6205TIP3    H142810   4.971   1.475   1.384  0.1951 -1.0728 -0.1737
 6205TIP3    H242811   4.963   1.393   1.511  0.5452 -2.1129 -0.8107
 6206TIP3   OH242812   1.302   3.267   1.561 -0.5750  1.1489 -0.1270
 6206TIP3    H142813   1.355   3.325   1.616  0.7867 -0.0326 -0.1145
 6206TIP3    H242814   1.241   3.325   1.516  0.4681  2.5338  0.1723
 6207TIP3   OH242815   3.205   0.106   3.472 -0.0356  0.8388 -0.4577
 6207TIP3    H142816   3.230   0.117   3.564 -0.9483 -0.6101 -0.0048
 6207TIP3    H242817   3.288   0.094   3.426  0.3403 -1.1738  0.6124
 6208TIP3   OH242818   5.281   2.781   3.609  0.6177 -0.4615  0.1533
 6208TIP3    H142819   5.195   2.799   3.648  0.1066  3.3472 -2.2630
 6208TIP3    H242820   5.338   2.764   3.685 -1.2822  1.6491  2.2239
 6209TIP3   OH242821   6.322   6.097   2.998  0.2350  0.1774 -0.4041
 6209TIP3    H142822   6.399   6.141   3.034 -1.3429  0.7810  2.5497
 6209TIP3    H242823   6.265   6.168   2.970  0.1201 -0.2320 -1.2578
 6210TIP3   OH242824   2.284   2.976   3.011  0.0519 -0.1625 -0.0670
 6210TIP3    H142825   2.213   3.031   2.978  0.3350  1.6123  2.0729
 6210TIP3    H242826   2.346   2.971   2.938 -1.4058 -0.2216 -1.3420
 6211TIP3   OH242827   1.476   4.659   5.285  0.4825 -0.0193 -0.5350
 6211TIP3    H142828   1.393   4.610   5.284 -0.7274  1.9048 -0.3548
 6211TIP3    H242829   1.544   4.592   5.283 -1.0162 -1.8791  2.8885
 6212TIP3   OH242830   0.672   5.045   0.599  0.1782  0.5659 -0.5883
 6212TIP3    H142831   0.608   4.974   0.608  1.6151 -1.1513 -2.8237
 6212TIP3    H242832   0.624   5.123   0.627 -1.8713 -1.0525  0.8231
 6213TIP3   OH242833   1.856   0.877   0.656 -0.0969  0.4682  0.0065
 6213TIP3    H142834   1.905   0.795   0.668 -1.7070 -0.9313 -2.2000
 6213TIP3    H242835   1.829   0.902   0.745  2.2755 -0.1539  0.9640
 6214TIP3   OH242836   3.636   3.014   3.435  0.0565 -0.3206 -0.0850
 6214TIP3    H142837   3.575   3.016   3.361 -1.6154 -0.6341  1.2159
 6214TIP3    H242838   3.720   2.989   3.396 -0.8925 -1.0711 -1.7762
 6215TIP3   OH242839   2.807   6.194   2.097 -0.1842  0.0028  0.2089
 6215TIP3    H142840   2.850   6.116   2.130 -1.5305 -0.9835 -0.2636
 6215TIP3    H242841   2.809   6.256   2.170 -0.5997 -1.0956  1.1813
 6216TIP3   OH242842   1.213   1.404   3.540 -0.5425 -0.0349 -0.4708
 6216TIP3    H142843   1.236   1.492   3.512 -2.0645 -0.5037 -3.6429
 6216TIP3    H242844   1.178   1.362   3.462 -2.5045 -2.5592  1.5565
 6217TIP3   OH242845   3.433   1.359   3.693 -0.0047 -0.1565 -0.2258
 6217TIP3    H142846   3.431   1.422   3.622  0.2637 -0.7617 -0.7871
 6217TIP3    H242847   3.523   1.363   3.725 -0.5556  1.3575  1.2469
 6218TIP3   OH242848   3.348   5.387   3.007  0.1368  0.0766  0.7523
 6218TIP3    H142849   3.308   5.337   3.079  2.0266 -0.4161  1.5308
 6218TIP3    H242850   3.313   5.347   2.928 -0.7941 -0.4074  1.3889
 6219TIP3   OH242851   0.097   1.887   2.776  0.0255  0.3271  0.1170
 6219TIP3    H142852   0.098   1.945   2.853 -0.3840  2.4143 -1.3516
 6219TIP3    H242853   0.189   1.866   2.761  0.0939 -0.2622  1.2580
 6220TIP3   OH242854   0.052   2.806   1.738  0.3977  0.2567  0.3595
 6220TIP3    H142855   0.117   2.742   1.708  0.6693  0.6023  0.2116
 6220TIP3    H242856  -0.032   2.763   1.721  0.5301  0.5138 -1.0829
 6221TIP3   OH242857   0.307   3.248   3.295  0.2633 -0.1830 -0.3753
 6221TIP3    H142858   0.251   3.274   3.222  0.7444  2.1779  0.0172
 6221TIP3    H242859   0.396   3.256   3.261  0.4845  0.6966  0.3719
 6222TIP3   OH242860   6.048   0.400   1.751 -0.0937 -0.3030  0.2051
 6222TIP3    H142861   5.975   0.456   1.779  0.8266  1.6103 -1.0683
 6222TIP3    H242862   6.054   0.334   1.820 -3.8980 -1.4151 -0.3124
 6223TIP3   OH242863   6.209   0.196   1.309  0.3172  0.1205 -0.4572
 6223TIP3    H142864   6.115   0.215   1.314  0.4297  0.3706  1.5628
 6223TIP3    H242865   6.239   0.245   1.233 -1.0054  0.8641 -0.5347
 6224TIP3   OH242866   3.166   2.142   0.799  0.5948 -0.1622 -0.5267
 6224TIP3    H142867   3.155   2.047   0.791  0.5541 -0.1491 -0.6200
 6224TIP3    H242868   3.261   2.155   0.795  0.5233  0.0864 -3.6801
 6225TIP3   OH242869   2.241   5.826   2.966 -0.0126  0.0853 -0.0841
 6225TIP3    H142870   2.212   5.832   3.057 -1.0576 -0.1592 -0.3919
 6225TIP3    H242871   2.232   5.734   2.943 -0.1153  0.2073 -0.5508
 6226TIP3   OH242872   2.254   5.966   2.033  0.3156  0.3223  0.4338
 6226TIP3    H142873   2.285   5.966   1.942  0.2290 -2.4503  0.3263
 6226TIP3    H242874   2.171   6.013   2.030 -0.4602 -1.0565 -1.2529
 6227TIP3   OH242875   5.474   4.514   4.410  0.3103  0.4992  0.5984
 6227TIP3    H142876   5.430   4.486   4.329 -0.6421 -0.3593  1.3954
 6227TIP3    H242877   5.404   4.546   4.466  1.0683  1.9365  0.7700
 6228TIP3   OH242878   1.257   0.576   1.256 -0.1082 -0.3263 -0.5280
 6228TIP3    H142879   1.217   0.589   1.342  3.3349  2.3032  0.9259
 6228TIP3    H242880   1.228   0.651   1.205 -1.2322 -1.2909 -1.3665
 6229TIP3   OH242881   2.198   5.017   1.312 -0.4938 -0.3813 -0.4671
 6229TIP3    H142882   2.227   5.038   1.224  2.4585 -0.4293  0.4065
 6229TIP3    H242883   2.170   5.101   1.349 -2.4581 -0.4777 -1.6180
 6230TIP3   OH242884   1.644   2.046   3.834 -0.3011 -0.4575  0.3359
 6230TIP3    H142885   1.735   2.015   3.826 -0.1411 -0.2204  1.0923
 6230TIP3    H242886   1.608   2.038   3.746  1.6663  3.2417 -1.0281
 6231TIP3   OH242887   0.030   6.082   2.062  0.3810 -0.0349  0.1165
 6231TIP3    H142888   0.029   6.086   2.158  0.7184  0.5523  0.1007
 6231TIP3    H242889   0.055   6.170   2.035  1.1147 -0.4231 -0.4909
 6232TIP3   OH242890   5.718   2.842   1.853  0.2425  0.1875 -0.1339
 6232TIP3    H142891   5.634   2.824   1.810 -0.3333 -0.0884  1.0638
 6232TIP3    H242892   5.755   2.755   1.869  1.1522  0.3227 -1.3678
 6233TIP3   OH242893   0.028   4.685   0.818 -0.0649  0.1898  0.2445
 6233TIP3    H142894   0.085   4.762   0.823  0.6679 -0.2501 -0.9687
 6233TIP3    H242895   0.081   4.619   0.775 -1.0124 -0.7127  0.4305
 6234TIP3   OH242896   2.373   5.673   2.109 -0.5266  0.1629  0.3360
 6234TIP3    H142897   2.333   5.731   2.174 -0.1211 -1.0383  1.7210
 6234TIP3    H242898   2.312   5.601   2.100 -0.0457 -0.2425  0.2629
 6235TIP3   OH242899   2.314   2.453   3.464 -0.1566 -0.0227 -0.0135
 6235TIP3    H142900   2.238   2.414   3.420 -0.8671 -0.5543  1.6022
 6235TIP3    H242901   2.278   2.490   3.545  1.1429  0.6721  0.2625
 6236TIP3   OH242902   5.256   1.056   0.465 -0.3075 -0.2235  0.4859
 6236TIP3    H142903   5.261   0.977   0.518 -0.2958 -0.8332 -0.4125
 6236TIP3    H242904   5.321   1.043   0.396 -0.9968  0.1307 -0.2437
 6237TIP3   OH242905   5.957   4.986   1.616  0.6393  0.6496  0.6090
 6237TIP3    H142906   5.995   5.033   1.690 -0.0832  0.8544  0.8597
 6237TIP3    H242907   5.902   5.051   1.573 -0.2536  0.0817  0.8699
 6238TIP3   OH242908   1.882   3.137   4.956 -0.3340 -0.4881  0.2946
 6238TIP3    H142909   1.850   3.078   5.024 -0.5546  0.1860  0.7932
 6238TIP3    H242910   1.973   3.110   4.941 -0.8501 -1.8394 -0.4893
 6239TIP3   OH242911   2.597   1.660   1.660 -0.0409  0.1431 -0.4552
 6239TIP3    H142912   2.665   1.728   1.667  0.8289 -0.7313 -0.2625
 6239TIP3    H242913   2.574   1.659   1.567 -0.1010  0.7208 -0.4555
 6240TIP3   OH242914   0.659   5.792   2.231  0.4320 -0.4119  0.5726
 6240TIP3    H142915   0.651   5.791   2.326 -0.4781  0.1293  0.5116
 6240TIP3    H242916   0.714   5.716   2.211  0.0189 -0.9694  1.4776
 6241TIP3   OH242917   2.609   2.079   3.419  0.3885  0.1885  0.1775
 6241TIP3    H142918   2.525   2.035   3.429  0.7662 -0.2129  2.0704
 6241TIP3    H242919   2.592   2.170   3.444  0.1389  0.5581 -1.2820
 6242TIP3   OH242920   3.137   0.241   2.511  0.3533 -0.4789  0.5413
 6242TIP3    H142921   3.110   0.256   2.602 -1.0062  0.0578  0.0764
 6242TIP3    H242922   3.078   0.296   2.460  0.7562 -1.1782 -0.7007
 6243TIP3   OH242923   5.648   1.997   0.913 -0.0880  0.1518 -0.3233
 6243TIP3    H142924   5.617   2.022   0.826 -0.0443 -0.8669 -0.6480
 6243TIP3    H242925   5.568   1.993   0.966 -0.4043 -1.3485 -0.8730
 6244TIP3   OH242926   3.580   3.662   2.948  0.1381  0.1188 -0.4702
 6244TIP3    H142927   3.641   3.733   2.925 -0.6610  0.5959 -1.1741
 6244TIP3    H242928   3.589   3.654   3.043 -2.8196  4.1996  0.4442
 6245TIP3   OH242929   4.203   6.665   1.408  0.2123  0.2045 -0.3450
 6245TIP3    H142930   4.275   6.706   1.456  0.1382 -0.5681  0.4586
 6245TIP3    H242931   4.147   6.737   1.382  0.6761  0.7141  0.0457
 6246TIP3   OH242932   2.912   0.322   1.825  0.0434 -0.1858  0.0444
 6246TIP3    H142933   2.880   0.340   1.737  2.3956 -2.0628 -1.3034
 6246TIP3    H242934   2.852   0.255   1.859 -0.4189 -0.0152 -0.4200
 6247TIP3   OH242935   5.673   2.501   1.415 -0.1349  0.3507 -0.4322
 6247TIP3    H142936   5.765   2.502   1.391 -0.0197  0.2850 -0.0103
 6247TIP3    H242937   5.649   2.408   1.415  0.6721  0.0229  2.5974
 6248TIP3   OH242938   2.837   1.233   3.093 -0.2544  0.7501  0.0683
 6248TIP3    H142939   2.887   1.301   3.138  0.8597  0.2700 -0.4146
 6248TIP3    H242940   2.842   1.157   3.151 -1.2304  0.9689  0.4575
 6249TIP3   OH242941   5.015   5.985   1.161 -0.3440 -0.2593  0.2328
 6249TIP3    H142942   5.081   5.921   1.188  0.4530  1.6744  3.3574
 6249TIP3    H242943   4.932   5.947   1.188  0.1781  0.2120  2.7798
 6250TIP3   OH242944   3.503   4.579   1.943  0.1717  0.3145  0.3884
 6250TIP3    H142945   3.521   4.582   2.037  0.0406  1.8861  0.3954
 6250TIP3    H242946   3.540   4.496   1.914 -0.9727 -0.8573  2.0513
 6251TIP3   OH242947   0.538   5.366   3.589  0.6945  0.3609 -0.4794
 6251TIP3    H142948   0.614   5.325   3.548 -0.3401 -0.9206 -1.1642
 6251TIP3    H242949   0.566   5.384   3.679  1.3705 -1.3799 -0.3100
 6252TIP3   OH242950   6.203   4.763   2.448 -0.5554 -0.1154 -0.3798
 6252TIP3    H142951   6.187   4.721   2.364 -0.8319  0.0052 -0.3889
 6252TIP3    H242952   6.298   4.762   2.458 -0.5105  0.0620 -0.7902
 6253TIP3   OH242953   4.369   0.620   3.132 -0.5956 -0.0029  0.8978
 6253TIP3    H142954   4.425   0.576   3.196  0.7231 -0.6738 -0.6352
 6253TIP3    H242955   4.421   0.692   3.099 -0.5288 -0.7001 -0.6382
 6254TIP3   OH242956   0.063   2.075   2.980  0.0214 -0.3678  0.4197
 6254TIP3    H142957   0.064   2.168   3.001 -1.4481  0.1824 -1.5961
 6254TIP3    H242958  -0.006   2.039   3.037 -0.8210  0.2095 -0.2019
 6255TIP3   OH242959   2.930   2.989   2.676  0.0010 -0.2418 -0.6164
 6255TIP3    H142960   2.860   3.012   2.616 -0.6487 -0.9747 -0.1598
 6255TIP3    H242961   3.001   2.959   2.619 -0.3156 -0.1690 -1.0531
 6256TIP3   OH242962   5.500   6.239   1.791 -0.3465  0.1195 -0.4737
 6256TIP3    H142963   5.560   6.307   1.761  0.2855  0.2808  1.0807
 6256TIP3    H242964   5.518   6.165   1.733  2.5204 -0.3701  0.8444
 6257TIP3   OH242965   5.560   1.994   0.656 -0.0584 -0.1495  0.1119
 6257TIP3    H142966   5.471   1.960   0.653 -0.0211 -0.6027  2.3887
 6257TIP3    H242967   5.602   1.959   0.577 -1.5914 -0.7812 -0.4571
 6258TIP3   OH242968   0.199   0.755   3.832 -0.5677 -0.1513  0.2991
 6258TIP3    H142969   0.136   0.783   3.765  0.6923  0.6857 -0.5947
 6258TIP3    H242970   0.212   0.833   3.886  1.3733  0.4256 -0.9143
 6259TIP3   OH242971   3.072   5.519   1.223 -0.0200  0.2105  0.0990
 6259TIP3    H142972   3.116   5.519   1.308 -0.4894  1.8970  0.3815
 6259TIP3    H242973   3.063   5.612   1.201 -1.3601 -0.1554 -1.0325
 6260TIP3   OH242974   1.407   5.270   1.405  0.1766 -0.2710 -0.0906
 6260TIP3    H142975   1.448   5.339   1.457 -0.5919  0.0711  0.0705
 6260TIP3    H242976   1.314   5.275   1.427  0.0086 -0.8837 -0.6262
 6261TIP3   OH242977   4.477   5.466   3.591  0.5559 -1.1925 -0.0206
 6261TIP3    H142978   4.462   5.553   3.629 -1.2429 -0.8588 -1.3358
 6261TIP3    H242979   4.459   5.405   3.662  0.2036 -0.5124  0.4849
 6262TIP3   OH242980   1.718   0.283   1.146 -0.4680  0.6401 -0.3445
 6262TIP3    H142981   1.677   0.202   1.176  1.6712 -1.0606 -1.7044
 6262TIP3    H242982   1.811   0.273   1.168 -0.4369  3.9785  1.9320
 6263TIP3   OH242983   2.411   0.350   2.554 -0.0169 -0.7288 -0.1053
 6263TIP3    H142984   2.364   0.377   2.475  1.6468  1.2724 -0.5233
 6263TIP3    H242985   2.351   0.368   2.626 -0.7172 -0.3638 -0.7697
 6264TIP3   OH242986   3.523   2.867   2.573 -0.0964 -0.0973  0.1688
 6264TIP3    H142987   3.564   2.826   2.498  1.0553  1.0161  0.1531
 6264TIP3    H242988   3.538   2.807   2.646  1.4514  0.2037  0.1240
 6265TIP3   OH242989   4.803   4.388   2.018  0.4347 -0.0111 -0.5670
 6265TIP3    H142990   4.839   4.476   2.031  0.8662 -0.1626 -0.7122
 6265TIP3    H242991   4.877   4.329   2.033  0.1277 -0.3584 -0.3765
 6266TIP3   OH242992   1.928   3.421   3.308  0.6416  0.3078 -0.2788
 6266TIP3    H142993   1.943   3.465   3.224 -1.0669  1.0088 -0.2630
 6266TIP3    H242994   1.908   3.330   3.284  1.3725  0.2117 -0.5327
 6267TIP3   OH242995   1.230   4.446   0.503  0.6888 -0.4767 -0.0629
 6267TIP3    H142996   1.281   4.526   0.514  0.6020 -0.3786 -0.3790
 6267TIP3    H242997   1.152   4.474   0.455  1.1295 -0.9363 -1.0703
 6268TIP3   OH242998   3.949   4.470   1.955  0.0713  0.3251 -0.6242
 6268TIP3    H142999   3.983   4.558   1.975  1.7780 -0.4531  0.1675
 6268TIP3    H243000   3.886   4.484   1.885  0.8064  2.1171 -0.9918
 6269TIP3   OH243001   1.244   1.683   3.540  0.2876 -0.4785  0.6050
 6269TIP3    H143002   1.191   1.697   3.617  0.8313 -1.8978  1.2713
 6269TIP3    H243003   1.328   1.652   3.574  0.9494  0.0263 -0.5032
 6270TIP3   OH243004   4.131   2.816   1.343 -0.0773  0.5342  0.2137
 6270TIP3    H143005   4.205   2.799   1.284 -1.0470 -2.2254 -0.3930
 6270TIP3    H243006   4.157   2.777   1.426 -0.3127  0.7454  0.3861
 6271TIP3   OH243007   3.609   5.617   2.649  0.0356  0.3501 -0.0079
 6271TIP3    H143008   3.634   5.533   2.687  0.3598  0.5524  0.2359
 6271TIP3    H243009   3.693   5.660   2.629 -0.1243  0.3345 -0.7591
 6272TIP3   OH243010   6.601   5.179   2.441 -0.4851 -0.1796  0.2044
 6272TIP3    H143011   6.537   5.132   2.494  0.8037 -1.9059  0.3055
 6272TIP3    H243012   6.659   5.111   2.407  0.5883  1.2066 -0.8692
 6273TIP3   OH243013   3.812   0.760   1.944  0.0428  0.7842  0.4533
 6273TIP3    H143014   3.724   0.773   1.908  0.3361  0.3579 -0.4548
 6273TIP3    H243015   3.867   0.819   1.894  0.5184 -0.0735 -0.0582
 6274TIP3   OH243016   0.015   4.163   1.904 -0.1321  0.2676 -0.2108
 6274TIP3    H143017   0.005   4.068   1.908  0.0689  0.1597 -1.6786
 6274TIP3    H243018   0.073   4.178   1.829  2.8985  1.3451  2.0994
 6275TIP3   OH243019   3.068   1.922   3.176 -0.2708  0.0095 -0.1075
 6275TIP3    H143020   3.147   1.920   3.122  0.0566  0.8723  0.3205
 6275TIP3    H243021   3.095   1.884   3.260 -0.3176  0.2504  0.0196
 6276TIP3   OH243022   3.487   6.675   2.382  0.0370 -0.4586  0.0497
 6276TIP3    H143023   3.462   6.729   2.457 -2.2506  1.2623 -1.8106
 6276TIP3    H243024   3.432   6.597   2.389 -0.7732  0.0787 -0.2602
 6277TIP3   OH243025   3.559   4.273   2.556  0.6171 -0.5729  0.5158
 6277TIP3    H143026   3.498   4.285   2.484 -0.4980 -0.6188  1.4140
 6277TIP3    H243027   3.592   4.361   2.575  1.1358 -0.6042 -0.2252
 6278TIP3   OH243028   2.629   1.135   2.949  0.7373 -0.3322  0.1411
 6278TIP3    H143029   2.707   1.174   2.990 -0.1655 -0.1371  1.7625
 6278TIP3    H243030   2.564   1.133   3.019 -0.7093 -0.5488 -1.1653
 6279TIP3   OH243031   0.896   0.077   1.631 -0.0729 -0.1720  0.6124
 6279TIP3    H143032   0.941   0.060   1.549 -1.4283  2.6369 -0.8746
 6279TIP3    H243033   0.965   0.093   1.695  1.0125 -0.3848 -0.4864
 6280TIP3   OH243034   1.579   6.576   0.817 -1.0699  0.2290  0.3912
 6280TIP3    H143035   1.562   6.522   0.740  2.0169  0.8402 -0.8747
 6280TIP3    H243036   1.555   6.521   0.891  0.0978 -2.2002 -0.9136
 6281TIP3   OH243037   0.940   0.552   1.114  0.3389 -0.1030  0.7318
 6281TIP3    H143038   1.022   0.600   1.118 -0.3122  1.1173 -0.0091
 6281TIP3    H243039   0.940   0.498   1.193  1.6050  0.2668  1.0078
 6282TIP3   OH243040   1.648   6.167   2.602 -1.1282  0.1222  0.3916
 6282TIP3    H143041   1.707   6.241   2.612 -3.4139  2.0843  0.1719
 6282TIP3    H243042   1.705   6.090   2.601  1.4843  1.9542 -0.9758
 6283TIP3   OH243043   1.032   4.599   4.093  0.2623  0.0420 -0.6501
 6283TIP3    H143044   1.085   4.557   4.160  1.5853 -0.5378 -1.9939
 6283TIP3    H243045   1.004   4.682   4.133  0.4765 -0.5615  0.8124
 6284TIP3   OH243046   0.509   4.485   2.585  0.5502 -0.1256 -0.3799
 6284TIP3    H143047   0.556   4.428   2.525 -1.2113  0.4940 -2.4652
 6284TIP3    H243048   0.539   4.574   2.564  0.7671  0.0193  0.4855
 6285TIP3   OH243049   0.607   1.304   1.995 -0.0272  0.0895  0.4192
 6285TIP3    H143050   0.516   1.332   1.985 -1.4241 -3.8454  0.6154
 6285TIP3    H243051   0.643   1.309   1.906 -1.0602 -0.1917 -0.0271
 6286TIP3   OH243052   6.222   6.088   2.157  0.2447  0.6669 -0.5057
 6286TIP3    H143053   6.198   5.995   2.151 -1.8370  0.9147  2.1362
 6286TIP3    H243054   6.304   6.094   2.108  0.3320 -2.5044 -0.9957
 6287TIP3   OH243055   2.646   0.832   1.968  0.0889  0.4354 -0.3129
 6287TIP3    H143056   2.551   0.843   1.973  0.1169  0.6241 -0.1709
 6287TIP3    H243057   2.677   0.915   1.931  0.2427  0.5685  0.1100
 6288TIP3   OH243058   1.793   3.269   3.960  0.4787 -0.2306  0.4802
 6288TIP3    H143059   1.778   3.349   4.011 -0.0653  1.8685 -2.6696
 6288TIP3    H243060   1.719   3.213   3.983  0.8568  0.0836  2.7673
 6289TIP3   OH243061   5.022   4.698   1.574  0.6242  0.3857  0.3145
 6289TIP3    H143062   5.049   4.619   1.620  1.4493  0.7943  0.5539
 6289TIP3    H243063   4.969   4.667   1.501  1.1034 -0.3969  0.2862
 6290TIP3   OH243064   5.243   3.490   1.348 -0.1287 -0.7157 -0.1647
 6290TIP3    H143065   5.265   3.549   1.276 -0.9701 -0.2797 -0.0772
 6290TIP3    H243066   5.290   3.526   1.423  0.3417 -0.8744 -0.3779
 6291TIP3   OH243067   3.309   3.144   0.852  0.1379  0.0911  0.3045
 6291TIP3    H143068   3.319   3.124   0.945  0.5432 -2.6509 -0.2346
 6291TIP3    H243069   3.215   3.144   0.837 -0.0213  2.1582  0.9428
 6292TIP3   OH243070   3.570   3.086   0.801  0.2858 -0.4415 -0.2663
 6292TIP3    H143071   3.600   3.136   0.877 -0.1781 -1.9907  0.9824
 6292TIP3    H243072   3.480   3.116   0.787 -0.3319 -1.5791  1.0909
 6293TIP3   OH243073   4.067   1.838   3.579  0.2741  0.2195 -0.0693
 6293TIP3    H143074   3.980   1.876   3.594  0.6694  0.8037  0.8404
 6293TIP3    H243075   4.121   1.911   3.550  0.3407 -0.2561 -1.1978
 6294TIP3   OH243076   5.389   4.928   3.547 -0.2644 -0.4251 -0.0576
 6294TIP3    H143077   5.463   4.870   3.566 -1.3192 -1.6045  0.5251
 6294TIP3    H243078   5.430   5.014   3.535  1.2756 -1.1662 -0.4338
 6295TIP3   OH243079   4.784   2.814   2.581 -0.0620 -0.0245  0.6157
 6295TIP3    H143080   4.746   2.887   2.531 -2.0567 -0.7710  0.9631
 6295TIP3    H243081   4.828   2.760   2.515  0.6812  1.0159  0.2349
 6296TIP3   OH243082   1.229   5.633   2.146  0.6211 -0.5805  0.1593
 6296TIP3    H143083   1.244   5.570   2.217 -1.0023 -1.6912 -0.4024
 6296TIP3    H243084   1.140   5.664   2.160  0.8888  0.5141 -0.4253
 6297TIP3   OH243085   6.220   2.043   1.696  0.1134 -0.0521  0.1549
 6297TIP3    H143086   6.262   2.119   1.655 -1.5398  0.7609 -0.0959
 6297TIP3    H243087   6.280   2.019   1.766  0.6654  1.5184  0.2782
 6298TIP3   OH243088   2.971   5.186   1.806 -0.3056 -0.0629  0.3912
 6298TIP3    H143089   2.909   5.253   1.835 -1.3747 -0.8920  0.0647
 6298TIP3    H243090   2.949   5.170   1.715 -0.4632 -1.2961  0.6332
 6299TIP3   OH243091   4.255   0.830   0.872  0.0595  0.4680 -0.4247
 6299TIP3    H143092   4.347   0.819   0.898  0.5995  0.3163 -2.2682
 6299TIP3    H243093   4.259   0.889   0.797 -1.4542  1.1557  0.0094
 6300TIP3   OH243094   3.905   3.145   3.232  0.2519  0.2237 -1.0887
 6300TIP3    H143095   3.966   3.217   3.215 -1.2809  1.7798 -0.3224
 6300TIP3    H243096   3.957   3.066   3.219  3.1070  1.4137  1.7882
 6301TIP3   OH243097   3.801   4.277   0.896 -0.2577  0.2449  0.3671
 6301TIP3    H143098   3.832   4.321   0.817  0.7951  1.1410  1.2501
 6301TIP3    H243099   3.745   4.207   0.863 -0.7561  1.2905 -1.1288
 6302TIP3   OH243100   1.053   5.211   2.929  0.2710  0.0776  0.2634
 6302TIP3    H143101   1.103   5.167   2.860  0.6446 -2.3449  1.9323
 6302TIP3    H243102   1.120   5.245   2.988 -0.0483  0.6791  0.2770
 6303TIP3   OH243103   1.951   5.337   3.230 -0.3646 -0.3963  0.2290
 6303TIP3    H143104   1.881   5.388   3.190 -0.1929  0.1450  0.6035
 6303TIP3    H243105   1.924   5.246   3.219 -2.7650 -0.1994  3.1810
 6304TIP3   OH243106   1.735   5.781   3.593 -0.0837  0.1227  0.5375
 6304TIP3    H143107   1.809   5.749   3.644  1.8639  1.1803 -1.4651
 6304TIP3    H243108   1.684   5.702   3.573  1.2990 -0.8571  0.7357
 6305TIP3   OH243109   4.788   4.352   3.002 -0.3466  0.1748  0.0589
 6305TIP3    H143110   4.806   4.377   2.912 -0.6626 -1.9386 -0.6510
 6305TIP3    H243111   4.776   4.435   3.048 -2.5184  1.3183 -2.3191
 6306TIP3   OH243112   5.029   6.188   2.651 -0.0144  0.1196 -0.6069
 6306TIP3    H143113   4.952   6.168   2.598 -0.6212  1.4704 -0.2618
 6306TIP3    H243114   5.011   6.149   2.736 -0.4259  0.6375 -0.4552
 6307TIP3   OH243115   5.249   0.325   0.570 -0.3554  0.1326 -0.2021
 6307TIP3    H143116   5.218   0.284   0.651 -0.2701 -0.3957 -0.4333
 6307TIP3    H243117   5.310   0.393   0.599  0.6533 -0.8917  0.1364
 6308TIP3   OH243118   2.055   1.370   1.440  0.4832  0.2573  0.3738
 6308TIP3    H143119   2.129   1.422   1.471 -0.4306  0.9980  1.4208
 6308TIP3    H243120   1.997   1.435   1.399  0.8892 -0.4671 -1.4481
 6309TIP3   OH243121   5.285   5.810   0.647 -0.3578  0.6517  0.3794
 6309TIP3    H143122   5.229   5.754   0.701  1.5746  0.8013  2.6967
 6309TIP3    H243123   5.367   5.762   0.640 -0.0735  1.3080 -1.3027
 6310TIP3   OH243124   1.471   4.354   1.091 -0.1690 -0.3729  0.1713
 6310TIP3    H143125   1.533   4.281   1.092  1.5598  1.0186 -0.5252
 6310TIP3    H243126   1.425   4.346   1.007 -0.2965 -0.8824  0.2863
 6311TIP3   OH243127   1.455   1.477   0.780  0.0617  0.0278  0.0511
 6311TIP3    H143128   1.381   1.538   0.785 -1.8821 -2.0962 -0.6428
 6311TIP3    H243129   1.510   1.511   0.709 -1.0237  0.9297 -0.3861
 6312TIP3   OH243130   6.053   4.978   2.591 -0.0955 -0.3453 -0.5801
 6312TIP3    H143131   6.117   4.920   2.550 -0.0608  0.1601 -1.2675
 6312TIP3    H243132   5.978   4.922   2.610  0.7335 -1.0543  0.7031
 6313TIP3   OH243133   0.202   2.376   2.197  0.2828  0.0696  0.0801
 6313TIP3    H143134   0.260   2.301   2.185  0.6182  0.4411 -0.6511
 6313TIP3    H243135   0.206   2.423   2.114 -0.0685  0.8025  0.4732
 6314TIP3   OH243136   2.499   1.401   3.903  0.0692 -0.3221  0.1282
 6314TIP3    H143137   2.528   1.380   3.992 -0.7769  1.4753  0.8754
 6314TIP3    H243138   2.467   1.318   3.868  1.9522 -1.4363  0.8488
 6315TIP3   OH243139   4.751   6.414   3.130  0.0353  0.5374  0.0447
 6315TIP3    H143140   4.795   6.493   3.161 -0.5134  0.9901 -0.3166
 6315TIP3    H243141   4.714   6.374   3.209  0.0280  0.8231  0.1867
 6316TIP3   OH243142   3.332   2.603   3.666  0.7284  0.1214  0.2463
 6316TIP3    H143143   3.239   2.591   3.687  0.9568  0.1189  1.2772
 6316TIP3    H243144   3.338   2.694   3.637  0.4128  0.1380  0.2271
 6317TIP3   OH243145   4.663   0.412   0.489 -0.0587  0.7488 -0.2799
 6317TIP3    H143146   4.612   0.406   0.569  0.3112  3.0946  0.2238
 6317TIP3    H243147   4.724   0.339   0.493 -1.0360 -0.0385  0.8221
 6318TIP3   OH243148   4.630   4.859   2.697 -0.3073 -0.2376 -0.1284
 6318TIP3    H143149   4.629   4.906   2.613 -1.2015 -0.1868 -0.0908
 6318TIP3    H243150   4.596   4.772   2.677  0.5932 -0.6267 -0.0381
 6319TIP3   OH243151   3.978   5.196   2.004 -0.4463  0.1452 -0.2964
 6319TIP3    H143152   4.028   5.115   1.997  0.8030  0.9613 -1.3940
 6319TIP3    H243153   3.998   5.230   2.092 -0.5333 -0.4489 -0.0469
 6320TIP3   OH243154   5.587   2.143   2.049  0.0869 -0.4947 -0.1754
 6320TIP3    H143155   5.526   2.192   2.104 -0.3893 -1.1241 -0.1377
 6320TIP3    H243156   5.597   2.059   2.093  3.3083  0.5803  1.4799
 6321TIP3   OH243157   6.707   1.487   2.347 -0.7954  0.3770 -0.5337
 6321TIP3    H143158   6.763   1.538   2.406  0.7281  0.0339 -1.6415
 6321TIP3    H243159   6.648   1.552   2.308  0.9493  1.2932 -1.7284
 6322TIP3   OH243160   2.512   2.230   1.091 -0.1282 -0.3230 -0.2041
 6322TIP3    H143161   2.499   2.166   1.020 -2.1724  1.5268 -1.6292
 6322TIP3    H243162   2.607   2.232   1.104  0.2869 -1.1448 -2.5109
 6323TIP3   OH243163   2.174   1.944   2.938  0.2982  0.2482  0.3310
 6323TIP3    H143164   2.243   1.934   2.872 -0.7475  1.2128 -0.9757
 6323TIP3    H243165   2.154   2.038   2.937  0.6423  0.3971  2.4810
 6324TIP3   OH243166   1.484   6.544   2.219  0.1150  0.1940 -0.4245
 6324TIP3    H143167   1.414   6.566   2.280  0.4018 -1.0235  0.3828
 6324TIP3    H243168   1.446   6.474   2.164  0.7926 -0.7631  0.2843
 6325TIP3   OH243169   4.671   0.517   1.678 -0.5471 -0.2214  0.0435
 6325TIP3    H143170   4.699   0.555   1.762 -2.0075 -2.2609  1.5698
 6325TIP3    H243171   4.586   0.477   1.698 -0.0375 -2.4667 -1.9343
 6326TIP3   OH243172   2.452   4.405   4.327 -0.5204  0.0416 -1.0204
 6326TIP3    H143173   2.465   4.483   4.273  1.3267  0.8765  0.4836
 6326TIP3    H243174   2.432   4.440   4.414 -0.4721 -1.1757 -0.5010
 6327TIP3   OH243175   0.700   6.572   1.703  0.1050 -0.4653 -0.1137
 6327TIP3    H143176   0.662   6.550   1.618  2.0566 -4.7662 -0.1300
 6327TIP3    H243177   0.775   6.628   1.683 -1.1647  1.0572 -0.8313
 6328TIP3   OH243178   2.345   5.545   3.905 -0.4720 -0.2935 -0.6662
 6328TIP3    H143179   2.386   5.629   3.928 -1.9974 -0.1426  1.7973
 6328TIP3    H243180   2.419   5.486   3.889  0.9188 -0.1399  3.9193
 6329TIP3   OH243181   5.064   3.182   2.352 -0.2602  0.0941  0.1278
 6329TIP3    H143182   5.150   3.191   2.393 -0.3982 -0.2177  0.5029
 6329TIP3    H243183   5.077   3.118   2.283  0.0547  0.8948 -0.5626
 6330TIP3   OH243184   4.187   2.410   3.076  0.5888 -0.1747 -0.4313
 6330TIP3    H143185   4.105   2.364   3.092 -0.2217  2.0314  2.5390
 6330TIP3    H243186   4.162   2.491   3.032  1.4797 -0.4497 -1.5041
 6331TIP3   OH243187   5.746   3.050   0.953 -0.5443 -0.6586  0.5649
 6331TIP3    H143188   5.828   3.085   0.986 -0.7443  1.0349 -0.5852
 6331TIP3    H243189   5.685   3.059   1.026 -0.0615 -0.5495  0.9590
 6332TIP3   OH243190   5.516   2.952   2.929 -0.4793  0.2887 -0.6753
 6332TIP3    H143191   5.481   2.867   2.902 -0.4039 -0.2280  0.7619
 6332TIP3    H243192   5.528   2.944   3.023  0.4033  1.5925 -0.6496
 6333TIP3   OH243193   0.230   4.720   3.636  0.1598  0.2286  0.0004
 6333TIP3    H143194   0.176   4.788   3.597  1.6457  0.5366 -1.6747
 6333TIP3    H243195   0.308   4.766   3.669  0.8551 -0.5413 -0.5141
 6334TIP3   OH243196   5.386   0.559   0.625 -0.4558  0.2462 -0.0695
 6334TIP3    H143197   5.413   0.576   0.715 -0.6938  0.5951 -0.0630
 6334TIP3    H243198   5.465   0.572   0.573 -0.4363  0.5306  0.0323
 6335TIP3   OH243199   4.814   1.372   1.021 -0.8707  0.2056  0.5584
 6335TIP3    H143200   4.765   1.300   0.983  0.2807 -1.6054  2.3195
 6335TIP3    H243201   4.894   1.377   0.967 -0.2363 -0.9257  1.3449
 6336TIP3   OH243202   6.135   1.140   0.544 -0.0249  0.1541  0.1434
 6336TIP3    H143203   6.106   1.171   0.630 -1.0914 -2.2026  0.7242
 6336TIP3    H243204   6.057   1.101   0.505  1.1066 -1.5679 -0.5541
 6337TIP3   OH243205   2.497   3.721   0.537 -0.1394 -0.2776  0.3291
 6337TIP3    H143206   2.450   3.753   0.460  1.8640  0.0198 -0.8394
 6337TIP3    H243207   2.543   3.799   0.571  0.5549 -0.8128  0.6464
 6338TIP3   OH243208   6.019   5.034   1.895  0.2145 -0.1373  0.3200
 6338TIP3    H143209   6.044   4.985   1.974  0.2985  1.8529  1.5872
 6338TIP3    H243210   5.924   5.045   1.903  0.3219  0.6840  0.5284
 6339TIP3   OH243211   5.469   0.130   2.152  0.3538  0.3752  0.3240
 6339TIP3    H143212   5.548   0.077   2.147  0.0678  0.0565 -1.2508
 6339TIP3    H243213   5.490   0.197   2.217  1.0991 -1.0043  1.5838
 6340TIP3   OH243214   5.455   6.707   1.306 -0.1742  0.4743 -0.0748
 6340TIP3    H143215   5.426   6.659   1.228  0.1251  1.2918 -0.6982
 6340TIP3    H243216   5.414   6.660   1.379  1.8636 -2.1343 -0.4309
 6341TIP3   OH243217   1.523   0.416   1.311 -0.0852  0.1108  0.3122
 6341TIP3    H143218   1.596   0.419   1.249  0.9053  2.5415  1.4520
 6341TIP3    H243219   1.457   0.474   1.273 -1.0849 -1.3354 -0.2428
 6342TIP3   OH243220   5.372   4.325   3.168  0.4705  0.6538 -0.2190
 6342TIP3    H143221   5.305   4.371   3.117  1.0130  1.2870 -0.3829
 6342TIP3    H243222   5.364   4.360   3.256 -2.4853 -2.5623  1.0299
 6343TIP3   OH243223   1.858   5.524   2.115 -0.1042  0.2204 -0.5131
 6343TIP3    H143224   1.771   5.559   2.135 -0.2602  0.5884 -1.7101
 6343TIP3    H243225   1.856   5.434   2.147 -1.2238 -0.0399 -1.2410
 6344TIP3   OH243226   2.383   1.245   2.842  0.2187  0.0816  0.2302
 6344TIP3    H143227   2.420   1.329   2.869 -0.0168  0.1740  0.2749
 6344TIP3    H243228   2.452   1.181   2.859  0.8276  0.4159 -0.8677
 6345TIP3   OH243229   4.597   6.690   2.164 -0.2013 -0.1113  0.3284
 6345TIP3    H143230   4.632   6.646   2.241  0.0736 -0.4769 -0.0015
 6345TIP3    H243231   4.665   6.680   2.097  0.1510  1.3736  0.4308
 6346TIP3   OH243232   1.013   3.575   1.307 -0.1233 -0.1136  0.4227
 6346TIP3    H143233   0.920   3.568   1.332 -0.6042  3.3293  0.0868
 6346TIP3    H243234   1.054   3.618   1.382  0.8461 -0.1363 -0.0852
 6347TIP3   OH243235   3.503   6.096   2.838 -0.0325  0.2750  0.1914
 6347TIP3    H143236   3.441   6.160   2.871 -0.1495 -0.2579  1.0300
 6347TIP3    H243237   3.576   6.148   2.804 -1.0078  0.9142 -0.9943
 6348TIP3   OH243238   1.116   2.775   3.152 -0.2638  0.5246 -0.0055
 6348TIP3    H143239   1.203   2.813   3.155 -0.1110  0.2197 -0.4498
 6348TIP3    H243240   1.059   2.842   3.190 -0.0886  1.4468 -1.2827
 6349TIP3   OH243241   1.154   3.220   0.495 -0.6540  0.5489  0.2445
 6349TIP3    H143242   1.226   3.262   0.540  0.4020  0.3167 -1.1571
 6349TIP3    H243243   1.076   3.265   0.527  0.2659  2.1520  0.3455
 6350TIP3   OH243244   1.576   4.420   3.329 -0.1409 -0.1400 -0.0851
 6350TIP3    H143245   1.577   4.407   3.234 -0.1070 -0.0349 -0.0983
 6350TIP3    H243246   1.661   4.388   3.359  0.9431  2.2393 -0.3931
 6351TIP3   OH243247   2.801   3.684   4.133  0.0950 -0.3479 -0.7118
 6351TIP3    H143248   2.885   3.730   4.126  0.4741 -1.1461 -1.5655
 6351TIP3    H243249   2.817   3.599   4.094 -1.2871 -0.2857 -1.4696
 6352TIP3   OH243250   2.190   1.105   1.549  0.4266 -0.0921  0.1550
 6352TIP3    H143251   2.188   1.152   1.466  0.6384 -0.3827 -0.0181
 6352TIP3    H243252   2.267   1.138   1.594 -0.7755  1.5467  1.1297
 6353TIP3   OH243253   4.990   6.479   1.505 -1.0023  0.0793 -0.4549
 6353TIP3    H143254   4.996   6.385   1.489  2.6888  0.1319 -0.1617
 6353TIP3    H243255   5.032   6.519   1.428 -0.4619  1.3518  0.4708
 6354TIP3   OH243256   3.605   2.297   1.231  0.3123 -0.1478  0.5508
 6354TIP3    H143257   3.668   2.226   1.217  0.2852 -0.2098  0.7424
 6354TIP3    H243258   3.524   2.266   1.190  1.2077  1.1990 -2.4731
 6355TIP3   OH243259   3.547   1.228   0.836  0.3505  0.3152  0.2523
 6355TIP3    H143260   3.629   1.274   0.819  0.4893 -0.5379 -1.6163
 6355TIP3    H243261   3.482   1.298   0.844  1.0555  0.9507  0.6490
 6356TIP3   OH243262   5.061   3.356   0.547 -0.3973  0.0747  0.5963
 6356TIP3    H143263   5.005   3.373   0.471 -0.6898  1.1299  1.0302
 6356TIP3    H243264   5.125   3.427   0.546  1.2851 -1.3796 -0.1705
 6357TIP3   OH243265   0.325   5.909   3.372 -0.7264  0.1797 -0.3004
 6357TIP3    H143266   0.283   5.957   3.444 -0.1602  1.0670 -0.5608
 6357TIP3    H243267   0.405   5.957   3.353 -1.4132  0.6187 -2.2931
 6358TIP3   OH243268   2.030   6.041   2.890  0.1227  0.2616 -0.1531
 6358TIP3    H143269   2.093   5.978   2.924  1.0534 -0.0050 -2.1675
 6358TIP3    H243270   2.065   6.126   2.916 -0.0245  0.0420  0.8056
 6359TIP3   OH243271   2.304   4.917   1.961 -0.9156  0.3758 -0.0007
 6359TIP3    H143272   2.358   4.995   1.953 -0.2334  0.1090  1.5924
 6359TIP3    H243273   2.367   4.847   1.979 -1.4210 -0.7468 -2.1902
 6360TIP3   OH243274   2.662   0.951   0.930 -0.4994 -0.0259  0.0996
 6360TIP3    H143275   2.744   0.987   0.964 -0.2842 -1.8509  1.6828
 6360TIP3    H243276   2.679   0.857   0.921 -1.5315 -0.0725 -2.3618
 6361TIP3   OH243277   5.098   2.806   2.354  1.0308 -0.1087 -0.1891
 6361TIP3    H143278   5.139   2.884   2.316 -0.3782  0.5600 -0.3934
 6361TIP3    H243279   5.084   2.829   2.446  0.4795 -0.0564 -0.2839
 6362TIP3   OH243280   4.654   1.764   3.171  0.0310  0.3831  0.7852
 6362TIP3    H143281   4.633   1.740   3.261  1.3513 -1.8970  0.5632
 6362TIP3    H243282   4.600   1.706   3.117 -2.2647  3.0614 -0.0405
 6363TIP3   OH243283   3.782   5.000   3.449  0.2476 -0.0545 -0.0838
 6363TIP3    H143284   3.711   4.964   3.503 -0.9897 -0.8054 -2.1177
 6363TIP3    H243285   3.833   5.054   3.510  0.9274 -3.4089  2.6497
 6364TIP3   OH243286   2.561   4.889   2.943 -0.2077 -0.4415 -0.8154
 6364TIP3    H143287   2.579   4.933   3.026 -1.1243  0.1497 -0.9185
 6364TIP3    H243288   2.499   4.946   2.898 -1.5562 -1.8847 -0.8993
 6365TIP3   OH243289   5.454   3.289   1.487  0.0490  0.3419  0.3746
 6365TIP3    H143290   5.428   3.203   1.453  1.7320 -0.0491  0.0224
 6365TIP3    H243291   5.394   3.350   1.445 -0.6696 -0.5698  0.0347
 6366TIP3   OH243292   5.043   0.795   0.464  0.0069  0.0082  0.3107
 6366TIP3    H143293   5.050   0.701   0.448  0.1882  0.2183 -0.9474
 6366TIP3    H243294   5.119   0.816   0.518  2.5720  0.1497 -3.0515
 6367TIP3   OH243295   4.248   4.337   0.759  0.0774  0.2986 -0.0289
 6367TIP3    H143296   4.281   4.302   0.843 -0.1932  0.9580  0.3583
 6367TIP3    H243297   4.308   4.301   0.694  0.5316  0.0871  0.4882
 6368TIP3   OH243298   3.310   4.684   1.296 -0.1118  0.3031 -0.3131
 6368TIP3    H143299   3.245   4.710   1.362  0.0232 -1.4389  0.5808
 6368TIP3    H243300   3.379   4.641   1.346  1.3525  1.3489 -1.3472
 6369TIP3   OH243301   6.071   6.283   2.762  0.5375  0.6491  0.3613
 6369TIP3    H143302   6.094   6.198   2.725  2.1310  1.1586  0.1123
 6369TIP3    H243303   6.118   6.286   2.846 -0.3452  0.8677  0.8582
 6370TIP3   OH243304   5.205   2.049   1.447 -0.0858  0.1884  0.3986
 6370TIP3    H143305   5.131   2.107   1.434 -1.7662 -1.9485 -0.0457
 6370TIP3    H243306   5.187   2.004   1.530 -1.1028 -2.7654 -1.2794
 6371TIP3   OH243307   6.205   2.172   1.221  0.0068 -0.7460  0.1217
 6371TIP3    H143308   6.298   2.171   1.245  0.1347 -0.0770 -0.3192
 6371TIP3    H243309   6.175   2.083   1.239  0.8071 -1.0573 -0.0209
 6372TIP3   OH243310   0.801   3.394   2.159  0.1642 -0.3936  0.3936
 6372TIP3    H143311   0.844   3.386   2.074  0.1356  1.4833  0.1805
 6372TIP3    H243312   0.871   3.415   2.220  0.1191 -1.3262  0.7962
 6373TIP3   OH243313   3.071   0.505   1.978 -0.1100  0.2983 -0.8397
 6373TIP3    H143314   3.042   0.440   1.914  0.6524  0.6610 -1.5751
 6373TIP3    H243315   2.991   0.551   2.003 -0.3110  0.7683 -2.2374
 6374TIP3   OH243316   0.686   0.288   0.955  0.5693  0.0471 -0.2232
 6374TIP3    H143317   0.742   0.332   0.891  1.1401  2.4808  1.8165
 6374TIP3    H243318   0.738   0.214   0.986  0.6987 -0.5267 -1.7301
 6375TIP3   OH243319   1.239   2.451   2.515 -0.2702  0.1918  0.0736
 6375TIP3    H143320   1.146   2.473   2.509 -0.0923  1.0294  0.3025
 6375TIP3    H243321   1.282   2.534   2.534  0.3493 -0.4922  1.8240
 6376TIP3   OH243322   2.707   0.207   1.024  0.6877  0.1341  0.1649
 6376TIP3    H143323   2.797   0.217   0.995  1.3592 -2.2491  1.1759
 6376TIP3    H243324   2.711   0.218   1.119  0.2315 -1.3849  0.3977
 6377TIP3   OH243325   1.596   4.708   4.711  0.1656 -0.8193 -1.0469
 6377TIP3    H143326   1.555   4.631   4.751  0.8918  0.6976  3.0243
 6377TIP3    H243327   1.665   4.672   4.656 -0.2857 -3.1028 -0.2181
 6378TIP3   OH243328   6.010   5.398   4.103 -0.4622 -0.2628  0.3624
 6378TIP3    H143329   6.102   5.422   4.117 -0.2766 -0.7897  0.0722
 6378TIP3    H243330   5.982   5.455   4.031 -0.7389  0.7872  1.2709
 6379TIP3   OH243331   2.045   5.638   3.149 -0.3083 -0.7164 -0.1917
 6379TIP3    H143332   2.053   5.729   3.177  0.5753 -0.5622 -0.9010
 6379TIP3    H243333   1.954   5.615   3.168 -0.4818  0.2419  0.1931
 6380TIP3   OH243334   3.754   4.284   3.069  0.8105  0.1640 -0.1528
 6380TIP3    H143335   3.803   4.354   3.112 -1.6487  1.7714  0.2389
 6380TIP3    H243336   3.662   4.301   3.092 -0.0299 -2.3188 -1.3157
 6381TIP3   OH243337   2.118   3.683   2.576 -0.1767  0.1682  0.0968
 6381TIP3    H143338   2.135   3.589   2.579  0.4332  0.1166 -2.6771
 6381TIP3    H243339   2.179   3.720   2.640 -1.6662 -1.3720  2.6091
 6382TIP3   OH243340   1.510   4.626   1.099  0.0596  0.0966  0.3005
 6382TIP3    H143341   1.514   4.531   1.099  2.6919  0.1403 -0.2876
 6382TIP3    H243342   1.550   4.652   1.016 -1.9770  1.7267 -0.2515
 6383TIP3   OH243343   0.790   2.276   2.312  0.3792  0.0004  0.2598
 6383TIP3    H143344   0.868   2.228   2.341  0.4442 -0.0622 -0.0151
 6383TIP3    H243345   0.825   2.355   2.271  0.3788 -0.6974 -1.1550
 6384TIP3   OH243346   1.221   2.600   0.544  0.7104 -0.1842 -0.0412
 6384TIP3    H143347   1.280   2.675   0.535  1.4233 -0.6915  0.3708
 6384TIP3    H243348   1.271   2.535   0.593 -0.4723 -0.3276  1.0199
 6385TIP3   OH243349   0.615   3.548   0.863  0.0480  0.1275 -0.2953
 6385TIP3    H143350   0.565   3.565   0.943  0.4815  0.5930 -0.1156
 6385TIP3    H243351   0.626   3.635   0.823  1.0988  0.0895 -0.0997
 6386TIP3   OH243352   1.647   6.455   1.696 -0.3123 -0.7954 -0.1076
 6386TIP3    H143353   1.598   6.383   1.734  0.1869 -1.1306 -0.0942
 6386TIP3    H243354   1.682   6.420   1.614 -1.9227  0.1098 -1.2384
 6387TIP3   OH243355   4.997   3.443   4.015 -0.1193 -0.1055 -0.1560
 6387TIP3    H143356   4.979   3.524   4.062  0.6975  0.9441 -1.5750
 6387TIP3    H243357   5.076   3.408   4.057 -0.6630 -0.3589  0.6717
 6388TIP3   OH243358   1.674   1.904   4.194 -0.0310 -0.1842  0.2395
 6388TIP3    H143359   1.759   1.886   4.153 -0.0969 -1.1998  0.5163
 6388TIP3    H243360   1.637   1.817   4.209 -1.9787  0.2411 -1.6437
 6389TIP3   OH243361   2.525   2.515   2.340 -0.0384 -0.3724  0.4371
 6389TIP3    H143362   2.565   2.444   2.389 -0.6922 -0.9192  0.1968
 6389TIP3    H243363   2.473   2.472   2.272  0.8656  0.3758 -0.7651
 6390TIP3   OH243364   2.427   4.952   2.546  0.1146  0.0187  0.5305
 6390TIP3    H143365   2.502   4.897   2.570  0.9998  0.7826 -0.4009
 6390TIP3    H243366   2.465   5.024   2.497 -1.1870  0.7327  0.5323
 6391TIP3   OH243367   3.942   6.268   1.033  0.4971 -0.1444 -0.3285
 6391TIP3    H143368   4.003   6.335   1.002  1.6952 -0.1178  1.8440
 6391TIP3    H243369   3.948   6.273   1.129 -2.8017 -0.2907 -0.0036
 6392TIP3   OH243370   2.827   0.365   1.577  0.6275  0.1459 -0.5360
 6392TIP3    H143371   2.737   0.338   1.559 -0.1975  1.3409  1.4099
 6392TIP3    H243372   2.836   0.449   1.532  0.8680 -0.0880 -0.9309
 6393TIP3   OH243373   2.214   3.982   1.215  0.0979  0.1576  0.1040
 6393TIP3    H143374   2.209   4.010   1.306 -1.4195 -2.0466  0.7871
 6393TIP3    H243375   2.283   4.035   1.177  0.8663  1.0490  2.5753
 6394TIP3   OH243376   1.136   6.481   1.927  0.1814 -0.1776  0.2239
 6394TIP3    H143377   1.146   6.386   1.932  1.1641 -0.2177 -1.4460
 6394TIP3    H243378   1.169   6.513   2.011 -0.5133 -1.3113  0.9583
 6395TIP3   OH243379   5.576   5.921   1.516 -0.2341  0.1745 -0.4838
 6395TIP3    H143380   5.656   5.942   1.467 -0.6923 -1.2462 -1.9100
 6395TIP3    H243381   5.605   5.860   1.584 -0.3295 -1.7870 -2.1271
 6396TIP3   OH243382   1.930   1.556  10.665 -0.7897  0.0873 -0.5056
 6396TIP3    H143383   1.912   1.582  10.756 -1.0258  0.7776 -0.7434
 6396TIP3    H243384   2.012   1.507  10.671 -1.7954 -1.5799  0.3452
 6397TIP3   OH243385   3.787   5.066   0.563  0.1034 -0.0748 -0.1030
 6397TIP3    H143386   3.864   5.117   0.587  0.3201 -0.0688 -0.7801
 6397TIP3    H243387   3.716   5.103   0.616  0.6585 -0.4292  0.9156
 6398TIP3   OH243388   4.281   2.615   0.747  0.1278  0.2691 -0.0376
 6398TIP3    H143389   4.245   2.587   0.663  1.7376  1.8935 -1.3097
 6398TIP3    H243390   4.284   2.710   0.742  1.7477  0.3172  1.2238
 6399TIP3   OH243391   1.364   4.703   0.557  0.3551 -0.0409 -0.5082
 6399TIP3    H143392   1.358   4.770   0.625  0.2958 -0.2991 -0.2534
 6399TIP3    H243393   1.452   4.667   0.567  0.2910 -0.1877 -0.4603
 6400TIP3   OH243394   3.514   5.872   1.111 -0.3273  0.1259  0.3356
 6400TIP3    H143395   3.448   5.936   1.084 -1.4320 -0.6671  1.0484
 6400TIP3    H243396   3.594   5.923   1.125 -0.2808  0.8811 -2.1936
 6401TIP3   OH243397   1.362   4.768   4.268 -0.3874 -0.9789 -0.5409
 6401TIP3    H143398   1.297   4.808   4.325 -0.4444 -0.4928 -0.9479
 6401TIP3    H243399   1.411   4.709   4.326 -0.0087  0.0063  0.1624
 6402TIP3   OH243400   3.352   5.078   2.795 -0.0818  0.0871 -0.6586
 6402TIP3    H143401   3.268   5.125   2.795  0.0516  0.3307 -0.8335
 6402TIP3    H243402   3.351   5.028   2.713 -0.0046  0.1901 -0.7239
 6403TIP3   OH243403   4.631   0.030   2.868 -0.6243  0.7051 -0.0658
 6403TIP3    H143404   4.623   0.028   2.963 -0.9797 -1.4137 -0.0955
 6403TIP3    H243405   4.543   0.011   2.836 -0.3665  0.7247 -0.8090
 6404TIP3   OH243406   5.467   3.211   4.061  0.4088  0.2026 -0.1461
 6404TIP3    H143407   5.478   3.151   4.135  0.2624  0.6242  0.2193
 6404TIP3    H243408   5.404   3.275   4.092 -1.4254 -0.9014 -1.4123
 6405TIP3   OH243409   1.450   3.446   1.690 -0.4998  0.0166 -0.3004
 6405TIP3    H143410   1.483   3.520   1.639 -3.1792  1.0203 -0.7776
 6405TIP3    H243411   1.508   3.440   1.765 -0.0029  2.4268 -0.4161
 6406TIP3   OH243412   1.517   6.508   1.246 -0.0394  0.5860 -0.1203
 6406TIP3    H143413   1.429   6.484   1.274 -1.4105  4.6622 -0.3404
 6406TIP3    H243414   1.524   6.473   1.157 -0.3544 -1.9197  0.7530
 6407TIP3   OH243415   5.170   0.183   1.115 -0.0547 -0.0577 -0.3271
 6407TIP3    H143416   5.227   0.133   1.057  0.9291 -0.5688  1.0023
 6407TIP3    H243417   5.230   0.243   1.160 -0.5785 -0.4723  0.9650
 6408TIP3   OH243418   1.910   6.197   3.183  0.1011 -0.0765  0.1411
 6408TIP3    H143419   1.930   6.284   3.149  0.5145 -0.1739  0.1302
 6408TIP3    H243420   1.879   6.212   3.272 -0.7050  0.1562 -0.1697
 6409TIP3   OH243421   5.733   0.231   3.508  0.4683 -0.2662 -0.4247
 6409TIP3    H143422   5.658   0.291   3.507  0.8231  0.2645  1.4414
 6409TIP3    H243423   5.725   0.184   3.591  3.0261  0.9464  0.6436
 6410TIP3   OH243424   5.521   0.079   0.647 -0.6043 -0.0969  0.5995
 6410TIP3    H143425   5.519  -0.013   0.621  0.8780  0.0537 -0.1753
 6410TIP3    H243426   5.462   0.123   0.586  2.4647  0.1807 -2.5044
 6411TIP3   OH243427   4.607   6.512   0.972 -0.6075  0.3408 -0.0895
 6411TIP3    H143428   4.605   6.450   1.045  1.8015  0.1261 -0.1165
 6411TIP3    H243429   4.663   6.583   1.004 -1.5775  1.4772 -0.8491
 6412TIP3   OH243430   5.258   1.096   1.787  0.3890  0.1155 -0.2364
 6412TIP3    H143431   5.295   1.099   1.698 -1.3953 -0.1211 -1.0273
 6412TIP3    H243432   5.184   1.035   1.780 -0.0758  0.4639  1.3066
 6413TIP3   OH243433   4.050   6.076   3.161  0.2510  0.7494  0.5862
 6413TIP3    H143434   4.020   6.153   3.209 -1.1614  0.0347  0.8889
 6413TIP3    H243435   4.008   6.002   3.204  0.3289 -0.0641 -0.6736
 6414TIP3   OH243436   4.367   2.202   0.983  0.4055  0.2246 -0.3692
 6414TIP3    H143437   4.389   2.186   0.891  1.1717  0.6786 -0.2751
 6414TIP3    H243438   4.351   2.297   0.987 -0.6248  0.0515 -0.2340
 6415TIP3   OH243439   5.131   1.565   0.496  0.2153  0.2552  0.3008
 6415TIP3    H143440   5.086   1.650   0.498  1.3577  0.8761  1.9476
 6415TIP3    H243441   5.060   1.501   0.507 -0.4680  1.1249  1.2685
 6416TIP3   OH243442   6.632   0.817   1.052  0.0708  0.0133  0.1056
 6416TIP3    H143443   6.630   0.881   0.980 -3.7726 -0.1629 -0.1418
 6416TIP3    H243444   6.639   0.732   1.009 -2.2608 -0.0942 -0.2082
 6417TIP3   OH243445   3.825   3.015   1.156 -0.0024  0.2543 -0.0918
 6417TIP3    H143446   3.811   3.037   1.248  0.1283  0.5373 -0.1371
 6417TIP3    H243447   3.906   3.060   1.133 -0.5121  0.9472 -0.5965
 6418TIP3   OH243448   6.475   4.903   4.215 -0.0114 -0.2759 -0.9063
 6418TIP3    H143449   6.379   4.910   4.208 -0.0192  0.3003 -0.3363
 6418TIP3    H243450   6.490   4.874   4.305  0.3816  0.5498 -0.6924
 6419TIP3   OH243451   0.728   1.112   2.438  0.4228 -0.2366  0.0849
 6419TIP3    H143452   0.788   1.105   2.512  0.1343  0.1344  0.3566
 6419TIP3    H243453   0.774   1.168   2.375  0.8607 -0.9231 -0.2131
 6420TIP3   OH243454   1.543   4.717   1.387  0.5681 -0.2193  0.4108
 6420TIP3    H143455   1.515   4.692   1.299  0.2141  0.0660  0.4408
 6420TIP3    H243456   1.546   4.634   1.436 -1.1455 -0.1759  0.6647
 6421TIP3   OH243457   0.311   5.086   0.924 -0.1624 -0.0764  0.2640
 6421TIP3    H143458   0.283   5.000   0.892  0.7041 -0.2834  0.0242
 6421TIP3    H243459   0.245   5.111   0.988 -1.4252 -0.0832 -0.9977
 6422TIP3   OH243460   0.229   4.624   4.095 -0.5210  0.1331 -0.6682
 6422TIP3    H143461   0.290   4.694   4.118 -0.4193  0.9294 -3.0611
 6422TIP3    H243462   0.144   4.654   4.129 -0.0472  0.1797  0.5273
 6423TIP3   OH243463   5.221   3.672   2.813  0.1791  0.1972 -0.6084
 6423TIP3    H143464   5.243   3.754   2.769  1.7416 -0.5578 -1.2868
 6423TIP3    H243465   5.190   3.699   2.900  1.4190  1.4691 -0.5326
 6424TIP3   OH243466   3.486   5.588   3.457  0.1461  0.3130  0.1449
 6424TIP3    H143467   3.500   5.625   3.370 -1.1526 -1.2595 -0.7780
 6424TIP3    H243468   3.431   5.652   3.501 -0.3400  0.4826 -0.6811
 6425TIP3   OH243469   3.479   0.810   2.152  0.6269 -0.1274  0.1261
 6425TIP3    H143470   3.554   0.765   2.113  1.7009  0.1376  1.7456
 6425TIP3    H243471   3.460   0.760   2.231 -0.2092  0.4403  0.2934
 6426TIP3   OH243472   4.672   5.189   0.942  0.5838  0.6469 -0.3768
 6426TIP3    H143473   4.666   5.284   0.931  0.3623  0.5392 -1.2605
 6426TIP3    H243474   4.749   5.164   0.891  1.1925  0.4518  0.6085
 6427TIP3   OH243475   1.245   0.860   2.638  0.4142  0.2287  0.0315
 6427TIP3    H143476   1.207   0.792   2.582 -1.7573  1.2558  0.1163
 6427TIP3    H243477   1.333   0.874   2.603  0.3918 -1.6024 -0.8778
 6428TIP3   OH243478   2.526   0.619   2.153 -0.1186 -0.1263 -0.1221
 6428TIP3    H143479   2.600   0.612   2.213 -0.8909 -1.4140  0.7197
 6428TIP3    H243480   2.449   0.616   2.209 -0.8452 -0.1622 -1.0969
 6429TIP3   OH243481   4.751   4.867   1.955 -0.3752  0.0598 -0.5670
 6429TIP3    H143482   4.771   4.926   1.882 -2.6294  1.7845  0.0573
 6429TIP3    H243483   4.713   4.925   2.022  0.4771 -1.6459  1.4991
 6430TIP3   OH243484   6.305   3.768   2.106  0.5593  0.2319 -0.0201
 6430TIP3    H143485   6.264   3.725   2.181  0.4540 -0.3124 -0.3784
 6430TIP3    H243486   6.349   3.696   2.059  2.0803  0.8220  0.4533
 6431TIP3   OH243487   4.797   5.341   4.119 -0.1491  0.6009 -0.1908
 6431TIP3    H143488   4.712   5.307   4.147 -0.2604  0.6115 -0.5120
 6431TIP3    H243489   4.849   5.263   4.099 -0.0735  0.5940  0.0371
 6432TIP3   OH243490   0.464   5.664   1.134  0.1549  0.0201 -0.6844
 6432TIP3    H143491   0.456   5.730   1.065  0.5159  0.5049 -0.2750
 6432TIP3    H243492   0.517   5.707   1.202 -1.0169 -0.1023  0.3324
 6433TIP3   OH243493   2.825   1.941   2.468  0.4582 -0.8415 -0.7651
 6433TIP3    H143494   2.874   1.879   2.415  0.5789 -0.8411 -0.6550
 6433TIP3    H243495   2.858   1.929   2.557 -0.5270 -1.6220 -0.4908
 6434TIP3   OH243496   0.621   1.517   1.270  0.2580  0.0105 -0.2963
 6434TIP3    H143497   0.605   1.423   1.279  0.6352  0.0541  1.2326
 6434TIP3    H243498   0.568   1.557   1.339 -0.9920  1.0785 -1.8129
 6435TIP3   OH243499   3.663   1.986   2.788 -0.4098  0.3658  0.1631
 6435TIP3    H143500   3.635   2.012   2.700 -0.4600 -0.3666 -0.0466
 6435TIP3    H243501   3.587   1.940   2.825 -0.4080  0.7161  0.6141
 6436TIP3   OH243502   6.321   6.412   1.226 -0.3148 -0.6230 -0.5388
 6436TIP3    H143503   6.249   6.353   1.203  1.5440 -3.4729  0.3643
 6436TIP3    H243504   6.328   6.404   1.321 -0.5841  1.8971 -0.2577
 6437TIP3   OH243505   6.052   0.636   2.878  0.1163 -0.4863  0.2030
 6437TIP3    H143506   6.106   0.668   2.950 -0.4011  1.1612 -0.1053
 6437TIP3    H243507   5.979   0.592   2.921  0.0294  0.1204  0.6900
 6438TIP3   OH243508   4.033   6.594   2.515 -0.2745 -0.1358 -0.7534
 6438TIP3    H143509   4.058   6.546   2.595 -0.7638  2.2323  0.9383
 6438TIP3    H243510   3.939   6.608   2.524 -0.0021  1.9740 -0.6031
 6439TIP3   OH243511   1.918   4.196   3.789 -0.0653 -0.2787  0.0776
 6439TIP3    H143512   2.002   4.240   3.804  1.1417 -2.6305  0.6144
 6439TIP3    H243513   1.858   4.239   3.850  1.0393  0.6130  0.5847
 6440TIP3   OH243514   4.288   1.519   2.568  0.4519  0.3128 -0.3932
 6440TIP3    H143515   4.263   1.574   2.642 -0.4630 -0.8180  0.1671
 6440TIP3    H243516   4.381   1.539   2.554 -0.2305  3.2417 -1.3366
 6441TIP3   OH243517   0.805   2.999   1.169  0.0268 -1.1487  0.5156
 6441TIP3    H143518   0.864   3.074   1.180  0.6055 -1.8288  2.5796
 6441TIP3    H243519   0.859   2.931   1.129 -0.5286 -0.4848 -1.4636
 6442TIP3   OH243520   0.777   2.322   4.146  1.0816 -0.3266  0.0011
 6442TIP3    H143521   0.856   2.336   4.198  1.0091  0.5356 -0.1080
 6442TIP3    H243522   0.801   2.351   4.058  0.3304  0.9924  0.1981
 6443TIP3   OH243523   2.474   0.658   1.785 -0.5902  0.4042  0.2214
 6443TIP3    H143524   2.404   0.715   1.754 -1.0878  0.2516  1.0434
 6443TIP3    H243525   2.509   0.703   1.862 -0.4176  0.0150  0.3734
 6444TIP3   OH243526   6.454   0.527   2.457  0.8033  0.3197  0.3332
 6444TIP3    H143527   6.475   0.466   2.386  0.3752 -0.8352  1.1669
 6444TIP3    H243528   6.457   0.473   2.536 -1.5823  0.8985  0.9049
 6445TIP3   OH243529   6.050   4.940   0.715 -1.1116 -0.5014  0.1269
 6445TIP3    H143530   6.069   4.846   0.719  0.2977 -0.1929  1.7831
 6445TIP3    H243531   6.087   4.975   0.796 -1.5575  1.5018 -0.4977
 6446TIP3   OH243532   5.392   3.317   1.786 -0.1302  0.2654 -0.1501
 6446TIP3    H143533   5.465   3.380   1.785  1.3677 -1.3466 -2.1772
 6446TIP3    H243534   5.371   3.302   1.694 -2.0030 -0.5015  0.3466
 6447TIP3   OH243535   1.841   4.313   3.359  0.6173  0.2844 -0.5776
 6447TIP3    H143536   1.850   4.218   3.353 -1.0079 -0.0722  1.4179
 6447TIP3    H243537   1.850   4.344   3.269  0.2903 -1.8401 -1.4000
 6448TIP3   OH243538   5.381   4.384   3.846 -0.2069 -0.2101  0.4653
 6448TIP3    H143539   5.313   4.400   3.912 -1.2752 -1.3658 -0.3090
 6448TIP3    H243540   5.451   4.339   3.893 -0.2856  0.3312  1.1174
 6449TIP3   OH243541   2.822   4.599   1.807 -0.1150  0.2088 -0.5245
 6449TIP3    H143542   2.829   4.521   1.751 -0.9516  0.0934 -0.4853
 6449TIP3    H243543   2.905   4.645   1.795  0.7303 -1.0940  0.0651
 6450TIP3   OH243544   0.022   2.696   2.284 -0.6696 -0.4508  0.4667
 6450TIP3    H143545   0.047   2.753   2.211  0.3338 -0.3334  0.8818
 6450TIP3    H243546   0.073   2.616   2.271 -1.3234 -0.8697  0.4348
 6451TIP3   OH243547   5.934   0.219   3.176  0.9441 -0.1986  0.1204
 6451TIP3    H143548   5.863   0.276   3.147  0.0347 -1.5494 -0.4204
 6451TIP3    H243549   5.890   0.148   3.224  1.7806 -1.6045 -1.0837
 6452TIP3   OH243550   0.497   4.990   1.540 -0.1798 -0.4192 -0.5773
 6452TIP3    H143551   0.570   4.939   1.506  0.8206  0.3283  0.3961
 6452TIP3    H243552   0.419   4.941   1.513  0.7032 -1.7466 -0.7871
 6453TIP3   OH243553   2.187   6.535   2.518 -0.1346  0.2830  0.4629
 6453TIP3    H143554   2.223   6.475   2.452 -0.4490  0.9000 -0.2923
 6453TIP3    H243555   2.212   6.622   2.488 -0.1739  0.5699  1.2391
 6454TIP3   OH243556   6.578   2.666   2.852  0.0620  0.1845  0.3905
 6454TIP3    H143557   6.657   2.665   2.906  1.3638 -0.7048 -1.4310
 6454TIP3    H243558   6.590   2.740   2.793 -0.5000  0.0797  0.1326
 6455TIP3   OH243559   3.889   2.670   1.507  0.1926  0.5812 -0.2092
 6455TIP3    H143560   3.947   2.680   1.431  0.7089 -1.9089 -0.2179
 6455TIP3    H243561   3.801   2.680   1.471  0.4841  1.1414 -0.7975
 6456TIP3   OH243562   0.112   3.664   0.758  0.3113 -0.2469  0.6061
 6456TIP3    H143563   0.126   3.750   0.717  0.3950 -0.6941 -0.3404
 6456TIP3    H243564   0.032   3.631   0.715  0.6510 -0.9136  0.4808
 6457TIP3   OH243565   5.050   4.457   2.563 -0.5046  0.0480  0.2644
 6457TIP3    H143566   4.986   4.387   2.550 -0.0423 -0.5096  0.9257
 6457TIP3    H243567   5.099   4.431   2.641  2.0495 -0.7034 -1.4433
 6458TIP3   OH243568   1.064   5.764   0.898  0.3437  0.5122  0.0088
 6458TIP3    H143569   1.081   5.747   0.990 -0.6982  1.0482  0.3115
 6458TIP3    H243570   1.050   5.677   0.860  1.3294  0.2490  0.2255
 6459TIP3   OH243571   5.728   3.136   3.194  1.1950  0.2582 -0.7590
 6459TIP3    H143572   5.661   3.067   3.198 -0.7058  2.0705  0.8912
 6459TIP3    H243573   5.791   3.112   3.262  0.8329 -0.1157 -0.5510
 6460TIP3   OH243574   6.526   2.560   2.139 -0.7115  0.1226  0.1539
 6460TIP3    H143575   6.507   2.476   2.180  0.7337 -0.1179  0.4145
 6460TIP3    H243576   6.567   2.611   2.209  0.0333  0.3931 -0.4682
 6461TIP3   OH243577   0.553   0.505   1.355 -0.4115 -0.3373  0.2386
 6461TIP3    H143578   0.571   0.460   1.272  1.3385 -0.1828  0.4943
 6461TIP3    H243579   0.496   0.444   1.403 -1.3131 -0.4973 -0.9903
 6462TIP3   OH243580   5.658   3.540   2.369  0.2794 -0.1895 -0.2707
 6462TIP3    H143581   5.606   3.463   2.347 -0.7557  0.6026 -0.6752
 6462TIP3    H243582   5.599   3.614   2.354  1.4869  0.7343 -0.6389
 6463TIP3   OH243583   6.152   3.880   1.206 -0.4075 -0.1366  0.4858
 6463TIP3    H143584   6.114   3.930   1.278 -0.6125  0.9773 -0.3716
 6463TIP3    H243585   6.119   3.923   1.127  0.5398 -0.7790 -0.2755
 6464TIP3   OH243586   1.606   2.460   3.307  0.0357  0.3895 -0.3511
 6464TIP3    H143587   1.608   2.469   3.211  0.6880 -0.7870 -0.4632
 6464TIP3    H243588   1.578   2.546   3.338 -2.1412  0.2316 -1.6613
 6465TIP3   OH243589   4.973   6.206   1.468 -0.2752  0.7739  0.5913
 6465TIP3    H143590   5.068   6.210   1.454 -0.4459  1.7972 -0.4831
 6465TIP3    H243591   4.952   6.113   1.463  0.4216  0.6649 -1.1831
 6466TIP3   OH243592   4.086   0.221   1.386  0.2772  0.6589  0.1718
 6466TIP3    H143593   4.009   0.235   1.331  0.6787  1.1704 -0.2741
 6466TIP3    H243594   4.140   0.299   1.372  1.4643 -0.2438 -0.5344
 6467TIP3   OH243595   5.038   3.525   0.842 -0.2108 -0.2433 -0.3975
 6467TIP3    H143596   5.039   3.543   0.748 -1.0344 -1.7394 -0.7345
 6467TIP3    H243597   4.957   3.476   0.856 -0.1740  0.0818  1.1323
 6468TIP3   OH243598   2.338   4.154   2.735  0.1325  0.7655 -0.1693
 6468TIP3    H143599   2.266   4.155   2.798 -0.0563 -0.5467 -0.3193
 6468TIP3    H243600   2.358   4.246   2.719  0.5574  1.1736  2.2202
 6469TIP3   OH243601   1.239   2.033   2.484  0.0509 -0.1522 -0.0493
 6469TIP3    H143602   1.304   2.038   2.414 -1.7291 -0.0991 -1.7956
 6469TIP3    H243603   1.211   1.941   2.483 -0.9216  0.1344 -0.3467
 6470TIP3   OH243604   1.635   3.708   4.235  0.3027 -0.1845  0.2441
 6470TIP3    H143605   1.604   3.732   4.322  1.7011  0.6362  0.5444
 6470TIP3    H243606   1.557   3.718   4.179 -0.4228  0.0145  1.2555
 6471TIP3   OH243607   4.238   2.842   3.279 -0.1283 -0.9472 -0.4276
 6471TIP3    H143608   4.283   2.905   3.223 -0.5544 -0.7156 -0.5191
 6471TIP3    H243609   4.236   2.883   3.365 -0.5102 -0.7735 -0.5133
 6472TIP3   OH243610   1.967   1.995   0.448  0.3279 -0.0063  0.4833
 6472TIP3    H143611   1.893   1.950   0.488  0.2131 -0.3320 -0.0784
 6472TIP3    H243612   1.932   2.080   0.421  0.9620  1.1615  3.0649
 6473TIP3   OH243613   3.213   1.881   1.867 -0.1340  0.1715 -0.2676
 6473TIP3    H143614   3.257   1.907   1.786 -0.9536 -0.4278 -0.9051
 6473TIP3    H243615   3.130   1.929   1.866 -0.1567  0.1498  0.2160
 6474TIP3   OH243616   1.844   0.537   3.213  0.2398  0.3046 -0.5307
 6474TIP3    H143617   1.808   0.578   3.292  2.3361 -0.0820  0.6794
 6474TIP3    H243618   1.852   0.609   3.150  0.3244  0.9892  0.2483
 6475TIP3   OH243619   2.198   0.000   0.674 -0.1708  0.7272 -0.3060
 6475TIP3    H143620   2.148  -0.069   0.630 -2.7376  2.0371  0.3602
 6475TIP3    H243621   2.236  -0.042   0.751 -1.8040  0.0354  0.1605
 6476TIP3   OH243622   1.653   5.403   1.771  0.1440  0.3691 -0.0581
 6476TIP3    H143623   1.616   5.444   1.693  1.0352 -1.3256 -1.4247
 6476TIP3    H243624   1.586   5.340   1.798  0.1068  0.5217  0.2182
 6477TIP3   OH243625   2.007   1.644   1.360 -0.3895  0.5172 -0.7385
 6477TIP3    H143626   1.912   1.634   1.351 -0.3609  0.5267 -1.0499
 6477TIP3    H243627   2.043   1.610   1.278 -0.1041  0.2296 -0.4978
 6478TIP3   OH243628   2.557   0.285   1.588  0.3391 -0.4411  0.6475
 6478TIP3    H143629   2.486   0.345   1.566  0.4071 -0.7552 -0.4866
 6478TIP3    H243630   2.519   0.225   1.652 -0.0640  0.0958  0.9224
 6479TIP3   OH243631   1.057   3.832   3.513  0.1110 -0.0797 -0.0638
 6479TIP3    H143632   1.116   3.907   3.521  0.2762 -0.3138  1.2230
 6479TIP3    H243633   1.008   3.832   3.596 -1.1752 -0.3314 -0.8039
 6480TIP3   OH243634   6.228   2.522   1.661 -0.1504  0.0188  0.2646
 6480TIP3    H143635   6.268   2.558   1.740  2.2470  1.8638 -1.6058
 6480TIP3    H243636   6.291   2.457   1.631 -0.3306  0.3249 -0.8178
 6481TIP3   OH243637   6.546   1.279   1.702 -0.2401  0.1600 -0.1139
 6481TIP3    H143638   6.543   1.213   1.771 -0.3350  1.2304  0.9352
 6481TIP3    H243639   6.610   1.343   1.734 -3.0610  2.7039  0.9042
 6482TIP3   OH243640   5.540   3.754   3.624 -0.1846  0.2937 -0.2355
 6482TIP3    H143641   5.590   3.700   3.562  0.4127  0.9525 -0.3462
 6482TIP3    H243642   5.560   3.717   3.710  0.9996  0.8932 -0.2149
 6483TIP3   OH243643   4.776   1.958   3.471 -0.1433 -0.0970  0.2839
 6483TIP3    H143644   4.734   2.042   3.450 -0.7651 -0.5830 -0.4696
 6483TIP3    H243645   4.709   1.908   3.516 -0.8135 -1.2792 -1.8585
 6484TIP3   OH243646   3.640   6.063   3.694  0.7860  0.1422 -0.3067
 6484TIP3    H143647   3.723   6.064   3.740  0.9229 -0.2734 -0.5447
 6484TIP3    H243648   3.613   5.971   3.693 -0.8170  0.4924  1.7881
 6485TIP3   OH243649   1.137   3.337   1.308 -0.1758  0.8514 -0.3269
 6485TIP3    H143650   1.094   3.417   1.337  0.6198  0.8794  0.8170
 6485TIP3    H243651   1.216   3.367   1.263  0.5385  0.6978  0.8051
 6486TIP3   OH243652   2.520   2.114   1.354  0.0857  0.1338  0.0643
 6486TIP3    H143653   2.521   2.150   1.265  1.5704 -0.5909 -0.2445
 6486TIP3    H243654   2.436   2.068   1.360 -1.0353  2.0434 -0.1592
 6487TIP3   OH243655   3.632   0.776   0.693 -0.0050 -0.2534  0.0627
 6487TIP3    H143656   3.558   0.826   0.658 -0.6608 -0.5713  0.9427
 6487TIP3    H243657   3.606   0.684   0.684 -0.1487 -0.3433  1.2400
 6488TIP3   OH243658   1.163   3.367   1.944  0.0560 -0.0824 -0.4233
 6488TIP3    H143659   1.242   3.361   1.999 -0.3598  1.3091  0.3701
 6488TIP3    H243660   1.110   3.291   1.971  0.0031  0.3892  0.8941
 6489TIP3   OH243661   5.722   3.112   4.359 -0.0204 -0.4429  0.3277
 6489TIP3    H143662   5.729   3.134   4.452  1.5922 -0.9053  0.3511
 6489TIP3    H243663   5.629   3.119   4.340 -0.2207  1.0846  1.6261
 6490TIP3   OH243664   1.902   2.001   3.802 -0.0467  0.2026 -0.0046
 6490TIP3    H143665   1.947   2.073   3.758 -1.8098  1.6459  0.4098
 6490TIP3    H243666   1.896   1.932   3.736 -1.1264  1.6761 -1.5357
 6491TIP3   OH243667   4.075   0.990   2.592 -0.1164 -0.1646 -0.3254
 6491TIP3    H143668   4.070   0.955   2.681 -0.4510 -1.6989 -0.9131
 6491TIP3    H243669   4.003   1.054   2.587  0.3719  0.4884  0.7174
 6492TIP3   OH243670   1.992   0.058   1.034 -0.2743  0.0434  0.9239
 6492TIP3    H143671   1.899   0.062   1.012  0.0185 -1.4650 -0.8010
 6492TIP3    H243672   2.004   0.127   1.099 -2.7357 -0.2191  1.7631
 6493TIP3   OH243673   2.723   4.183   2.207 -0.2893  0.2148  0.7115
 6493TIP3    H143674   2.798   4.147   2.255 -1.1489  0.9025  2.7108
 6493TIP3    H243675   2.653   4.186   2.272 -1.6412  0.9284 -0.7153
 6494TIP3   OH243676   5.420   2.115   2.963 -0.1342  0.6251  0.3256
 6494TIP3    H143677   5.389   2.159   2.884  0.7273  0.7465  0.0368
 6494TIP3    H243678   5.415   2.022   2.943  0.5603  0.6653 -0.0762
 6495TIP3   OH243679   0.946   2.687   0.429  0.5401 -0.1197  0.3658
 6495TIP3    H143680   0.955   2.778   0.457 -0.7113 -0.3871  1.7349
 6495TIP3    H243681   1.030   2.646   0.452  1.0710  0.6345 -0.1648
 6496TIP3   OH243682   4.246   2.955   3.547  0.0323 -0.2122 -0.3802
 6496TIP3    H143683   4.245   2.961   3.642 -0.5145  1.3276 -0.4466
 6496TIP3    H243684   4.312   3.019   3.519 -0.1912 -0.2584 -1.0417
 6497TIP3   OH243685   1.525   3.533   1.949 -0.8886 -0.2173  0.2436
 6497TIP3    H143686   1.588   3.538   2.021 -1.3077  2.6104  0.5138
 6497TIP3    H243687   1.458   3.473   1.980 -0.0366 -0.6286  1.3564
 6498TIP3   OH243688   0.203   5.884   1.705  0.8647  0.0941  0.0262
 6498TIP3    H143689   0.188   5.874   1.799  1.3735 -1.4044 -0.0174
 6498TIP3    H243690   0.298   5.897   1.698  1.1180 -1.6492 -0.3538
 6499TIP3   OH243691   5.732   6.494   0.381 -0.0320  0.4988  0.2250
 6499TIP3    H143692   5.649   6.521   0.342  1.0280 -0.0835 -2.6160
 6499TIP3    H243693   5.765   6.425   0.324  1.7737 -0.2887  2.0746
 6500TIP3   OH243694   5.241   1.450   0.728  0.2043 -0.3049  0.0858
 6500TIP3    H143695   5.222   1.493   0.644  0.9391  0.5827  0.3623
 6500TIP3    H243696   5.157   1.415   0.756 -0.4830  1.2049 -0.0157
 6501TIP3   OH243697   1.176   2.892   3.865  0.3220 -0.1730  0.3603
 6501TIP3    H143698   1.138   2.806   3.848  0.9048 -0.9061  2.4280
 6501TIP3    H243699   1.101   2.951   3.870 -0.2027 -0.8214  0.2226
 6502TIP3   OH243700   2.575   3.752   3.704 -0.1050 -0.6795 -0.2728
 6502TIP3    H143701   2.589   3.658   3.691 -0.7908 -0.6813 -1.1170
 6502TIP3    H243702   2.616   3.771   3.788 -1.0808 -1.9993  0.5375
 6503TIP3   OH243703   5.537   4.642   2.579 -0.2493 -0.5229 -0.0717
 6503TIP3    H143704   5.475   4.616   2.647 -0.8854 -0.0256 -0.4510
 6503TIP3    H243705   5.595   4.704   2.622 -0.0992 -0.8814  0.2491
 6504TIP3   OH243706   2.207   5.956   1.651 -0.1252 -0.2717  0.3203
 6504TIP3    H143707   2.266   5.995   1.715  0.4329 -0.3189 -0.1556
 6504TIP3    H243708   2.262   5.943   1.573 -1.3120  1.9896 -1.0181
 6505TIP3   OH243709   0.982   6.009   3.510 -0.4663 -0.0060 -0.2435
 6505TIP3    H143710   0.968   6.061   3.588  1.2169 -0.7416  0.5902
 6505TIP3    H243711   1.038   5.936   3.538 -1.1608 -1.2134 -1.7735
 6506TIP3   OH243712   6.385   5.698   1.335  0.1550  0.0449  0.3166
 6506TIP3    H143713   6.397   5.788   1.365 -0.1407  0.1001  0.2732
 6506TIP3    H243714   6.308   5.701   1.278 -1.0527 -0.5859  1.8586
 6507TIP3   OH243715   2.686   5.916   0.995  0.3774 -0.6365  0.1259
 6507TIP3    H143716   2.773   5.882   0.972  0.1333 -1.9921  1.0812
 6507TIP3    H243717   2.703   6.005   1.025  1.7292 -1.4280  1.9580
 6508TIP3   OH243718   4.184   0.226   1.071  0.1316  0.2879  0.0744
 6508TIP3    H143719   4.220   0.281   1.002 -1.2055  0.3914 -0.5841
 6508TIP3    H243720   4.258   0.204   1.126  1.6746 -1.3892 -2.4665
 6509TIP3   OH243721   5.079   6.050   0.344  0.3720 -0.5608  0.3352
 6509TIP3    H143722   5.115   5.962   0.349  1.2482 -0.1591  1.6240
 6509TIP3    H243723   4.984   6.037   0.344  0.4938 -1.5088  0.4656
 6510TIP3   OH243724   5.413   0.709   0.897  0.1796  0.2224  0.1838
 6510TIP3    H143725   5.341   0.771   0.913 -1.4269 -1.7613  1.0235
 6510TIP3    H243726   5.490   0.765   0.885 -1.7213  2.5715 -2.5623
 6511TIP3   OH243727   4.457   3.476   1.493 -0.3327 -0.3807  0.2078
 6511TIP3    H143728   4.517   3.459   1.566 -1.1839  1.0863  1.3174
 6511TIP3    H243729   4.410   3.555   1.519  0.2296  0.9760 -2.5441
 6512TIP3   OH243730   2.050   0.980   2.935 -0.3992  0.1238  0.3932
 6512TIP3    H143731   2.066   1.068   2.967  1.2211 -0.0442  0.1259
 6512TIP3    H243732   2.054   0.925   3.013  0.3320  0.0913  0.3374
 6513TIP3   OH243733   5.593   4.451   1.473  0.5016  0.4587 -0.0126
 6513TIP3    H143734   5.679   4.437   1.433  0.6467 -0.8792  0.7132
 6513TIP3    H243735   5.534   4.394   1.425  0.4537 -0.2855  0.9066
 6514TIP3   OH243736   0.405   0.556   2.864  0.5059  0.1259 -0.0128
 6514TIP3    H143737   0.419   0.630   2.924 -2.7138  0.3668  0.6260
 6514TIP3    H243738   0.372   0.597   2.784 -2.4022 -0.5065  0.7226
 6515TIP3   OH243739   2.015   1.979   0.851  0.1429 -0.5822 -0.3586
 6515TIP3    H143740   2.084   1.986   0.918  0.6084  0.3527 -0.9134
 6515TIP3    H243741   1.952   2.047   0.875  0.9734  0.6675 -1.5935
 6516TIP3   OH243742   4.907   0.148   3.550  0.2460  0.0469  0.6018
 6516TIP3    H143743   4.952   0.065   3.536 -0.8578 -0.2429 -1.7097
 6516TIP3    H243744   4.921   0.196   3.469 -2.1474  0.6231  0.4628
 6517TIP3   OH243745   3.722   3.806   2.313  0.5954  0.6868  0.3776
 6517TIP3    H143746   3.807   3.769   2.294  0.2913 -0.7431  1.5947
 6517TIP3    H243747   3.741   3.885   2.365  1.1694  0.2323  0.8681
 6518TIP3   OH243748   3.943   4.121   3.145  0.5932 -0.0331 -0.3684
 6518TIP3    H143749   4.019   4.169   3.112  0.8858 -0.0856  0.2045
 6518TIP3    H243750   3.868   4.168   3.110  0.8866  0.2399 -0.6417
 6519TIP3   OH243751   4.903   3.919   3.306 -0.0040  0.0342 -0.1439
 6519TIP3    H143752   4.859   4.003   3.294 -1.8372 -0.6585  1.2280
 6519TIP3    H243753   4.834   3.854   3.294  1.3464 -1.2970 -1.0289
 6520TIP3   OH243754   5.886   6.415   2.627  0.2540 -0.1910 -0.0174
 6520TIP3    H143755   5.948   6.352   2.664  0.7184  0.3048  0.0654
 6520TIP3    H243756   5.828   6.437   2.700 -0.1006 -0.7513 -0.1281
 6521TIP3   OH243757   3.275   4.487   1.737  0.8532  0.0572  0.2176
 6521TIP3    H143758   3.369   4.469   1.733  0.7099 -0.6459 -0.1511
 6521TIP3    H243759   3.234   4.406   1.706  0.1027  0.0360  1.2416
 6522TIP3   OH243760   1.077   2.928   2.485 -0.1138 -0.0732  0.0791
 6522TIP3    H143761   1.135   2.985   2.436  1.7082 -1.6235  0.3080
 6522TIP3    H243762   0.994   2.975   2.488  0.3600  1.1144 -2.4656
 6523TIP3   OH243763   6.454   5.250   2.824 -0.1034  0.5847 -0.2594
 6523TIP3    H143764   6.514   5.271   2.752 -0.6706 -0.0386 -0.9318
 6523TIP3    H243765   6.510   5.214   2.893  0.5883  2.1407  0.0387
 6524TIP3   OH243766   3.352   1.185   0.638 -0.3419  0.0836  0.3675
 6524TIP3    H143767   3.434   1.232   0.623 -0.0621 -0.7175 -0.7676
 6524TIP3    H243768   3.361   1.148   0.726 -0.7027  2.3383  1.4191
 6525TIP3   OH243769   5.181   0.792   1.021  0.0112  0.0466  0.5369
 6525TIP3    H143770   5.206   0.750   1.104  0.1439 -0.4504  0.2490
 6525TIP3    H243771   5.101   0.747   0.995 -0.3546  0.5964  0.6802
 6526TIP3   OH243772   0.761   2.110   3.633  0.3587  0.4083 -0.8792
 6526TIP3    H143773   0.739   2.185   3.687  1.3998  1.0515 -1.3152
 6526TIP3    H243774   0.730   2.134   3.545 -0.8951 -0.4277 -0.6900
 6527TIP3   OH243775   5.181   4.920   1.451  0.1834  0.1328 -0.1984
 6527TIP3    H143776   5.154   4.969   1.529 -0.8547  1.4256 -1.3170
 6527TIP3    H243777   5.122   4.845   1.448  1.0547 -0.6246  0.9190
 6528TIP3   OH243778   4.017   5.188   1.100  0.2033  0.0083  0.7380
 6528TIP3    H143779   3.965   5.236   1.166  1.8568  1.4111  1.0933
 6528TIP3    H243780   4.049   5.111   1.147  1.1418  0.8557  1.5387
 6529TIP3   OH243781   1.731   2.799   2.340 -0.4148  0.1972  0.8053
 6529TIP3    H143782   1.794   2.739   2.301 -1.6341  0.2577 -1.3861
 6529TIP3    H243783   1.667   2.743   2.383  1.2756  0.1388  3.5429
 6530TIP3   OH243784   3.136   5.545   2.249  0.6054  0.6680 -0.2708
 6530TIP3    H143785   3.158   5.586   2.333 -0.2341 -0.7284  0.6762
 6530TIP3    H243786   3.198   5.583   2.187  0.7615  2.3116  0.8104
 6531TIP3   OH243787   6.352   1.012   3.067  0.0022 -0.0408  0.3218
 6531TIP3    H143788   6.366   1.105   3.048 -0.8821  0.2133  0.8547
 6531TIP3    H243789   6.434   0.983   3.108  0.1326  0.6122  0.5366
 6532TIP3   OH243790   0.875   4.940   0.761 -0.2434  0.3437  0.4132
 6532TIP3    H143791   0.808   4.891   0.807  0.3357 -1.2585 -0.3533
 6532TIP3    H243792   0.827   4.999   0.703 -0.9840 -0.3222  0.3379
 6533TIP3   OH243793   1.151   3.608   1.527  0.1022 -0.7873  0.3488
 6533TIP3    H143794   1.161   3.687   1.581 -0.1484  0.7986 -1.8109
 6533TIP3    H243795   1.237   3.594   1.488  0.6517 -2.7208  2.0947
 6534TIP3   OH243796   4.855   3.702   2.263 -0.6924 -0.4498 -0.2275
 6534TIP3    H143797   4.908   3.653   2.200 -1.1023 -0.6166 -0.4483
 6534TIP3    H243798   4.843   3.643   2.337 -0.9654 -0.5933 -0.3820
 6535TIP3   OH243799   6.326   3.853   5.036 -0.8639  0.5834 -0.7086
 6535TIP3    H143800   6.310   3.879   4.946  0.4153  2.5376 -0.4310
 6535TIP3    H243801   6.321   3.934   5.086  2.6104  0.3204  0.3359
 6536TIP3   OH243802   6.617   0.144   1.347 -0.2098 -0.3846  0.0154
 6536TIP3    H143803   6.663   0.120   1.428  0.6200 -0.9310 -0.5950
 6536TIP3    H243804   6.584   0.061   1.313 -2.7539  0.1183  1.0443
 6537TIP3   OH243805   3.710   4.780   2.917  0.0425  0.7984  0.8012
 6537TIP3    H143806   3.635   4.721   2.906  0.6332  0.2005 -0.0468
 6537TIP3    H243807   3.684   4.837   2.990 -1.4284  0.9002  0.2358
 6538TIP3   OH243808   3.443   3.049   3.254  0.0922 -0.5071  0.2547
 6538TIP3    H143809   3.412   3.133   3.290 -0.6271 -1.1496  1.1853
 6538TIP3    H243810   3.448   3.064   3.160 -0.8781  0.3376  0.3154
 6539TIP3   OH243811   3.962   2.340   2.220 -0.0810  0.1198  0.4404
 6539TIP3    H143812   3.959   2.369   2.128 -0.8281 -1.2046  0.0172
 6539TIP3    H243813   3.910   2.404   2.267 -1.7378 -0.4874 -0.4777
 6540TIP3   OH243814   6.141   3.070   1.783  0.4921  0.0440  0.0773
 6540TIP3    H143815   6.120   3.146   1.729 -1.1094 -0.6133 -0.2680
 6540TIP3    H243816   6.210   3.025   1.735  0.0845  0.2384 -0.7114
 6541TIP3   OH243817   1.192   5.781   2.891 -0.3063 -0.5856  0.3046
 6541TIP3    H143818   1.148   5.837   2.955 -0.0025  0.7565 -0.6097
 6541TIP3    H243819   1.257   5.733   2.942 -2.2188 -1.9836  1.5297
 6542TIP3   OH243820   1.772   3.300   0.873 -0.6516 -0.3524  0.2310
 6542TIP3    H143821   1.831   3.230   0.845  1.0140  0.5130  1.4147
 6542TIP3    H243822   1.736   3.269   0.956 -1.6222 -0.7135 -0.3040
 6543TIP3   OH243823   6.587   1.566   1.235 -0.0668 -0.3773 -0.4034
 6543TIP3    H143824   6.636   1.565   1.153 -0.7489 -0.0594 -0.8296
 6543TIP3    H243825   6.498   1.542   1.210 -0.6325  1.1711 -0.0068
 6544TIP3   OH243826   2.984   4.889   4.118  0.0071  0.1865  0.5102
 6544TIP3    H143827   3.058   4.897   4.178 -0.3633 -0.4902  1.0768
 6544TIP3    H243828   2.937   4.811   4.149 -0.6125  0.2710 -0.1991
 6545TIP3   OH243829   5.346   3.929   3.483  0.3092  0.1294  0.0301
 6545TIP3    H143830   5.401   3.874   3.539  1.4174  1.2972  0.1426
 6545TIP3    H243831   5.406   3.995   3.449 -0.5712  0.1052 -1.6849
 6546TIP3   OH243832   5.410   5.510   3.067 -0.1634 -0.4373 -0.5831
 6546TIP3    H143833   5.350   5.584   3.073 -0.3108 -0.6727  2.0407
 6546TIP3    H243834   5.462   5.527   2.988  0.2846  2.8492  0.2730
 6547TIP3   OH243835   3.785   0.238   0.901 -0.0696  0.4180 -0.3516
 6547TIP3    H143836   3.829   0.321   0.885 -0.7885  1.3876  2.2089
 6547TIP3    H243837   3.817   0.180   0.831  1.6000  2.3807 -1.3298
 6548TIP3   OH243838   6.374   6.245   0.653 -0.1363 -0.0628  0.3286
 6548TIP3    H143839   6.339   6.327   0.618  0.5899 -0.3280 -1.0583
 6548TIP3    H243840   6.333   6.177   0.599  0.0454 -0.5637  0.8145
 6549TIP3   OH243841   1.449   2.770   1.188 -0.3115  0.1904  0.7540
 6549TIP3    H143842   1.431   2.730   1.274 -2.0083 -1.9261 -0.4732
 6549TIP3    H243843   1.375   2.830   1.174 -1.0751 -0.8872  0.0171
 6550TIP3   OH243844   5.360   1.868   2.887  0.0949  0.1027  0.3693
 6550TIP3    H143845   5.273   1.869   2.927 -0.2073 -0.4498 -0.2637
 6550TIP3    H243846   5.380   1.775   2.875  1.8741  0.0366  2.8500
 6551TIP3   OH243847   2.889   5.197   1.197  0.3011 -0.2700  0.5444
 6551TIP3    H143848   2.862   5.286   1.219 -0.3577 -0.5271  0.7985
 6551TIP3    H243849   2.970   5.184   1.248  0.4353  0.1969  0.4577
 6552TIP3   OH243850   6.126   0.446   0.808  0.0028  0.8956 -0.8505
 6552TIP3    H143851   6.194   0.415   0.748  0.9744 -0.2219  0.7792
 6552TIP3    H243852   6.146   0.539   0.820  0.2274  0.9649 -1.6652
 6553TIP3   OH243853   6.173   4.915   0.468 -0.3050 -0.0501  0.5257
 6553TIP3    H143854   6.118   4.952   0.536  0.0471 -0.2412  0.9170
 6553TIP3    H243855   6.257   4.959   0.477  0.0786 -0.8409  0.9196
 6554TIP3   OH243856   3.589   1.547   3.020  0.1183 -0.1276 -0.5658
 6554TIP3    H143857   3.676   1.508   3.019 -0.1808 -0.8540  0.1297
 6554TIP3    H243858   3.546   1.507   3.096 -0.5211  0.8789 -0.3788
 6555TIP3   OH243859   1.799   3.700   3.533 -0.3452 -0.2157 -0.5643
 6555TIP3    H143860   1.828   3.774   3.587 -1.5250  1.0952 -1.6315
 6555TIP3    H243861   1.748   3.645   3.592  1.4654 -0.8008  0.5132
 6556TIP3   OH243862   0.286   3.811   1.521 -0.3698  0.2462  0.0051
 6556TIP3    H143863   0.319   3.736   1.571 -1.8889  0.7203  1.8211
 6556TIP3    H243864   0.364   3.850   1.482  0.5491 -1.7954 -0.3454
 6557TIP3   OH243865   1.731   4.494   2.813  0.1457  0.1604  0.1331
 6557TIP3    H143866   1.794   4.531   2.751  2.3377 -0.0730  2.0940
 6557TIP3    H243867   1.702   4.413   2.772  0.3403  0.7701 -1.2680
 6558TIP3   OH243868   2.919   3.986   4.107  0.3011  0.3413 -0.3773
 6558TIP3    H143869   2.986   3.921   4.129 -0.5623 -1.2455 -2.1364
 6558TIP3    H243870   2.851   3.974   4.174  1.7496  2.1071  1.5432
 6559TIP3   OH243871   1.459   3.926   2.268 -0.2123 -0.7613 -0.1297
 6559TIP3    H143872   1.437   3.879   2.188 -1.3219 -0.0255 -0.2686
 6559TIP3    H243873   1.401   4.001   2.269  0.3124 -0.3463  0.9922
 6560TIP3   OH243874   6.301   6.507   0.574 -0.3799  0.2892  0.1358
 6560TIP3    H143875   6.378   6.560   0.595 -0.5256  0.3132  0.6082
 6560TIP3    H243876   6.226   6.563   0.596 -0.5419 -0.3466  1.2701
 6561TIP3   OH243877   0.566   4.584   1.387  0.1040  0.8950  0.1247
 6561TIP3    H143878   0.595   4.503   1.428  2.1386  0.9117 -1.1262
 6561TIP3    H243879   0.471   4.578   1.384  0.1241 -0.7013  1.4978
 6562TIP3   OH243880   0.634   6.595   0.643  0.4567 -0.0999 -0.9030
 6562TIP3    H143881   0.644   6.501   0.629  0.1855 -0.4568  0.9736
 6562TIP3    H243882   0.717   6.622   0.684  0.2531  0.3196 -0.7568
 6563TIP3   OH243883   6.074   6.481   2.436  0.3338 -0.5916 -0.1174
 6563TIP3    H143884   6.097   6.394   2.404 -0.6474 -1.6419  1.8648
 6563TIP3    H243885   6.000   6.467   2.495 -0.2829  1.6796 -0.2299
 6564TIP3   OH243886   6.035   4.892   1.338 -0.1624 -0.4489  0.3742
 6564TIP3    H143887   5.997   4.894   1.426  1.0925  2.3852  0.9516
 6564TIP3    H243888   5.997   4.968   1.294 -0.4527 -1.5784 -1.4567
 6565TIP3   OH243889   4.387   2.950   2.066  0.5192 -0.4132 -0.4142
 6565TIP3    H143890   4.314   3.000   2.029  0.6574 -0.0278 -0.1612
 6565TIP3    H243891   4.377   2.958   2.161  1.7521  0.8955 -0.3679
 6566TIP3   OH243892   5.115   5.282   3.666  0.3553 -0.0670  0.1363
 6566TIP3    H143893   5.118   5.204   3.610  0.0192  0.4227 -0.5692
 6566TIP3    H243894   5.193   5.331   3.643 -0.0464  0.3847 -0.2707
 6567TIP3   OH243895   4.548   5.406   2.396  0.0302  0.2282 -0.0537
 6567TIP3    H143896   4.474   5.364   2.352  0.6871 -1.6799  0.5745
 6567TIP3    H243897   4.591   5.456   2.327 -0.7973 -0.1069 -0.8455
 6568TIP3   OH243898   0.180   5.538   1.814 -0.1832 -0.6118 -0.5476
 6568TIP3    H143899   0.166   5.620   1.862  4.3113 -0.1318  0.4303
 6568TIP3    H243900   0.164   5.560   1.723 -0.1937  1.0756 -0.1747
 6569TIP3   OH243901   1.827   5.955   1.130  0.1660 -0.3812  0.0062
 6569TIP3    H143902   1.850   5.892   1.198 -0.5259  0.6189  1.2081
 6569TIP3    H243903   1.741   5.927   1.100  0.0572 -0.2828  0.2210
 6570TIP3   OH243904   0.907   2.763   2.234 -0.4838 -0.0560 -0.0595
 6570TIP3    H143905   0.927   2.851   2.202  0.9810 -0.0057  0.8794
 6570TIP3    H243906   0.898   2.774   2.329  0.3449 -1.0033  0.1426
 6571TIP3   OH243907   5.683   4.721   3.112 -0.1286  0.2085  0.4467
 6571TIP3    H143908   5.591   4.695   3.118  0.1984 -0.7603  1.7088
 6571TIP3    H243909   5.684   4.812   3.142 -0.5801 -0.0055  1.1369
 6572TIP3   OH243910   6.702   4.879   3.590  0.5565 -0.2530  0.0221
 6572TIP3    H143911   6.743   4.945   3.647  0.7488 -0.4189  0.0788
 6572TIP3    H243912   6.621   4.856   3.636  0.5048 -0.0839  0.0200
 6573TIP3   OH243913   0.403   6.305   1.239 -0.1316  0.2743  0.2507
 6573TIP3    H143914   0.423   6.399   1.240  0.3809  0.1779 -0.3056
 6573TIP3    H243915   0.359   6.290   1.156  1.4848 -0.2977 -0.5434
 6574TIP3   OH243916   5.176   4.477   3.029 -0.2477  0.1270  0.2895
 6574TIP3    H143917   5.164   4.481   2.934 -0.8805  0.5349  0.3752
 6574TIP3    H243918   5.093   4.509   3.065 -0.1267 -0.3036  0.9851
 6575TIP3   OH243919   6.356   5.598   3.324 -0.1323  0.3112 -0.0217
 6575TIP3    H143920   6.393   5.518   3.286  0.6503  0.5603  0.1811
 6575TIP3    H243921   6.295   5.568   3.391  0.0814 -0.1153 -0.0145
 6576TIP3   OH243922   0.105   3.009   2.963 -0.0257 -0.0650 -0.3131
 6576TIP3    H143923   0.183   3.061   2.947  2.1529 -2.0640  2.6491
 6576TIP3    H243924   0.090   2.962   2.882 -0.6425  3.1643 -2.2585
 6577TIP3   OH243925   0.368   5.247   1.389  0.0446  0.4295 -0.1241
 6577TIP3    H143926   0.344   5.183   1.321 -1.7388  0.0833  0.7936
 6577TIP3    H243927   0.449   5.286   1.356  1.0850 -2.0909 -0.8623
 6578TIP3   OH243928   5.786   0.208   0.739  0.6026  0.4021 -0.6590
 6578TIP3    H143929   5.707   0.166   0.707 -0.3065  0.8130  0.9333
 6578TIP3    H243930   5.858   0.158   0.701 -0.4363 -0.8640 -0.9904
 6579TIP3   OH243931   4.187   6.289   2.147  0.1829 -0.0964 -0.1512
 6579TIP3    H143932   4.153   6.303   2.236  0.4548  0.4849 -0.1320
 6579TIP3    H243933   4.141   6.354   2.094 -1.3877 -1.6764 -0.8148
 6580TIP3   OH243934   4.658   0.770   1.558  0.0294  0.3354 -0.8661
 6580TIP3    H143935   4.670   0.684   1.598 -0.7586 -0.0395 -1.3971
 6580TIP3    H243936   4.586   0.810   1.607  0.1775  0.5568 -0.8290
 6581TIP3   OH243937   6.627   1.669   2.728 -0.2666 -0.0518  0.2988
 6581TIP3    H143938   6.685   1.746   2.732 -0.3429  0.1521 -1.6558
 6581TIP3    H243939   6.550   1.700   2.681  0.7954 -1.8847 -3.0127
 6582TIP3   OH243940   5.737   5.777   3.694 -0.3344 -0.1496 -0.2411
 6582TIP3    H143941   5.670   5.742   3.752  0.0532 -0.9596 -0.2651
 6582TIP3    H243942   5.807   5.711   3.695  0.0295  0.2048 -0.9876
 6583TIP3   OH243943   2.343   5.123   0.834  0.1838  0.1552  0.1975
 6583TIP3    H143944   2.412   5.094   0.894 -1.1817 -0.6297  1.4540
 6583TIP3    H243945   2.343   5.219   0.842  2.2986  0.3379 -1.2120
 6584TIP3   OH243946   6.071   1.070   2.025 -0.2297  0.1843  0.2590
 6584TIP3    H143947   5.979   1.094   2.017 -0.6204 -1.0192  0.8372
 6584TIP3    H243948   6.096   1.099   2.112  0.3234  1.6476 -0.3580
 6585TIP3   OH243949   4.559   0.072   3.352 -0.4442 -0.3600  0.1678
 6585TIP3    H143950   4.514   0.018   3.288  1.9545 -1.0453 -1.0261
 6585TIP3    H243951   4.532   0.161   3.332 -0.4053 -0.6548 -1.2520
 6586TIP3   OH243952   3.418   0.309   2.311 -0.3120 -0.1234  0.1471
 6586TIP3    H143953   3.327   0.336   2.301 -0.3712 -0.6168 -0.7316
 6586TIP3    H243954   3.424   0.277   2.401 -0.9703  0.0527  0.2557
 6587TIP3   OH243955   3.046   3.812   3.408  0.5337 -0.1546  0.0590
 6587TIP3    H143956   2.975   3.797   3.471  0.5131 -1.3518 -0.2216
 6587TIP3    H243957   3.120   3.764   3.444  1.1558  0.9123  0.2402
 6588TIP3   OH243958   4.591   3.023   2.440 -0.3964  0.0280  0.1501
 6588TIP3    H143959   4.556   3.096   2.389  1.0722 -0.7659 -2.1574
 6588TIP3    H243960   4.610   2.955   2.375 -0.8964 -2.1124  2.1044
 6589TIP3   OH243961   3.368   2.010   2.586  0.1279  0.1504  0.8124
 6589TIP3    H143962   3.398   2.062   2.661  0.6317  0.4349  0.4206
 6589TIP3    H243963   3.431   2.030   2.517 -0.3607 -0.0746  0.2969
 6590TIP3   OH243964   3.028   0.520   0.702 -0.4559 -0.5019  0.1631
 6590TIP3    H143965   3.106   0.571   0.724 -1.2272  0.6487  0.3027
 6590TIP3    H243966   2.959   0.585   0.694 -1.4189 -1.5175  0.0974
 6591TIP3   OH243967   5.689   2.943   1.298 -0.2301 -0.1089  0.0194
 6591TIP3    H143968   5.768   2.909   1.257 -1.0210 -2.2420  0.1309
 6591TIP3    H243969   5.720   2.986   1.377  0.7096 -4.0123  2.0525
 6592TIP3   OH243970   2.356   1.392   2.197  0.4764 -0.0649  0.3850
 6592TIP3    H143971   2.287   1.433   2.249 -1.3750 -0.8270 -1.3325
 6592TIP3    H243972   2.395   1.327   2.256  0.0881  0.7403  1.5583
 6593TIP3   OH243973   0.817   0.464   2.184  0.7567  0.2169 -0.2816
 6593TIP3    H143974   0.779   0.455   2.272  0.9680  2.2398  0.0719
 6593TIP3    H243975   0.815   0.375   2.148 -1.3280 -0.3113  0.9376
 6594TIP3   OH243976   1.870   3.794   2.580  0.2015 -0.5083  0.5314
 6594TIP3    H143977   1.867   3.883   2.544 -0.1909 -0.3312  0.9899
 6594TIP3    H243978   1.963   3.777   2.593  0.4660 -1.0838 -1.7636
 6595TIP3   OH243979   5.683   2.627   3.294 -0.0616 -0.2860 -0.1281
 6595TIP3    H143980   5.596   2.624   3.253 -0.4779 -1.3665  0.7805
 6595TIP3    H243981   5.671   2.584   3.379  1.3769 -0.5184 -0.0157
 6596TIP3   OH243982   1.370   4.648   3.030 -0.1176  0.0046  0.2244
 6596TIP3    H143983   1.429   4.579   3.060  0.4219  0.6964  0.7850
 6596TIP3    H243984   1.295   4.644   3.089  0.4212  0.6177  0.9615
 6597TIP3   OH243985   0.316   3.868   2.750  0.1243  0.0001 -0.1101
 6597TIP3    H143986   0.226   3.835   2.752  0.7861 -1.9662  2.4708
 6597TIP3    H243987   0.354   3.831   2.670 -0.6883 -1.2540  0.0549
 6598TIP3   OH243988   1.510   3.857   2.867  0.2037  0.0314  0.4632
 6598TIP3    H143989   1.547   3.925   2.809 -0.0844  0.2797  0.5680
 6598TIP3    H243990   1.536   3.884   2.955  1.5565 -0.9138  0.3887
 6599TIP3   OH243991   6.603   2.829   0.457  0.2682 -0.5313  0.0167
 6599TIP3    H143992   6.691   2.822   0.418  1.1291  0.6199  1.6162
 6599TIP3    H243993   6.589   2.923   0.467 -1.2753 -0.6890 -0.3934
 6600TIP3   OH243994   0.798   3.845   2.496  0.1344 -0.0112 -0.0235
 6600TIP3    H143995   0.835   3.907   2.434  0.4352 -1.3001 -1.1830
 6600TIP3    H243996   0.705   3.839   2.472  0.2059 -0.3532 -0.2241
 6601TIP3   OH243997   2.674   4.206   1.952  0.4098  0.3436  0.0081
 6601TIP3    H143998   2.698   4.115   1.933 -0.8051 -0.1777  0.7799
 6601TIP3    H243999   2.708   4.222   2.040  0.8281  0.7249 -0.2202
 6602TIP3   OH244000   3.543   0.551   3.748 -0.2384  0.5285  0.2535
 6602TIP3    H144001   3.527   0.641   3.777 -0.5594  0.5054  0.1542
 6602TIP3    H244002   3.457   0.519   3.723  0.0003  0.4857 -0.5447
 6603TIP3   OH244003   3.788   1.140   1.934 -0.2857  0.4541  0.6706
 6603TIP3    H144004   3.719   1.077   1.956  1.4131 -1.1747  1.7037
 6603TIP3    H244005   3.777   1.156   1.841 -1.9774  0.1512  0.7919
 6604TIP3   OH244006   0.146   1.636   0.863  0.2685 -0.7392 -0.4292
 6604TIP3    H144007   0.206   1.710   0.872  1.3958 -1.8461  1.6796
 6604TIP3    H244008   0.059   1.674   0.878  0.6659  0.3786 -0.8227
 6605TIP3   OH244009   3.425   5.883   3.985  0.3497 -0.0244  0.2178
 6605TIP3    H144010   3.401   5.812   4.044 -1.3552  0.2743 -0.0634
 6605TIP3    H244011   3.384   5.961   4.023 -0.4536  0.2376 -1.1253
 6606TIP3   OH244012   2.975   3.198   2.846 -0.2339 -0.1552  0.2607
 6606TIP3    H144013   2.979   3.103   2.858  0.1551 -0.0828  0.7489
 6606TIP3    H244014   2.885   3.215   2.819 -0.9026 -0.4600  2.1495
 6607TIP3   OH244015   0.659   4.006   3.445  0.6243  0.0850 -0.1599
 6607TIP3    H144016   0.702   4.064   3.508  1.4506 -0.4780 -0.1813
 6607TIP3    H244017   0.714   3.928   3.443  1.0647  0.3756 -2.1459
 6608TIP3   OH244018   0.294   6.080   1.095 -0.0572  0.2644 -0.9398
 6608TIP3    H144019   0.258   6.075   1.183 -0.8935 -1.4424 -1.3188
 6608TIP3    H244020   0.217   6.087   1.038  0.1608 -2.1760 -1.6915
 6609TIP3   OH244021   3.969   2.064   2.280  0.0341 -0.2973 -0.2747
 6609TIP3    H144022   3.948   2.157   2.288 -0.6898 -0.5521  1.2053
 6609TIP3    H244023   3.950   2.043   2.189 -1.2322  0.6868 -0.2758
 6610TIP3   OH244024   5.516   4.896  10.100  0.4693  0.0783  0.0504
 6610TIP3    H144025   5.607   4.886  10.128  0.2253 -0.0875  0.8093
 6610TIP3    H244026   5.467   4.834  10.155 -0.4651  2.0361  1.5361
 6611TIP3   OH244027   6.324   0.918   0.583  0.1751 -0.2655 -0.1101
 6611TIP3    H144028   6.409   0.925   0.538  0.9760  1.5626  1.5533
 6611TIP3    H244029   6.273   0.992   0.550  0.3008  0.3263  0.9794
 6612TIP3   OH244030   2.633   2.166   0.673 -0.6591  0.2725  0.4099
 6612TIP3    H144031   2.698   2.237   0.674 -0.9218  0.6048 -1.6406
 6612TIP3    H244032   2.562   2.200   0.620 -1.8658 -0.6805  1.3589
 6613TIP3   OH244033   0.418   0.904   2.415 -0.3362  0.2513  0.2738
 6613TIP3    H144034   0.357   0.857   2.472  0.1307 -0.0625  0.5194
 6613TIP3    H244035   0.394   0.997   2.426 -0.2132  0.2002  1.0211
 6614TIP3   OH244036   4.852   2.264   3.816 -0.2033 -0.3109 -0.7349
 6614TIP3    H144037   4.929   2.242   3.869  0.3121  1.8836 -0.4754
 6614TIP3    H244038   4.782   2.208   3.851  0.4898  0.0069  1.3215
 6615TIP3   OH244039   3.857   3.941   1.230 -0.4113 -0.1444 -0.2366
 6615TIP3    H144040   3.952   3.926   1.239 -0.8084 -1.9111  1.6120
 6615TIP3    H244041   3.843   4.028   1.266  0.4158 -0.1547  0.1345
 6616TIP3   OH244042   0.336   5.067   1.788 -0.2722  0.2940 -0.1782
 6616TIP3    H144043   0.298   5.031   1.708 -1.1091  1.2650 -0.2481
 6616TIP3    H244044   0.269   5.128   1.821  0.3580  0.4550  0.8634
 6617TIP3   OH244045   5.305   4.407   3.411 -0.0677  0.5942 -0.4023
 6617TIP3    H144046   5.369   4.444   3.471  0.0258 -0.6181  0.2679
 6617TIP3    H244047   5.287   4.319   3.445 -1.5104  0.6163 -1.0131
 6618TIP3   OH244048   5.066   4.591   2.798  0.6037  0.4069  0.2199
 6618TIP3    H144049   5.024   4.568   2.715 -0.1215 -1.4310  1.0515
 6618TIP3    H244050   5.021   4.671   2.825  0.5433  0.7830 -0.9304
 6619TIP3   OH244051   4.263   1.304   2.759 -0.3561  0.1659  0.5986
 6619TIP3    H144052   4.319   1.379   2.779 -1.4740  1.0672  0.5045
 6619TIP3    H244053   4.182   1.344   2.726 -1.2614 -1.0479  1.2661
 6620TIP3   OH244054   6.270   5.828   3.078 -0.4704  0.3791 -0.5503
 6620TIP3    H144055   6.277   5.919   3.049  1.9644  0.1176 -0.9343
 6620TIP3    H244056   6.336   5.781   3.028  0.4642 -1.0158  1.8358
 6621TIP3   OH244057   4.162   0.549   0.604  0.3745 -0.2207  0.0245
 6621TIP3    H144058   4.152   0.492   0.528 -0.6927 -1.3777  0.9748
 6621TIP3    H244059   4.075   0.589   0.615 -0.3125 -2.0603  2.0868
 6622TIP3   OH244060   1.801   2.838   1.992 -0.4387 -0.2311 -0.2065
 6622TIP3    H144061   1.787   2.774   1.922 -0.4634 -1.1496  0.6183
 6622TIP3    H244062   1.896   2.841   2.003 -0.4451 -0.2324 -0.1502
 6623TIP3   OH244063   4.342   0.091   3.709  0.4752  0.3794 -0.2367
 6623TIP3    H144064   4.395   0.011   3.701 -0.9456 -0.6854  0.4377
 6623TIP3    H244065   4.267   0.064   3.762 -0.0309  2.1947  0.0260
 6624TIP3   OH244066   2.782   4.727   2.369 -0.0978 -0.2025 -0.2225
 6624TIP3    H144067   2.706   4.745   2.313  0.0276  1.1291  0.0200
 6624TIP3    H244068   2.857   4.761   2.320 -0.1023  2.0546  1.1833
 6625TIP3   OH244069   5.056   1.664   2.732  0.3212 -0.1977  0.1918
 6625TIP3    H144070   4.961   1.662   2.745  0.3285  0.9695  0.4747
 6625TIP3    H244071   5.091   1.708   2.809  1.0193  0.1192 -0.2943
 6626TIP3   OH244072   0.706   5.531   1.929 -0.2863  0.1936  0.1171
 6626TIP3    H144073   0.650   5.478   1.985  0.5602 -0.9034 -0.0443
 6626TIP3    H244074   0.651   5.551   1.853 -0.5754 -0.6106  0.1010
 6627TIP3   OH244075   6.629   5.397   3.221  0.4946  0.8163 -0.0556
 6627TIP3    H144076   6.690   5.376   3.150  0.9668  0.4416  0.4550
 6627TIP3    H244077   6.602   5.312   3.255 -0.6006  0.9593 -0.4956
 6628TIP3   OH244078   5.240   0.801   0.641 -0.1403 -0.4130  0.2014
 6628TIP3    H144079   5.256   0.844   0.725 -1.1258 -1.1655  0.7959
 6628TIP3    H244080   5.307   0.733   0.637 -1.2918 -1.6677  1.3269
 6629TIP3   OH244081   1.646   0.342   3.833 -0.0404  0.0343 -0.6312
 6629TIP3    H144082   1.704   0.348   3.909 -0.2801  0.3812 -0.4753
 6629TIP3    H244083   1.658   0.253   3.801 -0.0882 -0.1799 -0.0643
 6630TIP3   OH244084   1.648   5.191   2.676  0.2558  0.3300 -0.5058
 6630TIP3    H144085   1.618   5.242   2.601 -1.4188 -1.5406 -1.1891
 6630TIP3    H244086   1.585   5.120   2.683  1.1628 -0.3203  1.8580
 6631TIP3   OH244087   1.635   0.817   2.360  0.0552 -0.6048 -0.2261
 6631TIP3    H144088   1.722   0.802   2.321 -0.4656 -2.4483 -0.7655
 6631TIP3    H244089   1.574   0.799   2.289 -0.7994  1.2895 -0.0260
 6632TIP3   OH244090   4.784   6.186   1.898 -0.1090  0.0470 -0.5195
 6632TIP3    H144091   4.856   6.215   1.842  1.0041  0.3976  1.0315
 6632TIP3    H244092   4.736   6.267   1.919 -1.5501 -0.2858 -2.2493
 6633TIP3   OH244093   4.582   4.275   0.770  0.2341 -0.3866 -0.0123
 6633TIP3    H144094   4.560   4.328   0.694 -2.0834  0.4023  1.1345
 6633TIP3    H244095   4.671   4.302   0.793  0.9407 -0.5665 -2.3170
 6634TIP3   OH244096   5.680   6.181   0.976  0.1921 -0.3704 -0.1129
 6634TIP3    H144097   5.727   6.249   0.927 -0.8107 -0.9094 -1.8997
 6634TIP3    H244098   5.596   6.172   0.931 -1.1481 -0.3781  2.1906
 6635TIP3   OH244099   6.093   2.839   1.927 -0.2887 -0.1542 -0.6285
 6635TIP3    H144100   6.050   2.788   1.858 -0.4190  0.2230 -0.8273
 6635TIP3    H244101   6.109   2.925   1.887 -1.0858  0.3305  0.0571
 6636TIP3   OH244102   0.443   4.668   2.879 -0.4624 -0.5748  0.1386
 6636TIP3    H144103   0.505   4.596   2.867 -1.6519 -1.4190 -1.1605
 6636TIP3    H244104   0.415   4.692   2.791 -0.5142  1.1290  0.5801
 6637TIP3   OH244105   6.631   3.253   2.667  0.2929 -0.3406  0.1025
 6637TIP3    H144106   6.688   3.263   2.591 -0.9057 -0.3634 -0.8153
 6637TIP3    H244107   6.642   3.161   2.693 -0.0166 -0.5894 -0.6331
 6638TIP3   OH244108   3.750   3.930   1.548 -0.1149  0.3994  0.3157
 6638TIP3    H144109   3.662   3.927   1.512 -0.1834 -0.9956  0.5494
 6638TIP3    H244110   3.796   3.858   1.504 -0.1997 -1.3866  2.9132
 6639TIP3   OH244111   1.170   1.484   1.485 -0.6086 -0.4355 -0.1430
 6639TIP3    H144112   1.096   1.526   1.441  0.3077  1.8628  0.3797
 6639TIP3    H244113   1.132   1.406   1.526 -2.9052  0.9757  0.6244
 6640TIP3   OH244114   1.143   3.076   1.700 -0.1889  0.3004  0.3688
 6640TIP3    H144115   1.175   3.165   1.687 -0.7498  0.5139  0.4134
 6640TIP3    H244116   1.048   3.085   1.700 -0.2572 -0.3740 -0.1559
 6641TIP3   OH244117   2.869   4.173   3.762 -0.0205 -0.2595  0.1869
 6641TIP3    H144118   2.815   4.106   3.721 -0.3868  0.0787  0.1136
 6641TIP3    H244119   2.934   4.195   3.695  0.7828 -1.3059  0.5920
 6642TIP3   OH244120   1.325   0.278   2.149  0.0393  0.0383  0.3253
 6642TIP3    H144121   1.251   0.335   2.169  0.5518  0.6560  0.5097
 6642TIP3    H244122   1.348   0.298   2.058  1.2239  1.3107  0.8772
 6643TIP3   OH244123   4.316   6.291   3.267 -0.2079  0.3636 -0.0173
 6643TIP3    H144124   4.279   6.227   3.328  1.1340 -0.1077  0.3406
 6643TIP3    H244125   4.241   6.342   3.237 -1.1168 -0.4744  0.7616
 6644TIP3   OH244126   6.124   6.661   0.966 -0.2845  0.6536 -0.0979
 6644TIP3    H144127   6.166   6.649   1.051 -1.9039 -0.0649  0.6619
 6644TIP3    H244128   6.104   6.754   0.962 -0.6512  0.6134  0.5694
 6645TIP3   OH244129   1.786   5.727   2.433 -0.0503  0.3928 -0.6213
 6645TIP3    H144130   1.756   5.805   2.480 -1.3955 -0.7669  0.5448
 6645TIP3    H244131   1.786   5.752   2.341 -0.4926  1.7455 -0.2718
 6646TIP3   OH244132   2.568   5.970   3.062  0.0084 -0.0425 -0.1041
 6646TIP3    H144133   2.518   5.888   3.068  1.2404 -0.8057  0.3097
 6646TIP3    H244134   2.514   6.028   3.009 -1.6351 -0.5615  0.9262
 6647TIP3   OH244135   0.294   3.520   4.641  0.4984 -0.0019  0.0993
 6647TIP3    H144136   0.299   3.604   4.685 -0.6969  1.4096 -2.2507
 6647TIP3    H244137   0.333   3.458   4.702 -3.0046  1.2958  4.1200
 6648TIP3   OH244138   4.856   2.826   3.082 -0.3578  0.1616  0.1832
 6648TIP3    H144139   4.920   2.831   3.011  2.6635  1.9195  2.7700
 6648TIP3    H244140   4.784   2.882   3.053 -0.1723 -0.7342 -2.2401
 6649TIP3   OH244141   2.182   6.443   2.248 -0.5564  0.0297  0.2338
 6649TIP3    H144142   2.106   6.416   2.195  0.0866 -1.4380  0.0141
 6649TIP3    H244143   2.245   6.372   2.238 -0.7659 -0.8454  3.7525
 6650TIP3   OH244144   2.198   3.437   1.421 -0.0204 -0.0208  0.8176
 6650TIP3    H144145   2.291   3.416   1.428  0.2598  1.4749  2.3654
 6650TIP3    H244146   2.195   3.532   1.429 -1.5885  0.0917 -0.6889
 6651TIP3   OH244147   0.453   0.176   2.201 -0.0646  0.1230  0.6350
 6651TIP3    H144148   0.451   0.123   2.121 -1.8353  0.1675  0.6085
 6651TIP3    H244149   0.537   0.156   2.241  0.3673 -0.7720 -0.6648
 6652TIP3   OH244150   6.443   6.407   2.692  0.0774  0.2470  0.1808
 6652TIP3    H144151   6.429   6.468   2.764 -3.5781  0.0993 -0.2010
 6652TIP3    H244152   6.418   6.455   2.613 -1.6362 -1.2196 -0.2606
 6653TIP3   OH244153   6.481   3.865   4.416 -0.0570 -0.1431  0.4171
 6653TIP3    H144154   6.504   3.954   4.442 -1.3054  0.3625 -0.1270
 6653TIP3    H244155   6.389   3.855   4.441 -0.4500 -0.6516 -1.0705
 6654TIP3   OH244156   0.434   3.451   5.292 -0.1370 -0.5091 -0.8723
 6654TIP3    H144157   0.398   3.499   5.217 -1.7174  1.2442  0.9201
 6654TIP3    H244158   0.504   3.507   5.325 -0.3324 -0.6341 -0.2404
 6655TIP3   OH244159   1.382   1.004   0.831 -0.5371 -0.0920 -0.0369
 6655TIP3    H144160   1.446   1.011   0.760  1.0336 -1.5200  1.1499
 6655TIP3    H244161   1.351   0.914   0.826 -1.8737  0.3402 -0.0476
 6656TIP3   OH244162   4.983   2.570   4.374  0.4930  0.0394 -0.0350
 6656TIP3    H144163   4.983   2.559   4.279  1.5100 -1.2446  0.0855
 6656TIP3    H244164   5.074   2.589   4.395 -0.1045  2.8066  0.4733
 6657TIP3   OH244165   2.479   4.659   2.499 -0.2529  0.3398  0.3810
 6657TIP3    H144166   2.385   4.654   2.485 -0.1627 -0.7787  0.1180
 6657TIP3    H244167   2.509   4.724   2.435 -0.7968  0.4482  0.2347
 6658TIP3   OH244168   6.310   4.281   3.149  0.6431  0.2990 -0.0122
 6658TIP3    H144169   6.263   4.347   3.099  2.7443  0.6134 -1.7565
 6658TIP3    H244170   6.401   4.311   3.148  0.9368 -0.1067  3.4348
 6659TIP3   OH244171   3.783   3.849   2.947  0.2458 -0.5623 -0.0592
 6659TIP3    H144172   3.816   3.914   2.885  0.6386 -0.0080  0.7146
 6659TIP3    H244173   3.824   3.873   3.030  0.0873 -1.5723  0.3170
 6660TIP3   OH244174   2.303   0.663   2.670 -0.1322 -0.4947 -0.0685
 6660TIP3    H144175   2.282   0.659   2.577  2.4883  0.0030 -0.7438
 6660TIP3    H244176   2.221   0.691   2.711 -1.3159 -0.5836 -2.2083
 6661TIP3   OH244177   1.265   2.169   0.417 -0.3153 -0.0214 -0.1623
 6661TIP3    H144178   1.212   2.219   0.354 -2.4945 -1.1251  0.7113
 6661TIP3    H244179   1.202   2.132   0.478  1.3559 -2.6064  0.1301
 6662TIP3   OH244180   4.072   6.369   0.654 -0.6979  0.3689  0.4152
 6662TIP3    H144181   4.116   6.327   0.728  0.3454 -1.1253 -0.9766
 6662TIP3    H244182   4.032   6.297   0.605 -0.4478  1.1800 -1.0512
 6663TIP3   OH244183   0.110   0.620   1.730  0.4519  0.4072  0.2357
 6663TIP3    H144184   0.179   0.686   1.722  0.6885  0.3542  1.5535
 6663TIP3    H244185   0.061   0.646   1.808  0.5246 -0.9375  0.7561
 6664TIP3   OH244186   2.338   4.258   3.835  0.0614  0.3377 -0.3589
 6664TIP3    H144187   2.303   4.259   3.924  1.7379  0.4079  0.3385
 6664TIP3    H244188   2.432   4.242   3.846  0.4936  1.4407 -2.0484
 6665TIP3   OH244189   4.763   6.034   3.822 -0.1023  0.5847 -0.1829
 6665TIP3    H144190   4.689   6.002   3.771  0.5233  0.6037 -1.1415
 6665TIP3    H244191   4.755   6.129   3.819  0.8427  0.6571 -1.7146
 6666TIP3   OH244192   3.388   2.175   1.132  0.1140 -0.4387 -0.1331
 6666TIP3    H144193   3.303   2.217   1.140 -0.1192 -0.7400 -0.9272
 6666TIP3    H244194   3.371   2.082   1.147  0.4497 -0.3947  0.5592
 6667TIP3   OH244195   0.199   0.778   3.130 -0.3554  0.3538 -0.2746
 6667TIP3    H144196   0.271   0.832   3.163  0.0493  0.1302 -0.7982
 6667TIP3    H244197   0.177   0.815   3.045 -0.9016  0.4570 -0.0952
 6668TIP3   OH244198   0.969   6.022   0.871 -0.0928 -0.4991  0.4619
 6668TIP3    H144199   1.011   6.034   0.956  4.2968 -0.0169 -1.4767
 6668TIP3    H244200   1.001   5.938   0.840 -0.4264 -0.0424 -1.2438
 6669TIP3   OH244201   0.023   4.723   3.111  0.1029  0.3794  0.6595
 6669TIP3    H144202  -0.030   4.739   3.189 -2.2136  0.1036 -0.7852
 6669TIP3    H244203  -0.038   4.733   3.038  2.2745  0.9827 -1.1736
 6670TIP3   OH244204   2.671   3.963   4.230  0.2640 -0.1707  0.0060
 6670TIP3    H144205   2.629   4.027   4.172 -0.3998 -0.4718  0.1445
 6670TIP3    H244206   2.619   3.966   4.310  0.9017 -0.0874  0.4215
 6671TIP3   OH244207   1.402   0.023   3.022 -0.1386  0.5057  0.1156
 6671TIP3    H144208   1.358   0.024   3.107  0.1703 -0.3859  0.2963
 6671TIP3    H244209   1.331   0.015   2.959 -0.3458  0.8070  0.3066
 6672TIP3   OH244210   4.743   3.662   4.395  0.4057 -0.4841 -0.3517
 6672TIP3    H144211   4.734   3.643   4.488  2.1750  1.6722  0.3403
 6672TIP3    H244212   4.671   3.722   4.376  0.5222 -0.2814 -0.1599
 6673TIP3   OH244213   3.590   1.255   3.002 -0.1002  0.4047  0.4716
 6673TIP3    H144214   3.540   1.297   3.071 -0.3204 -1.7853  1.7315
 6673TIP3    H244215   3.545   1.172   2.986  0.8174  0.1897 -1.2481
 6674TIP3   OH244216   5.712   1.035   3.346 -0.4072 -0.4074 -0.2339
 6674TIP3    H144217   5.746   0.976   3.413  1.3376 -0.9358 -1.5379
 6674TIP3    H244218   5.656   1.096   3.395  1.2505 -0.4056  1.8100
 6675TIP3   OH244219   4.232   1.866   1.572  0.0882 -0.1203 -0.3314
 6675TIP3    H144220   4.146   1.830   1.593 -0.8309  2.0936 -0.0386
 6675TIP3    H244221   4.241   1.851   1.477 -0.7908 -0.0712 -0.4333
 6676TIP3   OH244222   0.525   0.781   1.937  0.0683  0.5449 -0.0589
 6676TIP3    H144223   0.504   0.764   1.845  0.5537 -2.7810  0.3342
 6676TIP3    H244224   0.455   0.840   1.966 -0.7895  0.7039 -2.2304
 6677TIP3   OH244225   3.156   1.241   1.269 -0.1530 -0.2563  0.0952
 6677TIP3    H144226   3.073   1.223   1.225 -0.8592 -3.2614  2.3047
 6677TIP3    H244227   3.223   1.222   1.203 -1.1898 -0.0697 -1.0385
 6678TIP3   OH244228   0.582   6.079   1.269 -0.1629 -0.5756 -0.3153
 6678TIP3    H144229   0.520   6.151   1.264 -0.9879 -1.3380 -1.7777
 6678TIP3    H244230   0.602   6.058   1.177  1.5554 -0.9558  0.0971
 6679TIP3   OH244231   5.378   4.602   4.173  0.6039 -0.1141  0.2545
 6679TIP3    H144232   5.354   4.683   4.127 -0.2273 -0.4290  0.1019
 6679TIP3    H244233   5.335   4.533   4.123 -1.6722 -0.3593  2.3109
 6680TIP3   OH244234   0.872   0.943   0.905 -0.4627 -0.1898 -0.3039
 6680TIP3    H144235   0.814   0.972   0.835 -1.3519 -1.4222 -0.1115
 6680TIP3    H244236   0.873   0.847   0.897  1.3060 -0.2201 -0.1054
 6681TIP3   OH244237   3.683   1.515   2.024  0.2754  0.6695 -0.1502
 6681TIP3    H144238   3.599   1.519   2.070  0.4680  0.8965  0.1849
 6681TIP3    H244239   3.726   1.437   2.059 -0.5460 -0.5217 -1.6369
 6682TIP3   OH244240   6.074   4.749   3.534  0.0711 -0.5796  0.1702
 6682TIP3    H144241   5.997   4.770   3.586  0.6564 -0.7121  1.1361
 6682TIP3    H244242   6.042   4.693   3.464 -0.5668 -1.5017  1.1658
 6683TIP3   OH244243   0.561   1.214   1.566  0.3057 -0.1681  0.3932
 6683TIP3    H144244   0.518   1.172   1.492  0.6545 -0.8056  0.5388
 6683TIP3    H244245   0.510   1.187   1.642 -1.2427  2.0850  0.2264
 6684TIP3   OH244246   1.070   1.489   2.784  0.1258 -0.1814 -1.0817
 6684TIP3    H144247   1.162   1.462   2.789  0.0105 -0.3359  0.3936
 6684TIP3    H244248   1.047   1.514   2.873 -1.1774  0.1841 -1.5031
 6685TIP3   OH244249   3.789   4.531   1.749 -0.4819 -0.3860  0.1300
 6685TIP3    H144250   3.806   4.584   1.670 -1.3323 -0.0199  0.1807
 6685TIP3    H244251   3.711   4.479   1.727  0.4289 -1.7563  0.0268
 6686TIP3   OH244252   1.309   4.195   2.806 -0.0089  0.4652 -0.8660
 6686TIP3    H144253   1.251   4.121   2.787  2.9829 -1.5754 -2.8041
 6686TIP3    H244254   1.278   4.264   2.747 -0.1336 -0.7767 -2.3080
 6687TIP3   OH244255   0.113   2.847   2.072  0.0999  0.1288 -0.2091
 6687TIP3    H144256   0.182   2.913   2.080  0.1986 -0.0237  0.2537
 6687TIP3    H244257   0.081   2.855   1.982  1.3703 -0.4453 -0.7263
 6688TIP3   OH244258   6.677   4.328   0.834 -0.2781 -0.0659 -0.3223
 6688TIP3    H144259   6.609   4.396   0.834  1.2377  1.5245 -0.4071
 6688TIP3    H244260   6.687   4.303   0.925  2.2967  3.2371  0.4762
 6689TIP3   OH244261   0.314   2.419   0.462  0.1333  0.5811 -0.3595
 6689TIP3    H144262   0.345   2.349   0.405  0.0326  0.6820 -0.5436
 6689TIP3    H244263   0.393   2.451   0.506 -0.0285 -0.5997  0.8177
 6690TIP3   OH244264   3.583   4.044   0.662 -0.4209  0.3669  0.0603
 6690TIP3    H144265   3.515   3.980   0.681 -1.3655  1.2458 -0.2919
 6690TIP3    H244266   3.638   4.044   0.741 -0.6130 -0.6029  0.2080
 6691TIP3   OH244267   4.041   0.259   3.631  0.2951  0.2421 -0.2389
 6691TIP3    H144268   4.090   0.195   3.683 -0.5706 -2.1213 -2.1487
 6691TIP3    H244269   4.108   0.307   3.583  0.9072 -1.2241 -0.9167
 6692TIP3   OH244270   3.428   0.273   1.191 -0.3721 -0.4040 -0.1482
 6692TIP3    H144271   3.455   0.274   1.099 -0.3726 -0.7958 -0.1545
 6692TIP3    H244272   3.497   0.321   1.237  0.5911 -1.7758 -0.1001
 6693TIP3   OH244273   5.667   1.538   1.704  0.2799 -0.3030 -0.2838
 6693TIP3    H144274   5.695   1.452   1.734 -0.5739  0.0617  1.7136
 6693TIP3    H244275   5.748   1.583   1.680  1.0738 -0.5929  1.6955
 6694TIP3   OH244276   1.352   2.278   3.060  0.1071 -0.2205  0.1821
 6694TIP3    H144277   1.307   2.222   2.997  3.5225 -0.3955 -2.3737
 6694TIP3    H244278   1.431   2.230   3.083  1.5944  2.1493  0.3454
 6695TIP3   OH244279   5.753   5.122   1.485  0.3554 -0.1591  0.4533
 6695TIP3    H144280   5.756   5.182   1.410 -0.4083 -0.4129  0.2124
 6695TIP3    H244281   5.756   5.180   1.562 -1.7534  0.3190  0.2380
 6696TIP3   OH244282   5.683   4.134   0.560 -0.4412  0.1413 -0.3811
 6696TIP3    H144283   5.681   4.168   0.470 -1.2258 -1.7547 -1.1266
 6696TIP3    H244284   5.762   4.081   0.564 -1.7487 -1.9783 -0.8741
 6697TIP3   OH244285   0.869   2.468   3.466  0.1891  0.6503 -0.2607
 6697TIP3    H144286   0.926   2.441   3.395 -2.5883 -0.1116 -2.3713
 6697TIP3    H244287   0.812   2.534   3.427 -0.6731  1.0655  1.6004
 6698TIP3   OH244288   0.203   4.596   3.378  0.1828  0.1395  1.1409
 6698TIP3    H144289   0.148   4.534   3.426 -1.7060  1.8102  1.2930
 6698TIP3    H244290   0.244   4.650   3.446  3.0520 -1.7778  1.0924
 6699TIP3   OH244291   5.045   5.849   2.683  0.0392 -0.2516 -0.1636
 6699TIP3    H144292   5.126   5.894   2.662 -0.0027 -0.3858 -0.6340
 6699TIP3    H244293   5.061   5.808   2.768  0.1216  0.5277  0.2069
 6700TIP3   OH244294   4.180   3.481   2.666 -0.1502  0.0451  0.6188
 6700TIP3    H144295   4.208   3.545   2.731  1.2492  2.3553 -2.0367
 6700TIP3    H244296   4.093   3.511   2.640  0.2958  0.6163 -0.2610
 6701TIP3   OH244297   0.603   3.750   3.925 -0.3871 -0.6854 -0.2424
 6701TIP3    H144298   0.538   3.731   3.858 -1.6684  0.1231  0.7173
 6701TIP3    H244299   0.562   3.816   3.981  0.7763 -1.0489  1.1275
 6702TIP3   OH244300   5.009   4.841   3.297 -0.1038 -0.3297 -0.2948
 6702TIP3    H144301   4.969   4.874   3.217 -0.5747  0.8422  0.4021
 6702TIP3    H244302   4.948   4.773   3.327  0.2962 -1.0782 -1.1417
 6703TIP3   OH244303   4.116   0.405   1.760  0.2111  0.9447 -0.2213
 6703TIP3    H144304   4.143   0.436   1.846  0.3141  2.2630 -0.7071
 6703TIP3    H244305   4.091   0.484   1.713  0.6561  0.3063 -1.5775
 6704TIP3   OH244306   5.667   1.243   2.003  0.1030 -0.1762  0.1211
 6704TIP3    H144307   5.668   1.222   1.910 -0.4805 -1.0158  0.3037
 6704TIP3    H244308   5.584   1.288   2.017 -0.7741 -1.8806  0.6204
 6705TIP3   OH244309   2.722   3.850   3.936 -0.5316  0.0903  0.4716
 6705TIP3    H144310   2.711   3.833   4.029  0.0234 -0.6839  0.4111
 6705TIP3    H244311   2.753   3.940   3.931 -0.3150  0.0508  1.0467
 6706TIP3   OH244312   1.563   1.756   2.890  0.2458  0.2188  0.2628
 6706TIP3    H144313   1.550   1.845   2.859  2.2773  0.2031 -0.7807
 6706TIP3    H244314   1.542   1.701   2.814  0.7486 -0.0835  0.3412
 6707TIP3   OH244315   4.243   6.273   0.838  0.2001 -0.0024  0.3294
 6707TIP3    H144316   4.317   6.285   0.778 -0.1461 -0.2135 -0.1367
 6707TIP3    H244317   4.258   6.187   0.878  0.3190  0.0482  0.3956
 6708TIP3   OH244318   0.827   2.801   3.852  0.1577 -0.2267  0.1244
 6708TIP3    H144319   0.862   2.887   3.878  1.2493 -1.0305  1.4353
 6708TIP3    H244320   0.904   2.749   3.832 -0.4459 -1.1441  0.1378
 6709TIP3   OH244321   2.904   1.729   3.049  0.0610  0.6295  0.2965
 6709TIP3    H144322   2.955   1.782   3.110  2.6854 -2.1529  0.7503
 6709TIP3    H244323   2.966   1.705   2.981 -0.5644 -2.8137  0.7769
 6710TIP3   OH244324   5.863   0.235   1.331 -0.1308  0.3806  0.3866
 6710TIP3    H144325   5.873   0.167   1.397 -0.3927 -0.7234 -0.6684
 6710TIP3    H244326   5.816   0.192   1.259  0.9034  1.2972 -0.8803
 6711TIP3   OH244327   0.318   5.035   4.225 -0.3356 -0.3863  0.5785
 6711TIP3    H144328   0.225   5.033   4.251 -0.7227  0.2954 -0.6851
 6711TIP3    H244329   0.343   5.127   4.233  0.6879 -0.7659  2.3332
 6712TIP3   OH244330   0.226   2.555   1.992  0.0157 -0.4251 -0.5510
 6712TIP3    H144331   0.287   2.501   1.943  0.6716 -1.0601  0.8871
 6712TIP3    H244332   0.257   2.645   1.979  0.4928 -0.6313 -0.8453
 6713TIP3   OH244333   1.339   5.858   0.905  0.2823  0.3896 -0.4387
 6713TIP3    H144334   1.281   5.790   0.871 -2.2608  2.2608 -0.1696
 6713TIP3    H244335   1.293   5.940   0.887  2.8353  2.0218 -0.0644
 6714TIP3   OH244336   5.117   2.298   2.204 -0.2856 -0.8673 -0.4588
 6714TIP3    H144337   5.102   2.372   2.263 -0.8367 -2.4064  1.4074
 6714TIP3    H244338   5.075   2.325   2.122  1.0771  1.6044 -0.4585
 6715TIP3   OH244339   0.230   4.531   1.640  0.0322 -0.0613 -0.0673
 6715TIP3    H144340   0.147   4.577   1.628  0.1769  0.0153 -0.8565
 6715TIP3    H244341   0.268   4.570   1.718 -0.7470 -0.2100  0.3934
 6716TIP3   OH244342   1.153   3.111   2.059 -0.0359 -0.5935  0.1328
 6716TIP3    H144343   1.078   3.064   2.095 -0.4060  0.2818  0.5483
 6716TIP3    H244344   1.209   3.043   2.022 -0.1912 -1.4232  1.3679
 6717TIP3   OH244345   0.521   2.896   4.063 -0.2219 -0.0636 -0.1968
 6717TIP3    H144346   0.495   2.945   4.140  0.6104  1.3600 -0.7766
 6717TIP3    H244347   0.481   2.810   4.074 -0.8459  0.3979  1.3712
 6718TIP3   OH244348   4.677   3.698   1.251  0.0856  0.5403 -0.2642
 6718TIP3    H144349   4.765   3.662   1.261 -0.8825 -2.1686 -0.5811
 6718TIP3    H244350   4.663   3.751   1.329  1.4276 -0.2892  0.5691
 6719TIP3   OH244351   2.073   3.594   0.852 -0.5199  0.0143 -0.2035
 6719TIP3    H144352   2.012   3.580   0.780  0.5106  0.2685 -1.1581
 6719TIP3    H244353   2.160   3.592   0.811  0.1392 -0.5803  1.1519
 6720TIP3   OH244354   6.550   5.444   2.354  0.0833  0.2506  0.4961
 6720TIP3    H144355   6.590   5.365   2.391  0.3642  0.1005 -0.1226
 6720TIP3    H244356   6.458   5.421   2.341  0.5478 -0.6400 -1.4749
 6721TIP3   OH244357   4.991   2.803   3.733 -0.2949 -0.9587  0.2500
 6721TIP3    H144358   4.952   2.852   3.661  1.2824 -0.8121 -0.5303
 6721TIP3    H244359   4.936   2.724   3.741 -0.9039 -0.6332 -0.6288
 6722TIP3   OH244360   1.242   1.218   0.934 -0.1300  0.0904 -0.2933
 6722TIP3    H144361   1.276   1.280   0.870 -1.0283 -0.5159 -1.3711
 6722TIP3    H244362   1.268   1.132   0.901  1.1808 -0.1611  1.2273
 6723TIP3   OH244363   1.462   3.998   3.553 -0.3291 -0.0462  0.1378
 6723TIP3    H144364   1.382   4.042   3.524 -0.6324 -0.3252  0.5429
 6723TIP3    H244365   1.454   3.995   3.648  0.1868 -0.0299  0.1797
 6724TIP3   OH244366   1.020   2.795   0.761  0.5112  0.2105 -0.3470
 6724TIP3    H144367   0.981   2.714   0.728 -0.0164 -0.5766  1.9983
 6724TIP3    H244368   1.040   2.846   0.683 -1.9718 -0.8652 -1.8020
 6725TIP3   OH244369   1.882   3.147   3.271  0.1014  0.3885  0.4726
 6725TIP3    H144370   1.815   3.167   3.206 -0.9286  1.0675  1.7010
 6725TIP3    H244371   1.964   3.175   3.230 -0.5151  0.7637 -0.5410
 6726TIP3   OH244372   6.197   3.889   0.659 -0.3014  0.0864  0.2177
 6726TIP3    H144373   6.264   3.824   0.683  0.7075 -0.2442 -3.0487
 6726TIP3    H244374   6.227   3.970   0.701  0.7419 -0.6363  0.9274
 6727TIP3   OH244375   0.224   6.238   2.617  0.3961  0.5051 -0.2321
 6727TIP3    H144376   0.178   6.162   2.651  0.9867  1.0432  1.9346
 6727TIP3    H244377   0.156   6.302   2.600  0.1196  0.4223  0.5333
 6728TIP3   OH244378   2.861   5.525   3.123  0.0189  0.1713  0.0602
 6728TIP3    H144379   2.791   5.576   3.165 -2.5589 -1.6318 -1.6927
 6728TIP3    H244380   2.861   5.556   3.032 -1.7246 -2.7532 -1.0975
 6729TIP3   OH244381   0.068   4.974   2.411  0.4623  0.1226 -0.0285
 6729TIP3    H144382   0.137   4.919   2.450  1.6111  1.0129 -0.7225
 6729TIP3    H244383   0.094   4.983   2.319 -0.4233  0.7366 -0.2284
 6730TIP3   OH244384   3.728   3.531   1.026 -0.1218  0.3637 -0.0053
 6730TIP3    H144385   3.817   3.501   1.045  0.4838  1.2194 -1.3535
 6730TIP3    H244386   3.723   3.618   1.063 -0.0064  0.7598 -0.8954
 6731TIP3   OH244387   1.197   4.325   1.225 -0.3043  0.0629  0.9853
 6731TIP3    H144388   1.185   4.233   1.199 -1.9915  0.4427  0.2664
 6731TIP3    H244389   1.273   4.354   1.175 -0.4180 -0.6581  0.3643
 6732TIP3   OH244390   0.859   0.042   3.414  0.2565 -0.3732 -0.1056
 6732TIP3    H144391   0.769   0.068   3.432  0.8461  1.7857 -0.0360
 6732TIP3    H244392   0.853  -0.014   3.336 -1.1428 -0.3162 -0.0601
 6733TIP3   OH244393   1.386   3.383   2.139  0.6696 -0.2405  0.1167
 6733TIP3    H144394   1.447   3.335   2.195 -0.6256 -0.4677  1.3740
 6733TIP3    H244395   1.327   3.428   2.200 -0.8182 -0.5275 -1.0590
 6734TIP3   OH244396   4.715   0.348   2.868  0.2401 -0.0546 -0.6147
 6734TIP3    H144397   4.619   0.348   2.868  0.1556  1.7844  1.1090
 6734TIP3    H244398   4.738   0.441   2.858  1.7729 -0.2383  0.8911
 6735TIP3   OH244399   1.181   4.083   4.414  0.4080 -0.5534 -0.0501
 6735TIP3    H144400   1.207   4.031   4.490 -0.3008 -0.7218  0.0829
 6735TIP3    H244401   1.152   4.166   4.451  1.1415 -0.2086 -0.2320
 6736TIP3   OH244402   6.637   1.972   2.292  0.0499  0.0074 -0.1766
 6736TIP3    H144403   6.721   2.007   2.265 -0.8048  1.2506 -1.3715
 6736TIP3    H244404   6.635   1.984   2.387  0.5980  1.4321 -0.3264
 6737TIP3   OH244405   0.380   0.991   1.475 -0.2988  0.2685 -0.0984
 6737TIP3    H144406   0.374   0.936   1.396  1.4455  1.5978 -1.2408
 6737TIP3    H244407   0.304   1.049   1.471 -1.1866 -0.8335  0.1833
 6738TIP3   OH244408   3.427   0.932   1.224  0.3062  0.1250 -0.3943
 6738TIP3    H144409   3.350   0.953   1.277 -0.3327 -2.0243 -0.3815
 6738TIP3    H244410   3.419   0.839   1.205  3.5446 -0.4970  0.6340
 6739TIP3   OH244411   2.606   6.143   3.350  0.3823 -0.2370 -0.1355
 6739TIP3    H144412   2.677   6.169   3.292 -0.1999  2.0282  0.0711
 6739TIP3    H244413   2.636   6.170   3.437  0.1940 -1.3563  0.2994
 6740TIP3   OH244414   3.327   3.281   1.408 -0.4258  0.0052  0.2881
 6740TIP3    H144415   3.258   3.232   1.364  0.3096 -0.8673  0.0809
 6740TIP3    H244416   3.286   3.365   1.430 -1.7792 -0.7466  0.8254
 6741TIP3   OH244417   3.307   3.698   3.459  0.8670  0.2639 -0.0822
 6741TIP3    H144418   3.350   3.730   3.380 -0.0286  1.5942 -0.0739
 6741TIP3    H244419   3.356   3.739   3.531 -0.1181  1.4752 -0.0630
 6742TIP3   OH244420   6.399   2.710   3.104 -0.5919  0.2638 -0.2103
 6742TIP3    H144421   6.366   2.788   3.148  1.1168  0.7619  0.2739
 6742TIP3    H244422   6.433   2.743   3.021  4.7321  1.1657  1.9138
 6743TIP3   OH244423   4.880   6.221   0.449 -0.0965  0.4874  0.0496
 6743TIP3    H144424   4.898   6.310   0.477  0.2330 -0.2863  2.5022
 6743TIP3    H244425   4.962   6.192   0.407  0.4950  0.6901  1.0495
 6744TIP3   OH244426   6.144   4.753   3.213  0.4795 -0.2156  0.2436
 6744TIP3    H144427   6.216   4.714   3.263  1.3011  0.1767 -0.6037
 6744TIP3    H244428   6.140   4.701   3.133  1.9902  1.7212 -1.1863
 6745TIP3   OH244429   6.351   4.606   4.337 -0.2091  0.6585  0.1664
 6745TIP3    H144430   6.407   4.529   4.325  0.1327  1.0876 -1.0633
 6745TIP3    H244431   6.283   4.596   4.270 -0.1800  1.4117  0.0257
 6746TIP3   OH244432   1.689   3.367   2.860 -0.0734  0.5927 -0.3300
 6746TIP3    H144433   1.681   3.314   2.780  0.8619  1.4422 -1.0138
 6746TIP3    H244434   1.630   3.442   2.845 -0.5025  0.3498  0.1275
 6747TIP3   OH244435   4.211   5.445   3.500  0.1601 -0.4417  0.1548
 6747TIP3    H144436   4.298   5.472   3.530 -0.3410 -1.0085  2.3098
 6747TIP3    H244437   4.187   5.373   3.558 -1.1683 -1.2677 -1.3434
 6748TIP3   OH244438   3.176   3.777   1.658  0.0279 -0.0949 -0.2642
 6748TIP3    H144439   3.252   3.728   1.690 -0.1911 -0.2770 -0.0160
 6748TIP3    H244440   3.134   3.718   1.595 -0.6152 -0.5098  0.5293
 6749TIP3   OH244441   1.590   1.048   2.766 -0.7308 -0.6568 -0.2874
 6749TIP3    H144442   1.683   1.037   2.746 -0.8129 -0.7514 -0.6285
 6749TIP3    H244443   1.545   0.995   2.700 -1.0071 -1.0571  0.2186
 6750TIP3   OH244444   0.430   2.994   0.755  0.0163  0.3910 -0.5239
 6750TIP3    H144445   0.498   2.947   0.707  1.2339  1.1097  0.4449
 6750TIP3    H244446   0.476   3.067   0.796 -1.4457  1.2048 -0.2721
 6751TIP3   OH244447   3.427   4.856   2.205 -0.0121 -0.7765  0.1641
 6751TIP3    H144448   3.517   4.856   2.240  0.6655  0.2346 -1.4469
 6751TIP3    H244449   3.376   4.900   2.272  1.2423  1.0861 -0.0153
 6752TIP3   OH244450   1.343   0.501   1.915 -0.1196 -0.1919  0.0277
 6752TIP3    H144451   1.324   0.452   1.835 -0.9910  1.8754 -1.1001
 6752TIP3    H244452   1.259   0.541   1.939  0.3232 -0.0829  1.5326
 6753TIP3   OH244453   4.449   5.898   2.388 -0.0161 -0.3519 -0.4301
 6753TIP3    H144454   4.436   5.970   2.327  2.7125  0.6014 -0.0575
 6753TIP3    H244455   4.515   5.843   2.346 -0.3590 -1.3526  0.3103
 6754TIP3   OH244456   0.316   1.849   2.343 -0.3375 -0.2356  0.2550
 6754TIP3    H144457   0.358   1.881   2.423  1.2443 -0.6186 -0.3808
 6754TIP3    H244458   0.254   1.917   2.319  0.7190  0.9087  0.6518
 6755TIP3   OH244459   0.506   4.062   2.555 -0.0198 -0.0625 -0.0241
 6755TIP3    H144460   0.424   4.101   2.525  0.9176  3.4752  1.5225
 6755TIP3    H244461   0.567   4.075   2.482 -0.0345  0.2524  0.0194
 6756TIP3   OH244462   2.559   5.573   1.368 -0.0656 -0.4385 -0.8790
 6756TIP3    H144463   2.646   5.533   1.365  0.6070  0.9591 -1.0581
 6756TIP3    H244464   2.568   5.644   1.432 -0.3137  1.3523 -2.7142
 6757TIP3   OH244465   3.685   0.301   2.502 -0.6850 -0.0648 -0.2216
 6757TIP3    H144466   3.697   0.240   2.429  0.3779  1.3076 -1.2621
 6757TIP3    H244467   3.772   0.336   2.519 -0.4735 -1.8774  3.2103
 6758TIP3   OH244468   5.190   2.800   0.527 -0.0080 -0.3973 -0.1137
 6758TIP3    H144469   5.261   2.856   0.495 -0.4116  0.2850  0.1638
 6758TIP3    H244470   5.179   2.826   0.619 -0.4337 -0.6869 -0.0813
 6759TIP3   OH244471   6.184   5.145   3.071 -0.1819 -0.5767  0.4935
 6759TIP3    H144472   6.098   5.103   3.076  0.1543 -1.2813  0.5870
 6759TIP3    H244473   6.236   5.085   3.017 -0.3611  0.9443 -1.4718
 6760TIP3   OH244474   0.949   4.636   5.441  0.1538 -0.0745  0.3497
 6760TIP3    H144475   0.919   4.601   5.525  1.1179 -1.3082  0.2120
 6760TIP3    H244476   1.040   4.605   5.434  0.2904  0.5661 -0.8432
 6761TIP3   OH244477   3.254   1.907   1.579  0.0551  0.3495 -0.3699
 6761TIP3    H144478   3.163   1.900   1.609  0.9670 -3.4643  2.2238
 6761TIP3    H244479   3.267   1.830   1.524  1.2940  1.8256 -2.2368
 6762TIP3   OH244480   4.716   6.421   4.045 -0.1863 -0.5321  0.6186
 6762TIP3    H144481   4.788   6.392   4.102  0.6630 -0.3367 -0.3372
 6762TIP3    H244482   4.724   6.367   3.967  1.0050  1.7469 -0.9235
 6763TIP3   OH244483   4.633   3.404   1.741  0.1296  0.2685 -0.4127
 6763TIP3    H144484   4.611   3.435   1.828 -0.9330  0.5415 -0.7708
 6763TIP3    H244485   4.706   3.460   1.713 -1.8741  2.6779 -1.1365
 6764TIP3   OH244486   5.919   1.140   1.737 -0.0108  0.4724 -0.4142
 6764TIP3    H144487   5.826   1.143   1.713 -0.5994 -0.4187  1.6266
 6764TIP3    H244488   5.924   1.078   1.809  2.2966  0.0081 -0.9055
 6765TIP3   OH244489   3.012   2.044   3.670  0.5253  0.1848  0.3858
 6765TIP3    H144490   2.985   1.975   3.731  0.9554 -0.1147  0.2490
 6765TIP3    H244491   3.016   2.123   3.724  0.6457 -0.0244  0.6900
 6766TIP3   OH244492   2.947   5.474   3.691 -0.2459 -0.5293 -0.1819
 6766TIP3    H144493   3.027   5.490   3.741  0.0592 -1.4698 -0.3441
 6766TIP3    H244494   2.896   5.554   3.701  0.2944 -0.2840  0.7216
 6767TIP3   OH244495   4.313   1.827   3.711 -0.0768 -0.1673  0.1612
 6767TIP3    H144496   4.296   1.801   3.801 -0.1189  0.5594  0.3644
 6767TIP3    H244497   4.236   1.797   3.663  0.1923 -1.0509  0.2609
 6768TIP3   OH244498   3.119   4.638   2.566 -0.2569 -0.3872 -0.1058
 6768TIP3    H144499   3.092   4.729   2.584  0.2612 -0.2252 -0.1445
 6768TIP3    H244500   3.099   4.625   2.474  1.5469  0.3685 -0.6498
 6769TIP3   OH244501   6.004   1.202   1.486  0.0868  0.0466  0.2505
 6769TIP3    H144502   5.958   1.281   1.461 -0.7877 -1.0760 -1.9678
 6769TIP3    H244503   5.975   1.184   1.575 -0.1016  1.8890  0.5998
 6770TIP3   OH244504   5.494   3.308   4.594 -0.0029 -0.1744  0.3948
 6770TIP3    H144505   5.568   3.254   4.623  0.9992  1.1993  0.5536
 6770TIP3    H244506   5.417   3.267   4.632  0.6945 -1.5350  0.4081
 6771TIP3   OH244507   3.666   6.270   2.379 -0.0174  0.5429  0.2319
 6771TIP3    H144508   3.754   6.251   2.411  0.3355 -0.3377 -1.1672
 6771TIP3    H244509   3.612   6.197   2.411  0.5121 -0.8133 -1.7705
 6772TIP3   OH244510   2.029   4.226   4.342  0.1968  0.0866 -0.0809
 6772TIP3    H144511   1.989   4.290   4.400 -1.6616  0.1105 -1.3195
 6772TIP3    H244512   2.064   4.159   4.401 -0.5671  0.6978  1.1001
 6773TIP3   OH244513   6.011   0.161   2.155  0.0085  0.2447 -0.3954
 6773TIP3    H144514   6.048   0.076   2.177 -0.7453 -0.1375 -0.5730
 6773TIP3    H244515   5.951   0.180   2.227 -1.5220 -0.4312 -1.4272
 6774TIP3   OH244516   3.030   0.107   2.914 -0.0531 -0.4696 -0.0044
 6774TIP3    H144517   2.966   0.079   2.979 -1.1353  0.2989 -0.7100
 6774TIP3    H244518   2.981   0.163   2.854  1.1126 -0.4640 -0.9985
 6775TIP3   OH244519   1.326   0.195   1.342 -0.4108  0.4292 -0.1565
 6775TIP3    H144520   1.375   0.271   1.372  0.4352 -0.6263  1.2669
 6775TIP3    H244521   1.351   0.125   1.403  1.3207 -1.8821 -3.2354
 6776TIP3   OH244522   2.772   2.698   3.263  0.8330  0.1736  0.2030
 6776TIP3    H144523   2.740   2.626   3.318 -1.4484  1.4695  0.6874
 6776TIP3    H244524   2.825   2.751   3.323 -1.9323  1.7765  1.3825
 6777TIP3   OH244525   2.126   0.432   1.186  0.4708 -0.4585 -0.3934
 6777TIP3    H144526   2.198   0.475   1.139  0.1318  0.6243  0.0599
 6777TIP3    H244527   2.047   0.465   1.145  0.2083 -1.4595 -0.7247
 6778TIP3   OH244528   4.790   3.380   1.183  0.3623 -0.2080 -0.4418
 6778TIP3    H144529   4.803   3.390   1.088  0.2779  1.0285 -0.3380
 6778TIP3    H244530   4.864   3.425   1.222  0.1233 -0.2706  0.0840
 6779TIP3   OH244531   3.187   6.430   3.417  0.1483 -0.0691 -0.1113
 6779TIP3    H144532   3.260   6.456   3.473 -0.1365 -0.6278  0.5414
 6779TIP3    H244533   3.110   6.441   3.472 -0.4888  2.2450 -1.3635
 6780TIP3   OH244534   0.243   6.595   1.536 -0.0271  0.3328  0.1855
 6780TIP3    H144535   0.265   6.608   1.628 -0.5795 -0.4304  0.4387
 6780TIP3    H244536   0.285   6.668   1.490  1.7111 -0.2329  0.8182
 6781TIP3   OH244537   6.458   1.821   0.661  0.2720  0.0433  0.2933
 6781TIP3    H144538   6.505   1.806   0.743 -0.4327 -2.2330  0.3551
 6781TIP3    H244539   6.488   1.751   0.603 -1.2828 -0.0347 -0.4660
 6782TIP3   OH244540   0.904   4.681   0.638 -0.2447 -0.1670 -0.5121
 6782TIP3    H144541   0.888   4.693   0.544 -0.7711  0.2144 -0.3800
 6782TIP3    H244542   0.878   4.764   0.677 -1.1914 -0.7429  0.1134
 6783TIP3   OH244543   2.727   1.531   2.265  0.2438 -0.3214  0.5336
 6783TIP3    H144544   2.807   1.583   2.278  0.9919 -1.4183  0.3983
 6783TIP3    H244545   2.725   1.471   2.339 -0.8069  0.1113  0.8747
 6784TIP3   OH244546   4.704   2.261   2.880  0.0232 -0.0040 -0.0935
 6784TIP3    H144547   4.688   2.188   2.939 -2.1680 -0.1086 -0.7375
 6784TIP3    H244548   4.658   2.335   2.920 -0.0517  0.3471 -0.8051
 6785TIP3   OH244549   3.016   3.765   2.323  0.3540 -0.1369 -0.1803
 6785TIP3    H144550   2.921   3.766   2.314  0.4137 -1.4426 -1.4363
 6785TIP3    H244551   3.033   3.791   2.413 -1.3580 -2.4277  0.9036
 6786TIP3   OH244552   5.363   5.119   1.089  0.4741 -0.1025  0.4048
 6786TIP3    H144553   5.355   5.043   1.031 -1.0694 -0.1471  0.6451
 6786TIP3    H244554   5.408   5.085   1.167 -0.5936 -0.8921  0.6932
 6787TIP3   OH244555   0.230   5.079   1.539 -0.5443 -0.3783 -0.1797
 6787TIP3    H144556   0.169   5.124   1.481  0.0170 -1.6226 -1.8097
 6787TIP3    H244557   0.311   5.128   1.531 -0.8160  0.2222  0.6061
 6788TIP3   OH244558   5.819   3.045   1.516  0.7648  0.3936  0.3395
 6788TIP3    H144559   5.895   3.078   1.468  0.2144  1.5787  0.2493
 6788TIP3    H244560   5.830   3.078   1.605  0.8901 -0.3313  0.5988
 6789TIP3   OH244561   3.088   4.136   2.908  0.5785  0.6264  0.0283
 6789TIP3    H144562   3.029   4.062   2.892 -0.2840  1.4561 -0.7407
 6789TIP3    H244563   3.048   4.183   2.981  0.0030  1.4542 -0.7967
 6790TIP3   OH244564   0.245   0.648   3.438  0.6655  0.2887  0.0827
 6790TIP3    H144565   0.267   0.584   3.506 -2.1994 -0.6710  0.2463
 6790TIP3    H244566   0.238   0.731   3.485  0.7611  0.0295  0.5655
 6791TIP3   OH244567   1.019   6.533   0.648  0.4712  0.2395 -0.4274
 6791TIP3    H144568   1.105   6.539   0.606  0.8765  0.5970  0.4373
 6791TIP3    H244569   0.990   6.624   0.657  0.8264  0.2449  0.9262
 6792TIP3   OH244570   6.339   2.443   3.627  0.0601 -0.5320 -0.1660
 6792TIP3    H144571   6.335   2.434   3.723  0.1198  0.0658 -0.1010
 6792TIP3    H244572   6.432   2.455   3.608 -0.2019  3.2509  0.1245
 6793TIP3   OH244573   3.647   1.905   0.865 -0.2671 -0.1119  0.0691
 6793TIP3    H144574   3.700   1.978   0.896 -0.7172 -0.1468  0.9652
 6793TIP3    H244575   3.560   1.921   0.901 -0.0446 -1.8225  1.5563
 6794TIP3   OH244576   2.666   3.421   1.624 -0.0805  0.1778  0.6793
 6794TIP3    H144577   2.709   3.470   1.554 -0.4114 -0.6460 -0.1200
 6794TIP3    H244578   2.736   3.369   1.663 -0.1353 -0.3299  0.1075
 6795TIP3   OH244579   6.306   3.905   4.767  0.5550  0.1046 -0.7557
 6795TIP3    H144580   6.371   3.970   4.741  0.7110 -0.2289 -1.2213
 6795TIP3    H244581   6.244   3.904   4.694 -0.8411  1.5201  0.3505
 6796TIP3   OH244582   6.128   2.981   2.371 -1.0355 -0.3031  0.1894
 6796TIP3    H144583   6.106   3.023   2.455  1.6605  1.2595  0.2261
 6796TIP3    H244584   6.157   3.054   2.316  0.7800 -1.7343 -0.8390
 6797TIP3   OH244585   5.988   5.352   3.177  0.1707  0.0196  0.6590
 6797TIP3    H144586   6.080   5.364   3.156  0.3592 -0.4211  1.2087
 6797TIP3    H244587   5.987   5.284   3.244 -0.6413 -0.8320 -0.1852
 6798TIP3   OH244588   1.635   2.323   1.846  0.0090 -0.5188 -0.3119
 6798TIP3    H144589   1.675   2.391   1.791 -0.4068 -0.5092 -0.6029
 6798TIP3    H244590   1.707   2.262   1.864  0.7302  0.6937  1.0842
 6799TIP3   OH244591   4.490   1.346   1.499  0.3991 -1.0478  0.0939
 6799TIP3    H144592   4.514   1.290   1.425 -0.3434  0.4207 -1.3179
 6799TIP3    H244593   4.521   1.433   1.473 -2.9631  0.1976 -0.1465
 6800TIP3   OH244594   1.674   6.698   4.006  0.2239 -0.4029  0.4443
 6800TIP3    H144595   1.716   6.784   4.004 -0.0028 -0.2873  0.5549
 6800TIP3    H244596   1.735   6.642   4.054  1.1843 -0.7459 -1.1294
 6801TIP3   OH244597   5.510   1.298   0.439 -1.1318 -0.0322 -0.5375
 6801TIP3    H144598   5.423   1.259   0.438 -1.4858  0.7552 -1.2704
 6801TIP3    H244599   5.495   1.392   0.430 -0.3471  0.4250  1.9790
 6802TIP3   OH244600   2.545   5.429   2.094 -0.3282 -0.2393  0.6380
 6802TIP3    H144601   2.599   5.383   2.158 -1.7240 -1.2225  1.1635
 6802TIP3    H244602   2.532   5.516   2.131 -0.8935 -0.7102  1.5559
 6803TIP3   OH244603   6.127   5.524   2.517  0.3253 -0.0668  0.8893
 6803TIP3    H144604   6.037   5.496   2.533 -0.1656  0.7027 -0.3883
 6803TIP3    H244605   6.174   5.498   2.596 -0.7061 -1.7646  0.9887
 6804TIP3   OH244606   3.536   4.722   1.061 -0.1950  0.2930  0.4850
 6804TIP3    H144607   3.489   4.777   0.999 -2.1223 -2.3901 -0.6386
 6804TIP3    H244608   3.607   4.684   1.009  1.3751  1.9027  1.3570
 6805TIP3   OH244609   5.895   5.621   1.843  0.5544 -0.3888  0.0643
 6805TIP3    H144610   5.953   5.550   1.870  0.3119  0.0773  1.9792
 6805TIP3    H244611   5.809   5.596   1.876  0.5060  0.8553  0.9637
 6806TIP3   OH244612   6.108   6.653   0.682  0.1748 -0.2794  0.2829
 6806TIP3    H144613   6.129   6.747   0.684 -3.8586  0.8429 -0.5330
 6806TIP3    H244614   6.097   6.629   0.774 -1.6187  0.9397  0.4555
 6807TIP3   OH244615   1.550   2.278   3.476 -0.1396  0.8658  0.1334
 6807TIP3    H144616   1.624   2.224   3.502 -0.0019  0.1876 -1.5711
 6807TIP3    H244617   1.585   2.339   3.411 -0.9592  0.8792 -0.3175
 6808TIP3   OH244618   5.931   0.444   3.520  0.6427  0.4020  0.4234
 6808TIP3    H144619   5.919   0.360   3.476 -1.6274  0.9932 -0.2157
 6808TIP3    H244620   6.024   0.447   3.541  1.2113 -1.2823 -1.5287
 6809TIP3   OH244621   5.061   5.228   0.589  0.1611 -0.0700  0.0901
 6809TIP3    H144622   5.040   5.135   0.580  0.7094 -0.2299  0.4170
 6809TIP3    H244623   5.127   5.231   0.658 -0.5154  0.6570  0.7362
 6810TIP3   OH244624   1.060   4.546   2.121  0.2344  0.3874 -0.7231
 6810TIP3    H144625   1.119   4.607   2.077 -0.3830  0.1035 -1.9918
 6810TIP3    H244626   0.977   4.594   2.128 -0.5044 -0.5593 -2.4919
 6811TIP3   OH244627   5.049   3.567   3.526  0.0489  0.1907  0.0386
 6811TIP3    H144628   5.139   3.543   3.546  0.0550 -1.7053 -1.9511
 6811TIP3    H244629   5.049   3.590   3.433 -1.5305  0.0798 -0.0299
 6812TIP3   OH244630   1.871   0.357   1.954  0.6171 -0.4320  0.1761
 6812TIP3    H144631   1.888   0.329   2.044 -0.9099 -2.9085 -0.2095
 6812TIP3    H244632   1.780   0.388   1.955  0.7069 -0.1284 -0.4504
 6813TIP3   OH244633   2.345   0.743   1.116 -0.3711 -0.0837  0.5532
 6813TIP3    H144634   2.350   0.651   1.090 -2.7354 -0.4248  1.1144
 6813TIP3    H244635   2.266   0.776   1.074  0.9093  2.0072 -0.3955
 6814TIP3   OH244636   5.728   0.770   2.180 -0.0414  0.1131  0.0802
 6814TIP3    H144637   5.797   0.730   2.232 -0.9883 -2.0025 -0.1688
 6814TIP3    H244638   5.732   0.863   2.202  0.9979 -0.3725  2.2336
 6815TIP3   OH244639   4.031   6.021   1.366 -0.3705 -0.0891  0.0115
 6815TIP3    H144640   3.997   5.936   1.341 -0.9980  0.0625  0.3264
 6815TIP3    H244641   3.975   6.084   1.320  1.5805  0.1570 -2.1610
 6816TIP3   OH244642   1.556   5.668   1.593  0.0587  0.0358 -0.6082
 6816TIP3    H144643   1.461   5.662   1.584 -0.0273  0.2978  0.0168
 6816TIP3    H244644   1.576   5.758   1.567  0.2819 -0.3437 -1.8067
 6817TIP3   OH244645   2.189   0.461   0.845 -0.3095 -1.0156 -0.0352
 6817TIP3    H144646   2.196   0.404   0.769  0.9574 -0.4627 -0.3671
 6817TIP3    H244647   2.262   0.434   0.901 -1.8608 -2.1688  1.5462
 6818TIP3   OH244648   1.270   4.629   2.777  0.2836 -0.1735  0.5577
 6818TIP3    H144649   1.308   4.640   2.864  0.6069 -0.9574  0.5234
 6818TIP3    H244650   1.339   4.586   2.726  0.8855  2.0996 -0.6907
 6819TIP3   OH244651   2.885   6.363   2.333  0.1662  0.2808  0.1770
 6819TIP3    H144652   2.846   6.347   2.419  0.0379 -1.7996 -0.1967
 6819TIP3    H244653   2.972   6.323   2.338  0.0135 -0.1961 -0.7481
 6820TIP3   OH244654   6.004   4.073   1.347  0.3152 -0.1135  0.8486
 6820TIP3    H144655   5.938   4.105   1.408  0.5336 -1.6323  1.9389
 6820TIP3    H244656   6.042   4.153   1.309  0.4112  0.9103  2.9638
 6821TIP3   OH244657   2.402   4.214   0.715 -0.0394 -0.6922 -0.4359
 6821TIP3    H144658   2.337   4.242   0.651 -0.0204 -1.7511 -0.9373
 6821TIP3    H244659   2.463   4.160   0.666  0.4637 -0.8079  0.3005
 6822TIP3   OH244660   0.661   2.635   3.391 -0.1629 -0.1655  0.5047
 6822TIP3    H144661   0.598   2.632   3.463 -0.2622 -0.6882  0.3966
 6822TIP3    H244662   0.619   2.587   3.320 -0.9014  1.9566 -0.5696
 6823TIP3   OH244663   5.824   3.970   0.843 -0.5185 -0.1455 -0.0018
 6823TIP3    H144664   5.770   4.048   0.857 -0.5093 -0.4054  1.6993
 6823TIP3    H244665   5.857   3.979   0.753 -2.2190  0.7375 -0.5830
 6824TIP3   OH244666   0.111   1.194  11.768  0.3261  0.2061  0.2455
 6824TIP3    H144667   0.066   1.135  11.829  1.7329 -0.0447  1.0888
 6824TIP3    H244668   0.145   1.264  11.823  1.0708  0.3160 -0.3396
 6825TIP3   OH244669   3.626   6.554   3.396  0.4174  0.3311 -0.1020
 6825TIP3    H144670   3.714   6.517   3.408  0.5816  0.5797 -0.5126
 6825TIP3    H244671   3.642   6.648   3.383  0.3202  0.0575 -2.7181
 6826TIP3   OH244672   4.525   4.366   1.318  0.0267  0.3281  0.5484
 6826TIP3    H144673   4.557   4.377   1.408  0.3728  2.1525  0.2549
 6826TIP3    H244674   4.605   4.352   1.267  0.0944  1.5783  0.2601
 6827TIP3   OH244675   2.408   5.134   3.358 -0.0288  0.1421 -0.0957
 6827TIP3    H144676   2.387   5.108   3.269 -0.4525  1.0570 -0.2761
 6827TIP3    H244677   2.329   5.115   3.409  0.7476 -1.8968  0.4484
 6828TIP3   OH244678   3.451   3.598   4.785 -0.4307 -0.0150 -0.2548
 6828TIP3    H144679   3.517   3.647   4.736 -0.5921  0.8645  0.3843
 6828TIP3    H244680   3.384   3.577   4.720 -0.6107  1.0797 -0.4491
 6829TIP3   OH244681   1.927   3.977   4.720 -0.2595 -0.1418  0.0821
 6829TIP3    H144682   1.995   3.928   4.673  0.6115  1.6035 -0.5768
 6829TIP3    H244683   1.925   3.936   4.807 -1.0864 -2.6759 -1.0367
 6830TIP3   OH244684   1.873   3.296   1.302 -0.3751 -0.2384 -0.0654
 6830TIP3    H144685   1.835   3.360   1.362  0.1644 -0.5818  0.6626
 6830TIP3    H244686   1.960   3.329   1.283 -1.1039  0.7530 -2.0442
 6831TIP3   OH244687   0.721   3.353   0.629  0.1122  0.3897  0.2398
 6831TIP3    H144688   0.668   3.433   0.621 -1.6978 -0.6131  1.4664
 6831TIP3    H244689   0.811   3.383   0.617 -0.5796  2.4673 -0.2055
 6832TIP3   OH244690   1.500   2.423   2.777 -0.2730 -0.0487  0.2807
 6832TIP3    H144691   1.459   2.344   2.741 -3.0459 -0.4046  3.7023
 6832TIP3    H244692   1.457   2.495   2.731 -1.0979 -0.5082  0.2990
 6833TIP3   OH244693   0.693   6.010   2.037 -0.4699 -0.7210 -0.2320
 6833TIP3    H144694   0.652   5.939   2.086  0.9545 -1.3060  0.1500
 6833TIP3    H244695   0.714   5.972   1.951 -2.1004  0.0292 -0.9981
 6834TIP3   OH244696   5.442   3.716   2.376  0.1893 -0.6787  0.1918
 6834TIP3    H144697   5.348   3.697   2.381 -0.6448  2.1728 -2.0003
 6834TIP3    H244698   5.461   3.759   2.460 -0.9167  0.1805  0.0417
 6835TIP3   OH244699   2.346   5.845   1.430 -0.1659 -0.1331 -0.6834
 6835TIP3    H144700   2.420   5.899   1.399 -1.8968  2.7091 -0.2516
 6835TIP3    H244701   2.300   5.819   1.351 -0.1454  0.3518 -0.8602
 6836TIP3   OH244702   2.997   5.436   2.652  0.0464  0.0103  0.0205
 6836TIP3    H144703   2.962   5.388   2.726 -0.1767 -0.3683 -0.3287
 6836TIP3    H244704   2.920   5.462   2.601  0.1972  0.2654 -0.0844
 6837TIP3   OH244705   4.858   3.197   2.541 -0.0964 -0.5239  0.3005
 6837TIP3    H144706   4.773   3.154   2.532 -0.8769  1.0999 -0.7672
 6837TIP3    H244707   4.887   3.210   2.451  1.4307 -1.2641  0.6569
 6838TIP3   OH244708   2.328   1.875   2.219  0.3381 -0.1552 -0.4841
 6838TIP3    H144709   2.401   1.931   2.192  0.4230 -0.5870 -1.1678
 6838TIP3    H244710   2.306   1.825   2.141 -0.5263 -0.2204 -0.2122
 6839TIP3   OH244711   1.211   2.718   2.369  0.0693 -0.4484 -0.3150
 6839TIP3    H144712   1.143   2.774   2.407 -0.4331 -1.8338  0.9083
 6839TIP3    H244713   1.218   2.748   2.279 -0.9106  0.8990  0.0177
 6840TIP3   OH244714   0.351   3.350   3.546 -0.3175  0.1900  0.0687
 6840TIP3    H144715   0.349   3.309   3.460 -0.8291 -0.1138  0.2204
 6840TIP3    H244716   0.442   3.343   3.574 -0.5875 -1.9373  0.6024
 6841TIP3   OH244717   6.299   5.060   3.799  0.1447 -0.0785 -0.1261
 6841TIP3    H144718   6.331   4.996   3.863  1.7282  2.2706  1.6145
 6841TIP3    H244719   6.298   5.143   3.847 -1.9227  1.2278 -2.2249
 6842TIP3   OH244720   0.091   4.021   4.309  0.1343 -0.1975 -0.0494
 6842TIP3    H144721   0.129   3.973   4.382 -0.8296  0.9352  1.2479
 6842TIP3    H244722   0.002   4.039   4.336  0.0017  0.9622 -1.1700
 6843TIP3   OH244723   5.042   0.575   0.863 -0.0313 -0.2537 -0.0432
 6843TIP3    H144724   4.976   0.512   0.891  0.6369 -1.1240 -0.3643
 6843TIP3    H244725   5.124   0.526   0.865  0.2529  0.0478 -2.1513
 6844TIP3   OH244726   0.723   2.573   0.922  0.5481 -0.0669 -0.1996
 6844TIP3    H144727   0.738   2.515   0.997 -0.1607 -1.9705 -1.4624
 6844TIP3    H244728   0.811   2.591   0.888  0.7900 -0.2283  0.3342
 6845TIP3   OH244729   2.649   4.051   4.644  0.2615 -0.0404 -0.4268
 6845TIP3    H144730   2.600   4.056   4.562  0.3386 -0.4904 -0.5015
 6845TIP3    H244731   2.587   4.079   4.711  0.0568 -0.1195 -0.5832
 6846TIP3   OH244732   3.619   0.492   3.190  0.4170  0.3953 -0.0106
 6846TIP3    H144733   3.583   0.522   3.107 -0.7874 -0.2434  0.2490
 6846TIP3    H244734   3.544   0.454   3.236  1.4610 -1.2491  0.4520
 6847TIP3   OH244735   4.811   2.631   0.817 -0.5951 -0.4448 -0.2150
 6847TIP3    H144736   4.740   2.567   0.810  0.3224 -1.5964  0.5510
 6847TIP3    H244737   4.891   2.580   0.803  0.1906  0.4436  0.8596
 6848TIP3   OH244738   0.859   4.168   1.671  0.0765  0.2250  0.1218
 6848TIP3    H144739   0.837   4.163   1.764  0.9189 -0.1568  0.3041
 6848TIP3    H244740   0.914   4.245   1.663  1.4625 -0.7064  0.2601
 6849TIP3   OH244741   4.490   3.805   2.450 -0.2042 -0.4692 -0.3831
 6849TIP3    H144742   4.449   3.815   2.364  0.8711  0.4070 -0.8197
 6849TIP3    H244743   4.567   3.863   2.447  0.4663 -1.2501  0.7715
 6850TIP3   OH244744   1.101   2.573   1.035 -0.0319  0.3055  0.3323
 6850TIP3    H144745   1.192   2.561   1.009  0.4897 -0.8327  2.4526
 6850TIP3    H244746   1.086   2.506   1.102 -1.8080  1.7965  1.5234
 6851TIP3   OH244747   0.086   6.025   2.734 -0.2317  0.0521 -0.2287
 6851TIP3    H144748   0.119   5.947   2.780  0.3714 -0.0166 -0.7625
 6851TIP3    H244749   0.035   5.990   2.661  0.4751  0.1413 -0.7786
 6852TIP3   OH244750   0.158   4.839   1.340  0.3940  0.0734 -0.2559
 6852TIP3    H144751   0.112   4.780   1.399  1.2905  0.7619  1.1750
 6852TIP3    H244752   0.100   4.915   1.331  1.4516  1.2234  2.0536
 6853TIP3   OH244753   0.381   2.545   1.060  0.2057 -0.3410 -0.4764
 6853TIP3    H144754   0.435   2.620   1.038 -1.1759  1.3685  1.5897
 6853TIP3    H244755   0.313   2.544   0.992 -0.4390  1.0346  0.1126
 6854TIP3   OH244756   2.179   0.724   3.858  0.2039  0.1121 -0.2281
 6854TIP3    H144757   2.265   0.747   3.893  1.4717  0.6183 -3.2978
 6854TIP3    H244758   2.179   0.629   3.851 -0.5547 -0.1148  2.0513
 6855TIP3   OH244759   2.505   4.342   0.931  0.3924  0.2697  0.4667
 6855TIP3    H144760   2.483   4.291   0.853 -0.2912 -1.1433  1.5477
 6855TIP3    H244761   2.472   4.430   0.912 -0.1578 -0.1575 -0.6424
 6856TIP3   OH244762   0.701   1.848   3.792 -0.2387  0.1175  0.5093
 6856TIP3    H144763   0.643   1.851   3.869  0.1095  1.0270  0.7483
 6856TIP3    H244764   0.715   1.940   3.770  0.7668 -0.1097  0.1842
 6857TIP3   OH244765   6.342   3.284   2.743 -0.3578 -0.8613  0.0994
 6857TIP3    H144766   6.360   3.291   2.837  0.1330  0.7826 -0.0874
 6857TIP3    H244767   6.428   3.283   2.702 -0.5152  1.6803 -0.4800
 6858TIP3   OH244768   1.877   4.481   1.151  0.3620  0.0233 -0.5162
 6858TIP3    H144769   1.860   4.574   1.136  3.0153  0.3263 -2.3596
 6858TIP3    H244770   1.812   4.436   1.099  0.5034  0.9282 -1.5146
 6859TIP3   OH244771   2.959   4.761   2.162 -0.5136 -0.1815  0.2848
 6859TIP3    H144772   2.998   4.690   2.111 -1.3373 -2.3172  2.4372
 6859TIP3    H244773   2.914   4.816   2.098  0.8449 -1.1162 -1.5421
 6860TIP3   OH244774   4.105   2.271   0.728 -0.6640  0.0011 -0.1876
 6860TIP3    H144775   4.012   2.258   0.713 -1.2926 -0.3345  3.2567
 6860TIP3    H244776   4.113   2.364   0.749 -0.7425 -0.4214  1.9947
 6861TIP3   OH244777   6.413   5.032   0.502 -0.1832 -0.6608 -0.2318
 6861TIP3    H144778   6.477   5.027   0.573 -0.4796 -0.4556  0.0469
 6861TIP3    H244779   6.459   5.080   0.432 -0.6450  1.0950  0.6294
 6862TIP3   OH244780   2.165   0.277   0.663  0.3019 -0.1568  0.1267
 6862TIP3    H144781   2.087   0.278   0.717  0.4495 -1.3593  0.3964
 6862TIP3    H244782   2.174   0.185   0.636  0.9667  0.1807 -0.8483
 6863TIP3   OH244783   5.762   5.585   1.494 -0.1220  0.2485  0.5250
 6863TIP3    H144784   5.684   5.574   1.439  0.6952 -0.4402 -0.5405
 6863TIP3    H244785   5.744   5.664   1.545 -2.1389 -0.7035  1.3990
 6864TIP3   OH244786   0.481   5.191   2.589 -0.1382 -0.0403 -0.3347
 6864TIP3    H144787   0.391   5.190   2.621 -0.2950 -0.8605 -0.7583
 6864TIP3    H244788   0.530   5.238   2.656 -0.9855  0.9615 -0.4022
 6865TIP3   OH244789   1.143   1.712   3.295  0.5523  0.2654 -0.0161
 6865TIP3    H144790   1.049   1.696   3.299  0.7557 -1.0308 -0.1811
 6865TIP3    H244791   1.175   1.695   3.383  0.8031 -0.4723 -0.2432
 6866TIP3   OH244792   1.967   6.134   2.376  0.8638 -0.1676  0.1298
 6866TIP3    H144793   2.061   6.122   2.394  0.9976 -0.6696 -0.8218
 6866TIP3    H244794   1.953   6.088   2.293  0.1179  1.3486 -0.6165
 6867TIP3   OH244795   3.587   3.975   3.257  0.6411 -0.0355  0.5718
 6867TIP3    H144796   3.591   3.948   3.348 -1.1125  0.8915  0.9812
 6867TIP3    H244797   3.678   3.988   3.231  1.1387  1.3963  2.7497
 6868TIP3   OH244798   1.779   2.265   2.131 -0.3483  0.2072 -0.2182
 6868TIP3    H144799   1.747   2.308   2.210  0.0402  1.1124 -0.5370
 6868TIP3    H244800   1.700   2.235   2.086 -0.6399  0.7735 -0.0891
 6869TIP3   OH244801   1.383   2.479   3.529 -0.1342 -0.7917 -0.0030
 6869TIP3    H144802   1.374   2.516   3.441  3.3538 -0.2844 -0.2665
 6869TIP3    H244803   1.451   2.412   3.520  1.0056 -0.0674  2.4838
 6870TIP3   OH244804   5.703   2.244   0.706 -0.5864  0.1840 -0.0207
 6870TIP3    H144805   5.640   2.172   0.699 -0.7870  0.4146 -0.5733
 6870TIP3    H244806   5.654   2.314   0.748 -0.6282  0.2786 -0.2270
 6871TIP3   OH244807   0.538   5.564   1.712  0.4060  0.0126  0.3674
 6871TIP3    H144808   0.512   5.546   1.622  0.0107  0.2980  0.4206
 6871TIP3    H244809   0.470   5.623   1.745 -0.3027 -1.2962  1.3385
 6872TIP3   OH244810   1.373   5.217   3.574 -0.0751 -0.3105 -0.2137
 6872TIP3    H144811   1.282   5.247   3.580  0.3485  0.6942  2.0175
 6872TIP3    H244812   1.398   5.197   3.664  1.4464 -2.1053 -0.9724
 6873TIP3   OH244813   6.276   4.293   4.856 -0.0055 -0.2111 -0.0651
 6873TIP3    H144814   6.223   4.368   4.882 -1.3416 -1.4275  0.8315
 6873TIP3    H244815   6.340   4.330   4.795 -0.7072  1.6224  0.2281
 6874TIP3   OH244816   2.572   4.998   0.925  0.2790 -0.5929 -0.1686
 6874TIP3    H144817   2.623   4.980   1.004 -1.1278  1.5391  1.3197
 6874TIP3    H244818   2.632   4.977   0.853  1.5461 -2.7868  1.3945
 6875TIP3   OH244819   0.563   1.284   0.591  0.3964 -0.1791  0.1311
 6875TIP3    H144820   0.519   1.318   0.512 -0.5454  0.1945  0.7935
 6875TIP3    H244821   0.637   1.343   0.604  0.6988 -0.3808 -0.5953
 6876TIP3   OH244822   5.791   4.297   0.358 -0.6404 -0.3376 -0.2646
 6876TIP3    H144823   5.867   4.304   0.416 -1.8599  1.1748  1.2610
 6876TIP3    H244824   5.795   4.376   0.304 -1.6251  0.2620  0.5081
 6877TIP3   OH244825   3.913   4.512   4.149 -0.2502 -0.4142  0.0253
 6877TIP3    H144826   3.884   4.581   4.209  1.6063 -1.2823  2.0554
 6877TIP3    H244827   3.846   4.444   4.156 -0.5820 -0.0658  0.2839
 6878TIP3   OH244828   3.221   1.781   2.643 -0.0113  0.1895 -0.7829
 6878TIP3    H144829   3.287   1.711   2.645  0.5540  0.7244  0.4304
 6878TIP3    H244830   3.268   1.858   2.613  0.1467  0.7523  0.7855
 6879TIP3   OH244831   2.775   4.389   0.843 -0.3024  0.0333 -0.4606
 6879TIP3    H144832   2.834   4.435   0.903  0.4044 -0.6412 -0.6172
 6879TIP3    H244833   2.688   4.400   0.881 -0.0566  0.8927 -0.1238
 6880TIP3   OH244834   1.940   4.573   2.635 -0.0625  0.0274  0.1658
 6880TIP3    H144835   1.913   4.644   2.578 -1.5695 -0.0626  0.7201
 6880TIP3    H244836   2.036   4.572   2.629 -0.1353  0.6258 -1.5897
 6881TIP3   OH244837   2.653   5.001   2.111  0.0177 -0.3183 -0.3718
 6881TIP3    H144838   2.606   5.063   2.054  0.6097 -0.6543 -1.2374
 6881TIP3    H244839   2.728   4.973   2.060  2.6293  2.0228  1.8210
 6882TIP3   OH244840   4.209   4.964   3.455  0.1625  0.3731 -0.5511
 6882TIP3    H144841   4.206   4.956   3.550  1.3841 -0.9009 -0.5860
 6882TIP3    H244842   4.127   4.926   3.425  0.5853 -0.9790 -0.0702
 6883TIP3   OH244843   5.758   4.476   2.833 -0.2428 -0.5497  0.1251
 6883TIP3    H144844   5.803   4.545   2.882 -0.6936  1.1385 -1.7265
 6883TIP3    H244845   5.814   4.459   2.758 -1.2242 -0.6177 -0.6051
 6884TIP3   OH244846   2.590   2.587   2.742 -0.7906 -0.4538  0.2565
 6884TIP3    H144847   2.525   2.544   2.686 -0.1566  0.3661 -1.1564
 6884TIP3    H244848   2.580   2.545   2.827 -3.6686  0.1216  0.3068
 6885TIP3   OH244849   3.241   4.757   2.844 -0.5102  0.4197  0.2179
 6885TIP3    H144850   3.208   4.812   2.773 -0.3709  2.4425  1.6317
 6885TIP3    H244851   3.190   4.783   2.921 -0.1831 -1.2000  1.0263
 6886TIP3   OH244852   1.145   4.951   3.575 -0.2919  0.0130  0.5095
 6886TIP3    H144853   1.052   4.933   3.583 -0.3313  0.7728  2.2376
 6886TIP3    H244854   1.187   4.892   3.638  0.3252  0.1697  0.2586
 6887TIP3   OH244855   2.403   6.316   3.260 -0.0250  0.2030 -0.4910
 6887TIP3    H144856   2.412   6.411   3.267  0.7383  0.0355  1.4778
 6887TIP3    H244857   2.484   6.282   3.298 -0.0834 -1.2493 -1.5894
 6888TIP3   OH244858   4.191   1.419   0.635 -0.2169 -0.1634  0.5040
 6888TIP3    H144859   4.278   1.400   0.672  0.4555  1.2206 -0.2851
 6888TIP3    H244860   4.194   1.513   0.615 -2.8247  0.5384  2.8615
 6889TIP3   OH244861   3.473   6.286   1.853 -0.2418  0.4146  0.1380
 6889TIP3    H144862   3.467   6.353   1.785 -0.7554 -0.8973 -1.1339
 6889TIP3    H244863   3.557   6.243   1.837 -0.8500 -0.6037 -0.3338
 6890TIP3   OH244864   6.146   6.078   1.039 -0.0762 -0.1105 -0.4442
 6890TIP3    H144865   6.142   6.143   1.109  2.6471 -0.3145 -0.0036
 6890TIP3    H244866   6.087   6.111   0.971 -1.9375  0.6491  1.4540
 6891TIP3   OH244867   4.408   4.653   1.430  0.8480  0.6827 -0.0954
 6891TIP3    H144868   4.340   4.585   1.429  1.8028 -0.3065 -0.9462
 6891TIP3    H244869   4.368   4.726   1.476 -0.6352 -0.0350 -0.1730
 6892TIP3   OH244870   0.055   3.299   3.374  0.5266 -0.2242  0.0414
 6892TIP3    H144871   0.013   3.245   3.307 -0.5785 -0.9702  1.2889
 6892TIP3    H244872   0.149   3.283   3.362  0.2900 -1.2228 -0.5941
 6893TIP3   OH244873   1.924   5.391   1.813 -0.0724 -0.2397 -0.9629
 6893TIP3    H144874   1.934   5.464   1.752  1.5360  1.1267  0.8198
 6893TIP3    H244875   1.829   5.385   1.828 -0.4238 -0.0749 -2.9087
 6894TIP3   OH244876   2.934   4.507   2.718 -0.0233 -0.1417 -0.5049
 6894TIP3    H144877   3.017   4.532   2.678  0.2630  0.4929  0.4416
 6894TIP3    H244878   2.881   4.474   2.645 -0.0168  2.1752 -1.6780
 6895TIP3   OH244879   6.051   6.170   1.540 -0.1362 -0.4158  0.2481
 6895TIP3    H144880   6.074   6.154   1.631  1.1152  0.8982  0.2055
 6895TIP3    H244881   6.035   6.083   1.504 -0.8428 -0.9450  1.7498
 6896TIP3   OH244882   6.261   3.625   0.747  0.0499  0.6232 -0.0225
 6896TIP3    H144883   6.249   3.533   0.773 -0.0206  0.0780 -1.8293
 6896TIP3    H244884   6.275   3.672   0.829  0.3194 -1.0437  0.9245
 6897TIP3   OH244885   6.494   1.563   0.580  0.3031  0.6123  0.2753
 6897TIP3    H144886   6.451   1.480   0.557  1.7079  0.2139 -1.1697
 6897TIP3    H244887   6.586   1.539   0.591  0.5971  1.8577  0.6820
 6898TIP3   OH244888   6.401   1.299   0.618 -0.4917  0.3430 -0.7591
 6898TIP3    H144889   6.324   1.276   0.565 -1.5825  0.8570  0.5481
 6898TIP3    H244890   6.402   1.236   0.689 -0.0437  0.7003 -0.4373
 6899TIP3   OH244891   3.210   0.610   2.792  0.2233  0.2662 -0.2940
 6899TIP3    H144892   3.272   0.559   2.740  0.3067 -1.4073  1.3287
 6899TIP3    H244893   3.248   0.611   2.880 -1.0803  0.9010  0.2833
 6900TIP3   OH244894   6.616   4.559   1.803 -0.2799  0.0485  0.2733
 6900TIP3    H144895   6.535   4.545   1.852 -0.9352  2.1902 -0.1168
 6900TIP3    H244896   6.602   4.513   1.720 -1.1031  0.4045  0.2097
 6901TIP3   OH244897   1.236   1.711   3.913  0.0189  0.5251  0.1473
 6901TIP3    H144898   1.145   1.709   3.883  0.5689 -0.4988 -1.5950
 6901TIP3    H244899   1.272   1.791   3.877 -0.5581  1.7935  2.1982
 6902TIP3   OH244900   0.353   1.662   1.361 -0.1478  0.0573 -0.0600
 6902TIP3    H144901   0.363   1.654   1.456 -0.2975  0.4684 -0.0054
 6902TIP3    H244902   0.263   1.695   1.350 -0.9798 -2.2035 -0.4545
 6903TIP3   OH244903   6.020   4.270   2.205 -0.1188 -0.1740  0.1520
 6903TIP3    H144904   6.099   4.318   2.229 -1.0076  1.1871  0.4575
 6903TIP3    H244905   5.973   4.329   2.146 -1.2917 -0.6067  0.6280
 6904TIP3   OH244906   4.425   0.414   1.756 -0.3091  0.4595 -0.4463
 6904TIP3    H144907   4.407   0.320   1.745  1.5464  0.0833 -0.6772
 6904TIP3    H244908   4.436   0.425   1.851  0.9099  0.1017 -0.5191
 6905TIP3   OH244909   3.447   0.180   2.569 -0.0478  0.2214 -0.1288
 6905TIP3    H144910   3.528   0.230   2.581  0.8323 -0.8113 -1.3582
 6905TIP3    H244911   3.441   0.125   2.648  0.7253 -0.0284 -0.2316
 6906TIP3   OH244912   3.148   3.689   2.705 -0.2087  0.7425 -0.1922
 6906TIP3    H144913   3.189   3.730   2.781  0.4686  0.5000 -0.4218
 6906TIP3    H244914   3.190   3.604   2.697 -2.3179 -0.4782  0.8779
 6907TIP3   OH244915   5.248   6.347   2.538 -0.3528  0.8225  0.8735
 6907TIP3    H144916   5.181   6.289   2.574 -0.3409 -0.6015 -1.2122
 6907TIP3    H244917   5.330   6.299   2.548 -0.1609  1.0071  0.2580
 6908TIP3   OH244918   4.326   4.818   2.615 -0.0692  0.4811  0.2961
 6908TIP3    H144919   4.340   4.728   2.646  1.4552  0.7266  0.3944
 6908TIP3    H244920   4.369   4.821   2.530 -1.5281  0.6881 -0.4599
 6909TIP3   OH244921   3.894   0.695   0.732  0.0871 -0.3421  0.3857
 6909TIP3    H144922   3.886   0.602   0.752 -0.3508 -0.4567 -0.3009
 6909TIP3    H244923   3.809   0.720   0.697  1.0772 -0.3958 -2.2591
 6910TIP3   OH244924   3.163   6.127   1.797  0.1628 -0.1313  0.1970
 6910TIP3    H144925   3.226   6.187   1.836  1.0289 -1.8720  1.5811
 6910TIP3    H244926   3.199   6.107   1.710  0.6161  0.1928  0.3089
 6911TIP3   OH244927   3.620   2.721   2.795 -0.4077  0.3406 -0.8034
 6911TIP3    H144928   3.702   2.673   2.808 -0.3494  0.6541  0.0393
 6911TIP3    H244929   3.594   2.748   2.883 -2.3785 -1.3490 -0.7776
 6912TIP3   OH244930   4.482   3.026   4.726  0.2724 -0.1042  0.3939
 6912TIP3    H144931   4.570   3.018   4.690 -0.7682 -0.3189 -2.3341
 6912TIP3    H244932   4.446   3.103   4.683 -1.2606 -0.6885  0.5807
 6913TIP3   OH244933   3.888   3.296   3.465  0.0577 -0.3085  0.6926
 6913TIP3    H144934   3.983   3.304   3.477 -0.2146  0.7558  2.4477
 6913TIP3    H244935   3.879   3.238   3.390  2.1001 -1.7968  1.4864
 6914TIP3   OH244936   3.861   3.015   2.795 -0.1217  0.3514 -0.2783
 6914TIP3    H144937   3.914   2.977   2.725  1.8140 -0.8551  1.7309
 6914TIP3    H244938   3.791   3.061   2.749  0.4586 -1.2272 -2.9681
 6915TIP3   OH244939   3.005   5.872   2.414  0.4143 -0.5326 -0.2746
 6915TIP3    H144940   3.036   5.887   2.325  1.2023  0.4644  0.1448
 6915TIP3    H244941   2.934   5.935   2.426  0.8609 -0.0815  0.0630
 6916TIP3   OH244942   3.388   1.909   0.977  0.4302  0.2113 -0.5801
 6916TIP3    H144943   3.394   1.865   1.061  1.2705  1.4705  0.0493
 6916TIP3    H244944   3.308   1.875   0.937 -0.1572 -0.1558  0.8742
 6917TIP3   OH244945   0.537   2.107   2.440 -0.4476 -0.0185  0.3179
 6917TIP3    H144946   0.614   2.159   2.461  1.1208 -2.1458  0.1964
 6917TIP3    H244947   0.538   2.035   2.503 -1.3135 -1.0791 -0.8203
 6918TIP3   OH244948   3.297   2.931   2.994 -0.3472 -0.2126  0.0164
 6918TIP3    H144949   3.292   2.981   2.912  0.0244  0.3024  0.2994
 6918TIP3    H244950   3.247   2.851   2.977  1.8636 -1.3526 -1.5834
 6919TIP3   OH244951   0.066   0.899   1.277  0.1079 -0.0113 -0.1009
 6919TIP3    H144952   0.159   0.909   1.259  0.1755 -0.7669 -0.1899
 6919TIP3    H244953   0.034   0.842   1.208 -0.4539  0.3464 -0.1440
 6920TIP3   OH244954   1.858   0.213   2.208  0.1861  0.0010 -0.1254
 6920TIP3    H144955   1.904   0.135   2.240  1.3012  0.4747 -0.5154
 6920TIP3    H244956   1.771   0.207   2.248  0.8166 -0.5428  1.2517
 6921TIP3   OH244957   4.209   4.349   2.502  0.6951  0.3967 -0.5570
 6921TIP3    H144958   4.189   4.344   2.409  0.6637 -2.0497 -0.4706
 6921TIP3    H244959   4.245   4.263   2.524 -1.0808  0.2000  2.0903
 6922TIP3   OH244960   0.496   3.574   0.572  0.2710  0.3522  0.2635
 6922TIP3    H144961   0.438   3.632   0.621 -0.1502 -0.3382  0.6130
 6922TIP3    H244962   0.462   3.486   0.591  0.8687 -0.0016 -0.2767
 6923TIP3   OH244963   3.088   6.062   2.584  0.1773 -0.1036  0.1496
 6923TIP3    H144964   3.070   5.991   2.522 -1.2075 -0.5396  1.0007
 6923TIP3    H244965   3.138   6.020   2.654  0.9991  0.1943 -0.2549
 6924TIP3   OH244966   6.423   3.314   0.613  0.0525 -0.1370  0.0161
 6924TIP3    H144967   6.342   3.338   0.567 -0.3742 -2.2017 -0.4066
 6924TIP3    H244968   6.404   3.330   0.705  0.0044  1.6018 -0.2743
 6925TIP3   OH244969   4.883   3.685   3.090  0.1112  0.2862 -0.4128
 6925TIP3    H144970   4.954   3.681   3.155 -1.3176  3.1763  1.5292
 6925TIP3    H244971   4.889   3.772   3.053 -1.1415 -0.1819 -1.8086
 6926TIP3   OH244972   0.656   6.287   2.058 -0.0662  0.4469 -0.3217
 6926TIP3    H144973   0.670   6.193   2.057  1.4275  0.6355  0.0207
 6926TIP3    H244974   0.710   6.320   1.986 -2.8633  0.8117 -2.4135
 6927TIP3   OH244975   1.945   6.026   2.123  0.4028  0.0154  0.2983
 6927TIP3    H144976   1.963   6.105   2.072  1.0002 -0.1735  0.2057
 6927TIP3    H244977   1.957   5.954   2.060 -1.5527 -0.0956 -0.0025
 6928TIP3   OH244978   5.376   3.176   2.813 -0.5464 -0.3877  0.2363
 6928TIP3    H144979   5.411   3.114   2.877  0.2391 -0.8905 -0.6503
 6928TIP3    H244980   5.438   3.249   2.815  0.2408 -0.9890 -0.8657
 6929TIP3   OH244981   0.128   0.726   0.733  0.0838 -0.4569 -0.1930
 6929TIP3    H144982   0.157   0.813   0.707  1.2615 -0.4471  1.0687
 6929TIP3    H244983   0.185   0.666   0.685 -1.7267 -0.6393 -2.2762
 6930TIP3   OH244984   3.385   0.354   3.307  0.4352 -0.5619  0.3928
 6930TIP3    H144985   3.337   0.318   3.382  0.3227 -1.6278 -0.1871
 6930TIP3    H244986   3.363   0.298   3.234  1.0344  0.1060 -0.3220
 6931TIP3   OH244987   1.952   2.238   2.974  0.1985 -0.2116 -0.1131
 6931TIP3    H144988   2.001   2.211   2.897 -0.3695  1.3912 -1.0999
 6931TIP3    H244989   1.955   2.334   2.972 -2.1122 -0.0701  0.3356
 6932TIP3   OH244990   4.936   4.999   1.601  0.3500 -0.7956  0.7047
 6932TIP3    H144991   4.893   4.916   1.579 -1.0073  0.0006  0.2257
 6932TIP3    H244992   4.863   5.059   1.620  1.3427 -0.1209  2.5773
 6933TIP3   OH244993   5.477   0.770   1.268  0.1822  0.6766 -0.1753
 6933TIP3    H144994   5.477   0.676   1.286 -2.4781  0.3309 -1.3406
 6933TIP3    H244995   5.544   0.782   1.201 -2.0496 -1.2696 -3.0628
 6934TIP3   OH244996   2.473   1.498   2.916  0.1626 -0.1678 -0.4642
 6934TIP3    H144997   2.435   1.573   2.961  0.2386  1.0353 -2.2862
 6934TIP3    H244998   2.564   1.496   2.944 -0.0632 -0.1616  0.2881
 6935TIP3   OH244999   1.022   3.634   2.973  0.0859  0.0420  0.3195
 6935TIP3    H145000   1.041   3.656   3.064  0.5793  0.3390  0.1466
 6935TIP3    H245001   0.927   3.645   2.965 -0.0179 -0.3817  0.9016
 6936TIP3   OH245002   2.298   3.577   0.689  0.1879 -0.6802 -0.1986
 6936TIP3    H145003   2.376   3.616   0.649  1.7550 -0.8189  2.4780
 6936TIP3    H245004   2.301   3.485   0.660  1.2836 -0.7873  0.1877
 6937TIP3   OH245005   3.239   1.644   1.458 -0.0053  0.1566 -0.8079
 6937TIP3    H145006   3.273   1.589   1.388 -1.0286 -1.3024 -0.2045
 6937TIP3    H245007   3.154   1.607   1.479  1.1038 -0.8510  2.6373
 6938TIP3   OH245008   3.104   2.100   2.143  0.0368  0.4846 -0.2450
 6938TIP3    H145009   3.112   2.010   2.174 -1.9285 -0.4151 -2.1092
 6938TIP3    H245010   3.056   2.145   2.213  1.4492  0.2799  0.9180
 6939TIP3   OH245011   6.257   5.578   2.028  0.3477 -0.4950 -0.2417
 6939TIP3    H145012   6.321   5.510   2.007 -0.4273 -1.1116 -0.6770
 6939TIP3    H245013   6.288   5.656   1.980  1.4711 -0.4071  0.6052
 6940TIP3   OH245014   3.652   3.139   2.222 -0.5748  0.4398  0.1788
 6940TIP3    H145015   3.708   3.205   2.262  1.1238  0.1019 -1.5054
 6940TIP3    H245016   3.630   3.174   2.136  1.3252 -1.5752 -1.2364
 6941TIP3   OH245017   3.206   0.249   0.757 -0.6073  0.0863 -0.0091
 6941TIP3    H145018   3.162   0.240   0.673  0.3603 -0.7001 -0.4540
 6941TIP3    H245019   3.184   0.168   0.804 -0.2986  0.0505  0.0768
 6942TIP3   OH245020   0.918   5.472   1.263  0.0291  0.2651 -0.1273
 6942TIP3    H145021   0.948   5.383   1.248  1.8813  0.8706 -0.2636
 6942TIP3    H245022   0.853   5.487   1.195 -1.2246 -1.3552  0.6446
 6943TIP3   OH245023   4.804   1.635   2.135  0.3135  0.0022 -0.4213
 6943TIP3    H145024   4.876   1.581   2.169  1.0152  0.8326 -0.5269
 6943TIP3    H245025   4.827   1.649   2.043  0.2249  0.5840 -0.3594
 6944TIP3   OH245026   1.017   5.865   2.151 -0.3431 -0.1565 -0.3412
 6944TIP3    H145027   0.954   5.930   2.182 -0.5677 -0.5374  0.0049
 6944TIP3    H245028   0.966   5.784   2.144  0.1001 -0.4575 -0.0972
 6945TIP3   OH245029   5.709   4.942   1.105 -0.5653  0.1960 -0.0765
 6945TIP3    H145030   5.700   4.861   1.055  1.7637 -1.1078  1.4181
 6945TIP3    H245031   5.658   4.928   1.184  0.8145 -0.4072  0.7568
 6946TIP3   OH245032   0.508   4.227   3.865 -0.1530 -0.1152 -0.5216
 6946TIP3    H145033   0.507   4.251   3.773  1.0242  0.6718 -0.3483
 6946TIP3    H245034   0.479   4.305   3.911 -0.0464 -0.2749 -0.1789
 6947TIP3   OH245035   4.843   2.544   3.043  0.1750 -0.3777 -0.1557
 6947TIP3    H145036   4.878   2.631   3.062  1.5342 -1.0951  0.8848
 6947TIP3    H245037   4.905   2.507   2.979  1.2112 -1.5361  1.4348
 6948TIP3   OH245038   2.292   3.808   3.106  0.3292 -0.7304  0.1434
 6948TIP3    H145039   2.250   3.839   3.187 -0.8651  1.9425 -1.3665
 6948TIP3    H245040   2.375   3.770   3.135  1.0103  2.1679  2.4770
 6949TIP3   OH245041   1.154   3.226   3.742 -0.0435  0.0699  0.4168
 6949TIP3    H145042   1.089   3.170   3.698  2.3441 -0.7741 -2.3043
 6949TIP3    H245043   1.225   3.166   3.765  0.5218  1.2460  1.8771
 6950TIP3   OH245044   3.333   0.851   3.065 -0.7386  0.1697 -0.2732
 6950TIP3    H145045   3.348   0.889   2.979 -0.7527 -2.0548 -1.3497
 6950TIP3    H245046   3.276   0.913   3.110 -0.9515  1.2573 -1.9686
 6951TIP3   OH245047   5.970   4.043   0.597 -0.0276  0.5025 -0.0185
 6951TIP3    H145048   5.977   4.134   0.568  0.7507  0.7223  0.8116
 6951TIP3    H245049   6.056   4.006   0.581 -0.5272 -0.2829 -0.9466
 6952TIP3   OH245050   5.780   6.407   0.842  0.8615  0.2889 -0.3145
 6952TIP3    H145051   5.832   6.480   0.811 -1.2578  2.9617  1.9179
 6952TIP3    H245052   5.700   6.410   0.790  1.1482 -1.1127 -0.8780
 6953TIP3   OH245053   0.826   5.079   1.344  0.2689  0.1482 -0.2319
 6953TIP3    H145054   0.845   5.008   1.405  0.9993  1.0384  0.6126
 6953TIP3    H245055   0.825   5.158   1.399 -1.6222  0.6715 -0.9641
 6954TIP3   OH245056   2.591   2.542   1.040 -0.0715 -0.3628 -0.6116
 6954TIP3    H145057   2.580   2.619   1.096  1.0830 -0.2679 -0.5009
 6954TIP3    H245058   2.566   2.468   1.095  0.9004 -0.2565 -0.0151
 6955TIP3   OH245059   2.573   3.977   2.412 -0.2457  0.5750  0.1206
 6955TIP3    H145060   2.571   3.956   2.505  0.4933 -1.7364 -0.3102
 6955TIP3    H245061   2.520   4.056   2.403 -0.6400  0.6180  2.4334
 6956TIP3   OH245062   2.533   0.534   0.615  0.0867 -0.2570 -0.2968
 6956TIP3    H145063   2.554   0.468   0.549  2.1258 -0.2858  0.3210
 6956TIP3    H245064   2.599   0.521   0.683 -1.0182  0.7878  1.0272
 6957TIP3   OH245065   1.829   4.274   4.166 -0.6540 -0.3501  0.8469
 6957TIP3    H145066   1.896   4.245   4.229  0.2631 -1.2318 -0.4762
 6957TIP3    H245067   1.760   4.209   4.174 -0.0868 -1.0400  0.2471
 6958TIP3   OH245068   6.038   3.639   0.608 -0.4316  0.4520 -0.2088
 6958TIP3    H145069   6.031   3.734   0.610 -0.3391  0.4668 -0.5498
 6958TIP3    H245070   6.107   3.618   0.670 -0.7550  0.5757  0.1992
 6959TIP3   OH245071   3.655   4.480   3.766  0.3814 -0.3084 -0.2342
 6959TIP3    H145072   3.577   4.534   3.778  0.7820  0.2107  0.0503
 6959TIP3    H245073   3.727   4.533   3.800  1.0637 -0.1807 -1.7878
 6960TIP3   OH245074   1.646   1.716   3.830  0.2884 -0.2176  0.7584
 6960TIP3    H145075   1.624   1.725   3.923  0.6279 -2.0150  1.0592
 6960TIP3    H245076   1.565   1.689   3.788 -0.2293  1.9489  0.2253
 6961TIP3   OH245077   5.926   4.705   0.887  0.1098  0.3236 -0.4438
 6961TIP3    H145078   5.831   4.706   0.888  0.0900  0.5702 -1.4795
 6961TIP3    H245079   5.951   4.698   0.979 -0.9221 -1.3297 -0.2362
 6962TIP3   OH245080   4.261   1.171   1.336  0.3806 -0.2093  0.1798
 6962TIP3    H145081   4.349   1.145   1.361  0.4618 -1.5358 -1.3091
 6962TIP3    H245082   4.229   1.099   1.282 -1.3608  0.5595  0.1044
 6963TIP3   OH245083   2.919   2.362   2.236  0.0964 -0.1618  0.4602
 6963TIP3    H145084   2.933   2.279   2.282  3.5688 -0.4868 -0.9096
 6963TIP3    H245085   2.975   2.425   2.282  0.2486  0.5424 -0.6432
 6964TIP3   OH245086   1.106   3.824   4.036 -0.4525 -0.2069 -0.0520
 6964TIP3    H145087   1.116   3.849   3.944 -1.3328 -2.4053 -0.8332
 6964TIP3    H245088   1.033   3.761   4.035 -1.1895  0.5161  2.3286
 6965TIP3   OH245089   1.418   4.672   1.780  1.0326  0.3959 -0.3305
 6965TIP3    H145090   1.439   4.627   1.862 -1.0934  0.2360  0.1747
 6965TIP3    H245091   1.413   4.602   1.715  1.8703  0.4257 -0.4418
 6966TIP3   OH245092   6.418   3.566   1.965  0.0364  0.1619  0.2717
 6966TIP3    H145093   6.453   3.508   2.033 -0.4010 -0.5329 -0.0844
 6966TIP3    H245094   6.491   3.580   1.905  0.5940  1.2371  1.1617
 6967TIP3   OH245095   2.023   2.856   1.301  0.2183 -0.2919 -0.1801
 6967TIP3    H145096   2.069   2.920   1.355  1.6224  0.4817 -2.1697
 6967TIP3    H245097   1.930   2.867   1.324  0.5663  1.4617  0.5258
 6968TIP3   OH245098   5.451   3.912   1.023 -0.2283 -0.2445  0.1820
 6968TIP3    H145099   5.377   3.927   0.964 -0.7456 -0.4578  0.7686
 6968TIP3    H245100   5.512   3.859   0.972  0.0198  0.8281 -0.6818
 6969TIP3   OH245101   0.574   3.248   0.831  0.1085 -0.7301  0.9363
 6969TIP3    H145102   0.550   3.316   0.893 -0.3033 -0.7355  0.7850
 6969TIP3    H245103   0.633   3.291   0.769 -0.4623 -0.4130  0.6151
 6970TIP3   OH245104   4.127   4.890   3.713  0.0067  0.1227 -0.1376
 6970TIP3    H145105   4.165   4.951   3.776  0.9270  0.6813 -1.2108
 6970TIP3    H245106   4.049   4.855   3.758  0.6459  0.4788  1.3045
 6971TIP3   OH245107   3.106   1.040   2.817 -0.3033 -0.2056 -0.3827
 6971TIP3    H145108   3.201   1.049   2.806 -0.1509 -0.7725  0.3550
 6971TIP3    H245109   3.083   0.966   2.760 -0.0493 -1.0337  0.5685
 6972TIP3   OH245110   4.383   5.636   1.833 -0.3576 -0.3355 -0.0656
 6972TIP3    H145111   4.303   5.687   1.830 -0.3187 -0.3083 -0.8785
 6972TIP3    H245112   4.449   5.692   1.792 -0.2008 -0.8340 -0.5023
 6973TIP3   OH245113   4.880   4.074   0.691 -0.5281 -0.8631 -0.5052
 6973TIP3    H145114   4.857   4.167   0.691  1.2605 -0.3543  0.7959
 6973TIP3    H245115   4.932   4.062   0.611 -3.1297 -1.4813 -2.2121
 6974TIP3   OH245116   4.420   2.390   1.351  0.3256 -0.2468 -0.0341
 6974TIP3    H145117   4.460   2.419   1.269  0.2067  0.8422  0.2869
 6974TIP3    H245118   4.489   2.403   1.417 -0.0996  0.3735  0.2944
 6975TIP3   OH245119   5.179   2.231   1.903  0.6113 -0.3622  0.2476
 6975TIP3    H145120   5.267   2.244   1.870  0.7858 -1.7570  0.1149
 6975TIP3    H245121   5.123   2.278   1.842  1.2206  0.1747  0.0914
 6976TIP3   OH245122   1.345   3.972   3.888 -0.0434 -0.1230  0.3286
 6976TIP3    H145123   1.301   4.057   3.888 -1.3669 -0.7513  1.6990
 6976TIP3    H245124   1.370   3.958   3.980 -0.3824 -1.4457  0.2445
 6977TIP3   OH245125   2.315   4.205   4.531 -0.0094 -0.2010 -0.6107
 6977TIP3    H145126   2.236   4.153   4.518 -0.0422 -0.6574  1.1779
 6977TIP3    H245127   2.283   4.293   4.553 -0.0790 -0.6147  1.0570
 6978TIP3   OH245128   1.754   3.451   3.720 -0.3947  0.5072 -0.4921
 6978TIP3    H145129   1.788   3.394   3.789 -0.8798  0.3584 -0.3676
 6978TIP3    H245130   1.761   3.398   3.641 -0.0574  0.5912 -0.5217
 6979TIP3   OH245131   5.797   2.522   3.728  0.0921 -0.3181  0.5457
 6979TIP3    H145132   5.890   2.517   3.708  0.2146  1.1687  0.6293
 6979TIP3    H245133   5.754   2.480   3.654  0.8044 -0.5429  0.2521
 6980TIP3   OH245134   0.678   5.808   1.262  0.0552 -0.0021 -0.3609
 6980TIP3    H145135   0.768   5.840   1.253  0.4177 -0.8193  0.2135
 6980TIP3    H245136   0.629   5.884   1.294  0.8075  0.1273  0.5446
 6981TIP3   OH245137   1.471   1.529   1.839  0.0746 -0.0031  0.7912
 6981TIP3    H145138   1.495   1.437   1.849 -0.3786 -0.3193 -0.7252
 6981TIP3    H245139   1.532   1.576   1.895  1.0902 -1.1478  0.6958
 6982TIP3   OH245140   4.907   5.072   0.809 -0.2761  0.1660 -0.0930
 6982TIP3    H145141   4.996   5.108   0.814 -0.4174  0.6298 -0.7547
 6982TIP3    H245142   4.907   5.022   0.727 -0.6245  0.1574 -0.0873
 6983TIP3   OH245143   5.458   0.861   0.410  0.2373  0.0115  0.1705
 6983TIP3    H145144   5.480   0.773   0.379  1.3228  0.2987  0.0905
 6983TIP3    H245145   5.508   0.872   0.490  1.4728  1.1730 -0.7158
 6984TIP3   OH245146   0.963   1.573   3.556  0.0895 -0.6157  0.2694
 6984TIP3    H145147   1.017   1.503   3.592 -2.4534 -2.0703  1.4722
 6984TIP3    H245148   0.879   1.532   3.536 -0.8144  1.6440 -1.0614
 6985TIP3   OH245149   3.525   5.385   2.797 -0.2423 -0.0415  0.5050
 6985TIP3    H145150   3.446   5.380   2.743  0.2372 -2.3290 -0.1076
 6985TIP3    H245151   3.494   5.365   2.885 -1.0530  3.8601  1.2859
 6986TIP3   OH245152   4.936   1.653   3.193  0.2836 -0.0541  0.0366
 6986TIP3    H145153   4.887   1.729   3.225  0.0505 -0.8578  1.7618
 6986TIP3    H245154   4.872   1.581   3.195  0.8730 -0.5933 -0.1310
 6987TIP3   OH245155   4.217   1.250   3.840  0.2968 -0.6504 -0.1207
 6987TIP3    H145156   4.186   1.254   3.930  0.4312 -0.4069 -0.0854
 6987TIP3    H245157   4.170   1.176   3.802 -0.8986  0.1671 -0.2895
 6988TIP3   OH245158   2.891   4.487   1.477 -0.7480  0.1351 -0.1045
 6988TIP3    H145159   2.916   4.407   1.431 -1.2755  0.2919 -0.6788
 6988TIP3    H245160   2.796   4.484   1.481 -0.7056 -0.0385  1.3051
 6989TIP3   OH245161   3.735   2.356   3.276 -0.3247 -0.0508 -0.4935
 6989TIP3    H145162   3.733   2.304   3.195 -0.2446  0.8789 -1.1103
 6989TIP3    H245163   3.658   2.413   3.269  0.3673  0.8976 -0.5079
 6990TIP3   OH245164   6.184   2.817   1.158  0.0042 -0.2406 -0.1501
 6990TIP3    H145165   6.230   2.745   1.200 -0.4345 -0.7462 -0.5153
 6990TIP3    H245166   6.222   2.821   1.070  1.1492  1.0211  0.3566
 6991TIP3   OH245167   0.598   3.979   2.781 -0.3902  0.5431 -0.3268
 6991TIP3    H145168   0.549   4.048   2.827  1.0025  2.8434 -2.0823
 6991TIP3    H245169   0.549   3.964   2.701 -0.9407 -0.9429  0.2537
 6992TIP3   OH245170   5.438   2.517   2.461  0.4644 -0.4957  0.9132
 6992TIP3    H145171   5.497   2.582   2.423  0.6535 -0.3683  1.4122
 6992TIP3    H245172   5.373   2.500   2.393 -0.1090  0.8653  1.0881
 6993TIP3   OH245173   1.754   3.779   0.752  0.1747 -0.5038 -0.2992
 6993TIP3    H145174   1.788   3.692   0.729 -0.3197 -0.6217 -0.6093
 6993TIP3    H245175   1.831   3.836   0.755  0.2157 -0.3487 -2.8036
 6994TIP3   OH245176   0.923   5.104   2.042  0.9208  0.1751 -0.0625
 6994TIP3    H145177   0.874   5.178   2.077  0.6649 -0.8740  1.9720
 6994TIP3    H245178   0.923   5.117   1.947 -1.1153  1.5496  0.0669
 6995TIP3   OH245179   0.727   5.896   1.775 -0.0581 -0.2356 -0.2168
 6995TIP3    H145180   0.764   5.819   1.731 -0.6488 -1.5021  1.4137
 6995TIP3    H245181   0.634   5.875   1.783 -0.4180  1.1283 -0.6657
 6996TIP3   OH245182   5.797   0.586   1.800 -0.1816 -0.0594  0.0969
 6996TIP3    H145183   5.715   0.581   1.751 -0.8983  3.0404  0.7828
 6996TIP3    H245184   5.814   0.679   1.809  1.1059 -0.4839  3.7822
 6997TIP3   OH245185   4.785   6.405   0.796 -0.0994 -0.0616 -0.2905
 6997TIP3    H145186   4.716   6.442   0.850  0.4640  0.1560  0.2958
 6997TIP3    H245187   4.750   6.321   0.766 -0.7265  0.1794 -0.2485
 6998TIP3   OH245188   5.687   1.599   0.462 -0.2725 -0.0907  0.0010
 6998TIP3    H145189   5.606   1.569   0.504  0.1952 -1.2342  0.1166
 6998TIP3    H245190   5.731   1.519   0.435  0.0090  0.5574 -1.6190
 6999TIP3   OH245191   1.574   5.313   3.227  0.6297  0.6293 -0.1192
 6999TIP3    H145192   1.592   5.315   3.133 -2.8631 -0.0875 -0.9437
 6999TIP3    H245193   1.536   5.399   3.245  1.4530  0.8328  0.7216
 7000TIP3   OH245194   5.792   0.225   1.021  0.3439  0.0422  0.2861
 7000TIP3    H145195   5.748   0.304   1.053  0.8889  0.4487  0.0545
 7000TIP3    H245196   5.776   0.225   0.926  0.1413 -0.2601  0.3176
 7001TIP3   OH245197   0.701   5.392   3.023  0.2273  0.1162  0.4135
 7001TIP3    H145198   0.705   5.309   2.977 -0.0487  0.7211 -0.7257
 7001TIP3    H245199   0.788   5.431   3.011  0.1971  0.2209  0.5260
 7002TIP3   OH245200   2.672   2.747   2.451  0.2022 -0.2705 -0.1759
 7002TIP3    H145201   2.588   2.783   2.480 -0.4042 -1.8708  0.1643
 7002TIP3    H245202   2.649   2.661   2.415  1.6437 -0.5238 -0.5197
 7003TIP3   OH245203   2.680   3.079   1.783 -0.1254 -0.1234 -0.1669
 7003TIP3    H145204   2.756   3.034   1.747 -0.9663 -0.7235 -1.2690
 7003TIP3    H245205   2.606   3.024   1.757 -0.7755 -0.8354  2.8592
 7004TIP3   OH245206   4.024   5.867   3.376  0.3222  0.2334  0.3374
 7004TIP3    H145207   3.975   5.786   3.384  3.0325 -1.4684  1.0946
 7004TIP3    H245208   4.023   5.904   3.464  0.0371  0.4491  0.2459
 7005TIP3   OH245209   3.002   6.386   4.102  0.3577  0.3219  0.0112
 7005TIP3    H145210   3.098   6.388   4.101  0.3603  2.8587 -1.4598
 7005TIP3    H245211   2.978   6.335   4.025  0.4744 -0.3238  0.3857
 7006TIP3   OH245212   0.772   0.555   2.875  0.1560 -0.1428  0.0541
 7006TIP3    H145213   0.749   0.479   2.929  1.3326 -1.0689 -0.6858
 7006TIP3    H245214   0.712   0.549   2.800  0.9854 -1.0245 -0.5641
 7007TIP3   OH245215   4.725   0.539   1.948  0.1946  0.2988  0.0031
 7007TIP3    H145216   4.701   0.448   1.935 -1.6142  0.8198 -0.7116
 7007TIP3    H245217   4.695   0.560   2.036  2.9810 -0.4324  1.2288
 7008TIP3   OH245218   0.655   1.857   2.318  0.2339  0.0213  1.0131
 7008TIP3    H145219   0.733   1.902   2.349  0.4960 -0.0335  0.4556
 7008TIP3    H245220   0.582   1.901   2.361  0.5123  0.7389  0.7565
 7009TIP3   OH245221   3.557   5.813   3.744 -0.6296 -0.3118  0.1970
 7009TIP3    H145222   3.531   5.854   3.826 -0.8518 -0.6834  0.3152
 7009TIP3    H245223   3.497   5.739   3.734  0.8063 -1.6210  0.8342
 7010TIP3   OH245224   4.933   0.495   1.183 -0.4974 -0.3930 -0.1098
 7010TIP3    H145225   4.851   0.529   1.148 -0.7134  1.4495  1.9662
 7010TIP3    H245226   4.929   0.401   1.169 -2.1942 -0.1456 -1.5440
 7011TIP3   OH245227   1.458   5.018   2.524 -0.0790  0.3578 -0.4522
 7011TIP3    H145228   1.456   4.925   2.502  2.2606  0.2667 -0.5484
 7011TIP3    H245229   1.380   5.054   2.484 -1.4457 -1.6783  0.2289
 7012TIP3   OH245230   2.988   3.864   2.571  0.0286  0.2072 -0.1386
 7012TIP3    H145231   2.947   3.896   2.652  3.4895 -0.1514  1.9565
 7012TIP3    H245232   3.059   3.806   2.601  1.6295  0.2322 -3.4311
 7013TIP3   OH245233   6.341   2.461   1.033 -0.2839  0.1068 -0.0140
 7013TIP3    H145234   6.251   2.459   1.066 -0.4084 -0.4815 -0.3638
 7013TIP3    H245235   6.396   2.450   1.111 -0.5910 -2.0640 -0.0296
 7014TIP3   OH245236   5.729   3.692   3.807 -0.4748  0.2102 -0.5009
 7014TIP3    H145237   5.763   3.752   3.874 -0.1034 -0.3960 -0.1393
 7014TIP3    H245238   5.790   3.618   3.808 -1.5112 -0.6773 -0.1831
 7015TIP3   OH245239   2.311   5.868   2.297 -0.7255 -0.4302  0.1898
 7015TIP3    H145240   2.274   5.883   2.211  0.0362 -1.3717 -0.3202
 7015TIP3    H245241   2.372   5.941   2.311 -1.4147  0.1395  0.2745
 7016TIP3   OH245242   5.362   2.493   1.549 -0.5845  0.1292 -0.2693
 7016TIP3    H145243   5.387   2.585   1.541  0.2937 -0.1372 -0.8145
 7016TIP3    H245244   5.371   2.458   1.461 -0.8740 -0.4947 -0.0599
 7017TIP3   OH245245   5.898   3.880   1.535 -0.1665 -0.5306 -0.3948
 7017TIP3    H145246   5.922   3.949   1.473 -0.3139  0.2299  0.3748
 7017TIP3    H245247   5.822   3.838   1.496  0.2154 -0.5762 -1.1033
 7018TIP3   OH245248   5.159   6.358   0.935 -0.1947 -0.3654  0.0880
 7018TIP3    H145249   5.145   6.333   1.026 -0.6965 -2.1593 -0.4412
 7018TIP3    H245250   5.092   6.425   0.918 -0.7834 -0.7659  0.7583
 7019TIP3   OH245251   5.209   5.397   1.673  0.0102 -0.2796  0.1835
 7019TIP3    H145252   5.240   5.336   1.606  0.3602 -0.1549  0.2339
 7019TIP3    H245253   5.188   5.477   1.625  0.4449 -0.1246  0.2467
 7020TIP3   OH245254   3.545   2.545   3.829 -0.2997 -0.0327  0.2420
 7020TIP3    H145255   3.465   2.529   3.778  0.6090  0.3546 -1.4036
 7020TIP3    H245256   3.542   2.638   3.850  0.1358  0.2068 -0.6641
 7021TIP3   OH245257   3.822   5.287   2.470  0.1264  0.2059 -0.0737
 7021TIP3    H145258   3.731   5.266   2.449  0.1623 -0.5811  0.4799
 7021TIP3    H245259   3.835   5.248   2.556  1.0631  0.0862 -0.2648
 7022TIP3   OH245260   5.122   2.431   1.278  0.3667 -0.1486  0.6358
 7022TIP3    H145261   5.126   2.527   1.278  3.3896 -0.1810 -0.4704
 7022TIP3    H245262   5.030   2.411   1.260 -0.2085  2.5324  0.1671
 7023TIP3   OH245263   1.957   1.292   2.541 -0.6205  0.3618 -0.1064
 7023TIP3    H145264   1.921   1.380   2.528 -1.6376  0.3680  2.3186
 7023TIP3    H245265   1.968   1.284   2.635  2.4052 -1.0298 -0.4694
 7024TIP3   OH245266   5.733   6.679   1.333  0.5050 -0.3324 -0.0468
 7024TIP3    H145267   5.756   6.655   1.244  0.5084  0.2105 -0.1975
 7024TIP3    H245268   5.641   6.707   1.327  0.0691 -1.6253  0.3802
 7025TIP3   OH245269   3.895   5.132   2.735  0.1912 -0.4044  0.4505
 7025TIP3    H145270   3.810   5.111   2.774 -0.4752  0.2190 -0.6102
 7025TIP3    H245271   3.926   5.050   2.697 -0.6765 -0.3093 -0.4953
 7026TIP3   OH245272   0.461   5.827   1.831  0.3889  0.0582 -0.4377
 7026TIP3    H145273   0.438   5.909   1.876 -1.6858  0.1080 -1.4802
 7026TIP3    H245274   0.445   5.759   1.896 -2.7488  0.1112 -0.9829
 7027TIP3   OH245275   1.782   0.946   3.143  0.1260  0.9077  0.3220
 7027TIP3    H145276   1.822   0.863   3.117 -1.2101  0.3559 -0.0759
 7027TIP3    H245277   1.822   0.967   3.227  1.8907  0.8669 -0.4797
 7028TIP3   OH245278   5.887   6.101   1.997  0.3447  0.4002  0.2877
 7028TIP3    H145279   5.817   6.050   2.038  0.7912  0.2163  0.8235
 7028TIP3    H245280   5.926   6.152   2.068 -0.3588  1.8238 -0.3023
 7029TIP3   OH245281   3.568   1.857   3.655  0.8711  0.4010  0.0809
 7029TIP3    H145282   3.534   1.865   3.744 -0.1505 -1.2302 -0.1185
 7029TIP3    H245283   3.600   1.767   3.650 -0.2000  0.0770 -1.5599
 7030TIP3   OH245284   4.162   1.392   1.183 -0.0142  0.0879  0.2700
 7030TIP3    H145285   4.147   1.347   1.100  1.6184  0.2859 -0.1663
 7030TIP3    H245286   4.186   1.322   1.244 -1.8052 -0.1379  0.7817
 7031TIP3   OH245287   1.928   5.621   1.608  0.5054 -0.4984 -0.2503
 7031TIP3    H145288   1.850   5.597   1.559  1.6128 -2.0175 -1.3788
 7031TIP3    H245289   1.998   5.624   1.542  2.1519 -3.0874  1.1976
 7032TIP3   OH245290   3.405   0.076   3.273 -0.1399 -0.0469  0.0199
 7032TIP3    H145291   3.404  -0.013   3.237 -0.0566  0.8923 -2.4881
 7032TIP3    H245292   3.493   0.109   3.253 -0.4873  0.9335  0.0583
 7033TIP3   OH245293   5.993   0.604   1.229 -0.2382  0.0809  0.4455
 7033TIP3    H145294   6.086   0.585   1.240 -0.1192  1.3350  2.0686
 7033TIP3    H245295   5.953   0.572   1.310 -1.1675 -0.1383 -0.0939
 7034TIP3   OH245296   3.798   5.814   1.786  0.5607 -0.9895  0.3525
 7034TIP3    H145297   3.764   5.852   1.866  1.1982 -0.7870  0.5352
 7034TIP3    H245298   3.842   5.887   1.742 -0.9396 -0.7590 -0.8526
 7035TIP3   OH245299   5.246   4.749   3.380  0.3277 -0.2682  0.2806
 7035TIP3    H145300   5.271   4.800   3.456  0.3765  1.0186 -0.5689
 7035TIP3    H245301   5.154   4.771   3.365  0.1829 -0.8818  0.2553
 7036TIP3   OH245302   0.680   0.227   1.503  0.3070  0.1110  0.3838
 7036TIP3    H145303   0.635   0.297   1.550 -0.2285  0.1782 -0.2157
 7036TIP3    H245304   0.759   0.210   1.555  0.2727  0.9268  0.7152
 7037TIP3   OH245305   5.244   4.431   2.208 -0.2314 -0.5085  0.2049
 7037TIP3    H145306   5.300   4.461   2.280  0.9071 -1.8268 -0.0796
 7037TIP3    H245307   5.228   4.338   2.227  0.3738 -0.9748 -1.3929
 7038TIP3   OH245308   5.006   5.101   9.447  0.0514 -0.1373  0.1940
 7038TIP3    H145309   5.099   5.076   9.443  0.0720  0.0762 -0.9814
 7038TIP3    H245310   4.981   5.083   9.537  1.2237 -0.2574  0.5183
 7039TIP3   OH245311   0.416   0.353   1.584 -0.3994  0.5643  0.1865
 7039TIP3    H145312   0.434   0.298   1.661 -0.5004  1.3380  0.7820
 7039TIP3    H245313   0.335   0.399   1.607 -0.0988  1.2585 -0.1254
 7040TIP3   OH245314   5.881   2.786   3.884 -0.2805 -0.0296 -0.7037
 7040TIP3    H145315   5.800   2.801   3.932  1.2070 -2.1312  2.9136
 7040TIP3    H245316   5.876   2.695   3.856  1.2300 -0.6305  0.7564
 7041TIP3   OH245317   4.223   3.735   3.836  0.4643  0.4771  0.3783
 7041TIP3    H145318   4.145   3.715   3.786 -1.2296 -0.6984  3.2444
 7041TIP3    H245319   4.230   3.831   3.832  0.1121  0.4665 -1.5349
 7042TIP3   OH245320   6.193   0.975   0.994  0.2189  0.1538 -0.6961
 7042TIP3    H145321   6.248   0.919   1.049  0.1980  1.0150  0.2139
 7042TIP3    H245322   6.167   1.047   1.051 -0.8288  0.4153 -1.4797
 7043TIP3   OH245323   6.523   6.607   1.833 -0.0683  0.9654 -0.0955
 7043TIP3    H145324   6.556   6.678   1.778  0.3427  1.2037  0.4480
 7043TIP3    H245325   6.444   6.642   1.874  1.5677  2.1276  2.2728
 7044TIP3   OH245326   4.145   6.443   1.074 -0.0669 -0.1887  0.3918
 7044TIP3    H145327   4.133   6.533   1.044 -1.0104 -0.7447 -1.0217
 7044TIP3    H245328   4.169   6.395   0.995 -2.4253 -1.6749  0.4848
 7045TIP3   OH245329   1.778   5.101   3.179 -0.3615 -0.2902  0.4821
 7045TIP3    H145330   1.797   5.067   3.091  0.0821 -0.1737  0.5336
 7045TIP3    H245331   1.751   5.024   3.229  2.8429 -1.0592  1.2509
 7046TIP3   OH245332   1.612   5.576   2.240  0.2950 -0.0267  0.5617
 7046TIP3    H145333   1.591   5.635   2.313  2.3499 -0.4278  1.5558
 7046TIP3    H245334   1.567   5.613   2.165 -3.0569 -0.3272  2.2273
 7047TIP3   OH245335   1.662   2.093   1.195  0.7676  0.2807  0.4023
 7047TIP3    H145336   1.642   2.000   1.193 -1.3346  0.6869  0.3131
 7047TIP3    H245337   1.732   2.104   1.131 -0.4225 -0.9424 -1.2156
 7048TIP3   OH245338   2.779   2.459   3.437  0.5976  0.1373  0.9859
 7048TIP3    H145339   2.686   2.451   3.413  0.4671  3.0759  0.2098
 7048TIP3    H245340   2.805   2.369   3.459 -2.3256 -0.8389  0.9399
 7049TIP3   OH245341   3.191   6.642   0.450 -1.1139 -0.0632 -0.4326
 7049TIP3    H145342   3.271   6.619   0.498 -0.9715  0.1053 -0.5906
 7049TIP3    H245343   3.185   6.577   0.381 -0.3568  0.7403 -1.2895
 7050TIP3   OH245344   4.182   1.668   3.092 -0.5934 -0.1625 -0.4287
 7050TIP3    H145345   4.233   1.657   3.172 -1.2306 -0.9238 -0.1171
 7050TIP3    H245346   4.147   1.757   3.099  1.3768  0.7031 -1.0698
 7051TIP3   OH245347   1.561   3.460   1.028  0.3001 -0.2372  0.4794
 7051TIP3    H145348   1.532   3.436   0.939 -1.8466  0.0273  1.0379
 7051TIP3    H245349   1.597   3.379   1.064 -0.7380 -0.9155  0.0577
 7052TIP3   OH245350   4.930   0.631   3.117 -0.3144 -0.5308  0.0283
 7052TIP3    H145351   5.010   0.674   3.087  0.3847 -1.3421  0.6856
 7052TIP3    H245352   4.883   0.608   3.037 -0.8699  1.7057 -0.3444
 7053TIP3   OH245353   5.021   6.068   0.895 -0.2041 -0.6085 -0.3696
 7053TIP3    H145354   5.034   6.163   0.897 -0.6774 -0.5517  0.5218
 7053TIP3    H245355   5.036   6.040   0.985 -0.0080 -1.3872 -0.6435
 7054TIP3   OH245356   3.775   3.686   0.581 -0.4213 -0.2479  1.1471
 7054TIP3    H145357   3.727   3.731   0.512  0.3937 -0.7151  0.2416
 7054TIP3    H245358   3.709   3.631   0.624 -0.9356  0.0130  0.7064
 7055TIP3   OH245359   2.816   0.706   0.983  0.1299 -0.6882 -0.3180
 7055TIP3    H145360   2.779   0.631   1.030  1.5015 -1.6990 -0.7822
 7055TIP3    H245361   2.904   0.717   1.021  0.7942 -0.7531 -1.7662
 7056TIP3   OH245362   1.054   2.084   0.574  0.2219  0.1781  0.5529
 7056TIP3    H145363   0.959   2.096   0.575 -0.0667 -0.9871 -2.5158
 7056TIP3    H245364   1.066   1.989   0.583  0.8355 -0.0708 -2.0298
 7057TIP3   OH245365   5.288   3.143   2.507  0.0028 -0.5459 -0.1066
 7057TIP3    H145366   5.303   3.214   2.569  0.7395 -1.0226  0.2707
 7057TIP3    H245367   5.366   3.088   2.513 -0.8203 -1.7455  0.0776
 7058TIP3   OH245368   5.489   3.430   2.791  0.5794  0.0484 -0.7146
 7058TIP3    H145369   5.498   3.503   2.852 -0.6404 -0.2644 -0.1223
 7058TIP3    H245370   5.573   3.426   2.745  0.8251  1.5336 -0.4504
 7059TIP3   OH245371   2.848   3.598   3.825  0.4489 -0.5334 -0.6345
 7059TIP3    H145372   2.799   3.673   3.859  0.5253 -0.1824 -1.2780
 7059TIP3    H245373   2.826   3.526   3.884  1.0758  0.2029  0.5340
 7060TIP3   OH245374   1.902   4.047   0.793  0.2146 -0.0657 -0.3838
 7060TIP3    H145375   1.994   4.028   0.811 -0.5203 -2.6452  1.0244
 7060TIP3    H245376   1.869   4.083   0.875 -0.1520  0.5727 -0.7966
 7061TIP3   OH245377   1.510   2.721   1.503  0.0429 -0.0743  0.5058
 7061TIP3    H145378   1.435   2.669   1.532  0.1863  0.3184  1.6607
 7061TIP3    H245379   1.494   2.808   1.541  0.0862  0.5916 -0.9050
 7062TIP3   OH245380   0.804   2.728   4.153  0.1324  0.2769 -0.0695
 7062TIP3    H145381   0.778   2.742   4.062  0.5284 -0.8017 -0.3693
 7062TIP3    H245382   0.886   2.678   4.147 -0.2974 -0.5842  0.8654
 7063TIP3   OH245383   5.091   3.611   3.258 -0.1359  0.4460  0.3321
 7063TIP3    H145384   5.137   3.536   3.220 -1.2129  0.6549 -1.5043
 7063TIP3    H245385   5.156   3.680   3.260  0.9197 -0.5218  2.1886
 7064TIP3   OH245386   3.034   3.501   3.649  0.5655  0.0141  0.3895
 7064TIP3    H145387   2.962   3.534   3.703 -0.5255 -1.6036 -0.0070
 7064TIP3    H245388   3.030   3.406   3.659  0.7772 -0.3058 -1.9533
 7065TIP3   OH245389   0.225   0.312   3.846 -0.2904 -0.8054 -0.1894
 7065TIP3    H145390   0.213   0.301   3.752  1.0670 -2.3657 -0.2122
 7065TIP3    H245391   0.160   0.253   3.885  1.1832 -2.5397 -0.2274
 7066TIP3   OH245392   5.872   1.865   0.679  0.8327  0.6292 -0.4562
 7066TIP3    H145393   5.895   1.953   0.709 -0.5870  1.0872 -0.6577
 7066TIP3    H245394   5.807   1.880   0.610  1.6614 -0.5307 -1.5219
 7067TIP3   OH245395   4.821   0.932   3.012 -0.0971 -0.0421  0.2360
 7067TIP3    H145396   4.903   0.884   3.002 -1.2188 -1.8912 -0.6262
 7067TIP3    H245397   4.776   0.888   3.084 -1.4632 -0.8155 -1.0412
 7068TIP3   OH245398   3.209   4.874   0.655  0.6125 -0.5836 -0.4557
 7068TIP3    H145399   3.157   4.863   0.734  0.3845  0.4449 -0.4471
 7068TIP3    H245400   3.154   4.838   0.585  1.1108 -2.1607 -0.0765
 7069TIP3   OH245401   0.471   4.167   1.061  0.5851 -0.3779 -0.1893
 7069TIP3    H145402   0.399   4.113   1.027 -0.1641  0.6884 -0.3783
 7069TIP3    H245403   0.428   4.233   1.115  1.5087 -0.2000  0.3530
 7070TIP3   OH245404   6.531   5.191   3.387 -0.0882 -0.4961  0.1448
 7070TIP3    H145405   6.606   5.132   3.396  0.3711 -0.0641 -0.7445
 7070TIP3    H245406   6.481   5.178   3.468  1.8489  0.4932  1.5815
 7071TIP3   OH245407   1.687   4.613   2.196 -0.3553 -0.7016 -0.2527
 7071TIP3    H145408   1.709   4.651   2.111 -1.1279 -0.9471 -0.5696
 7071TIP3    H245409   1.756   4.548   2.211 -0.0883 -0.5003 -0.5911
 7072TIP3   OH245410   0.522   3.949   1.400 -0.5138 -0.0860 -0.1037
 7072TIP3    H145411   0.600   3.963   1.454 -0.1222 -0.0344 -0.6746
 7072TIP3    H245412   0.554   3.956   1.310 -1.3781  1.0462 -0.3383
 7073TIP3   OH245413   3.346   4.224   1.961  0.0628  0.1598  0.2603
 7073TIP3    H145414   3.264   4.265   1.988  0.4178  1.0277  0.0388
 7073TIP3    H245415   3.356   4.150   2.021 -0.5258  0.4633  0.7498
 7074TIP3   OH245416   4.594   0.828   1.288  0.0271  0.2495 -0.2087
 7074TIP3    H145417   4.586   0.843   1.382  1.0403  0.1506 -0.0913
 7074TIP3    H245418   4.653   0.753   1.281 -0.1429  0.1788 -0.9185
 7075TIP3   OH245419   4.790   2.273   2.605  0.1192 -0.1514 -0.1789
 7075TIP3    H145420   4.767   2.198   2.551 -0.1801  0.1557 -0.4861
 7075TIP3    H245421   4.753   2.253   2.691 -0.2772 -0.1942 -0.3575
 7076TIP3   OH245422   5.671   1.049   3.076  0.3642  0.2970 -0.3690
 7076TIP3    H145423   5.681   1.033   3.170 -0.2732  0.2290 -0.3093
 7076TIP3    H245424   5.730   0.987   3.034  0.1006 -0.1780 -0.0363
 7077TIP3   OH245425   6.001   3.089   1.101  0.3174 -0.3497  0.3873
 7077TIP3    H145426   5.965   3.018   1.154 -1.1403  0.8577  1.0934
 7077TIP3    H245427   6.089   3.104   1.136 -0.3725 -0.0274  2.0532
 7078TIP3   OH245428   2.847   0.064   3.933  0.4055  0.2675 -0.1778
 7078TIP3    H145429   2.812  -0.014   3.976  0.0933 -1.2185 -2.9063
 7078TIP3    H245430   2.938   0.068   3.962  0.1077 -0.3716  0.9365
 7079TIP3   OH245431   0.860   0.077   1.048 -0.0914  0.1599  0.3927
 7079TIP3    H145432   0.910  -0.004   1.057 -0.4132 -0.2468 -1.2270
 7079TIP3    H245433   0.798   0.075   1.121 -1.6693 -2.2380 -0.8641
 7080TIP3   OH245434   3.580   4.911   1.901  0.6589  0.3571  0.3651
 7080TIP3    H145435   3.491   4.880   1.920  1.2018 -1.1997  0.4784
 7080TIP3    H245436   3.621   4.920   1.988  0.3580  1.9503  0.3712
 7081TIP3   OH245437   4.304   5.777   3.313  0.4157 -0.4823  0.2958
 7081TIP3    H145438   4.305   5.690   3.271  2.4201 -0.1900 -0.4117
 7081TIP3    H245439   4.220   5.781   3.358 -0.6749 -1.9266 -1.4381
 7082TIP3   OH245440   5.869   2.399   3.422  0.2038  0.3790 -0.5153
 7082TIP3    H145441   5.906   2.373   3.506  1.1668  0.6665 -0.8364
 7082TIP3    H245442   5.945   2.407   3.364 -0.4426  0.1986 -1.4093
 7083TIP3   OH245443   4.242   4.525   1.848 -0.3864 -0.7577 -0.3709
 7083TIP3    H145444   4.157   4.503   1.887 -0.1244  0.2425  0.8030
 7083TIP3    H245445   4.280   4.440   1.825 -0.7525 -1.3659  1.1667
 7084TIP3   OH245446   4.877   1.644   1.882  0.5918  0.0880 -0.1236
 7084TIP3    H145447   4.851   1.556   1.856 -1.7871  1.0578 -1.2787
 7084TIP3    H245448   4.931   1.676   1.810 -1.0206  0.5995 -1.1520
 7085TIP3   OH245449   2.301   1.416   1.102 -0.3249  0.2297  0.0330
 7085TIP3    H145450   2.239   1.488   1.097 -1.9994 -1.2264 -1.6749
 7085TIP3    H245451   2.309   1.397   1.196 -1.2040  1.4884  0.3830
 7086TIP3   OH245452   5.128   6.229   1.198  0.2737  0.5108 -0.7844
 7086TIP3    H145453   5.192   6.231   1.269  0.9510 -1.2897 -1.2711
 7086TIP3    H245454   5.111   6.136   1.185 -0.8501  0.8730 -2.0891
 7087TIP3   OH245455   3.705   3.404   3.027  0.2212  0.2227 -0.1103
 7087TIP3    H145456   3.659   3.479   2.989  2.4047  0.5051 -2.4376
 7087TIP3    H245457   3.744   3.439   3.107 -0.6347  0.9352  0.0179
 7088TIP3   OH245458   0.384   3.268   2.309 -0.1969  0.3342 -0.3440
 7088TIP3    H145459   0.370   3.284   2.216 -3.5509 -1.0484 -0.1902
 7088TIP3    H245460   0.404   3.175   2.315 -0.6524  0.2733  0.3673
 7089TIP3   OH245461   1.366   2.959   4.809 -0.2533  0.3609 -0.1200
 7089TIP3    H145462   1.280   3.002   4.805  0.0838  1.1423  0.6424
 7089TIP3    H245463   1.368   2.902   4.732 -1.0482  1.0923 -0.7077
 7090TIP3   OH245464   0.622   2.113   1.187 -0.0380 -0.2457 -0.2101
 7090TIP3    H145465   0.590   2.200   1.160  1.0442  0.0143 -0.7339
 7090TIP3    H245466   0.548   2.073   1.232 -0.2301  1.3869  1.0259
 7091TIP3   OH245467   4.909   3.772   2.660  0.4327 -0.1757 -0.1247
 7091TIP3    H145468   4.906   3.732   2.747 -4.6362  0.1352  0.1226
 7091TIP3    H245469   4.915   3.697   2.600 -0.1979 -0.6875  0.4388
 7092TIP3   OH245470   5.902   4.851   2.266 -0.3314  0.3317  0.2550
 7092TIP3    H145471   5.958   4.929   2.258  2.1289 -1.1098  2.0678
 7092TIP3    H245472   5.953   4.780   2.228 -1.3683 -0.8787  1.0274
 7093TIP3   OH245473   1.207   4.116   1.566  0.1507  0.0745  0.2790
 7093TIP3    H145474   1.143   4.181   1.593 -1.9743 -2.2095  1.1206
 7093TIP3    H245475   1.163   4.065   1.499  1.7158 -0.5864 -0.2980
 7094TIP3   OH245476   4.921   3.125   1.875  0.0392  0.0928  0.1492
 7094TIP3    H145477   4.964   3.194   1.824  1.6983 -0.0438  1.2814
 7094TIP3    H245478   4.880   3.172   1.948 -2.0138  0.2460 -1.0208
 7095TIP3   OH245479   4.560   6.322   1.190  0.1105  0.1711 -0.2534
 7095TIP3    H145480   4.623   6.264   1.146  1.0950  0.0000  1.3273
 7095TIP3    H245481   4.482   6.268   1.200  0.7599 -0.6582  0.5063
 7096TIP3   OH245482   6.085   6.218   1.256  0.2228 -0.3292 -0.2801
 7096TIP3    H145483   6.004   6.268   1.248  0.1959 -0.2738  0.2926
 7096TIP3    H245484   6.090   6.195   1.348  0.6945 -0.6149 -0.3721
 7097TIP3   OH245485   1.871   6.502   2.823 -0.1938  0.9902  0.3571
 7097TIP3    H145486   1.802   6.559   2.858 -1.0905  0.6265 -0.7563
 7097TIP3    H245487   1.951   6.554   2.832 -0.7448  1.7751  0.8753
 7098TIP3   OH245488   4.432   3.491   3.519 -0.1780  0.0024  0.1245
 7098TIP3    H145489   4.524   3.464   3.515 -0.1964  0.0475 -0.8637
 7098TIP3    H245490   4.416   3.508   3.612  0.3675 -1.5376  0.5312
 7099TIP3   OH245491   4.199   0.524   1.348 -0.0296 -0.0146 -0.0235
 7099TIP3    H145492   4.109   0.554   1.332 -0.3828 -1.3442 -0.7065
 7099TIP3    H245493   4.225   0.568   1.429 -1.4817  0.0077  0.4578
 7100TIP3   OH245494   6.012   3.907   2.947 -0.7920 -0.5821  0.3257
 7100TIP3    H145495   6.015   3.812   2.954  1.6366 -0.5781  0.2398
 7100TIP3    H245496   6.062   3.927   2.868  2.1261  0.8587  2.3654
 7101TIP3   OH245497   1.149   0.260   3.328 -0.5593  0.2765  0.7033
 7101TIP3    H145498   1.067   0.291   3.366 -1.1749 -0.6265  0.1648
 7101TIP3    H245499   1.168   0.179   3.376  1.1736  1.5460  2.2938
 7102TIP3   OH245500   4.409   0.605   0.737  0.3519 -0.2493 -0.1507
 7102TIP3    H145501   4.456   0.641   0.662  0.4158  0.7093  0.3322
 7102TIP3    H245502   4.321   0.590   0.705  0.6349 -0.7865 -0.6914
 7103TIP3   OH245503   4.933   2.804   2.821 -0.0398 -0.2153 -0.0148
 7103TIP3    H145504   4.872   2.805   2.747 -0.2208  1.0957  0.1303
 7103TIP3    H245505   5.019   2.790   2.781 -0.3875 -1.9311 -0.2329
 7104TIP3   OH245506   0.685   1.209   3.240  0.3128 -0.0618 -0.2403
 7104TIP3    H145507   0.670   1.225   3.333 -1.0832 -1.3766 -0.1973
 7104TIP3    H245508   0.696   1.296   3.202  1.8329  0.4591  1.2643
 7105TIP3   OH245509   1.931   5.064   4.001  0.0600 -0.6453  0.5847
 7105TIP3    H145510   1.855   5.061   3.943  1.3908  1.7179 -1.4951
 7105TIP3    H245511   1.902   5.115   4.076 -1.4077 -2.9392  1.7096
 7106TIP3   OH245512   0.706   4.232   2.969 -0.4332 -0.3459  0.2290
 7106TIP3    H145513   0.613   4.250   2.981  0.0050  0.9673  2.1032
 7106TIP3    H245514   0.710   4.140   2.941 -2.2472 -0.6199  0.7783
 7107TIP3   OH245515   3.270   4.596   1.037 -0.5851 -0.1598  0.1547
 7107TIP3    H145516   3.287   4.654   1.111  1.9991  3.7471 -3.0756
 7107TIP3    H245517   3.355   4.557   1.017 -1.2104 -1.0858 -0.8219
 7108TIP3   OH245518   2.847   6.301   2.591 -0.2997  0.3185  0.6948
 7108TIP3    H145519   2.873   6.263   2.675  0.0863 -0.0794  0.4039
 7108TIP3    H245520   2.819   6.390   2.612 -0.0656  0.2711  1.2215
 7109TIP3   OH245521   5.761   3.604   0.677  0.3648  0.2832  0.2279
 7109TIP3    H145522   5.843   3.645   0.649 -0.5646  0.6827 -2.1308
 7109TIP3    H245523   5.769   3.513   0.649 -0.2114  0.4643 -0.5487
 7110TIP3   OH245524   2.794   5.433   1.322 -0.5393 -0.2400  0.2147
 7110TIP3    H145525   2.818   5.505   1.264 -0.8315  0.5384  1.0397
 7110TIP3    H245526   2.847   5.446   1.400 -1.2929 -0.3687  0.7524
 7111TIP3   OH245527   0.561   1.788   0.533 -0.0790 -0.1263  0.2657
 7111TIP3    H145528   0.506   1.711   0.547 -1.0054  0.3811 -0.4966
 7111TIP3    H245529   0.640   1.770   0.584  0.1728 -2.0345 -0.7089
 7112TIP3   OH245530   5.805   2.211   2.960 -0.8785 -0.1493  0.5632
 7112TIP3    H145531   5.884   2.266   2.960 -0.3259 -0.9130 -0.3051
 7112TIP3    H245532   5.742   2.261   3.010  0.3634  0.1718  1.8806
 7113TIP3   OH245533   5.141   4.110   3.358  0.0590  0.0415 -0.5044
 7113TIP3    H145534   5.185   4.091   3.276 -0.6490 -2.5806 -0.3433
 7113TIP3    H245535   5.050   4.124   3.334  0.4215  3.1992 -0.5474
 7114TIP3   OH245536   0.647   3.491   1.303  0.2686 -1.0760 -0.3346
 7114TIP3    H145537   0.641   3.421   1.368 -0.1270  0.2369  1.0902
 7114TIP3    H245538   0.684   3.566   1.350 -0.7084  0.1463 -1.4165
 7115TIP3   OH245539   4.457   3.873   1.480 -0.4371  0.2350  0.2273
 7115TIP3    H145540   4.397   3.800   1.490  0.2395 -0.3394  0.1907
 7115TIP3    H245541   4.461   3.889   1.385  2.0317 -1.9771 -0.1585
 7116TIP3   OH245542   5.688   5.835   2.788  0.2191 -0.2759 -0.2958
 7116TIP3    H145543   5.771   5.811   2.828  0.1195 -3.2225 -1.5964
 7116TIP3    H245544   5.712   5.870   2.702  0.1505 -1.0140 -0.6231
 7117TIP3   OH245545   4.127   2.055   0.926  0.3546 -0.2146 -0.0967
 7117TIP3    H145546   4.205   2.094   0.967  0.7508  1.2764 -2.0918
 7117TIP3    H245547   4.105   2.115   0.854 -1.9598 -1.2196 -0.3198
 7118TIP3   OH245548   4.952   3.465   2.933  0.2286 -0.1999  0.0046
 7118TIP3    H145549   4.933   3.540   2.990  0.0997  0.6236 -1.0798
 7118TIP3    H245550   4.870   3.415   2.930 -1.3728  2.2340 -3.0316
 7119TIP3   OH245551   4.394   0.579   1.141  0.2902 -0.0648 -0.0529
 7119TIP3    H145552   4.323   0.580   1.206  0.8435 -0.9684  0.5877
 7119TIP3    H245553   4.408   0.671   1.120  0.0639  0.2471  1.0867
 7120TIP3   OH245554   6.031   5.578   3.385  0.2262  0.5405  0.0585
 7120TIP3    H145555   5.981   5.517   3.331  1.6685 -0.4218 -0.2641
 7120TIP3    H245556   6.083   5.521   3.442 -1.3458  1.5044  2.6327
 7121TIP3   OH245557   4.241   4.925   2.254 -0.8439  1.0558  0.1109
 7121TIP3    H145558   4.306   4.925   2.324 -0.9471 -0.5242  0.2578
 7121TIP3    H245559   4.291   4.900   2.176 -0.9919  1.3678 -0.0815
 7122TIP3   OH245560   5.079   2.531   2.367 -0.5038 -0.1474  0.5315
 7122TIP3    H145561   5.018   2.549   2.439  1.6205  2.9933  1.7954
 7122TIP3    H245562   5.105   2.618   2.337  0.4529 -1.4024 -2.5530
 7123TIP3   OH245563   0.292   4.832   3.202  0.6808  0.0011 -0.2085
 7123TIP3    H145564   0.202   4.813   3.228  1.0298 -1.6218 -0.0397
 7123TIP3    H245565   0.342   4.831   3.284  0.6760  2.3143 -0.1224
 7124TIP3   OH245566   3.604   5.381   1.788  0.0249  0.2481 -0.3562
 7124TIP3    H145567   3.622   5.465   1.747 -2.1329  1.1573  0.4066
 7124TIP3    H245568   3.540   5.401   1.856  1.4425 -1.6054  1.6793
 7125TIP3   OH245569   4.349   3.039   3.123  0.0886 -0.4132  0.0388
 7125TIP3    H145570   4.360   3.120   3.073 -0.6595  0.0445  0.6026
 7125TIP3    H245571   4.319   2.975   3.058 -1.1518  0.2482 -0.0615
 7126TIP3   OH245572   0.660   4.277   3.560  0.0262  0.1068 -0.0562
 7126TIP3    H145573   0.632   4.356   3.605 -0.2512  1.2061 -2.0336
 7126TIP3    H245574   0.743   4.300   3.519  0.8519 -1.2199  0.7859
 7127TIP3   OH245575   6.463   6.036   1.993 -0.1151  0.2586  1.1310
 7127TIP3    H145576   6.457   5.976   2.067 -0.3284 -0.6603  0.3908
 7127TIP3    H245577   6.556   6.055   1.985  0.1204 -0.9752  0.6230
 7128TIP3   OH245578   0.126   6.593   3.276 -0.6155 -0.2069  0.6046
 7128TIP3    H145579   0.094   6.593   3.366 -1.0060  0.2438  0.4705
 7128TIP3    H245580   0.164   6.681   3.264 -1.2971  0.0197  0.0756
 7129TIP3   OH245581   4.959   2.698   1.302  0.0349  0.0459  0.6753
 7129TIP3    H145582   4.975   2.694   1.396 -1.3904  2.1063  1.0811
 7129TIP3    H245583   4.865   2.688   1.293  0.2925 -1.3967 -0.6714
 7130TIP3   OH245584   3.957   1.051   0.597 -0.6515  0.0342  0.0673
 7130TIP3    H145585   3.894   1.021   0.663  0.0002  0.4543  0.8964
 7130TIP3    H245586   3.921   1.133   0.564 -1.1622 -0.3611 -0.3709
 7131TIP3   OH245587   1.523   5.931   1.773 -0.2067 -0.5451 -0.3488
 7131TIP3    H145588   1.448   5.876   1.751 -0.5295  0.4889 -1.9985
 7131TIP3    H245589   1.596   5.870   1.782 -0.7715 -1.3383 -1.0382
 7132TIP3   OH245590   5.753   6.005   0.688  0.1078  0.0811 -0.5948
 7132TIP3    H145591   5.744   5.913   0.713 -0.1993  0.7166  1.8525
 7132TIP3    H245592   5.667   6.043   0.705  0.3344  0.9050 -1.2282
 7133TIP3   OH245593   0.932   4.940   1.102  0.2761  0.2989 -0.2954
 7133TIP3    H145594   0.951   4.850   1.130 -0.1440  0.0366 -0.8237
 7133TIP3    H245595   0.947   4.993   1.180  1.5688 -0.0910 -0.2578
 7134TIP3   OH245596   0.328   5.261   2.853 -0.0523 -0.4811 -0.7364
 7134TIP3    H145597   0.248   5.275   2.903 -0.6388 -1.8385 -1.2405
 7134TIP3    H245598   0.373   5.191   2.899  1.2159  0.7445 -0.0630
 7135TIP3   OH245599   3.576   4.289   1.075  0.1726  0.2228 -0.0387
 7135TIP3    H145600   3.625   4.238   1.010  0.1287  0.8020 -0.5319
 7135TIP3    H245601   3.541   4.363   1.026 -0.9335 -0.0104  0.3703
 7136TIP3   OH245602   6.366   3.942   2.461 -0.1036  0.1347  0.1524
 7136TIP3    H145603   6.309   3.880   2.507 -0.7079  0.8269  0.3526
 7136TIP3    H245604   6.306   3.997   2.411  0.2970  1.4607  1.0710
 7137TIP3   OH245605   5.596   4.936   1.700  0.7747  0.6907  0.0637
 7137TIP3    H145606   5.598   4.851   1.655 -1.5414  0.5740  0.0385
 7137TIP3    H245607   5.679   4.940   1.747  1.4212 -1.0992 -0.8070
 7138TIP3   OH245608   3.170   2.603   3.244  0.1557 -0.4043  0.1526
 7138TIP3    H145609   3.100   2.634   3.186 -0.2211 -0.2037  0.7100
 7138TIP3    H245610   3.125   2.579   3.325  0.9218  1.4457  1.1741
 7139TIP3   OH245611   2.203   4.222   2.371  0.2824 -0.4235 -0.1652
 7139TIP3    H145612   2.223   4.188   2.283 -0.8262  1.0200 -1.0258
 7139TIP3    H245613   2.253   4.166   2.430 -0.1912 -2.4993 -1.5946
 7140TIP3   OH245614   3.404   5.423   2.023 -0.2060  0.3034  0.8271
 7140TIP3    H145615   3.335   5.362   1.995 -2.1338  2.0331  1.5251
 7140TIP3    H245616   3.357   5.504   2.043  2.1953  1.9559  0.2135
 7141TIP3   OH245617   0.242   2.623   1.618  0.7559 -0.2784  0.0909
 7141TIP3    H145618   0.283   2.646   1.534 -0.9247  0.6548 -0.5264
 7141TIP3    H245619   0.175   2.559   1.595  0.7756 -0.5730  0.8341
 7142TIP3   OH245620   1.899   2.522   3.292  0.2414  0.1896 -0.2660
 7142TIP3    H145621   1.809   2.492   3.304  0.0241  1.2561  1.0793
 7142TIP3    H245622   1.951   2.470   3.352  0.7268 -1.1225 -1.7503
 7143TIP3   OH245623   0.933   5.916   2.506 -0.1210 -0.1994 -0.4499
 7143TIP3    H145624   0.992   5.920   2.581  0.3996 -0.8132 -0.8161
 7143TIP3    H245625   0.914   6.007   2.486 -0.4996 -0.0341  0.6055
 7144TIP3   OH245626   0.626   2.461   1.689  0.1482  0.5407  0.4877
 7144TIP3    H145627   0.543   2.415   1.674  0.1906  0.6627 -0.1893
 7144TIP3    H245628   0.692   2.409   1.644  0.1623  1.3461 -0.4758
 7145TIP3   OH245629   2.324   4.695   4.388  0.7095 -0.0534  0.2106
 7145TIP3    H145630   2.337   4.787   4.409  0.0152  0.6428 -2.0685
 7145TIP3    H245631   2.347   4.688   4.295 -0.8433 -1.8084 -0.1102
 7146TIP3   OH245632   0.609   2.540   4.219 -0.0328 -0.4216 -0.0370
 7146TIP3    H145633   0.668   2.465   4.226  1.0135  0.3710 -0.1189
 7146TIP3    H245634   0.666   2.614   4.196 -0.9796  0.4811  0.4164
 7147TIP3   OH245635   4.327   2.139   2.695  0.1786 -0.3845 -0.3920
 7147TIP3    H145636   4.325   2.155   2.790  1.0659 -1.5619 -0.1464
 7147TIP3    H245637   4.370   2.216   2.659 -1.5743  0.7998 -0.0347
 7148TIP3   OH245638   2.448   5.161   1.996 -0.9619  0.3695  0.1674
 7148TIP3    H145639   2.421   5.248   2.026 -0.1504  0.9136 -0.6411
 7148TIP3    H245640   2.483   5.175   1.908 -0.5529 -0.7381  0.1305
 7149TIP3   OH245641   2.049   2.731   2.867 -0.1413  0.7711  0.1185
 7149TIP3    H145642   2.026   2.662   2.929 -0.7577  0.4576 -0.4451
 7149TIP3    H245643   2.134   2.705   2.831  0.2525  0.9915  0.8687
 7150TIP3   OH245644   3.954   1.501   2.769  0.6654  0.4056  0.3330
 7150TIP3    H145645   3.913   1.579   2.808 -0.7374 -0.1230 -0.0320
 7150TIP3    H245646   3.929   1.429   2.827  0.6368 -0.0073 -0.1862
 7151TIP3   OH245647   1.730   3.090   1.933 -0.0648 -0.1153 -0.1247
 7151TIP3    H145648   1.772   3.006   1.952 -3.3435 -2.1412 -0.9845
 7151TIP3    H245649   1.638   3.076   1.956 -0.7412  3.2687 -0.3514
 7152TIP3   OH245650   5.725   1.236   1.123  0.1364  0.3496  0.3247
 7152TIP3    H145651   5.811   1.197   1.142 -1.0567 -2.6115  0.2183
 7152TIP3    H245652   5.711   1.217   1.030 -0.5618  0.9798  0.2981
 7153TIP3   OH245653   6.140   5.807   2.665  0.4798  0.5367  0.2995
 7153TIP3    H145654   6.182   5.786   2.582 -0.2154 -1.9966  0.5147
 7153TIP3    H245655   6.139   5.724   2.713 -2.1276  1.1644  1.4860
 7154TIP3   OH245656   4.747   6.330   2.183 -0.3917 -0.5295 -0.0437
 7154TIP3    H145657   4.829   6.377   2.200  0.2044 -0.8168 -1.8985
 7154TIP3    H245658   4.710   6.374   2.107 -1.7740 -0.6884  0.5066
 7155TIP3   OH245659   1.288   3.773   5.092 -0.3333  0.1029 -0.0672
 7155TIP3    H145660   1.221   3.794   5.157 -0.7262  0.7677 -0.6534
 7155TIP3    H245661   1.242   3.720   5.027 -0.1574  0.1085 -0.1977
 7156TIP3   OH245662   1.975   2.472   2.087  0.3243 -0.2864 -0.1535
 7156TIP3    H145663   1.908   2.407   2.066  0.0329 -0.0275 -0.0399
 7156TIP3    H245664   1.947   2.508   2.171  0.2541  0.2817 -0.4161
 7157TIP3   OH245665   6.122   2.637   2.130  0.3452  0.8432 -0.7730
 7157TIP3    H145666   6.138   2.679   2.045 -0.5634  2.0205 -0.3902
 7157TIP3    H245667   6.194   2.666   2.185 -0.4204  2.1968 -0.4318
 7158TIP3   OH245668   2.063   4.759   1.452  0.2385  0.4533 -0.0970
 7158TIP3    H145669   2.001   4.832   1.455  0.4501  0.6595 -0.6005
 7158TIP3    H245670   2.059   4.720   1.539 -1.8969 -0.6312 -0.6256
 7159TIP3   OH245671   4.451   6.002   3.195  0.3645  0.4356 -0.0775
 7159TIP3    H145672   4.401   5.921   3.204 -0.1168  0.7531  0.1416
 7159TIP3    H245673   4.401   6.067   3.246  0.6393  0.9142 -0.4117
 7160TIP3   OH245674   1.806   6.388   1.451 -0.6191 -0.4024  0.7877
 7160TIP3    H145675   1.823   6.298   1.424 -1.4375 -0.4600  0.4500
 7160TIP3    H245676   1.850   6.442   1.385 -3.4076 -0.5208 -1.3455
 7161TIP3   OH245677   0.405   1.373   2.948  0.2949 -0.0101 -0.4239
 7161TIP3    H145678   0.492   1.352   2.980 -0.1437  1.2496  1.7780
 7161TIP3    H245679   0.417   1.450   2.893  0.6578 -0.3973 -0.9020
 7162TIP3   OH245680   4.874   1.376   1.967 -0.9053 -0.0862 -0.3584
 7162TIP3    H145681   4.937   1.425   2.020  0.3359 -1.2974 -0.6546
 7162TIP3    H245682   4.817   1.334   2.030 -0.9974  0.4692 -0.0632
 7163TIP3   OH245683   4.138   3.572   0.955  0.3006 -0.5339  0.3382
 7163TIP3    H145684   4.223   3.612   0.973 -0.5045  0.2337  2.9366
 7163TIP3    H245685   4.090   3.639   0.905  0.5949 -0.2108  0.4863
 7164TIP3   OH245686   2.360   0.904   2.070  0.3743 -0.4685  0.2717
 7164TIP3    H145687   2.300   0.926   2.140 -1.3614  1.3300 -1.6404
 7164TIP3    H245688   2.319   0.828   2.027 -0.6374  0.7618 -1.0356
 7165TIP3   OH245689   5.170   6.139   2.082 -0.3266 -0.0955  0.6450
 7165TIP3    H145690   5.084   6.165   2.115 -0.5482 -1.7505  1.4712
 7165TIP3    H245691   5.201   6.074   2.145  1.7569  0.7910  0.6189
 7166TIP3   OH245692   2.251   1.061   1.248  0.1518 -0.4961  0.5297
 7166TIP3    H145693   2.175   1.110   1.218  0.3359 -0.1166  0.6729
 7166TIP3    H245694   2.315   1.071   1.177  0.9563  1.2396  1.4246
 7167TIP3   OH245695   4.684   4.595   3.186 -0.1198  0.4819 -0.1269
 7167TIP3    H145696   4.676   4.656   3.112  1.1270 -1.1813 -1.7101
 7167TIP3    H245697   4.595   4.561   3.198 -0.2164  0.2399 -1.3541
 7168TIP3   OH245698   3.179   2.282   1.956  0.1883  0.5706 -0.4272
 7168TIP3    H145699   3.115   2.217   1.987 -0.2737  0.0733 -2.2861
 7168TIP3    H245700   3.248   2.280   2.022 -0.4322 -0.8800  0.2452
 7169TIP3   OH245701   3.593   5.702   3.203  0.6584  0.6823  0.4974
 7169TIP3    H145702   3.650   5.668   3.134  0.2598  0.4425  0.2802
 7169TIP3    H245703   3.532   5.759   3.157 -0.1432 -0.1296  0.5148
 7170TIP3   OH245704   0.166   4.187   3.905 -0.3879  0.2506 -0.0086
 7170TIP3    H145705   0.092   4.136   3.871 -0.3542 -0.3124  0.7174
 7170TIP3    H245706   0.229   4.187   3.834 -1.7588  2.2578 -1.3229
 7171TIP3   OH245707   0.389   1.508   2.047  0.8672 -0.3259  0.1915
 7171TIP3    H145708   0.349   1.595   2.037 -0.8798 -1.2245 -1.1637
 7171TIP3    H245709   0.368   1.482   2.136 -2.0196 -0.9017 -0.5656
 7172TIP3   OH245710   1.969   2.091   1.784 -0.2772  0.1474 -0.5289
 7172TIP3    H145711   1.881   2.103   1.748 -1.1064 -0.6197  1.1009
 7172TIP3    H245712   2.002   2.180   1.795 -0.7260  0.4376 -1.4560
 7173TIP3   OH245713   0.678   3.127   2.140  0.5242 -0.0722  0.3553
 7173TIP3    H145714   0.632   3.135   2.056  0.8467  0.1045  0.1956
 7173TIP3    H245715   0.710   3.215   2.159 -1.3215  0.3849  1.6861
 7174TIP3   OH245716   3.558   2.238   1.657  0.0520  0.0207  0.4884
 7174TIP3    H145717   3.569   2.332   1.643 -0.3858 -0.1764 -1.4792
 7174TIP3    H245718   3.636   2.198   1.619  0.3457 -0.4179  1.5201
 7175TIP3   OH245719   3.634   1.829   0.611 -0.2417  0.1825 -0.1852
 7175TIP3    H145720   3.622   1.920   0.582  2.8061  0.8477  0.3030
 7175TIP3    H245721   3.647   1.836   0.705 -0.5074 -0.8522 -0.0623
 7176TIP3   OH245722   5.578   2.412   0.889 -0.4393 -0.4683 -0.1960
 7176TIP3    H145723   5.512   2.363   0.938 -0.1457 -0.2677  0.4199
 7176TIP3    H245724   5.563   2.503   0.914 -0.6843 -0.2923 -0.9752
 7177TIP3   OH245725   4.132   3.086   1.927 -0.1803  0.0382  0.3035
 7177TIP3    H145726   4.187   3.134   1.865  1.2913 -1.4361  0.4018
 7177TIP3    H245727   4.075   3.033   1.872 -0.8505  0.8197  0.2168
 7178TIP3   OH245728   3.786   2.950   0.894 -0.4062 -0.4077  0.2117
 7178TIP3    H145729   3.695   2.971   0.874 -0.3393 -0.2573  0.0653
 7178TIP3    H245730   3.795   2.969   0.987 -0.2080  0.7133 -0.0278
 7179TIP3   OH245731   2.582   0.802   0.638  0.4857 -0.0280  0.5420
 7179TIP3    H145732   2.674   0.779   0.626  0.2961 -0.9683  0.8370
 7179TIP3    H245733   2.536   0.718   0.639 -0.4390  0.4540 -0.1247
 7180TIP3   OH245734   3.064   4.701   0.859 -0.6202  0.5533  0.1227
 7180TIP3    H145735   3.122   4.666   0.926 -1.2514 -0.4971  0.1368
 7180TIP3    H245736   2.982   4.654   0.870 -1.2597  1.5237 -0.3481
 7181TIP3   OH245737   2.115   0.326   2.465 -0.7167  0.0958 -0.3290
 7181TIP3    H145738   2.138   0.369   2.383  0.2916  0.4419  0.1130
 7181TIP3    H245739   2.064   0.392   2.513  0.4281  0.6544  0.1536
 7182TIP3   OH245740   3.275   5.995   0.795  0.1206  0.0764  0.2156
 7182TIP3    H145741   3.281   5.900   0.803  0.1712  0.2178  2.9120
 7182TIP3    H245742   3.341   6.018   0.729  0.7321 -1.6690  0.1668
 7183TIP3   OH245743   2.593   3.617   4.828  0.4510  0.3118 -0.2057
 7183TIP3    H145744   2.681   3.580   4.823  0.7927  1.1985 -1.2507
 7183TIP3    H245745   2.588   3.676   4.752 -1.3184 -0.3251 -0.6278
 7184TIP3   OH245746   0.436   5.037   3.647  0.1019  0.0879 -0.3126
 7184TIP3    H145747   0.350   5.055   3.684 -0.0727 -0.3055 -0.5176
 7184TIP3    H245748   0.497   5.083   3.704 -0.4057  2.6041 -1.6350
 7185TIP3   OH245749   5.512   1.171   0.710 -0.1420  0.0452 -0.1961
 7185TIP3    H145750   5.550   1.243   0.761 -2.3078 -0.5102  2.4015
 7185TIP3    H245751   5.474   1.213   0.633 -2.2459  1.9488  1.7545
 7186TIP3   OH245752   0.517   2.769   0.967  0.3049 -0.1240 -1.0917
 7186TIP3    H145753   0.537   2.844   0.911 -0.3648 -0.3952 -1.7053
 7186TIP3    H245754   0.578   2.701   0.939  1.4989  0.4283  0.0368
 7187TIP3   OH245755   2.954   2.156   3.159  0.0607 -0.0481  0.4415
 7187TIP3    H145756   2.862   2.155   3.186 -0.1993  2.0156 -0.2284
 7187TIP3    H245757   2.990   2.075   3.195 -1.9204 -0.7326  1.0194
 7188TIP3   OH245758   4.560   1.793   2.763 -0.3026  0.0737 -0.0993
 7188TIP3    H145759   4.511   1.801   2.680 -0.8904 -0.1665  0.2147
 7188TIP3    H245760   4.494   1.809   2.830  0.6435  2.7561  0.3163
 7189TIP3   OH245761   5.779   5.003   0.785 -0.5439 -0.0722  0.2094
 7189TIP3    H145762   5.783   4.907   0.775  0.6299  0.1861 -3.3465
 7189TIP3    H245763   5.868   5.032   0.765 -1.0693  1.8226  0.4818
 7190TIP3   OH245764   6.111   6.650   1.496 -0.0909 -0.0359 -0.9000
 7190TIP3    H145765   6.068   6.734   1.513  0.4482 -0.1787  1.4614
 7190TIP3    H245766   6.040   6.587   1.487 -0.4511  0.3772 -0.9794
 7191TIP3   OH245767   1.214   4.100   2.516 -0.0854  0.1032 -0.0982
 7191TIP3    H145768   1.273   4.175   2.508  1.2505 -1.0918 -2.6115
 7191TIP3    H245769   1.188   4.081   2.426  0.8425 -3.3491  0.2563
 7192TIP3   OH245770   0.098   3.925   1.703  0.2308  0.6128  0.0762
 7192TIP3    H145771   0.146   3.859   1.653 -0.5496  0.2225 -0.1722
 7192TIP3    H245772   0.008   3.917   1.673  0.0934  1.6811  0.1748
 7193TIP3   OH245773   5.601   0.537   1.312  0.2921 -0.0767  0.4456
 7193TIP3    H145774   5.578   0.444   1.315  3.5578 -1.0731 -1.5375
 7193TIP3    H245775   5.654   0.551   1.390 -1.1030  0.4686  1.3312
 7194TIP3   OH245776   5.343   0.122   1.699 -0.5574  0.3241 -0.0010
 7194TIP3    H145777   5.296   0.196   1.661  0.6711  0.4032 -1.4741
 7194TIP3    H245778   5.320   0.123   1.792 -0.9291  2.2660 -0.0838
 7195TIP3   OH245779   4.005   2.959   0.739  0.4682 -0.6670  0.2402
 7195TIP3    H145780   3.942   2.979   0.809  0.6929  0.9296  0.0273
 7195TIP3    H245781   3.955   2.968   0.658  0.6978 -0.4831  0.1173
 7196TIP3   OH245782   1.484   0.961   2.528  0.2530  0.4869 -0.3346
 7196TIP3    H145783   1.419   0.998   2.469 -1.5227 -0.6006  0.8608
 7196TIP3    H245784   1.553   0.929   2.470 -0.3340  1.4978 -1.6465
 7197TIP3   OH245785   3.497   2.788   3.114  0.1742 -0.2753 -0.4600
 7197TIP3    H145786   3.578   2.838   3.124  0.0482 -0.1911  0.1676
 7197TIP3    H245787   3.428   2.854   3.106  0.1521 -0.3468 -0.8815
 7198TIP3   OH245788   3.432   1.510   2.140  0.3686 -0.1655 -0.3277
 7198TIP3    H145789   3.497   1.519   2.210  0.7553 -0.9059 -0.5844
 7198TIP3    H245790   3.427   1.597   2.101 -0.4968  0.4867  1.1776
 7199TIP3   OH245791   4.982   1.272   3.026  0.0917 -0.7706  0.5169
 7199TIP3    H145792   5.021   1.352   3.061  1.1194 -0.6562 -0.7991
 7199TIP3    H245793   4.889   1.293   3.016  0.4379  0.4509 -0.3008
 7200TIP3   OH245794   5.395   2.853   1.559 -0.2432  0.4477  0.3692
 7200TIP3    H145795   5.318   2.826   1.608 -0.7827  0.7940 -0.2703
 7200TIP3    H245796   5.433   2.924   1.612  0.9715 -1.2358  1.8577
 7201TIP3   OH245797   5.518   4.154   3.472 -0.7069 -0.0150  0.0247
 7201TIP3    H145798   5.574   4.185   3.400 -0.7314 -0.0396 -0.0052
 7201TIP3    H245799   5.580   4.125   3.539 -0.6764 -0.9029 -0.3750
 7202TIP3   OH245800   0.340   4.105   4.209 -0.4239  0.1248 -0.1588
 7202TIP3    H145801   0.347   4.200   4.204  1.3792  0.2521  2.9889
 7202TIP3    H245802   0.257   4.089   4.254  0.6376  0.3757  1.9569
 7203TIP3   OH245803   5.038   4.234   1.027  0.6420  0.2101  0.6098
 7203TIP3    H145804   5.064   4.264   1.114  1.1031 -1.4812  1.0927
 7203TIP3    H245805   5.081   4.295   0.967  1.4084  0.6017  1.5365
 7204TIP3   OH245806   3.379   3.302   1.090  0.1394  0.9652  0.3780
 7204TIP3    H145807   3.342   3.236   1.149  0.9195 -0.7020 -0.8989
 7204TIP3    H245808   3.308   3.363   1.074 -0.9803 -0.2022  0.7215
 7205TIP3   OH245809   0.431   2.418   2.635 -0.0152  0.0077  0.0438
 7205TIP3    H145810   0.371   2.351   2.667 -1.1189  0.1732 -1.5445
 7205TIP3    H245811   0.411   2.425   2.542  2.5534  0.0469 -0.5589
 7206TIP3   OH245812   0.752   4.193   1.332  0.6164  0.2722  0.1253
 7206TIP3    H145813   0.670   4.227   1.366  0.6768 -0.3656  0.9396
 7206TIP3    H245814   0.726   4.124   1.271  0.5404  0.0329  0.4248
 7207TIP3   OH245815   4.236   4.063   3.428  0.8762  0.9499  0.0664
 7207TIP3    H145816   4.234   4.159   3.431  0.9730  0.9724 -0.5687
 7207TIP3    H245817   4.163   4.036   3.484  1.9128  1.3638  1.7124
 7208TIP3   OH245818   2.145   1.465   2.374  0.2378  0.5897  0.9601
 7208TIP3    H145819   2.120   1.418   2.454  0.2615  0.3307  0.8180
 7208TIP3    H245820   2.083   1.435   2.308  2.7971 -2.6582 -0.2766
 7209TIP3   OH245821   4.989   5.364   1.815  0.0355 -0.1642  0.2407
 7209TIP3    H145822   5.062   5.375   1.754 -0.2291  2.7946  0.2992
 7209TIP3    H245823   4.941   5.288   1.782  0.6448  0.5379 -2.5025
 7210TIP3   OH245824   5.043   3.383   2.687 -0.0962  0.0853  0.0737
 7210TIP3    H145825   5.009   3.416   2.771  0.4025  0.8963 -0.0388
 7210TIP3    H245826   4.998   3.299   2.675 -0.2974  0.0358  1.0735
 7211TIP3   OH245827   4.489   6.302   2.382 -0.3673  0.6628  0.4061
 7211TIP3    H145828   4.550   6.362   2.339  1.6459 -0.8453  0.9698
 7211TIP3    H245829   4.465   6.239   2.314 -1.9152  1.6484  0.0001
 7212TIP3   OH245830   5.683   4.691   1.668  0.0915 -0.4366 -0.4776
 7212TIP3    H145831   5.626   4.615   1.678 -1.8773  0.9314 -0.8401
 7212TIP3    H245832   5.771   4.654   1.659 -0.8714 -2.6918 -1.2043
 7213TIP3   OH245833   2.848   0.631   2.064  0.0818 -0.3311  0.1796
 7213TIP3    H145834   2.763   0.663   2.031 -0.8400 -3.8304 -1.2478
 7213TIP3    H245835   2.827   0.588   2.146  0.6546 -0.3487  0.3200
 7214TIP3   OH245836   4.052   3.963   1.939  0.2555  0.0818 -0.0712
 7214TIP3    H145837   4.104   3.948   1.860 -0.3132 -0.4469 -0.3521
 7214TIP3    H245838   3.992   4.034   1.915 -0.7076 -0.8480 -0.5169
 7215TIP3   OH245839   2.505   5.478   2.638  0.5042 -0.2053 -0.3002
 7215TIP3    H145840   2.521   5.420   2.713 -2.7183 -1.0869 -0.1129
 7215TIP3    H245841   2.425   5.444   2.599 -0.0621  2.5717 -1.8174
 7216TIP3   OH245842   5.311   5.254   2.262 -0.0843 -0.0288 -0.5120
 7216TIP3    H145843   5.281   5.176   2.215 -3.5019  0.6815  0.1894
 7216TIP3    H245844   5.405   5.239   2.276 -0.5876 -4.1356 -0.1882
 7217TIP3   OH245845   6.490   5.017   1.104  0.1782  0.3793  0.5913
 7217TIP3    H145846   6.506   4.930   1.068  1.4324  0.8424 -0.0323
 7217TIP3    H245847   6.397   5.018   1.126 -0.2459 -0.5116 -1.0467
 7218TIP3   OH245848   2.911   6.206   1.816  0.3048 -0.0256 -0.3037
 7218TIP3    H145849   2.884   6.211   1.908  0.7602 -0.1497 -0.1624
 7218TIP3    H245850   3.002   6.178   1.819  1.3323  2.9499 -0.6863
 7219TIP3   OH245851   1.374   3.739   4.042 -0.0175  0.1807  0.6157
 7219TIP3    H145852   1.386   3.660   3.990  3.2961  0.0725  1.2724
 7219TIP3    H245853   1.283   3.765   4.028 -0.4799 -2.2928 -1.6313
 7220TIP3   OH245854   1.844   0.297   2.786 -0.1956 -0.2201 -0.1011
 7220TIP3    H145855   1.904   0.225   2.763 -0.0408  0.5314 -2.3116
 7220TIP3    H245856   1.890   0.345   2.856  0.7213 -0.9828 -0.1597
 7221TIP3   OH245857   1.378   1.506   2.731  0.5671 -0.5094  0.0303
 7221TIP3    H145858   1.353   1.554   2.652  0.1919 -0.9918 -0.1495
 7221TIP3    H245859   1.426   1.430   2.699  1.3018 -0.1812  0.3248
 7222TIP3   OH245860   4.480   2.216   1.796  0.2324 -0.7238 -0.2457
 7222TIP3    H145861   4.432   2.220   1.713 -2.6465  1.2025  1.3324
 7222TIP3    H245862   4.457   2.131   1.833 -2.3350  0.2189  0.5489
 7223TIP3   OH245863   0.543   0.907   2.740 -1.2427  0.1988  0.5200
 7223TIP3    H145864   0.500   0.989   2.763 -0.8378  0.2879  0.9724
 7223TIP3    H245865   0.636   0.925   2.749 -1.1798 -0.5675  1.4912
 7224TIP3   OH245866   5.843   1.026   2.627 -0.0113  0.2230 -0.2318
 7224TIP3    H145867   5.890   0.943   2.628 -1.4211 -0.6166 -0.5287
 7224TIP3    H245868   5.908   1.090   2.598  1.1044 -0.7667  0.0090
 7225TIP3   OH245869   5.445   6.594   1.569 -0.1820 -0.1227 -0.0183
 7225TIP3    H145870   5.428   6.674   1.617  0.1801 -0.5353  0.8246
 7225TIP3    H245871   5.538   6.575   1.586 -0.1109 -0.4145 -0.6746
 7226TIP3   OH245872   0.760   4.982   1.727 -0.5104 -0.0677  0.2113
 7226TIP3    H145873   0.725   4.893   1.730  0.3598 -0.4411 -0.4040
 7226TIP3    H245874   0.845   4.973   1.685  0.5056  0.7820  1.9728
 7227TIP3   OH245875   2.912   1.027   1.036 -0.1141  0.2980 -0.0550
 7227TIP3    H145876   2.918   0.952   1.094  1.3789 -0.3075 -0.9245
 7227TIP3    H245877   2.882   1.099   1.091 -0.1352 -0.5951  1.1201
 7228TIP3   OH245878   5.041   3.630   2.025  0.0309 -0.4154 -0.5834
 7228TIP3    H145879   5.098   3.568   2.071 -1.1122 -1.4403 -0.4722
 7228TIP3    H245880   5.039   3.598   1.935 -0.1384 -0.2211 -0.6485
 7229TIP3   OH245881   4.229   5.383   0.807  0.0373  0.1313 -0.2665
 7229TIP3    H145882   4.214   5.476   0.793 -0.1782  0.1318 -0.0578
 7229TIP3    H245883   4.322   5.376   0.830 -0.1839  0.4301  0.7850
 7230TIP3   OH245884   1.507   1.160   1.069 -0.1691 -0.6279 -0.3086
 7230TIP3    H145885   1.509   1.089   1.006  0.4639 -0.1760 -0.8164
 7230TIP3    H245886   1.415   1.183   1.078 -0.2606 -0.6770 -1.0931
 7231TIP3   OH245887   2.736   3.824   2.254 -0.1174 -0.0551 -0.0029
 7231TIP3    H145888   2.687   3.886   2.307  1.0867 -0.9413  2.3134
 7231TIP3    H245889   2.701   3.738   2.279  1.1527 -0.5557  0.1263
 7232TIP3   OH245890   2.061   4.728   3.456  0.6617  0.0385  0.0026
 7232TIP3    H145891   2.014   4.786   3.515  0.1425  0.1160 -0.4729
 7232TIP3    H245892   2.131   4.782   3.419  0.8115  0.0676  0.3316
 7233TIP3   OH245893   3.704   2.268   2.842  0.0722 -0.3646 -0.0530
 7233TIP3    H145894   3.672   2.218   2.768 -2.8438  0.2774  0.6628
 7233TIP3    H245895   3.687   2.213   2.918  1.8397 -0.4798  0.3036
 7234TIP3   OH245896   0.910   1.054   2.632 -0.0619  0.0393 -0.0581
 7234TIP3    H145897   0.922   1.042   2.727  1.0319  1.4901  0.0160
 7234TIP3    H245898   0.943   0.973   2.593 -1.2810 -0.9225  0.8142
 7235TIP3   OH245899   2.157   4.063   0.833  0.3146 -0.4255  0.2681
 7235TIP3    H145900   2.194   4.102   0.754 -0.4504 -0.4618 -0.1239
 7235TIP3    H245901   2.170   4.128   0.902  0.6263 -0.2262  0.0193
 7236TIP3   OH245902   4.195   4.271   3.071  0.1470  0.6544  0.3359
 7236TIP3    H145903   4.200   4.304   2.981  1.4547 -1.3401 -0.4061
 7236TIP3    H245904   4.264   4.316   3.118  1.5887 -0.5683 -0.5327
 7237TIP3   OH245905   3.266   2.851   4.065 -0.3574 -0.0578 -0.4505
 7237TIP3    H145906   3.299   2.767   4.095 -1.0855 -1.5344 -3.4168
 7237TIP3    H245907   3.180   2.860   4.107 -0.0350 -0.4859  0.3199
 7238TIP3   OH245908   0.584   4.322   2.370  0.3042  0.2999  0.3137
 7238TIP3    H145909   0.494   4.290   2.357  0.6971 -0.7747  0.1458
 7238TIP3    H245910   0.639   4.251   2.337  1.2089  1.2925 -0.3390
 7239TIP3   OH245911   1.669   0.587   2.538  0.4837 -0.1822 -0.0698
 7239TIP3    H145912   1.586   0.543   2.520  0.1790  0.5218 -0.4085
 7239TIP3    H245913   1.674   0.657   2.474  1.9363 -0.9651 -0.8857
 7240TIP3   OH245914   4.582   1.349   2.340 -0.1909  0.4704  0.4704
 7240TIP3    H145915   4.596   1.409   2.413 -0.3865  1.0475  0.0415
 7240TIP3    H245916   4.500   1.379   2.301 -0.6521 -0.5050  0.6680
 7241TIP3   OH245917   4.552   6.675   0.725  0.4848  0.3000 -0.2160
 7241TIP3    H145918   4.582   6.626   0.649 -3.9491 -0.7434 -1.5974
 7241TIP3    H245919   4.561   6.614   0.798  3.4235  0.8138 -0.0120
 7242TIP3   OH245920   6.359   2.976   1.657  0.0417  0.2016  0.2231
 7242TIP3    H145921   6.386   3.010   1.571  1.0680 -0.0935  0.4115
 7242TIP3    H245922   6.436   2.988   1.712 -0.6373  0.4700  1.1404
 7243TIP3   OH245923   1.586   0.161   2.688  0.3428  0.1615 -0.2127
 7243TIP3    H145924   1.564   0.087   2.745  0.3083  0.0733 -0.3402
 7243TIP3    H245925   1.676   0.185   2.714  0.6050 -0.3507 -0.6243
 7244TIP3   OH245926   1.750   5.793   2.748  0.5291  0.4218  0.2247
 7244TIP3    H145927   1.830   5.761   2.790  0.3527 -0.7795 -0.3247
 7244TIP3    H245928   1.780   5.865   2.691  1.0661  0.6244  0.7535
 7245TIP3   OH245929   1.680   3.190   3.075 -0.2216  0.4169  0.4174
 7245TIP3    H145930   1.691   3.256   3.006  0.7467  0.1312  0.2847
 7245TIP3    H245931   1.632   3.236   3.143 -3.0125  0.1416 -1.2242
 7246TIP3   OH245932   5.654   3.840   3.293 -0.5259 -0.2021  0.0545
 7246TIP3    H145933   5.670   3.757   3.337  2.8911 -0.2899 -1.0409
 7246TIP3    H245934   5.716   3.901   3.333  0.7302  0.4210 -2.5642
 7247TIP3   OH245935   1.725   1.641   1.929  0.2069  0.6283  0.5304
 7247TIP3    H145936   1.754   1.636   2.021  1.0090 -2.2282  0.2037
 7247TIP3    H245937   1.789   1.698   1.887  2.7428 -1.8155  0.8311
 7248TIP3   OH245938   4.793   5.469   3.640  0.3793 -0.2155  0.1294
 7248TIP3    H145939   4.864   5.533   3.640 -0.4165  0.7041  1.0573
 7248TIP3    H245940   4.720   5.513   3.597  0.3032 -1.1024 -0.6900
 7249TIP3   OH245941   2.663   2.751   1.518  0.2763  0.0984 -0.2514
 7249TIP3    H145942   2.674   2.696   1.596  0.4933  0.1442 -0.2497
 7249TIP3    H245943   2.604   2.821   1.547  0.2254  0.0236 -0.1746
 7250TIP3   OH245944   2.808   3.667   3.273 -0.2417  0.0383 -0.1523
 7250TIP3    H145945   2.802   3.582   3.316 -0.2737  0.6903  1.1666
 7250TIP3    H245946   2.866   3.718   3.328  0.4384  0.6268 -1.3810
 7251TIP3   OH245947   5.270   2.817   2.767 -0.1870  0.0012 -0.0872
 7251TIP3    H145948   5.319   2.869   2.704  0.7112 -0.2080  0.4339
 7251TIP3    H245949   5.241   2.740   2.717  0.3685 -0.0744 -0.2928
 7252TIP3   OH245950   3.394   2.135   2.089  0.3575  0.1857 -0.0607
 7252TIP3    H145951   3.304   2.111   2.066 -0.3367  2.6030 -0.1249
 7252TIP3    H245952   3.419   2.072   2.156 -1.2805 -0.7285 -0.2628
 7253TIP3   OH245953   3.665   0.496   0.717  0.0161  0.4165  0.1540
 7253TIP3    H145954   3.741   0.441   0.704  0.2715  0.5741  0.9590
 7253TIP3    H245955   3.592   0.447   0.678  0.2375 -0.4867  0.8655
 7254TIP3   OH245956   0.246   0.430   0.828 -0.6619 -0.5775 -0.1871
 7254TIP3    H145957   0.267   0.462   0.916 -2.1620  0.9797 -0.3519
 7254TIP3    H245958   0.331   0.418   0.786  0.0359  0.0053  1.0147
 7255TIP3   OH245959   5.706   5.741   0.824 -0.2245  0.3892 -0.1823
 7255TIP3    H145960   5.720   5.654   0.861 -0.7820  0.4838  0.2793
 7255TIP3    H245961   5.646   5.726   0.751  1.1468  0.1578 -1.3024
 7256TIP3   OH245962   1.905   3.785   3.303 -0.6040 -0.3384 -0.2107
 7256TIP3    H145963   1.837   3.760   3.240 -1.2380 -0.3718  0.4653
 7256TIP3    H245964   1.865   3.768   3.388  0.5494 -1.0835  0.1887
 7257TIP3   OH245965   5.388   3.906   2.160  0.4876  0.0227  0.2368
 7257TIP3    H145966   5.461   3.889   2.101 -0.7774 -1.7198 -0.8970
 7257TIP3    H245967   5.378   3.826   2.211 -2.0716 -0.7184 -1.2619
 7258TIP3   OH245968   5.801   4.780   1.992  0.6388 -0.3332 -0.6368
 7258TIP3    H145969   5.721   4.744   1.954  0.7515 -1.0901 -0.1793
 7258TIP3    H245970   5.783   4.786   2.085  0.9676 -0.1206 -0.5871
 7259TIP3   OH245971   1.806   4.849   3.270  0.6394 -0.8773  0.1057
 7259TIP3    H145972   1.826   4.819   3.182 -2.6615 -0.6633 -0.8593
 7259TIP3    H245973   1.753   4.778   3.308  1.1492 -0.5239  1.5706
 7260TIP3   OH245974   1.742   3.949   2.223 -0.2436  0.1848 -0.2274
 7260TIP3    H145975   1.670   3.907   2.178  0.9059  0.2026 -2.1902
 7260TIP3    H245976   1.770   4.019   2.165  2.5409 -0.9946 -0.4742
 7261TIP3   OH245977   1.958   5.921   1.522 -0.0272  0.5511 -0.4879
 7261TIP3    H145978   2.038   5.933   1.573  0.9451 -2.0623 -1.2188
 7261TIP3    H245979   1.887   5.932   1.586  1.0119  0.5180  0.7169
 7262TIP3   OH245980   0.240   3.674   2.412  0.1847  0.1139 -0.3974
 7262TIP3    H145981   0.159   3.723   2.395  2.2284  3.0956 -2.5724
 7262TIP3    H245982   0.265   3.699   2.500  0.5146  2.1154 -1.0145
 7263TIP3   OH245983   3.006   2.764   1.963  0.0593 -0.6499 -0.1819
 7263TIP3    H145984   2.976   2.693   2.020 -0.3032 -0.1852  0.2133
 7263TIP3    H245985   3.058   2.820   2.020 -1.9846  0.9222  0.2127
 7264TIP3   OH245986   5.390   4.140   2.873 -0.1262  0.2243 -0.1906
 7264TIP3    H145987   5.417   4.230   2.858 -1.3857  0.6490 -0.0044
 7264TIP3    H245988   5.441   4.112   2.949 -2.9270  2.3469  2.7353
 7265TIP3   OH245989   1.850   4.192  11.968 -0.5158 -0.1426  0.3628
 7265TIP3    H145990   1.771   4.171  11.919 -1.2797  1.3981  0.8888
 7265TIP3    H245991   1.868   4.113  12.019 -0.6587 -1.1615 -1.1020
 7266TIP3   OH245992   5.533   3.988   2.571  0.1084  0.3975  0.2309
 7266TIP3    H145993   5.498   4.074   2.547  1.2672  0.5046 -1.1830
 7266TIP3    H245994   5.616   3.982   2.524 -0.3199 -1.8316 -0.3399
 7267TIP3   OH245995   5.375   1.949   2.273 -0.7334 -0.2400  0.2545
 7267TIP3    H145996   5.312   1.970   2.205 -0.7570 -1.4689 -0.1108
 7267TIP3    H245997   5.337   1.875   2.320 -1.2678  1.2717  2.3600
 7268TIP3   OH245998   6.194   6.077   2.627 -0.4702 -0.2122 -0.2858
 7268TIP3    H145999   6.152   5.991   2.626  1.3819 -1.1990  1.0580
 7268TIP3    H246000   6.280   6.062   2.666  0.5486  1.9927 -1.4809
 7269TIP3   OH246001   2.265   1.875   3.856 -0.0406 -0.5381 -0.0371
 7269TIP3    H146002   2.231   1.791   3.889 -0.1452 -0.0297  1.2025
 7269TIP3    H246003   2.337   1.896   3.915 -2.5450  2.2270  2.3681
 7270TIP3   OH246004   2.484   4.004   4.444  0.0762  0.6790  0.7712
 7270TIP3    H146005   2.417   3.936   4.438  0.0845  0.7381 -0.0808
 7270TIP3    H246006   2.435   4.085   4.461 -0.1315  0.8233 -0.4524
 7271TIP3   OH246007   5.886   2.992   2.736  0.1447 -0.5136  0.1300
 7271TIP3    H146008   5.886   2.920   2.799  2.4859 -0.0147  0.8010
 7271TIP3    H246009   5.862   3.069   2.788 -1.4040 -0.6167 -0.3850
 7272TIP3   OH246010   6.641   4.883   4.465 -0.1408 -0.6650  0.1898
 7272TIP3    H146011   6.587   4.919   4.535  2.4705  1.2647  1.3648
 7272TIP3    H246012   6.663   4.795   4.495 -0.4381 -0.4833  0.9787
 7273TIP3   OH246013   5.909   1.986   1.414  0.0421 -0.4157 -0.1191
 7273TIP3    H146014   5.858   2.025   1.342  1.3506 -0.9937 -1.3970
 7273TIP3    H246015   5.886   2.040   1.490 -0.4010  1.0468 -1.2265
 7274TIP3   OH246016   4.541   2.111   1.393  0.1042 -0.0813  0.2904
 7274TIP3    H146017   4.561   2.203   1.376  1.9580 -0.6409 -0.8619
 7274TIP3    H246018   4.485   2.084   1.320 -1.9043  0.4929  1.5133
 7275TIP3   OH246019   4.420   2.795   1.512 -0.2610  0.9406 -0.2296
 7275TIP3    H146020   4.342   2.751   1.546  1.1433 -2.0263 -0.5442
 7275TIP3    H246021   4.404   2.803   1.418 -0.2341  0.4268 -0.2793
 7276TIP3   OH246022   1.798   1.510   2.528  0.1059 -0.4935 -0.6968
 7276TIP3    H146023   1.858   1.577   2.496  0.6463 -0.6895 -0.1348
 7276TIP3    H246024   1.789   1.529   2.622  0.0042 -1.0083 -0.5997
 7277TIP3   OH246025   5.467   2.643   0.575  0.0806 -0.4783  0.3132
 7277TIP3    H146026   5.478   2.729   0.616  1.1397 -0.6818  0.4827
 7277TIP3    H246027   5.372   2.628   0.576 -0.1384  0.7574  0.1287
 7278TIP3   OH246028   0.973   4.594   3.828 -0.4005 -0.2157 -0.1292
 7278TIP3    H146029   1.063   4.622   3.811 -0.7614  0.3461 -1.2458
 7278TIP3    H246030   0.968   4.582   3.923  0.5733  0.7229  0.0486
 7279TIP3   OH246031   0.985   4.677   1.780  0.1505  0.2006  0.6068
 7279TIP3    H146032   0.943   4.663   1.864 -0.7755  0.8041  0.2635
 7279TIP3    H246033   0.927   4.634   1.717  2.3131 -2.8455  0.5084
 7280TIP3   OH246034   3.361   1.102   1.778  0.5631 -0.0876 -0.3729
 7280TIP3    H146035   3.426   1.108   1.847 -0.1936 -1.0224  0.4664
 7280TIP3    H246036   3.363   1.187   1.734  0.4154  0.8698  1.4000
 7281TIP3   OH246037   6.170   2.829   3.914 -0.6828 -0.2060  0.1547
 7281TIP3    H146038   6.167   2.807   4.007 -1.9362  2.1531  0.7660
 7281TIP3    H246039   6.078   2.831   3.888 -0.4318  0.6965 -0.7163
 7282TIP3   OH246040   2.805   1.937   2.092 -0.4037  0.4462  0.2973
 7282TIP3    H146041   2.715   1.938   2.125 -0.9446  0.4284 -1.1201
 7282TIP3    H246042   2.839   1.851   2.117 -0.1103  1.1374  2.4869
 7283TIP3   OH246043   6.023   5.041   3.752 -0.0621 -0.2887 -0.1861
 7283TIP3    H146044   6.112   5.009   3.741  0.1809 -0.1590  1.1481
 7283TIP3    H246045   5.967   4.967   3.727  0.4757 -1.7055  2.4039
 7284TIP3   OH246046   2.471   2.509   0.782 -0.1047 -0.4302 -0.8894
 7284TIP3    H146047   2.498   2.529   0.871 -0.3119  0.3927 -1.0025
 7284TIP3    H246048   2.442   2.418   0.785 -1.2820 -0.0426  0.1613
 7285TIP3   OH246049   4.685   3.012   3.017 -0.3776  0.0591  0.3458
 7285TIP3    H146050   4.677   3.096   3.063 -0.1232  1.0468 -1.3467
 7285TIP3    H246051   4.623   3.019   2.945  0.4291 -0.7692 -0.4464
 7286TIP3   OH246052   2.531   0.985   1.562 -0.1201  0.1871  0.3976
 7286TIP3    H146053   2.494   1.002   1.649 -2.1452  1.7930 -0.6951
 7286TIP3    H246054   2.464   0.933   1.518  0.5802 -0.0045 -0.4663
 7287TIP3   OH246055   1.372   5.639   2.997 -0.2763 -0.4632 -0.1660
 7287TIP3    H146056   1.467   5.653   2.988 -0.2802 -0.5280 -0.3127
 7287TIP3    H246057   1.360   5.546   2.979 -0.2174 -0.7283  1.0419
 7288TIP3   OH246058   3.763   3.784   1.873  0.5843 -0.1699  0.4032
 7288TIP3    H146059   3.839   3.731   1.848  0.0043 -0.2495 -1.3580
 7288TIP3    H246060   3.786   3.873   1.846 -0.2961 -0.3571 -1.0865
 7289TIP3   OH246061   1.388   0.739   2.955 -0.1875 -0.1168 -0.0998
 7289TIP3    H146062   1.442   0.711   3.030  0.1505 -2.7370 -1.2299
 7289TIP3    H246063   1.448   0.737   2.880 -0.9407  0.8240 -0.7541
 7290TIP3   OH246064   4.410   1.724   0.888  0.0819  0.7853  0.3244
 7290TIP3    H146065   4.365   1.691   0.966  0.7269  0.9756  0.7847
 7290TIP3    H246066   4.401   1.653   0.824 -1.9365  1.2974 -0.0370
 7291TIP3   OH246067   5.154   4.265   2.779 -0.4804  0.2671 -0.0847
 7291TIP3    H146068   5.240   4.236   2.809  0.1185  2.3382  0.3538
 7291TIP3    H246069   5.092   4.203   2.817  0.8790 -2.3369 -1.8375
 7292TIP3   OH246070   4.112   1.945   2.038 -0.3003  0.2270  0.5400
 7292TIP3    H146071   4.042   1.906   1.986  0.0029  0.5695 -0.1413
 7292TIP3    H246072   4.170   1.986   1.973  0.7381 -0.3809  1.0510
 7293TIP3   OH246073   4.337   1.031   4.056 -0.2508  0.5796  0.2074
 7293TIP3    H146074   4.245   1.008   4.067  0.1660 -1.3418  0.1072
 7293TIP3    H246075   4.337   1.104   3.994 -1.6052 -0.9864 -1.7520
 7294TIP3   OH246076   4.517   4.731   3.489  0.2700 -0.6160  0.0374
 7294TIP3    H146077   4.448   4.676   3.526 -0.6991  0.7004  0.2323
 7294TIP3    H246078   4.474   4.781   3.420  1.3087 -0.6357 -0.6412
 7295TIP3   OH246079   1.242   6.215   0.861 -0.0205 -0.3134  0.0071
 7295TIP3    H146080   1.162   6.212   0.912 -1.6704  0.4090 -2.3801
 7295TIP3    H246081   1.215   6.246   0.775  2.4092 -2.4329 -1.6798
 7296TIP3   OH246082   1.547   3.543   3.175  0.0865 -0.0184  0.3265
 7296TIP3    H146083   1.483   3.487   3.132  0.8249 -0.9117  0.3619
 7296TIP3    H246084   1.565   3.499   3.259 -0.6099  1.1814  1.1377
 7297TIP3   OH246085   4.417   4.884   3.291  0.1063 -0.3734 -0.0923
 7297TIP3    H146086   4.455   4.966   3.264 -1.3209  0.4511  0.2693
 7297TIP3    H246087   4.331   4.908   3.327 -0.3408 -2.0067  0.0295
 7298TIP3   OH246088   4.738   1.903   1.295  0.2161  0.1937 -0.0794
 7298TIP3    H146089   4.800   1.965   1.258  1.7015 -0.5797  1.0024
 7298TIP3    H246090   4.689   1.953   1.361 -0.4600  0.8532 -1.0633
 7299TIP3   OH246091   3.014   1.722   2.448 -0.6194 -0.4433  0.9050
 7299TIP3    H146092   3.005   1.628   2.436  2.1501 -0.5614 -1.3594
 7299TIP3    H246093   3.070   1.732   2.525 -0.7446 -0.6507  1.0225
 7300TIP3   OH246094   3.103   0.680   1.375 -0.3471 -0.4782  0.1453
 7300TIP3    H146095   3.024   0.628   1.386  0.0985 -0.8931  1.4984
 7300TIP3    H246096   3.175   0.617   1.381  0.1080 -0.2180 -1.7585
 7301TIP3   OH246097   4.157   6.394   1.352 -0.0774  0.4523 -0.3493
 7301TIP3    H146098   4.177   6.476   1.397  0.2614  0.1924 -0.0162
 7301TIP3    H246099   4.164   6.415   1.259 -1.2424  1.1146 -0.3122
 7302TIP3   OH246100   3.231   6.331   1.125 -0.2092 -0.3514 -0.7619
 7302TIP3    H146101   3.148   6.284   1.116 -0.3451  0.1754 -2.5764
 7302TIP3    H246102   3.205   6.420   1.148 -0.0747 -0.4718 -0.1222
 7303TIP3   OH246103   1.234   1.434   1.132  0.0853 -0.7002  0.0701
 7303TIP3    H146104   1.185   1.516   1.121  1.6194  0.6998  2.6263
 7303TIP3    H246105   1.198   1.376   1.066 -2.8877  1.1744 -0.1640
 7304TIP3   OH246106   6.078   1.870   3.083 -0.3792 -0.2578 -0.4659
 7304TIP3    H146107   6.112   1.913   3.005 -0.7167 -0.5908 -0.8000
 7304TIP3    H246108   6.022   1.801   3.049  1.5016 -2.1278 -0.0138
 7305TIP3   OH246109   2.463   3.017   0.802  0.3166 -0.7798 -0.0649
 7305TIP3    H146110   2.411   2.941   0.776 -0.2905 -0.0470 -1.0001
 7305TIP3    H246111   2.419   3.050   0.880 -0.2820 -0.5073 -0.5167
 7306TIP3   OH246112   6.509   4.697   2.509 -0.2530 -0.1772  0.2191
 7306TIP3    H146113   6.602   4.681   2.493 -0.5027 -1.8844  0.2729
 7306TIP3    H246114   6.502   4.705   2.604 -0.3476 -1.5895  0.3507
 7307TIP3   OH246115   3.397   6.134   1.294  0.0594  0.3586  0.1772
 7307TIP3    H146116   3.343   6.172   1.225 -0.0894  0.9376  0.6058
 7307TIP3    H246117   3.484   6.170   1.279  0.5624 -1.2118 -1.0142
 7308TIP3   OH246118   4.979   3.560   1.348 -0.2011  0.5830  0.3068
 7308TIP3    H146119   5.070   3.532   1.358 -0.7346 -1.2391  0.3481
 7308TIP3    H246120   4.982   3.630   1.283  1.1703  0.2044 -0.0606
 7309TIP3   OH246121   1.527   1.824   2.492  0.0788 -0.0055 -0.0494
 7309TIP3    H146122   1.505   1.847   2.402  1.8335  1.6020 -0.1285
 7309TIP3    H246123   1.609   1.775   2.486  1.9265  2.7565  0.7655
 7310TIP3   OH246124   5.488   1.603   2.770 -0.1378 -0.2993  0.4783
 7310TIP3    H146125   5.578   1.571   2.766 -0.2758 -0.5689 -1.4710
 7310TIP3    H246126   5.437   1.536   2.725 -1.3621 -0.2376  1.7112
 7311TIP3   OH246127   0.140   4.843   1.678 -0.6549 -0.4162  0.2278
 7311TIP3    H146128   0.084   4.782   1.629  0.1622 -1.2564  0.3050
 7311TIP3    H246129   0.157   4.914   1.616  0.4371 -1.5084 -0.7792
 7312TIP3   OH246130   4.088   3.135   1.149  0.6045 -0.3707  0.9360
 7312TIP3    H146131   4.155   3.142   1.080 -0.4159 -2.7938 -0.4142
 7312TIP3    H246132   4.124   3.185   1.222  2.1210  1.6561 -1.0266
 7313TIP3   OH246133   2.384   0.987   3.023 -0.0093  0.2316 -0.3233
 7313TIP3    H146134   2.384   1.072   3.067  1.6342  0.2928 -0.3683
 7313TIP3    H246135   2.314   0.937   3.066  0.7557  0.6953  1.5726
 7314TIP3   OH246136   4.660   0.607   0.857 -0.1274  0.0578 -0.3722
 7314TIP3    H146137   4.578   0.593   0.810  0.0902  1.3534 -1.1855
 7314TIP3    H246138   4.718   0.647   0.792  1.0758 -0.6180  0.2569
 7315TIP3   OH246139   2.956   4.189   0.886 -0.5337 -0.0303  0.2880
 7315TIP3    H146140   2.940   4.120   0.820  1.0510 -0.8431  0.7052
 7315TIP3    H246141   2.887   4.253   0.870 -1.2587 -1.0686 -1.0043
 7316TIP3   OH246142   0.406   1.446   3.267 -0.0495 -0.0142  0.2222
 7316TIP3    H146143   0.491   1.410   3.291 -0.5203 -1.0053  0.4360
 7316TIP3    H246144   0.426   1.505   3.194  0.8698  0.0826  0.5331
 7317TIP3   OH246145   0.044   5.868   1.141  0.0533 -0.0645 -0.4077
 7317TIP3    H146146   0.114   5.833   1.087 -0.1733 -2.0705  0.4951
 7317TIP3    H246147  -0.015   5.912   1.079  1.4335  0.5429 -1.3275
 7318TIP3   OH246148   5.282   2.189   2.724  0.2376  0.6832 -0.1223
 7318TIP3    H146149   5.193   2.186   2.757  0.1369  0.8427 -0.3762
 7318TIP3    H246150   5.274   2.224   2.635  0.3441 -0.9813 -0.8364
 7319TIP3   OH246151   0.579   3.976   1.877 -0.0673 -0.2729 -0.1030
 7319TIP3    H146152   0.585   3.999   1.785 -1.0591  0.5805  0.0365
 7319TIP3    H246153   0.486   3.983   1.899  0.0938 -0.8309  0.8735
 7320TIP3   OH246154   0.959   2.343   2.825 -0.0375  0.1473  0.4748
 7320TIP3    H146155   1.035   2.400   2.838 -0.8993  0.6799  4.1727
 7320TIP3    H246156   0.996   2.260   2.795  1.5591  1.5345 -1.6895
 7321TIP3   OH246157   3.387   3.634   1.416 -0.2304  0.5000 -0.1205
 7321TIP3    H146158   3.292   3.626   1.426 -0.2837 -0.1424 -1.0575
 7321TIP3    H246159   3.407   3.585   1.337  1.2756 -2.0980  1.7039
 7322TIP3   OH246160   1.605   0.396   3.170 -0.2218  0.1995 -0.2423
 7322TIP3    H146161   1.589   0.423   3.080 -0.5459  1.2923  0.1242
 7322TIP3    H246162   1.691   0.432   3.191  0.3369 -0.9667 -0.4431
 7323TIP3   OH246163   2.181   1.816   1.520  0.1573  0.1984  0.7696
 7323TIP3    H146164   2.150   1.750   1.457 -0.8144  0.8900  0.4970
 7323TIP3    H246165   2.141   1.790   1.603 -1.3756  1.2011  0.3778
 7324TIP3   OH246166   2.845   5.129   2.597  0.0845 -0.7654 -0.3068
 7324TIP3    H146167   2.778   5.192   2.621  0.5386 -0.2901 -0.2659
 7324TIP3    H246168   2.869   5.087   2.679  1.0075  0.2371 -0.0361
 7325TIP3   OH246169   5.714   2.393   0.485 -0.4918 -0.1172  0.4129
 7325TIP3    H146170   5.651   2.457   0.515 -0.3485 -1.1329  3.1177
 7325TIP3    H246171   5.715   2.325   0.553  2.1805 -1.0335 -0.3844
 7326TIP3   OH246172   0.713   0.894   1.494  0.1845 -0.2891 -0.1289
 7326TIP3    H146173   0.651   0.950   1.540  1.9141  0.2134  1.7550
 7326TIP3    H246174   0.676   0.806   1.503 -1.1438  0.1932 -0.6390
 7327TIP3   OH246175   2.659   5.265   2.774  0.0099  0.1061  0.0105
 7327TIP3    H146176   2.610   5.190   2.808 -1.2167  1.3477  1.1030
 7327TIP3    H246177   2.730   5.277   2.838  0.8621 -0.7309 -0.7370
 7328TIP3   OH246178   3.469   0.438   1.525  0.6282 -0.2038  0.3399
 7328TIP3    H146179   3.542   0.395   1.479 -0.2627 -1.1210 -0.2683
 7328TIP3    H246180   3.450   0.380   1.598  0.8962  0.3543  0.8576
 7329TIP3   OH246181   6.654   5.057   0.631 -0.2213 -0.3257  0.1494
 7329TIP3    H146182   6.747   5.062   0.613 -0.5553  2.3121 -1.4172
 7329TIP3    H246183   6.645   5.089   0.721  0.4478 -2.0300  0.8638
 7330TIP3   OH246184   5.623   2.840   4.047  0.0704 -0.1041  0.5095
 7330TIP3    H146185   5.701   2.862   4.097  0.5592  1.0830 -0.7359
 7330TIP3    H246186   5.582   2.770   4.097  1.5520 -0.2669  1.5568
 7331TIP3   OH246187   1.383   3.441   3.978 -0.9862 -0.2109  0.0867
 7331TIP3    H146188   1.392   3.428   3.884 -2.7645 -0.3920 -0.0915
 7331TIP3    H246189   1.386   3.353   4.015 -1.0833 -0.2050  0.1104
 7332TIP3   OH246190   0.821   4.866   3.230 -0.6080  0.7515 -0.4154
 7332TIP3    H146191   0.877   4.940   3.207  0.8559  0.1412  1.0581
 7332TIP3    H246192   0.743   4.878   3.175  0.4307  2.2745 -1.6588
 7333TIP3   OH246193   4.557   1.707   2.225  0.7772  0.4382 -0.0927
 7333TIP3    H146194   4.509   1.625   2.214 -1.4492  1.8219 -1.4877
 7333TIP3    H246195   4.646   1.687   2.194 -0.2903 -0.9280 -2.5778
 7334TIP3   OH246196   5.725   3.136   2.915  0.2674 -0.3929 -0.5242
 7334TIP3    H146197   5.653   3.074   2.917 -0.6565  0.5810 -1.8577
 7334TIP3    H246198   5.772   3.121   2.997 -0.3645 -2.2925 -0.4625
 7335TIP3   OH246199   5.269   0.005   0.938 -0.3250 -0.1340 -0.5336
 7335TIP3    H146200   5.273  -0.017   0.845 -1.6088  0.4130 -0.7456
 7335TIP3    H246201   5.175   0.009   0.958 -0.0836 -1.3926  1.0693
 7336TIP3   OH246202   1.402   4.305   4.286 -0.0182  0.9008  0.1622
 7336TIP3    H146203   1.463   4.236   4.261 -1.8253 -0.8345  0.3028
 7336TIP3    H246204   1.423   4.324   4.377 -0.0032 -0.0566  0.3701
 7337TIP3   OH246205   6.218   0.681   2.435  0.9120  0.2613  0.3036
 7337TIP3    H146206   6.256   0.734   2.365  2.7633 -0.3053  0.7994
 7337TIP3    H246207   6.284   0.613   2.452 -0.9256 -1.6056  0.3913
 7338TIP3   OH246208   3.733   6.292   2.793 -0.6401 -0.1446 -0.1158
 7338TIP3    H146209   3.758   6.361   2.731  1.3726  0.7785  1.5836
 7338TIP3    H246210   3.814   6.243   2.807 -1.4395 -1.2947  0.6418
 7339TIP3   OH246211   0.300   5.554   3.180  0.3585  0.1090  0.4155
 7339TIP3    H146212   0.386   5.585   3.153  0.1977 -0.4496 -0.8058
 7339TIP3    H246213   0.318   5.497   3.255  1.2706 -1.3901 -0.8781
 7340TIP3   OH246214   3.556   6.630   3.060  0.3856 -0.1377 -0.1845
 7340TIP3    H146215   3.609   6.682   3.121  1.3271 -1.2260 -0.0509
 7340TIP3    H246216   3.513   6.565   3.116 -0.4427  0.2101 -0.4073
 7341TIP3   OH246217   4.633   5.039   2.145 -0.2737 -0.0014  0.8452
 7341TIP3    H146218   4.703   5.094   2.179  1.0606  1.8612 -4.1545
 7341TIP3    H246219   4.558   5.098   2.136 -0.5854 -0.4276  0.5889
 7342TIP3   OH246220   2.407   2.377   2.121 -0.3641 -0.1558  0.4555
 7342TIP3    H146221   2.339   2.314   2.098  0.0868 -1.0424  1.4458
 7342TIP3    H246222   2.483   2.351   2.069 -0.7817  0.8839 -0.7118
 7343TIP3   OH246223   5.142   0.387   2.985 -0.1367 -0.6584 -0.2215
 7343TIP3    H146224   5.062   0.335   2.991 -0.3944 -0.1410  1.2399
 7343TIP3    H246225   5.112   0.475   2.960 -0.0337 -0.4691  0.3081
 7344TIP3   OH246226   2.598   3.990   2.947  0.0774  0.2205 -0.2763
 7344TIP3    H146227   2.605   4.031   3.033 -1.4920  1.7225 -0.7923
 7344TIP3    H246228   2.650   4.046   2.889 -0.6708  0.5256 -0.6738
 7345TIP3   OH246229   4.117   3.901   1.327  0.1324 -0.0499  0.0004
 7345TIP3    H146230   4.063   3.959   1.381  1.3033  0.3744  0.7639
 7345TIP3    H246231   4.160   3.842   1.389  0.3880 -0.5065 -0.5984
 7346TIP3   OH246232   2.720   5.351   2.291  0.7078  0.5070 -0.2433
 7346TIP3    H146233   2.728   5.427   2.349  0.7816  1.8166 -1.8989
 7346TIP3    H246234   2.810   5.333   2.263  0.8934 -1.1731  1.2800
 7347TIP3   OH246235   4.917   1.709   0.589  0.3590  0.6523 -0.0744
 7347TIP3    H146236   4.836   1.746   0.625  1.1494  0.3308  2.1987
 7347TIP3    H246237   4.902   1.614   0.591  0.1328  0.6376 -1.4083
 7348TIP3   OH246238   0.021   5.400   1.098 -0.3717  0.2025  0.2658
 7348TIP3    H146239  -0.049   5.465   1.087  0.3235  0.8491 -0.4876
 7348TIP3    H246240   0.100   5.452   1.109  0.2116 -0.5215 -0.4143
 7349TIP3   OH246241   6.302   5.301   1.734 -0.1978 -0.6241 -0.7610
 7349TIP3    H146242   6.258   5.230   1.688 -0.1836 -1.0381 -0.1502
 7349TIP3    H246243   6.306   5.372   1.670 -1.4697 -0.6789 -0.9360
 7350TIP3   OH246244   4.008   5.193   2.272 -0.1745  0.3414  0.5395
 7350TIP3    H146245   4.002   5.098   2.266  0.8951  0.2884 -0.0642
 7350TIP3    H246246   3.947   5.217   2.342 -1.3505 -0.6549 -0.1148
 7351TIP3   OH246247   3.815   1.256   3.292  0.3390 -0.1449  0.1160
 7351TIP3    H146248   3.831   1.222   3.380 -1.0562  3.4522  1.9429
 7351TIP3    H246249   3.720   1.257   3.284  0.4451  0.0643 -1.2323
 7352TIP3   OH246250   0.934   1.161   3.146  0.4503 -0.1822  0.2529
 7352TIP3    H146251   0.899   1.206   3.069 -0.1657  0.2600  0.7755
 7352TIP3    H246252   0.869   1.176   3.214  1.1748 -0.2193  0.9758
 7353TIP3   OH246253   3.674   5.136   2.914 -0.5938 -0.0627  0.7777
 7353TIP3    H146254   3.587   5.108   2.884 -1.2107  1.2984  1.2042
 7353TIP3    H246255   3.684   5.095   3.000 -0.6101 -0.5918  0.5315
 7354TIP3   OH246256   2.412   1.170   2.328 -0.4130 -0.6290 -0.1320
 7354TIP3    H146257   2.327   1.128   2.340 -1.4097  1.6081  1.3624
 7354TIP3    H246258   2.464   1.141   2.404 -0.2128 -1.1231 -0.4536
 7355TIP3   OH246259   0.326   3.356   4.854  0.1861 -0.4578  0.3409
 7355TIP3    H146260   0.240   3.362   4.895  0.8283 -0.2552  1.7392
 7355TIP3    H246261   0.375   3.297   4.912  0.9585 -0.6515 -0.4911
 7356TIP3   OH246262   0.026   2.154   4.305 -0.0176  0.2169  0.9382
 7356TIP3    H146263  -0.003   2.243   4.285 -0.4634  0.4875  2.5950
 7356TIP3    H246264  -0.049   2.098   4.282 -0.2462  0.4355  1.1405
 7357TIP3   OH246265   4.081   3.360   1.518  0.1669 -0.7267  0.0536
 7357TIP3    H146266   4.127   3.442   1.537 -0.6639 -0.1059 -0.5188
 7357TIP3    H246267   4.108   3.337   1.429  0.0656 -0.8386  0.0508
 7358TIP3   OH246268   3.963   1.978   0.641  0.0337 -0.1981  0.2423
 7358TIP3    H146269   3.912   2.032   0.702  0.7266 -0.3548  0.9798
 7358TIP3    H246270   4.015   2.041   0.591  0.9821 -0.1744  1.2312
 7359TIP3   OH246271   6.232   3.755   4.189 -0.2131 -0.8442  0.2147
 7359TIP3    H146272   6.157   3.786   4.240  0.4660 -2.5109  2.3791
 7359TIP3    H246273   6.303   3.746   4.253  1.5250 -0.4881 -1.5366
 7360TIP3   OH246274   1.073   3.768   4.310 -0.2445 -0.5812  0.7346
 7360TIP3    H146275   1.002   3.829   4.330  0.6724  0.7065  0.1774
 7360TIP3    H246276   1.125   3.813   4.244  1.9361 -0.8719  2.1787
 7361TIP3   OH246277   1.902   3.646   4.279  0.8247  0.2002  0.4178
 7361TIP3    H146278   1.811   3.671   4.262  1.6081  1.5923 -2.3491
 7361TIP3    H246279   1.938   3.719   4.330  0.8031  0.5111  0.0008
 7362TIP3   OH246280   2.889   3.185   3.525 -0.3260  0.5504 -0.0587
 7362TIP3    H146281   2.959   3.174   3.589  1.0161  1.2452 -1.3507
 7362TIP3    H246282   2.887   3.102   3.477  0.1972  0.8264 -0.5680
 7363TIP3   OH246283   3.844   5.522   4.197 -0.5994 -0.3142  0.3410
 7363TIP3    H146284   3.899   5.585   4.152  0.7977 -1.0971  0.8956
 7363TIP3    H246285   3.905   5.460   4.237 -1.9198 -2.4667 -0.7987
 7364TIP3   OH246286   4.322   1.890   2.914  0.6532  0.4935 -0.3949
 7364TIP3    H146287   4.309   1.980   2.943  0.0424 -0.0003  0.9060
 7364TIP3    H246288   4.248   1.873   2.855 -1.5807 -0.3887  2.4309
 7365TIP3   OH246289   2.711   0.876   2.951  0.3521 -0.1198  0.2470
 7365TIP3    H146290   2.680   0.966   2.963  1.6757  0.7603 -2.1537
 7365TIP3    H246291   2.655   0.841   2.882 -0.2520 -1.2345  1.2667
 7366TIP3   OH246292   5.437   4.298   1.905 -0.1221  0.0943  0.3424
 7366TIP3    H146293   5.467   4.261   1.988 -2.1313 -1.5561  0.4470
 7366TIP3    H246294   5.366   4.239   1.878  1.6069 -0.4975 -3.4657
 7367TIP3   OH246295   0.725   4.789   1.502 -0.0448  0.0719  0.1229
 7367TIP3    H146296   0.813   4.753   1.515  0.3161  1.7303  3.2642
 7367TIP3    H246297   0.673   4.714   1.472  2.1925 -1.1621 -0.9572
 7368TIP3   OH246298   3.414   1.579   3.526 -0.0650  0.0249 -0.1673
 7368TIP3    H146299   3.438   1.623   3.446  1.4434 -0.2696  0.0948
 7368TIP3    H246300   3.487   1.594   3.586 -1.2168  0.3857  1.2303
 7369TIP3   OH246301   6.425   3.257   2.134 -0.1329  0.5215  0.7213
 7369TIP3    H146302   6.331   3.242   2.132 -0.4046  1.8788  2.1804
 7369TIP3    H246303   6.436   3.338   2.184  1.8319  0.1343  0.9902
 7370TIP3   OH246304   3.918   6.266   1.307  0.2454  0.7331  0.0814
 7370TIP3    H146305   3.854   6.264   1.378  0.6924  0.3882  0.4828
 7370TIP3    H246306   3.987   6.325   1.339 -0.6464  2.4798 -1.0433
 7371TIP3   OH246307   0.800   2.881   2.978  0.1309 -0.1261 -0.1019
 7371TIP3    H146308   0.868   2.947   2.993 -0.0046 -0.1772  0.8042
 7371TIP3    H246309   0.844   2.813   2.926  0.6859  0.0062  0.1776
 7372TIP3   OH246310   5.459   4.710   1.110 -0.0837 -0.6222  0.9488
 7372TIP3    H146311   5.384   4.683   1.162 -1.3101  0.6065 -0.0854
 7372TIP3    H246312   5.535   4.687   1.163 -1.1749 -1.7818  2.0936
 7373TIP3   OH246313   6.558   4.373   1.606  0.1565 -0.7601 -0.4342
 7373TIP3    H146314   6.627   4.316   1.573  1.1379  0.8877 -1.3130
 7373TIP3    H246315   6.513   4.405   1.527 -1.8857 -2.0541  0.1092
 7374TIP3   OH246316   3.283   0.507   0.409 -0.4238 -0.0072  0.8556
 7374TIP3    H146317   3.240   0.423   0.423 -1.4246  0.7040  2.2093
 7374TIP3    H246318   3.284   0.517   0.314 -0.6012 -1.3755  0.6837
 7375TIP3   OH246319   5.276   5.685   2.349  0.1556 -0.3060  0.2095
 7375TIP3    H146320   5.263   5.632   2.271  0.5975 -0.2160  0.0714
 7375TIP3    H246321   5.262   5.625   2.422 -0.4762 -0.3372  0.0636
 7376TIP3   OH246322   4.393   3.286   2.693  0.0396 -0.2287 -0.4870
 7376TIP3    H146323   4.450   3.351   2.651 -1.8878  4.6171  3.3592
 7376TIP3    H246324   4.304   3.312   2.665 -0.9898  0.8564  3.1966
 7377TIP3   OH246325   2.125   6.379   1.400 -0.3743  0.2898 -0.1945
 7377TIP3    H146326   2.058   6.421   1.345 -0.0543  1.4131  0.2565
 7377TIP3    H246327   2.201   6.436   1.393 -0.3081  0.4488  1.3775
 7378TIP3   OH246328   6.126   2.987   1.437 -0.1043  0.3136  0.5450
 7378TIP3    H146329   6.162   2.945   1.515  0.3880 -0.6135 -0.1632
 7378TIP3    H246330   6.198   2.986   1.374 -1.0663 -0.6917 -0.5673
 7379TIP3   OH246331   0.524   3.045   3.458 -0.5669 -0.1200  0.5501
 7379TIP3    H146332   0.566   3.091   3.530  0.9377 -0.6265  0.0401
 7379TIP3    H246333   0.487   2.966   3.497  0.3696 -0.4649  0.7645
 7380TIP3   OH246334   1.110   0.023   2.876 -0.4537  0.3661 -0.3444
 7380TIP3    H146335   1.024   0.004   2.839 -0.3413 -1.5963  0.2852
 7380TIP3    H246336   1.097   0.102   2.929 -0.9223  2.4475 -3.2886
 7381TIP3   OH246337   1.704   1.021   1.627 -0.4518 -0.0415 -0.2848
 7381TIP3    H146338   1.771   1.069   1.577 -1.1558 -0.6015 -1.8345
 7381TIP3    H246339   1.739   0.933   1.637 -0.6947 -0.1803 -0.6116
 7382TIP3   OH246340   3.186   2.904   1.397  0.0839  0.5455 -0.0932
 7382TIP3    H146341   3.242   2.842   1.350  3.2022  1.6536  1.8383
 7382TIP3    H246342   3.100   2.896   1.355  0.7888 -3.6641 -1.1332
 7383TIP3   OH246343   1.703   4.026   3.395  0.3346 -0.5027  0.0163
 7383TIP3    H146344   1.772   4.040   3.459  0.5676 -3.7360  0.5947
 7383TIP3    H246345   1.622   4.029   3.446  0.3877 -1.2088  0.1483
 7384TIP3   OH246346   1.921   0.046   1.976  0.2616 -0.4291 -0.0549
 7384TIP3    H146347   1.858  -0.023   1.997  0.5263 -0.1948  1.6486
 7384TIP3    H246348   1.879   0.127   2.007  0.9617 -0.1359  0.1394
 7385TIP3   OH246349   3.396   1.562   0.702 -0.0680 -0.1311  0.1754
 7385TIP3    H146350   3.439   1.489   0.658  0.1109  0.0835 -0.0131
 7385TIP3    H246351   3.377   1.530   0.790  2.3464  0.4137  0.9757
 7386TIP3   OH246352   4.569   6.151   3.542 -0.2784  0.1552 -0.2048
 7386TIP3    H146353   4.558   6.066   3.584  0.2408  0.0907 -0.2037
 7386TIP3    H246354   4.497   6.204   3.577  0.4651  0.2766  1.2181
 7387TIP3   OH246355   3.922   1.075   1.309 -0.0009 -0.4779 -0.0556
 7387TIP3    H146356   3.971   1.095   1.229  0.2185  2.9804  0.7634
 7387TIP3    H246357   3.844   1.029   1.279  0.7422 -0.5272 -2.0876
 7388TIP3   OH246358   4.801   1.189   0.505  0.2696 -0.1990 -0.1131
 7388TIP3    H146359   4.713   1.164   0.534  0.2373 -0.9629 -0.8423
 7388TIP3    H246360   4.814   1.141   0.423  0.5050  1.6000 -1.1823
 7389TIP3   OH246361   2.356   4.237   1.654  0.2169 -0.1503 -0.2528
 7389TIP3    H146362   2.296   4.166   1.676  0.8627 -0.6300 -0.0094
 7389TIP3    H246363   2.437   4.193   1.629  1.0687  0.5102  1.2136
 7390TIP3   OH246364   0.577   5.374   1.286 -0.2425  0.1665  0.1890
 7390TIP3    H146365   0.622   5.406   1.208 -0.2266 -0.8522 -0.2286
 7390TIP3    H246366   0.646   5.369   1.352 -0.3041  1.2719  0.3571
 7391TIP3   OH246367   5.687   3.706   2.081 -0.5280 -0.4711  0.5296
 7391TIP3    H146368   5.713   3.756   2.159  1.5129  1.8499 -1.4830
 7391TIP3    H246369   5.723   3.619   2.096 -0.7449 -0.2840  2.4370
 7392TIP3   OH246370   1.460   6.359   0.973  0.4462 -0.3265  0.4589
 7392TIP3    H146371   1.381   6.314   0.944  0.1195  1.0465 -0.8758
 7392TIP3    H246372   1.501   6.298   1.035 -0.8996 -1.6592  0.0865
 7393TIP3   OH246373   1.894   2.274   3.695 -0.3917  0.2579 -0.2388
 7393TIP3    H146374   1.873   2.270   3.788 -0.2008  0.8198 -0.1704
 7393TIP3    H246375   1.840   2.205   3.656 -0.8756  0.3759  0.2049
 7394TIP3   OH246376   5.145   4.602   2.006 -0.7061  0.1360  0.2865
 7394TIP3    H146377   5.164   4.540   2.077  0.8234  0.2337 -0.0175
 7394TIP3    H246378   5.216   4.590   1.944 -1.3230  0.9946 -0.6058
 7395TIP3   OH246379   0.587   0.122   2.655  0.2895 -0.2444 -0.9368
 7395TIP3    H146380   0.525   0.172   2.709 -2.5196 -1.6100 -2.6615
 7395TIP3    H246381   0.668   0.173   2.659 -1.6984  3.2335 -0.7566
 7396TIP3   OH246382   2.733   4.138   2.726  0.0331  0.4590  0.1471
 7396TIP3    H146383   2.816   4.162   2.685  1.6855 -0.3535  2.7714
 7396TIP3    H246384   2.698   4.220   2.760  0.4851  0.6006  0.2765
 7397TIP3   OH246385   3.958   3.842   3.479  0.3175  0.3221 -0.4490
 7397TIP3    H146386   3.985   3.751   3.489 -1.1797 -0.3826 -2.3450
 7397TIP3    H246387   4.012   3.889   3.543  0.8807 -1.9018  0.8415
 7398TIP3   OH246388   5.519   5.181   3.571  0.0707 -0.0504  0.2652
 7398TIP3    H146389   5.549   5.261   3.528  0.0922  0.1981  0.7446
 7398TIP3    H246390   5.468   5.211   3.646 -0.1429 -0.4841  0.2974
 7399TIP3   OH246391   5.290   5.159   1.520 -0.3705 -0.0048  0.0618
 7399TIP3    H146392   5.268   5.074   1.482 -1.8029  0.3600  0.0257
 7399TIP3    H246393   5.329   5.208   1.448 -1.3236  0.0247 -0.4437
 7400TIP3   OH246394   5.886   3.368   0.583  0.2052 -0.0352  0.3499
 7400TIP3    H146395   5.952   3.429   0.614  0.3483  0.5617 -1.0500
 7400TIP3    H246396   5.935   3.291   0.554  0.0996 -0.4524  1.2468
 7401TIP3   OH246397   6.064   4.006   0.984  0.0452 -0.1589 -0.2799
 7401TIP3    H146398   6.101   4.086   0.948  2.9916 -1.6224 -0.7535
 7401TIP3    H246399   5.996   3.980   0.922  2.1784 -0.4022 -2.6586
 7402TIP3   OH246400   0.374   2.059   1.294  0.1330 -0.3042  0.3043
 7402TIP3    H146401   0.324   2.096   1.222  1.4772  3.4246  1.0852
 7402TIP3    H246402   0.320   2.075   1.371  0.2550 -1.0786  0.5608
 7403TIP3   OH246403   0.880   5.308   1.841  0.2766  0.2058 -0.5046
 7403TIP3    H146404   0.912   5.339   1.757 -2.5103  0.9172 -1.4205
 7403TIP3    H246405   0.800   5.359   1.856 -0.3482 -1.2714  1.6377
 7404TIP3   OH246406   3.457   2.520   2.677 -0.4628 -0.1277 -0.0278
 7404TIP3    H146407   3.392   2.583   2.646  0.4907  0.7472 -0.3137
 7404TIP3    H246408   3.520   2.573   2.726 -0.3435 -1.0645  0.8563
 7405TIP3   OH246409   2.647   3.973   0.627  0.0889  0.3618 -0.4128
 7405TIP3    H146410   2.690   3.918   0.693  1.9546  1.2882 -0.7716
 7405TIP3    H246411   2.720   4.017   0.583 -1.1882  0.7447 -2.2258
 7406TIP3   OH246412   1.054   2.629   3.568  0.9295  0.5358  0.0603
 7406TIP3    H146413   0.976   2.589   3.530  2.2529 -1.2427 -0.9177
 7406TIP3    H246414   1.042   2.621   3.662  0.6401 -1.2201 -0.0941
 7407TIP3   OH246415   1.916   0.458   2.594  0.1984  0.1687 -0.2366
 7407TIP3    H146416   1.841   0.481   2.539  1.4773  0.0205 -2.1333
 7407TIP3    H246417   1.883   0.388   2.650 -1.8394  1.9719  0.9535
 7408TIP3   OH246418   6.704   2.025   2.546  0.3311 -0.0403  0.0660
 7408TIP3    H146419   6.745   1.980   2.620  0.1005 -0.5516 -0.1123
 7408TIP3    H246420   6.645   2.088   2.586  1.1079  0.5346  0.3224
 7409TIP3   OH246421   2.860   5.784   2.062 -0.5287  0.5424  0.0748
 7409TIP3    H146422   2.842   5.708   2.006  1.4873 -0.8113  1.0996
 7409TIP3    H246423   2.774   5.821   2.080 -1.5429 -1.0862 -1.0298
 7410TIP3   OH246424   3.656   0.439   2.796  0.1621  0.1639  0.0527
 7410TIP3    H146425   3.710   0.506   2.838  0.9422  0.0680 -0.7761
 7410TIP3    H246426   3.676   0.447   2.703 -0.6885 -0.3871 -0.1885
 7411TIP3   OH246427   2.476   3.531   1.176 -0.5468  0.4097 -0.0505
 7411TIP3    H146428   2.409   3.597   1.164 -2.1763 -1.2321 -0.3949
 7411TIP3    H246429   2.471   3.508   1.269 -0.7960 -0.0549 -0.1770
 7412TIP3   OH246430   6.382   0.825   3.425 -0.3635 -0.3689 -0.0074
 7412TIP3    H146431   6.451   0.891   3.434 -0.0248 -0.5688 -1.0708
 7412TIP3    H246432   6.304   0.867   3.461 -0.1781  0.6568 -0.7516
 7413TIP3   OH246433   4.572   0.871   3.261 -0.3123 -0.5102  0.0149
 7413TIP3    H146434   4.620   0.802   3.307 -2.9686 -3.2878 -0.9927
 7413TIP3    H246435   4.528   0.920   3.330 -0.6299 -1.6960  0.6909
 7414TIP3   OH246436   1.152   4.463   4.308  0.7196  0.0058 -0.4355
 7414TIP3    H146437   1.222   4.397   4.307  1.1567  0.3681  1.7831
 7414TIP3    H246438   1.105   4.447   4.390  0.6491  2.2639  0.0137
 7415TIP3   OH246439   1.807   6.311   3.896 -0.0970 -0.3375  0.0973
 7415TIP3    H146440   1.743   6.244   3.920  1.5266 -2.2524 -0.6174
 7415TIP3    H246441   1.800   6.317   3.801 -0.9864  1.3737  0.2381
 7416TIP3   OH246442   3.575   4.818   3.599  0.2569  0.0823  0.2150
 7416TIP3    H146443   3.509   4.775   3.653 -0.0218 -1.1455 -1.0349
 7416TIP3    H246444   3.638   4.854   3.661  0.2945 -1.8239  1.3555
 7417TIP3   OH246445   6.654   2.753   3.937  0.0628  0.3234 -0.5069
 7417TIP3    H146446   6.576   2.786   3.892 -0.1629 -0.7847 -0.9626
 7417TIP3    H246447   6.621   2.721   4.021 -0.5124 -2.6578 -1.7611
 7418TIP3   OH246448   4.845   0.338   2.237  0.0336  0.2562 -0.0924
 7418TIP3    H146449   4.812   0.332   2.148 -1.7438 -1.0130  0.5932
 7418TIP3    H246450   4.787   0.402   2.280  0.3947  0.2982  0.3421
 7419TIP3   OH246451   6.416   3.381   1.673 -0.2437  0.7292  0.1829
 7419TIP3    H146452   6.468   3.454   1.705 -0.1145  0.7112  0.0135
 7419TIP3    H246453   6.428   3.313   1.740 -1.3153  1.2661  0.9484
 7420TIP3   OH246454   3.496   4.721   1.710 -0.7022  0.3843  0.4494
 7420TIP3    H146455   3.489   4.809   1.746 -2.2546  0.2365  0.5869
 7420TIP3    H246456   3.476   4.663   1.784 -1.6051  0.0060 -0.0693
 7421TIP3   OH246457   6.023   4.510   0.722 -0.4868  0.4390 -0.6727
 7421TIP3    H146458   6.064   4.583   0.677 -0.9491  1.4345  0.4748
 7421TIP3    H246459   5.955   4.550   0.777 -0.2277 -0.7448  0.5795
 7422TIP3   OH246460   0.214   2.275   1.470  0.5003 -0.0108  0.0256
 7422TIP3    H146461   0.130   2.233   1.451  0.2416  0.9142 -0.9861
 7422TIP3    H246462   0.219   2.347   1.407  2.0950 -0.1043  0.0227
 7423TIP3   OH246463   0.620   3.646   1.934  0.0466 -0.6613 -0.3872
 7423TIP3    H146464   0.700   3.653   1.881  2.1168 -0.3840  2.5563
 7423TIP3    H246465   0.581   3.733   1.929  2.7315  0.8706  2.0398
 7424TIP3   OH246466   2.756   1.408   3.800 -0.1392  0.4036  0.9146
 7424TIP3    H146467   2.664   1.427   3.821  0.0877 -0.8421  3.3548
 7424TIP3    H246468   2.757   1.315   3.776  0.6800 -0.0002  2.4340
 7425TIP3   OH246469   0.047   3.968   1.162  0.2317  0.2194  0.3581
 7425TIP3    H146470  -0.027   3.953   1.221  0.2350  2.9055  1.2185
 7425TIP3    H246471   0.075   3.881   1.135 -1.1986 -1.0221  2.5585
 7426TIP3   OH246472   4.488   6.324   0.683  0.3637  0.0549  0.1086
 7426TIP3    H146473   4.538   6.243   0.696 -0.7287 -0.8749 -1.1099
 7426TIP3    H246474   4.533   6.370   0.613  0.3983 -0.0129  0.0864
 7427TIP3   OH246475   1.830   2.448   1.703  0.2677  0.9333  0.2548
 7427TIP3    H146476   1.836   2.446   1.608 -1.9674 -0.6593  0.0745
 7427TIP3    H246477   1.916   2.419   1.733  0.1435 -1.4233 -1.3820
 7428TIP3   OH246478   5.460   4.279   2.545 -0.7292  0.1111  0.0802
 7428TIP3    H146479   5.466   4.327   2.628 -0.7962 -1.9020  1.3429
 7428TIP3    H246480   5.538   4.306   2.496 -1.1520  2.0105  0.3855
 7429TIP3   OH246481   2.994   1.069   3.646  0.5573 -0.0234  0.2554
 7429TIP3    H146482   2.989   0.976   3.623  1.1324  0.0671 -0.2426
 7429TIP3    H246483   2.902   1.099   3.644  0.5473 -0.0247 -1.9354
 7430TIP3   OH246484   1.368   5.739   1.900 -0.1110  0.4168 -0.2519
 7430TIP3    H146485   1.319   5.724   1.981  2.1203  2.2553  1.5555
 7430TIP3    H246486   1.449   5.691   1.911  0.6606  1.5167 -0.9142
 7431TIP3   OH246487   1.260   6.509   2.849 -0.1236 -0.3638  0.8794
 7431TIP3    H146488   1.229   6.467   2.769  1.3133 -1.1082  0.6833
 7431TIP3    H246489   1.195   6.577   2.868 -1.5910 -1.5484  0.2474
 7432TIP3   OH246490   5.116   2.490   2.880  0.3588 -0.2906 -0.0700
 7432TIP3    H146491   5.173   2.506   2.805  0.6433 -2.6123 -0.4307
 7432TIP3    H246492   5.089   2.399   2.870  0.0528 -0.5367  2.4244
 7433TIP3   OH246493   4.883   4.642   2.028 -0.0567 -0.3155 -0.1860
 7433TIP3    H146494   4.858   4.730   2.000 -1.3753  0.4651  3.0131
 7433TIP3    H246495   4.976   4.635   2.005  0.0847  1.8851 -0.5382
 7434TIP3   OH246496   4.188   5.437   2.775 -0.3054  0.4495 -0.3628
 7434TIP3    H146497   4.169   5.527   2.804  0.3788  0.6695 -0.5776
 7434TIP3    H246498   4.136   5.382   2.834  0.9167  0.8974  1.2343
 7435TIP3   OH246499   0.915   4.346   3.432  0.3539 -0.2892 -0.6893
 7435TIP3    H146500   0.984   4.330   3.496  0.8917 -0.4764 -1.3108
 7435TIP3    H246501   0.927   4.437   3.406  0.7561 -0.4986 -1.2511
 7436TIP3   OH246502   4.127   0.694   2.478 -0.0943 -0.0190  0.1021
 7436TIP3    H146503   4.061   0.763   2.489  0.9134  0.8682  0.8080
 7436TIP3    H246504   4.114   0.637   2.553 -0.5434 -0.2813 -0.1675
 7437TIP3   OH246505   6.326   1.140   3.584 -0.5237  0.2526 -0.2763
 7437TIP3    H146506   6.261   1.070   3.585  0.1533 -0.4823  2.6078
 7437TIP3    H246507   6.292   1.204   3.646  0.7478  0.5836  0.1039
 7438TIP3   OH246508   1.884   4.798   2.398 -0.7356 -0.6347 -0.5322
 7438TIP3    H146509   1.864   4.762   2.312  1.3519 -1.0271 -0.8910
 7438TIP3    H246510   1.973   4.833   2.390 -2.1923  3.8669  0.0479
 7439TIP3   OH246511   1.846   3.066   3.526  0.6021  0.5768 -0.4427
 7439TIP3    H146512   1.863   3.095   3.436 -0.3550  2.5658 -0.0172
 7439TIP3    H246513   1.763   3.106   3.549  0.7309 -0.0863  1.2749
 7440TIP3   OH246514   6.396   0.493   0.495 -0.0117  0.2138 -0.8041
 7440TIP3    H146515   6.380   0.469   0.404 -0.4280  0.2348 -0.7402
 7440TIP3    H246516   6.324   0.553   0.516 -0.1998 -0.1803 -0.3107
 7441TIP3   OH246517   2.056   3.436   3.565 -0.0244  0.1738  0.3004
 7441TIP3    H146518   2.085   3.520   3.600  0.8235 -0.4189  1.0358
 7441TIP3    H246519   2.005   3.459   3.487  0.5943  1.3369  0.2283
 7442TIP3   OH246520   2.094   3.070   1.437 -0.2754 -0.0706 -0.1480
 7442TIP3    H146521   2.101   3.106   1.349 -0.0938  1.3387  0.4109
 7442TIP3    H246522   2.065   3.143   1.491 -3.5778 -1.6702  0.4699
 7443TIP3   OH246523   6.705   1.574   3.557 -0.4819  0.6505 -0.5699
 7443TIP3    H146524   6.621   1.529   3.549 -0.0375 -0.4415  0.7116
 7443TIP3    H246525   6.731   1.562   3.648  0.3275  2.3249 -0.5399
 7444TIP3   OH246526   0.404   5.902   1.440  0.5082  0.4910  0.0104
 7444TIP3    H146527   0.331   5.941   1.391  0.8675 -0.5010 -1.3734
 7444TIP3    H246528   0.475   5.965   1.429  0.8865 -0.1717 -1.6543
 7445TIP3   OH246529   0.239   2.966   3.400  0.2183  0.0103  0.0765
 7445TIP3    H146530   0.269   3.040   3.347 -0.3842  0.2052 -0.0025
 7445TIP3    H246531   0.286   2.890   3.365  2.8479  0.7018  1.8234
 7446TIP3   OH246532   3.278   3.190   1.768  0.7711  0.0903  0.0839
 7446TIP3    H146533   3.296   3.149   1.853 -0.1460  0.4716  0.4823
 7446TIP3    H246534   3.220   3.128   1.723  2.1541 -0.6383 -0.7474
 7447TIP3   OH246535   6.413   1.736   2.541  0.3116 -0.3713  0.0032
 7447TIP3    H146536   6.361   1.741   2.621  0.4419 -1.0873  0.1367
 7447TIP3    H246537   6.374   1.801   2.483  0.8484  0.8903  1.0006
 7448TIP3   OH246538   6.392   4.787   0.982  0.6333 -0.1270  0.5297
 7448TIP3    H146539   6.420   4.824   0.899  0.5246 -0.6325  0.2604
 7448TIP3    H246540   6.317   4.841   1.008 -0.5997 -1.1681 -0.7007
 7449TIP3   OH246541   1.908   2.496   3.004 -0.0037  0.0220 -0.2676
 7449TIP3    H146542   1.842   2.563   2.984 -0.3292 -0.7462 -1.8926
 7449TIP3    H246543   1.886   2.467   3.093 -1.5908  0.0986 -0.6065
 7450TIP3   OH246544   3.663   3.851   3.494 -0.2915 -0.1807 -0.4295
 7450TIP3    H146545   3.627   3.771   3.455  1.3323  0.0488 -2.5966
 7450TIP3    H246546   3.757   3.833   3.503 -0.1981  0.7978  0.9307
 7451TIP3   OH246547   5.851   3.114   3.430 -0.4114  0.0848 -0.1208
 7451TIP3    H146548   5.914   3.111   3.502  0.8635  0.1805 -1.1962
 7451TIP3    H246549   5.766   3.113   3.473  0.3027 -0.8274  1.3458
 7452TIP3   OH246550   6.640   3.835   3.644 -0.0979  0.3299 -0.0577
 7452TIP3    H146551   6.688   3.792   3.572  0.2282  0.3599  0.1424
 7452TIP3    H246552   6.663   3.784   3.722  0.8148  1.2694  0.2979
 7453TIP3   OH246553   0.572   2.632   3.830 -0.0055 -0.3627 -0.1254
 7453TIP3    H146554   0.507   2.681   3.880  0.3298  2.8314 -2.4684
 7453TIP3    H246555   0.654   2.681   3.842  0.5324 -0.7056 -2.0486
 7454TIP3   OH246556   5.720   2.143   1.231  0.1880  0.3444  0.0785
 7454TIP3    H146557   5.750   2.222   1.186  0.4253  0.4731  0.4580
 7454TIP3    H246558   5.668   2.097   1.166 -0.2684  0.9983 -0.0264
 7455TIP3   OH246559   1.374   2.539   1.042 -0.2680  0.8958  0.0963
 7455TIP3    H146560   1.407   2.626   1.061  2.8204 -0.0867 -0.1990
 7455TIP3    H246561   1.382   2.491   1.124 -0.7799  0.5613 -0.0412
 7456TIP3   OH246562   6.452   4.775   1.586 -0.0237  0.8822  0.0480
 7456TIP3    H146563   6.376   4.787   1.642 -1.4832  1.1813 -1.8889
 7456TIP3    H246564   6.506   4.853   1.602  0.6037  0.0625  2.3808
 7457TIP3   OH246565   2.478   2.842   2.849  0.0822  0.5934  0.3679
 7457TIP3    H146566   2.544   2.778   2.877  0.1615  0.3811 -0.3073
 7457TIP3    H246567   2.527   2.907   2.800 -0.4309 -0.4560 -1.6301
 7458TIP3   OH246568   4.656   2.400   1.462  0.4356 -0.0475 -0.2250
 7458TIP3    H146569   4.689   2.489   1.479 -0.0429  0.4986 -1.8914
 7458TIP3    H246570   4.724   2.360   1.408 -0.2961  0.0843 -1.2785
 7459TIP3   OH246571   4.925   4.480   1.225  0.0996 -0.7150 -0.6469
 7459TIP3    H146572   4.987   4.550   1.205 -0.6194  0.5048  1.1734
 7459TIP3    H246573   4.861   4.483   1.153  0.0228  0.5977 -0.5526
 7460TIP3   OH246574   4.102   4.945   1.980 -0.2492  0.1313  0.1361
 7460TIP3    H146575   4.099   4.878   2.048  1.3474  0.5286  0.6633
 7460TIP3    H246576   4.054   4.907   1.907 -0.5016 -1.0366  0.8707
 7461TIP3   OH246577   4.991   2.226   2.893  0.1851  0.0362 -0.2665
 7461TIP3    H146578   5.017   2.140   2.861  0.0389 -0.4300  0.8169
 7461TIP3    H246579   4.901   2.237   2.862  0.6179  0.3496 -1.4557
 7462TIP3   OH246580   4.493   2.569   1.701  0.1806  0.1602 -0.3473
 7462TIP3    H146581   4.476   2.505   1.631 -0.4310  0.1387 -0.1859
 7462TIP3    H246582   4.493   2.653   1.656 -0.7147  0.1930 -0.3135
 7463TIP3   OH246583   0.471   4.106   1.664  0.2594  0.2159 -0.2131
 7463TIP3    H146584   0.395   4.072   1.710 -0.2004 -0.9481 -1.7398
 7463TIP3    H246585   0.446   4.104   1.571  2.3172 -0.7159 -0.8242
 7464TIP3   OH246586   3.202   2.399   1.456 -0.4125  0.0033 -0.7701
 7464TIP3    H146587   3.267   2.463   1.428  0.7040 -0.5843  0.3461
 7464TIP3    H246588   3.253   2.320   1.474 -1.4880 -0.5789 -0.1918
 7465TIP3   OH246589   6.558   0.948   0.448  0.0233  0.3248 -0.2606
 7465TIP3    H146590   6.613   0.876   0.419 -0.0308  0.4873 -0.7668
 7465TIP3    H246591   6.618   1.022   0.458 -0.0990  0.5087 -0.8361
 7466TIP3   OH246592   4.978   0.566   2.076  0.4657 -0.3434 -0.2348
 7466TIP3    H146593   5.040   0.611   2.019 -0.5463  0.4771 -0.7042
 7466TIP3    H246594   4.902   0.548   2.020  0.5344 -1.9782  0.1338
 7467TIP3   OH246595   0.160   5.030   3.748 -0.3451 -0.2185  0.2839
 7467TIP3    H146596   0.139   4.984   3.829  1.7349  1.4384  1.8671
 7467TIP3    H246597   0.131   5.120   3.763 -1.0243 -0.1236 -1.3291
 7468TIP3   OH246598   2.092   1.668   2.750 -0.1068  0.1703  0.2098
 7468TIP3    H146599   2.137   1.752   2.760 -1.3233  0.8430  0.0677
 7468TIP3    H246600   2.160   1.609   2.716  0.3195  1.5176 -1.3879
 7469TIP3   OH246601   4.772   4.018   2.865  0.2430 -0.2220 -0.1520
 7469TIP3    H146602   4.779   4.113   2.855  1.9526 -0.2537  0.4138
 7469TIP3    H246603   4.685   4.004   2.902 -0.6283  0.9796 -1.6112
 7470TIP3   OH246604   6.043   5.320   1.846  0.6207 -0.0520 -0.2103
 7470TIP3    H146605   6.128   5.314   1.802  1.0296  1.1725  0.3733
 7470TIP3    H246606   6.040   5.244   1.905  0.4718 -1.1768 -1.5981
 7471TIP3   OH246607   2.326   6.689   2.148  0.4648 -0.0719 -0.4882
 7471TIP3    H146608   2.417   6.668   2.125  0.2985  0.1331 -1.3820
 7471TIP3    H246609   2.289   6.607   2.179  0.5549 -0.5008 -1.4844
 7472TIP3   OH246610   2.561   4.412   2.199  0.1563  0.3790 -0.2488
 7472TIP3    H146611   2.530   4.348   2.136 -0.6565 -0.1497  0.6559
 7472TIP3    H246612   2.591   4.486   2.146 -2.6464  0.9502 -1.2109
 7473TIP3   OH246613   6.299   2.780   2.310 -0.2721  0.3884 -0.5177
 7473TIP3    H146614   6.229   2.834   2.347  0.6499  1.9676 -0.9681
 7473TIP3    H246615   6.376   2.837   2.311  0.7189 -0.8892 -1.1557
 7474TIP3   OH246616   5.380   5.976   0.933  0.5789  0.0727  0.0859
 7474TIP3    H146617   5.384   5.968   0.838 -1.0046 -1.0973  0.0728
 7474TIP3    H246618   5.341   6.062   0.948  0.8034  0.2493 -0.3115
 7475TIP3   OH246619   4.996   4.085   4.781 -0.2750  0.0062  0.3228
 7475TIP3    H146620   4.970   4.175   4.797  0.4407  0.1159  0.9408
 7475TIP3    H246621   4.937   4.054   4.713 -1.2980  0.5711  0.9268
 7476TIP3   OH246622   5.855   3.242   2.010  0.1733 -0.2667  0.2130
 7476TIP3    H146623   5.917   3.275   2.075 -0.9916  1.4049  0.5303
 7476TIP3    H246624   5.773   3.286   2.031  0.0148  1.2580 -3.1300
 7477TIP3   OH246625   2.343   2.263   0.745  0.0710  0.2390 -0.1246
 7477TIP3    H146626   2.262   2.227   0.710 -0.4172  0.1515  1.0753
 7477TIP3    H246627   2.397   2.187   0.765  1.2161  0.2935 -2.5355
 7478TIP3   OH246628   4.327   1.065   2.951  0.1196 -0.6789  0.0956
 7478TIP3    H146629   4.311   1.136   2.889  1.0163 -1.2465 -0.8087
 7478TIP3    H246630   4.286   1.094   3.032 -2.3341 -0.5334 -1.1219
 7479TIP3   OH246631   2.997   1.761  11.987  0.4792  0.0825 -0.5597
 7479TIP3    H146632   2.916   1.785  12.031  0.4260 -0.1538 -0.5294
 7479TIP3    H246633   2.971   1.747  11.896  0.2671 -1.1618 -0.3188
 7480TIP3   OH246634   6.275   4.573   3.616 -0.2806  0.3458 -0.0309
 7480TIP3    H146635   6.214   4.499   3.618  0.2135 -0.1848 -2.0937
 7480TIP3    H246636   6.219   4.650   3.613 -0.8121  0.0130  1.0276
 7481TIP3   OH246637   1.145   2.044   2.890 -0.1576 -0.1567 -0.6567
 7481TIP3    H146638   1.168   2.014   2.978 -2.0979 -1.3032 -0.4759
 7481TIP3    H246639   1.206   1.999   2.832 -1.8037 -3.2287 -0.2299
 7482TIP3   OH246640   1.939   4.001   1.107  0.1033  0.2048 -0.2469
 7482TIP3    H146641   2.031   4.008   1.133 -0.0356  0.3923  0.2086
 7482TIP3    H246642   1.920   3.907   1.108  0.2024  0.1881 -0.0377
 7483TIP3   OH246643   2.064   5.088   0.699  0.5122 -0.4129  0.1380
 7483TIP3    H146644   2.084   5.102   0.606 -1.0672  3.1372  0.1498
 7483TIP3    H246645   2.149   5.098   0.743  1.4784 -3.2014 -0.8768
 7484TIP3   OH246646   3.012   4.253   3.166  0.6545  0.6296  0.5871
 7484TIP3    H146647   3.092   4.305   3.174  1.6613 -0.8219  0.2810
 7484TIP3    H246648   3.040   4.163   3.180 -0.9240  0.0730  0.3896
 7485TIP3   OH246649   4.725   5.863   1.658 -0.2755  0.4114  0.1400
 7485TIP3    H146650   4.748   5.775   1.627 -2.9013 -0.0801 -0.6673
 7485TIP3    H246651   4.809   5.906   1.672  1.0852 -1.6894 -0.9985
 7486TIP3   OH246652   3.523   5.172   1.148  0.0433  0.0249  0.0739
 7486TIP3    H146653   3.500   5.092   1.195  0.2128  0.5044  0.9919
 7486TIP3    H246654   3.458   5.178   1.078  1.9023 -2.6270 -2.1180
 7487TIP3   OH246655   3.012   3.200   1.517  0.1581 -0.7233 -0.7237
 7487TIP3    H146656   2.979   3.241   1.598  0.9289  1.6006 -1.5148
 7487TIP3    H246657   3.073   3.133   1.547  0.1969 -0.1114  0.6394
 7488TIP3   OH246658   1.575   0.110   1.974 -0.2407 -0.4779 -0.7994
 7488TIP3    H146659   1.488   0.100   2.013 -0.8795 -0.1854 -2.1148
 7488TIP3    H246660   1.594   0.204   1.981  1.0384 -0.8070  1.6100
 7489TIP3   OH246661   2.808   6.052   2.457 -0.0176  0.2504  0.0511
 7489TIP3    H146662   2.758   6.004   2.523 -1.8739  0.7467 -0.9233
 7489TIP3    H246663   2.824   6.138   2.497  1.6316 -0.4767  1.0425
 7490TIP3   OH246664   0.674   0.310   3.014  0.5060 -0.0803 -0.0215
 7490TIP3    H146665   0.632   0.308   3.100  1.5601  1.4888  0.5854
 7490TIP3    H246666   0.604   0.291   2.952 -0.3113 -1.0629  1.1599
 7491TIP3   OH246667   6.029   3.137   5.028  0.2105 -0.1114 -0.0394
 7491TIP3    H146668   5.960   3.149   4.962  1.0467 -0.4122 -0.9878
 7491TIP3    H246669   6.007   3.055   5.070 -0.0662 -0.1652 -0.2833
 7492TIP3   OH246670   4.232   2.921   2.290 -0.5272 -0.5185 -0.7384
 7492TIP3    H146671   4.221   2.826   2.283 -0.9603 -0.4537 -0.9551
 7492TIP3    H246672   4.148   2.957   2.264 -0.2837 -0.0644 -0.9144
 7493TIP3   OH246673   3.536   3.200   1.659 -0.2326  0.0068 -0.4664
 7493TIP3    H146674   3.442   3.211   1.674 -0.3313  1.2734 -1.7206
 7493TIP3    H246675   3.561   3.278   1.610  1.1339 -1.1483 -1.6947
 7494TIP3   OH246676   2.077   3.419   2.630 -0.1301  0.1905  0.1014
 7494TIP3    H146677   2.019   3.393   2.558 -0.1146 -0.5713  0.3557
 7494TIP3    H246678   2.017   3.452   2.697 -0.2828 -0.5366  0.3393
 7495TIP3   OH246679   2.357   0.484   1.540  0.0129 -0.5324  0.3915
 7495TIP3    H146680   2.366   0.501   1.634 -0.8186  0.4983  0.3059
 7495TIP3    H246681   2.274   0.524   1.517  1.7184  2.2552 -1.4579
 7496TIP3   OH246682   5.104   1.734   0.813  0.1424  0.6453 -0.4856
 7496TIP3    H146683   5.123   1.655   0.864  2.2185  0.9152 -0.7493
 7496TIP3    H246684   5.057   1.702   0.736  0.0226 -0.1949 -0.0761
 7497TIP3   OH246685   0.397   2.190   3.443 -0.3287 -0.3873 -0.5084
 7497TIP3    H146686   0.477   2.216   3.397 -0.1444 -0.9160 -0.4916
 7497TIP3    H246687   0.343   2.148   3.376 -1.4267  1.6324 -0.9838
 7498TIP3   OH246688   6.690   4.189   2.224  0.0353 -0.3213 -0.0663
 7498TIP3    H146689   6.650   4.248   2.288  1.6722  1.2668 -0.4058
 7498TIP3    H246690   6.783   4.188   2.248  0.6792  0.2428 -2.3368
 7499TIP3   OH246691   1.701   4.633   3.387  0.9105  0.1390 -0.0994
 7499TIP3    H146692   1.689   4.644   3.481 -1.4490  0.3980 -0.3583
 7499TIP3    H246693   1.631   4.572   3.361  1.4827  0.0980 -1.6906
 7500TIP3   OH246694   4.615   4.294   3.300  0.4059  0.4822 -0.5153
 7500TIP3    H146695   4.555   4.334   3.363  1.5125 -0.3238  1.1088
 7500TIP3    H246696   4.568   4.299   3.216 -0.9728  1.8889  0.2770
 7501TIP3   OH246697   3.099   1.697   2.865 -0.0937  0.2129  0.2099
 7501TIP3    H146698   3.043   1.632   2.822 -2.0085  1.4167  0.7840
 7501TIP3    H246699   3.155   1.730   2.795 -0.5522 -0.5415 -0.5349
 7502TIP3   OH246700   6.240   1.425   2.532  0.0117  0.6909  0.4578
 7502TIP3    H146701   6.247   1.397   2.623  0.6742  0.2413  0.2709
 7502TIP3    H246702   6.243   1.521   2.536  2.0341  0.6592  0.7690
 7503TIP3   OH246703   6.353   2.459   3.205  0.2818 -0.9546 -0.3257
 7503TIP3    H146704   6.377   2.408   3.127  0.5012 -0.7855 -0.3709
 7503TIP3    H246705   6.403   2.540   3.196 -0.1217 -0.6993 -0.2925
 7504TIP3   OH246706   1.786   1.914   2.337  0.1580  0.2937 -0.1987
 7504TIP3    H146707   1.827   2.001   2.342  1.2942 -0.1978 -0.6226
 7504TIP3    H246708   1.804   1.874   2.421  0.0350  0.2951 -0.1718
 7505TIP3   OH246709   3.133   6.517   1.753 -0.1520 -0.3901 -0.1645
 7505TIP3    H146710   3.147   6.470   1.835  4.1138  0.0048 -0.4305
 7505TIP3    H246711   3.216   6.510   1.707 -1.8968  0.6939 -3.8381
 7506TIP3   OH246712   6.478   2.712   3.468  0.3178  0.3856  0.4778
 7506TIP3    H146713   6.488   2.616   3.467 -3.9048 -0.3097 -2.2709
 7506TIP3    H246714   6.503   2.739   3.379 -2.7419  1.0637 -0.2617
 7507TIP3   OH246715   1.787   2.430   2.734 -0.1488 -0.7848  0.3000
 7507TIP3    H146716   1.719   2.427   2.801 -1.3673  1.3974 -0.7124
 7507TIP3    H246717   1.862   2.472   2.777 -0.4666 -0.5725  0.6470
 7508TIP3   OH246718   4.669   0.025   3.613  0.0560 -0.2090 -0.4313
 7508TIP3    H146719   4.741   0.084   3.633  0.7704 -0.9673 -0.7155
 7508TIP3    H246720   4.637   0.052   3.527 -1.0473  1.1266  0.3509
 7509TIP3   OH246721   4.204   0.360   3.433  0.4048  0.0360 -0.6165
 7509TIP3    H146722   4.249   0.425   3.487 -0.6773  0.1218  0.2227
 7509TIP3    H246723   4.133   0.409   3.392  0.7510 -0.2046 -1.5216
 7510TIP3   OH246724   2.801   1.833   1.333  0.4222 -0.0396  0.2162
 7510TIP3    H146725   2.732   1.776   1.301  0.1860  0.9362 -1.1057
 7510TIP3    H246726   2.759   1.890   1.397  0.4869 -0.7820  0.9440
 7511TIP3   OH246727   6.462   3.343   4.263  0.2152  0.3253  0.6027
 7511TIP3    H146728   6.447   3.368   4.354  1.5576  2.3050  0.3349
 7511TIP3    H246729   6.496   3.254   4.268  1.1217  0.7116  2.1316
 7512TIP3   OH246730   6.413   1.514   3.198 -0.0232 -0.5678  0.2774
 7512TIP3    H146731   6.348   1.524   3.268 -0.3887  0.0657 -0.1435
 7512TIP3    H246732   6.484   1.572   3.224  0.2939 -1.0980  0.6274
 7513TIP3   OH246733   4.496   2.637   0.967  0.0633  0.1531 -0.2863
 7513TIP3    H146734   4.539   2.564   0.923 -0.7234 -2.3027  2.7087
 7513TIP3    H246735   4.419   2.655   0.913 -0.3446 -2.0276 -0.5130
 7514TIP3   OH246736   3.848   4.302   2.790 -0.1684  0.0019 -0.1851
 7514TIP3    H146737   3.804   4.279   2.872 -0.9000 -2.7908 -1.2464
 7514TIP3    H246738   3.863   4.396   2.797 -2.5264  0.3379  2.0300
 7515TIP3   OH246739   0.519   3.487   4.495 -0.3014  0.4227 -0.8151
 7515TIP3    H146740   0.427   3.509   4.505 -0.4044 -0.6306  0.8948
 7515TIP3    H246741   0.523   3.393   4.510  1.2893  0.7499  1.2029
 7516TIP3   OH246742   4.352   2.807   2.964  0.1300 -0.0889 -0.3164
 7516TIP3    H146743   4.436   2.765   2.981  1.3940  1.9670 -1.0718
 7516TIP3    H246744   4.370   2.869   2.893 -2.0337  0.4199 -0.5057
 7517TIP3   OH246745   2.087   6.182   1.887  0.0774 -0.7209  0.2535
 7517TIP3    H146746   2.169   6.231   1.881 -0.2594 -0.1709  0.1232
 7517TIP3    H246747   2.046   6.193   1.801 -1.5766  1.5789  1.2340
 7518TIP3   OH246748   2.905   1.216   2.815  0.8010 -0.6254  0.0038
 7518TIP3    H146749   2.901   1.222   2.910  3.2052 -1.3934  0.2320
 7518TIP3    H246750   2.976   1.153   2.798 -0.1132 -1.1515 -2.2931
 7519TIP3   OH246751   2.339   4.566   1.923  0.2039 -0.3128  0.3020
 7519TIP3    H146752   2.375   4.478   1.914 -1.1758 -0.7771 -1.1642
 7519TIP3    H246753   2.328   4.596   1.833  3.2762  2.5661  0.6735
 7520TIP3   OH246754   5.442   1.950   1.076  0.3708  0.5264 -0.3448
 7520TIP3    H146755   5.461   1.858   1.056  1.2898  0.8062 -0.8149
 7520TIP3    H246756   5.418   1.950   1.168 -0.5273 -0.3082 -0.5658
 7521TIP3   OH246757   1.080   0.305   1.923  0.0166  0.0730  0.8738
 7521TIP3    H146758   1.119   0.221   1.901  0.1263  0.5220 -0.7614
 7521TIP3    H246759   1.017   0.285   1.992  0.2734 -1.2858  0.7446
 7522TIP3   OH246760   4.616   4.509   0.610  0.0715 -0.4328  0.8735
 7522TIP3    H146761   4.699   4.550   0.634  1.3248 -0.3861 -2.8887
 7522TIP3    H246762   4.571   4.574   0.557 -1.2997 -1.3215  0.8863
 7523TIP3   OH246763   5.680   6.034   3.352 -0.0328  0.0782  0.2919
 7523TIP3    H146764   5.754   6.013   3.295 -0.6766  0.8121 -0.8395
 7523TIP3    H246765   5.721   6.068   3.432  0.8738  0.9803 -0.5235
 7524TIP3   OH246766   2.858   5.370   0.676  0.2060  0.1052  0.3974
 7524TIP3    H146767   2.791   5.316   0.719  0.0547  0.4625  0.6156
 7524TIP3    H246768   2.810   5.421   0.611  0.3422  0.0022  0.2173
 7525TIP3   OH246769   5.818   5.348   1.619  0.0880  0.7136  0.0875
 7525TIP3    H146770   5.886   5.362   1.685  1.1243 -0.3030 -0.7133
 7525TIP3    H246771   5.811   5.431   1.573  0.0573  1.1283  0.8194
 7526TIP3   OH246772   2.440   4.317   1.897  0.0856 -0.0099 -0.1425
 7526TIP3    H146773   2.516   4.260   1.901  0.4937  0.3181 -2.3732
 7526TIP3    H246774   2.405   4.306   1.809 -0.3257  2.5181 -0.3732
 7527TIP3   OH246775   2.437   2.364   2.569  0.2897 -0.3788 -0.0565
 7527TIP3    H146776   2.447   2.281   2.523  0.5620 -1.0920  1.2459
 7527TIP3    H246777   2.344   2.385   2.562  0.4596 -0.0632 -1.5851
 7528TIP3   OH246778   6.486   0.435   0.747 -0.0367  0.1755  0.5681
 7528TIP3    H146779   6.443   0.450   0.663  1.1121  0.4074  0.0005
 7528TIP3    H246780   6.572   0.399   0.724 -0.5999 -2.0718  1.7317
 7529TIP3   OH246781   3.092   4.714   3.321  0.3482 -0.2973 -0.3138
 7529TIP3    H146782   3.172   4.720   3.373 -0.0121 -1.1631  0.3676
 7529TIP3    H246783   3.072   4.621   3.318 -1.2443 -0.0162  0.4789
 7530TIP3   OH246784   1.284   5.069   4.477 -0.5300  0.3484  0.3880
 7530TIP3    H146785   1.237   4.991   4.448  1.8760 -1.0515 -0.0265
 7530TIP3    H246786   1.364   5.035   4.518  1.5425  2.5756 -1.4915
 7531TIP3   OH246787   6.524   6.332   1.067 -0.4760  0.1535 -0.6046
 7531TIP3    H146788   6.520   6.351   0.974  0.5218  0.3841 -0.6126
 7531TIP3    H246789   6.445   6.372   1.103  0.8032  3.1116 -0.8469
 7532TIP3   OH246790   6.177   5.290   3.839 -0.1370 -0.5713 -0.8231
 7532TIP3    H146791   6.123   5.282   3.760 -1.2534  0.1078 -0.1437
 7532TIP3    H246792   6.197   5.383   3.846 -2.4093 -0.1481  1.1941
 7533TIP3   OH246793   3.564   4.306   1.465 -0.4042 -0.2161 -0.6905
 7533TIP3    H146794   3.514   4.253   1.403 -0.7086 -0.6150 -0.1062
 7533TIP3    H246795   3.538   4.396   1.445  0.5808 -0.2148 -2.1047
 7534TIP3   OH246796   4.595   4.747   0.827 -0.1573  0.1405  0.2302
 7534TIP3    H146797   4.594   4.840   0.806 -1.1832  0.1742  0.3782
 7534TIP3    H246798   4.541   4.707   0.758  0.9116 -0.4584 -0.2920
 7535TIP3   OH246799   4.893   4.125   4.035 -0.1284 -0.2942  0.0764
 7535TIP3    H146800   4.854   4.045   4.072 -1.0209  1.4976  3.3657
 7535TIP3    H246801   4.974   4.137   4.085  0.1948  0.6532 -0.6611
 7536TIP3   OH246802   2.504   1.431   0.925  0.9289  0.5473 -0.2816
 7536TIP3    H146803   2.454   1.439   0.843  0.6772 -1.4921 -0.3740
 7536TIP3    H246804   2.438   1.428   0.993  0.9399 -1.1226 -0.3159
 7537TIP3   OH246805   2.067   4.843   1.812  0.1836  0.3307 -0.3409
 7537TIP3    H146806   2.156   4.856   1.845  0.1950  0.6681 -0.4907
 7537TIP3    H246807   2.043   4.929   1.776  0.3916 -0.1509 -1.7106
 7538TIP3   OH246808   0.611   4.796   3.057  1.0044  0.0462  0.4582
 7538TIP3    H146809   0.644   4.717   3.101  2.1878  0.4118  0.2607
 7538TIP3    H246810   0.570   4.764   2.977 -1.1308 -0.6318  1.7202
 7539TIP3   OH246811   6.475   0.317   2.245  0.0960 -0.0389  0.4663
 7539TIP3    H146812   6.410   0.376   2.205 -0.3614 -0.2028  0.9639
 7539TIP3    H246813   6.531   0.290   2.172 -2.2606 -2.3892 -0.6092
 7540TIP3   OH246814   1.507   2.926   2.477  0.1995  0.5686 -0.0219
 7540TIP3    H146815   1.468   2.966   2.400  1.3950  0.7539 -0.5600
 7540TIP3    H246816   1.519   2.834   2.453 -0.4557  0.3691  0.3749
 7541TIP3   OH246817   0.467   1.072   1.815  0.1550  0.4598 -0.0408
 7541TIP3    H146818   0.457   0.979   1.795  0.1835  0.3986  0.2306
 7541TIP3    H246819   0.441   1.080   1.906  2.8532  0.2144  0.8413
 7542TIP3   OH246820   0.957   3.139   3.583  0.3676  0.6623  0.1792
 7542TIP3    H146821   0.958   3.179   3.495  2.9139 -1.1104 -0.7211
 7542TIP3    H246822   0.893   3.068   3.576  1.3956 -0.2178 -0.6730
 7543TIP3   OH246823   5.990   0.707   3.466  0.3001  0.2231  0.3019
 7543TIP3    H146824   5.972   0.613   3.475 -1.2058  0.4130 -0.5514
 7543TIP3    H246825   5.960   0.730   3.378 -0.9600  1.8469  1.1032
 7544TIP3   OH246826   4.549   0.580   2.471 -0.2850 -0.2549  0.5388
 7544TIP3    H146827   4.629   0.535   2.499 -1.0296 -3.1809 -1.5615
 7544TIP3    H246828   4.546   0.659   2.525  2.3160 -1.6057  2.9230
 7545TIP3   OH246829   5.385   2.273   2.181 -0.7146 -0.2360  0.0924
 7545TIP3    H146830   5.397   2.344   2.118 -0.2161 -1.6156 -1.4048
 7545TIP3    H246831   5.290   2.261   2.186 -0.7395 -0.3982 -0.7210
 7546TIP3   OH246832   4.379   6.075   2.195  0.2206  0.4659  0.0022
 7546TIP3    H146833   4.428   6.080   2.112  0.6899 -0.4240  0.2089
 7546TIP3    H246834   4.305   6.134   2.182  0.6182  0.8101 -0.8263
 7547TIP3   OH246835   2.959   5.494   2.023 -0.1272  0.4053 -0.4676
 7547TIP3    H146836   3.012   5.517   1.947  0.8317  0.6824  0.2687
 7547TIP3    H246837   3.004   5.533   2.097 -0.7588 -0.3021  0.3187
 7548TIP3   OH246838   3.248   5.090   1.685 -0.1668  0.1673  0.7702
 7548TIP3    H146839   3.306   5.121   1.754  1.7020  0.1575 -0.7231
 7548TIP3    H246840   3.161   5.093   1.724  0.3916  3.2882  2.0807
 7549TIP3   OH246841   1.069   2.527   1.321 -0.4929  0.4877 -0.6876
 7549TIP3    H146842   1.162   2.505   1.319 -0.6307 -0.0216 -1.7451
 7549TIP3    H246843   1.065   2.606   1.376  0.4271 -0.0480  0.1928
 7550TIP3   OH246844   3.946   6.176   2.910 -0.5127  0.4327 -0.0870
 7550TIP3    H146845   4.007   6.250   2.920 -0.6620  0.6711 -0.8897
 7550TIP3    H246846   3.965   6.119   2.985  1.6807 -0.1968 -1.0409
 7551TIP3   OH246847   3.926   2.288   1.665  0.0797  0.3422  0.5817
 7551TIP3    H146848   3.895   2.310   1.577  1.2048  1.4921  0.4411
 7551TIP3    H246849   3.897   2.361   1.719  1.4303  0.8157  0.6859
 7552TIP3   OH246850   0.592   4.731   3.810 -0.8274  0.6410  0.2998
 7552TIP3    H146851   0.622   4.747   3.899  0.2326  0.3902 -0.0037
 7552TIP3    H246852   0.586   4.818   3.770  0.0316  0.6550  0.1974
 7553TIP3   OH246853   2.512   3.019   2.090 -0.2453 -0.5142  0.0029
 7553TIP3    H146854   2.577   3.068   2.140 -0.4254  3.0348 -2.8222
 7553TIP3    H246855   2.563   2.956   2.039  0.6703  0.1560  0.0597
 7554TIP3   OH246856   2.884   4.992   2.834  0.1012  0.4284  0.2507
 7554TIP3    H146857   2.905   5.001   2.927 -1.4482  1.1672  0.5567
 7554TIP3    H246858   2.807   4.935   2.832 -0.6271  1.4057 -0.4707
 7555TIP3   OH246859   0.213   5.123   0.682  0.6016 -0.2848  0.0731
 7555TIP3    H146860   0.275   5.089   0.746  0.8020  0.2741  0.1822
 7555TIP3    H246861   0.205   5.217   0.702  1.2028  0.0514 -1.1378
 7556TIP3   OH246862   2.359   3.138   1.040  0.1657  0.3038  0.1695
 7556TIP3    H146863   2.297   3.182   1.098 -1.9288 -1.3271 -0.7162
 7556TIP3    H246864   2.356   3.046   1.067  0.5123 -0.1776 -1.3284
 7557TIP3   OH246865   2.580   3.728   2.886 -0.2678  0.5363 -0.1868
 7557TIP3    H146866   2.586   3.680   2.803 -0.0487 -0.4430  0.3832
 7557TIP3    H246867   2.576   3.820   2.860 -1.4711  0.1972 -1.3433
 7558TIP3   OH246868   2.342   2.433   1.196  0.1056 -0.2524 -0.2420
 7558TIP3    H146869   2.392   2.357   1.168  2.6482  1.4356 -0.6701
 7558TIP3    H246870   2.327   2.483   1.116 -0.9834  0.0146  0.1083
 7559TIP3   OH246871   6.062   1.207   2.642 -0.4766  0.7042 -0.0889
 7559TIP3    H146872   6.066   1.291   2.686 -0.2455  1.3915 -1.3620
 7559TIP3    H246873   6.071   1.228   2.549  0.0498 -0.7635 -0.4020
 7560TIP3   OH246874   2.455   4.168   4.787 -0.4122 -0.2467  0.6102
 7560TIP3    H146875   2.410   4.094   4.828 -1.5349  1.0912  1.8992
 7560TIP3    H246876   2.404   4.184   4.707 -0.5901 -0.4138  0.6866
 7561TIP3   OH246877   3.674   0.584   2.365  0.2381 -0.1123  0.2174
 7561TIP3    H146878   3.735   0.612   2.297  0.2490 -1.1324 -0.2276
 7561TIP3    H246879   3.691   0.490   2.374 -0.6083 -0.2224  0.7618
 7562TIP3   OH246880   2.561   0.304   3.142  0.2667  0.1146  0.3284
 7562TIP3    H146881   2.500   0.313   3.215  0.1501 -1.7184  0.5042
 7562TIP3    H246882   2.642   0.273   3.182  0.9341  1.2854 -0.0678
 7563TIP3   OH246883   2.078   0.879   2.556 -0.0374 -0.0027  0.3428
 7563TIP3    H146884   2.073   0.914   2.467 -0.8916 -1.3331 -0.1780
 7563TIP3    H246885   2.110   0.952   2.610 -0.0975  1.0062 -0.9455
 7564TIP3   OH246886   0.022   3.381   5.290  0.4293 -0.6547  0.5193
 7564TIP3    H146887   0.049   3.379   5.382 -1.3542  0.0973  1.1016
 7564TIP3    H246888   0.032   3.472   5.264  0.3436 -0.7491  0.1527
 7565TIP3   OH246889   5.026   5.623   3.644  0.3515 -0.0719  0.1926
 7565TIP3    H146890   5.117   5.593   3.637  0.7646  0.8114  1.3578
 7565TIP3    H246891   5.022   5.667   3.729 -0.7411  1.3430 -0.5380
 7566TIP3   OH246892   3.031   2.859   3.347 -0.2081  0.3487  0.1763
 7566TIP3    H146893   3.120   2.825   3.356 -0.2137  0.2341 -0.1870
 7566TIP3    H246894   3.037   2.929   3.282 -0.5870 -0.4837 -0.7926
 7567TIP3   OH246895   0.009   2.335   0.869 -0.4219  0.2162 -0.5254
 7567TIP3    H146896  -0.075   2.376   0.849 -0.4072  0.4609 -0.0980
 7567TIP3    H246897   0.053   2.327   0.785  0.0472  2.0981 -0.4913
 7568TIP3   OH246898   2.531   6.606   3.629  0.0193  0.1246  0.3953
 7568TIP3    H146899   2.484   6.686   3.654  0.2878  1.0656 -1.9034
 7568TIP3    H246900   2.484   6.536   3.674 -1.5596  1.3713  0.7673
 7569TIP3   OH246901   3.293   3.894   2.865  0.1980 -0.4604  0.3996
 7569TIP3    H146902   3.249   3.975   2.888 -1.8993 -0.2915 -3.4175
 7569TIP3    H246903   3.372   3.922   2.818 -0.7924 -0.5139 -1.3801
 7570TIP3   OH246904   1.337   2.484   1.320  0.2015  0.4119  0.0946
 7570TIP3    H146905   1.428   2.501   1.345 -0.1572  2.0948  0.4357
 7570TIP3    H246906   1.315   2.401   1.362  1.8236 -0.4835 -0.7200
 7571TIP3   OH246907   3.767   0.295   0.537 -0.6777  0.4579  0.2446
 7571TIP3    H146908   3.737   0.207   0.513  0.1557 -0.4659  2.3149
 7571TIP3    H246909   3.806   0.330   0.457 -1.2039 -0.9945 -0.6807
 7572TIP3   OH246910   3.485   2.810   3.896 -0.4482  0.0869 -0.7224
 7572TIP3    H146911   3.478   2.812   3.800 -0.5758 -0.7112 -0.7388
 7572TIP3    H246912   3.410   2.861   3.926 -0.4847  0.2295 -1.0460
 7573TIP3   OH246913   1.249   1.862   3.094  0.1309 -0.0051  0.3694
 7573TIP3    H146914   1.188   1.830   3.160 -1.4899  0.0086 -1.0615
 7573TIP3    H246915   1.335   1.829   3.123 -0.9636 -2.8904  0.7237
 7574TIP3   OH246916   0.654   4.333   1.564 -0.1548 -0.2679  0.1114
 7574TIP3    H146917   0.673   4.304   1.653 -0.2118  0.2083  0.2847
 7574TIP3    H246918   0.577   4.281   1.538 -1.8965  1.5137  1.3957
 7575TIP3   OH246919   5.006   6.562   0.841  0.2306  0.0572  0.3648
 7575TIP3    H146920   4.964   6.592   0.922 -1.4533  0.0894 -0.4812
 7575TIP3    H246921   4.938   6.513   0.795  1.0569  0.2673 -1.1586
 7576TIP3   OH246922   6.462   0.116   3.457 -0.4408  0.1679 -0.0232
 7576TIP3    H146923   6.392   0.060   3.424  0.3305 -1.5282  1.0559
 7576TIP3    H246924   6.541   0.062   3.453  0.6238  1.6575 -0.1965
 7577TIP3   OH246925   4.692   4.653   1.349 -0.5715  0.1525  0.4974
 7577TIP3    H146926   4.719   4.666   1.258  0.0616 -1.1261  0.4772
 7577TIP3    H246927   4.603   4.620   1.342 -0.4700 -0.0940  0.3226
 7578TIP3   OH246928   0.153   0.449   1.500  0.1728  0.3884  0.4844
 7578TIP3    H146929   0.138   0.522   1.559  0.7852  0.5641  0.4359
 7578TIP3    H246930   0.066   0.418   1.476 -0.0811 -0.1997  2.0930
 7579TIP3   OH246931   5.693   4.661   1.268  0.5170 -0.1045 -0.1318
 7579TIP3    H146932   5.632   4.703   1.329 -0.1945  0.2918 -1.0927
 7579TIP3    H246933   5.765   4.631   1.323  0.1722  0.7665  0.8215
 7580TIP3   OH246934   4.607   5.253   3.000 -0.6813 -0.4423 -0.7148
 7580TIP3    H146935   4.656   5.194   2.942 -1.3803  0.4296 -2.2366
 7580TIP3    H246936   4.635   5.340   2.974  0.2913 -0.0275  1.4731
 7581TIP3   OH246937   1.124   5.962   1.498 -0.2708  0.3578 -0.1432
 7581TIP3    H146938   1.147   5.970   1.590 -0.7680 -0.0873  0.0243
 7581TIP3    H246939   1.201   5.994   1.451 -0.0853  0.7507  0.4266
 7582TIP3   OH246940   5.863   4.555   4.760  0.7571  0.2606 -0.7248
 7582TIP3    H146941   5.872   4.649   4.745  1.1248  0.4363  0.4613
 7582TIP3    H246942   5.803   4.525   4.691 -0.6773  1.6569 -0.1487
 7583TIP3   OH246943   6.195   2.697   3.459 -0.1920  0.1675 -0.7057
 7583TIP3    H146944   6.287   2.680   3.481 -0.4799  0.7324  1.0915
 7583TIP3    H246945   6.177   2.783   3.498 -1.4030  0.2035 -1.3129
 7584TIP3   OH246946   1.851   5.880   3.072 -0.3964  0.0951  0.3311
 7584TIP3    H146947   1.863   5.921   3.158  0.8511  1.0844 -0.2750
 7584TIP3    H246948   1.875   5.948   3.009  1.1334 -1.3294 -0.7383
 7585TIP3   OH246949   4.045   1.429   1.995 -0.0907  0.5777  0.0599
 7585TIP3    H146950   4.085   1.442   1.909  0.6755 -0.3479  0.2586
 7585TIP3    H246951   4.056   1.514   2.040  0.0049  0.8902 -0.5506
 7586TIP3   OH246952   5.862   3.883   3.945 -0.3099  0.2598 -0.6711
 7586TIP3    H146953   5.937   3.936   3.921  0.7659 -1.0984 -0.4445
 7586TIP3    H246954   5.831   3.919   4.028  1.2897 -0.3135  0.2135
 7587TIP3   OH246955   3.002   1.822   1.588  0.1547 -0.1456  0.0195
 7587TIP3    H146956   3.005   1.732   1.556 -0.8394 -0.6661  1.3204
 7587TIP3    H246957   2.914   1.853   1.567  0.2374  0.2590  0.2508
 7588TIP3   OH246958   4.479   0.837   1.778 -0.5814  0.5484  0.1469
 7588TIP3    H146959   4.397   0.872   1.744  0.0097  3.0203  1.0823
 7588TIP3    H246960   4.452   0.767   1.838 -1.8581 -0.1570 -1.1980
 7589TIP3   OH246961   5.348   1.594   3.190  0.5711 -0.3483 -0.0463
 7589TIP3    H146962   5.354   1.672   3.246  1.1451 -0.3140 -0.1522
 7589TIP3    H246963   5.311   1.527   3.247 -2.4159  0.6443 -0.6259
 7590TIP3   OH246964   1.452   6.246   2.759  0.4082 -0.6390 -0.1185
 7590TIP3    H146965   1.400   6.293   2.693  1.6326  1.6292  0.4231
 7590TIP3    H246966   1.533   6.224   2.715  0.5243 -0.6927  0.1189
 7591TIP3   OH246967   2.591   2.670   4.212 -0.0849 -0.2611  1.0426
 7591TIP3    H146968   2.586   2.709   4.299  2.6484  1.7385  0.4521
 7591TIP3    H246969   2.667   2.612   4.216 -0.3318 -0.6650  0.1652
 7592TIP3   OH246970   6.385   0.099   1.517  0.0078 -0.0274 -0.5961
 7592TIP3    H146971   6.355   0.135   1.434 -2.0104  1.1153  0.5446
 7592TIP3    H246972   6.327   0.026   1.534 -0.9493  0.9851  0.7166
 7593TIP3   OH246973   4.716   2.658   1.489 -0.0021  0.2515  0.0828
 7593TIP3    H146974   4.675   2.733   1.446 -2.0669 -0.1927  1.1229
 7593TIP3    H246975   4.762   2.696   1.564 -0.2621  0.5777  0.0798
 7594TIP3   OH246976   0.792   3.413   3.444  0.0217 -0.2465  0.8517
 7594TIP3    H146977   0.741   3.492   3.426  2.0977  1.1336  0.7991
 7594TIP3    H246978   0.794   3.408   3.540  1.0554  0.5936  0.8911
 7595TIP3   OH246979   4.803   1.202   1.243  0.3173 -0.3604  0.3761
 7595TIP3    H146980   4.869   1.211   1.312 -1.1830  0.8646  1.7192
 7595TIP3    H246981   4.819   1.278   1.186 -0.8211  0.7981  1.5387
 7596TIP3   OH246982   2.222   5.583   2.824  0.4595  0.6257  0.1858
 7596TIP3    H146983   2.238   5.538   2.740  2.1098  1.9285 -0.2526
 7596TIP3    H246984   2.254   5.521   2.890 -1.4401 -0.6829 -0.0452
 7597TIP3   OH246985   3.575   4.321   1.861  0.3009 -0.0516 -0.1089
 7597TIP3    H146986   3.496   4.298   1.910  1.3538 -0.3951  1.5207
 7597TIP3    H246987   3.610   4.237   1.830  2.0748 -0.4310  2.5566
 7598TIP3   OH246988   6.291   6.661   3.327 -0.3286  0.6218 -0.0106
 7598TIP3    H146989   6.294   6.587   3.266  1.3153  1.6179 -1.2110
 7598TIP3    H246990   6.225   6.635   3.391 -3.0906 -0.0084 -2.8161
 7599TIP3   OH246991   4.374   5.066   1.879 -0.9010 -0.4869  0.6817
 7599TIP3    H146992   4.300   5.020   1.918 -1.7122 -1.3467 -1.6786
 7599TIP3    H246993   4.415   5.001   1.821 -0.9321  1.1790 -1.3147
 7600TIP3   OH246994   6.363   3.895   3.603 -0.1988  0.8564 -0.9480
 7600TIP3    H146995   6.448   3.860   3.630 -0.5242  1.7173  1.3895
 7600TIP3    H246996   6.305   3.819   3.602  0.1783  0.5653 -0.7534
 7601TIP3   OH246997   1.260   3.051   2.315 -0.2378 -0.1377 -0.1491
 7601TIP3    H146998   1.270   2.981   2.250  0.5337  0.7373 -1.0083
 7601TIP3    H246999   1.337   3.106   2.302  0.0777 -0.0657  1.6959
 7602TIP3   OH247000   4.134   5.687   3.617 -0.6221  0.6241  0.4648
 7602TIP3    H147001   4.223   5.700   3.649 -0.9111 -0.6632  1.9553
 7602TIP3    H247002   4.135   5.599   3.578 -0.5638  1.7188 -2.1983
 7603TIP3   OH247003   5.709   4.385   1.764  0.2257 -0.6753  0.4082
 7603TIP3    H147004   5.624   4.395   1.808  0.4522  0.1143  0.6849
 7603TIP3    H247005   5.690   4.405   1.672 -0.0888 -1.5502  0.2695
 7604TIP3   OH247006   2.726   4.869   2.607 -0.1072  0.4130 -0.1370
 7604TIP3    H147007   2.728   4.958   2.570  0.2757  0.5619  0.2266
 7604TIP3    H247008   2.757   4.813   2.536  0.1090  0.6301 -0.2182
 7605TIP3   OH247009   1.554   5.516   3.559  0.4378 -0.2975  0.0096
 7605TIP3    H147010   1.489   5.529   3.628 -0.3937 -1.7303 -0.4759
 7605TIP3    H247011   1.614   5.450   3.595 -0.3167 -1.4663 -0.8235
 7606TIP3   OH247012   5.001   1.992   0.771  0.1195  0.4003  0.8023
 7606TIP3    H147013   5.039   2.000   0.859  0.5709  1.7863  0.4972
 7606TIP3    H247014   5.026   1.903   0.743  1.7906  0.6855  1.2554
 7607TIP3   OH247015   3.845   5.644   3.322 -0.1205 -0.5275 -0.0734
 7607TIP3    H147016   3.877   5.580   3.258  1.5612  0.7819 -0.6312
 7607TIP3    H247017   3.750   5.644   3.311  0.1043 -0.3192 -2.6620
 7608TIP3   OH247018   1.033   3.434   1.686 -0.7291 -0.1496  0.0657
 7608TIP3    H147019   1.104   3.428   1.749 -0.2836 -0.0906 -0.4187
 7608TIP3    H247020   1.050   3.517   1.640 -1.7252  0.4039  0.6758
 7609TIP3   OH247021   1.353   2.063   1.369  0.5894 -0.2619  0.0956
 7609TIP3    H147022   1.268   2.060   1.413  0.2519 -1.6057 -0.5772
 7609TIP3    H247023   1.377   2.155   1.369 -0.6573  0.0893  0.7059
 7610TIP3   OH247024   3.709   5.398   1.377  0.0471 -0.2638 -0.0816
 7610TIP3    H147025   3.669   5.339   1.313  0.8220  0.0526 -0.8660
 7610TIP3    H247026   3.674   5.368   1.462 -0.2287 -1.2967 -0.5487
 7611TIP3   OH247027   5.080   5.481   3.378  0.0600 -0.1168  0.7607
 7611TIP3    H147028   5.087   5.469   3.472  1.4729 -1.6541  0.4899
 7611TIP3    H247029   5.153   5.432   3.341 -0.7564  0.0238 -1.1799
 7612TIP3   OH247030   2.166   6.351   0.906 -0.6179 -0.1743  0.0980
 7612TIP3    H147031   2.250   6.317   0.938 -0.5856 -1.2063 -0.9917
 7612TIP3    H247032   2.100   6.302   0.956 -0.5645 -0.3188  0.0286
 7613TIP3   OH247033   4.667   0.613   2.195 -0.4852  0.3381 -0.2630
 7613TIP3    H147034   4.603   0.656   2.252  0.0363 -0.2337  0.7769
 7613TIP3    H247035   4.738   0.676   2.186  0.0622 -0.1043  0.8687
 7614TIP3   OH247036   3.079   0.934   2.256  0.1940 -0.0705 -0.0610
 7614TIP3    H147037   2.986   0.928   2.277 -0.1309  0.1921 -1.3416
 7614TIP3    H247038   3.122   0.873   2.316 -0.7854 -0.1025  0.6161
 7615TIP3   OH247039   2.506   1.409   2.517  0.4002  0.1363 -0.0515
 7615TIP3    H147040   2.570   1.341   2.533  0.2195 -0.1908 -0.6620
 7615TIP3    H247041   2.555   1.491   2.523  0.1982  0.1322  2.8630
 7616TIP3   OH247042   1.547   2.974   2.935  0.5527 -0.0306 -0.2260
 7616TIP3    H147043   1.581   3.009   2.852 -0.5879 -0.0514 -0.7258
 7616TIP3    H247044   1.548   3.049   2.994  0.5913  0.2051 -0.5199
 7617TIP3   OH247045   1.291   3.734   2.372 -0.1158 -0.2697 -0.3596
 7617TIP3    H147046   1.371   3.738   2.320 -0.7498 -0.0872 -1.3490
 7617TIP3    H247047   1.287   3.819   2.417 -0.2746  0.1439 -1.1281
 7618TIP3   OH247048   4.970   3.675   4.148 -0.0717 -0.3593 -0.0020
 7618TIP3    H147049   5.039   3.712   4.204  0.1636 -0.4926 -0.1990
 7618TIP3    H247050   4.889   3.714   4.180  0.1860  0.4347 -0.3000
 7619TIP3   OH247051   1.901   3.820   1.473 -0.3920  0.0351 -0.5003
 7619TIP3    H147052   1.973   3.835   1.534 -0.7801  0.3036 -0.1030
 7619TIP3    H247053   1.931   3.748   1.418  0.8510  1.1780 -1.3872
 7620TIP3   OH247054   1.426   5.047   2.165 -0.2883  0.1086 -0.3341
 7620TIP3    H147055   1.473   5.000   2.234 -2.0071 -0.7572  0.2965
 7620TIP3    H247056   1.443   5.139   2.183  0.9337 -0.1636  0.0150
 7621TIP3   OH247057   3.916   3.093   3.929 -0.1916 -0.3568  0.4100
 7621TIP3    H147058   3.922   3.078   3.834 -1.4247 -2.7791  0.6558
 7621TIP3    H247059   3.857   3.168   3.938  1.5113  1.2195 -0.7443
 7622TIP3   OH247060   4.296   2.282   3.685  1.1627  0.4751  0.0077
 7622TIP3    H147061   4.327   2.335   3.758  2.4630 -0.8548  0.4681
 7622TIP3    H247062   4.355   2.305   3.613  1.5115 -0.0797  0.1136
 7623TIP3   OH247063   1.265   6.019   2.712  0.8150  0.4136  0.3153
 7623TIP3    H147064   1.247   5.936   2.755  1.3576 -0.6894 -1.4839
 7623TIP3    H247065   1.313   6.070   2.777  2.8209 -1.7081  0.6166
 7624TIP3   OH247066   4.195   5.993   2.914 -0.0338  0.3616  0.3859
 7624TIP3    H147067   4.250   6.071   2.909  0.3159  0.0853 -0.0502
 7624TIP3    H247068   4.165   5.992   3.005  1.3791  0.0353  0.8706
 7625TIP3   OH247069   1.711   6.606   2.088 -0.1910  0.6437 -0.3795
 7625TIP3    H147070   1.642   6.559   2.135  0.3540  0.3648  0.1441
 7625TIP3    H247071   1.665   6.681   2.049 -0.6446  0.9218  0.6571
 7626TIP3   OH247072   2.554   6.342   2.010  0.4189  0.7989  0.4300
 7626TIP3    H147073   2.614   6.355   1.937 -2.1168 -2.4114 -2.5593
 7626TIP3    H247074   2.595   6.273   2.062  1.1805  1.5628  0.8925
 7627TIP3   OH247075   5.691   4.434   2.196 -0.3561  0.2011 -0.1254
 7627TIP3    H147076   5.752   4.435   2.122  0.6579  2.1761  0.6597
 7627TIP3    H247077   5.637   4.357   2.182  0.6085 -0.1434 -2.2704
 7628TIP3   OH247078   3.855   2.381   4.195 -0.7490 -0.8126 -0.4011
 7628TIP3    H147079   3.770   2.368   4.151 -1.1041 -0.2196  0.0993
 7628TIP3    H247080   3.880   2.293   4.223 -0.6586 -1.1609 -1.5214
 7629TIP3   OH247081   5.877   2.552   2.560 -0.9613 -0.0979  0.1867
 7629TIP3    H147082   5.972   2.557   2.573 -0.9990 -0.2458  0.5309
 7629TIP3    H247083   5.847   2.493   2.629 -0.7529 -3.5894 -2.4300
 7630TIP3   OH247084   3.358   1.862   3.458  0.0612 -0.5096 -0.8882
 7630TIP3    H147085   3.417   1.863   3.533 -0.2472  1.1960 -0.6232
 7630TIP3    H247086   3.275   1.832   3.494  0.4189 -1.6259 -0.9796
 7631TIP3   OH247087   3.146   3.445   1.060  0.5673  0.5490 -0.2392
 7631TIP3    H147088   3.090   3.408   1.128 -0.7455 -1.9565 -2.4542
 7631TIP3    H247089   3.109   3.532   1.043 -0.5405  0.2794  0.6525
 7632TIP3   OH247090   2.526   5.715   1.616 -0.0203 -0.4954 -0.5151
 7632TIP3    H147091   2.482   5.646   1.666  1.3492 -0.7856  0.3385
 7632TIP3    H247092   2.457   5.754   1.563 -0.7203 -3.0584 -1.6585
 7633TIP3   OH247093   5.158   6.179   3.675 -0.1434 -0.5144  0.4421
 7633TIP3    H147094   5.121   6.113   3.733 -0.0469 -0.7320  0.2567
 7633TIP3    H247095   5.152   6.261   3.725  0.9556 -0.8692  1.2175
 7634TIP3   OH247096   2.428   5.904   1.108 -0.3755 -0.1675 -0.7810
 7634TIP3    H147097   2.513   5.882   1.070 -0.5546 -0.2562 -1.1288
 7634TIP3    H247098   2.449   5.966   1.178  0.0764 -1.0042 -0.1563
 7635TIP3   OH247099   5.968   2.421   3.039 -0.2988 -0.3066  0.1250
 7635TIP3    H147100   6.039   2.478   3.009  1.2878 -2.4507 -0.5237
 7635TIP3    H247101   5.986   2.406   3.131 -2.5581  2.6412  1.1890
 7636TIP3   OH247102   0.601   5.081   1.196  0.7838  0.1667  0.0087
 7636TIP3    H147103   0.518   5.059   1.237  0.7483  0.9756  0.3780
 7636TIP3    H247104   0.665   5.080   1.268  0.4632  3.1024  0.4457
 7637TIP3   OH247105   2.282   5.056   3.125 -0.1292 -0.2124  0.0618
 7637TIP3    H147106   2.305   4.963   3.121 -1.6353 -0.5919 -0.5745
 7637TIP3    H247107   2.249   5.076   3.037 -0.7717  0.6588  0.4840
 7638TIP3   OH247108   2.244   2.573   0.965 -0.0940  0.6278  0.2817
 7638TIP3    H147109   2.172   2.636   0.957 -1.0899 -0.5058  0.0951
 7638TIP3    H247110   2.272   2.557   0.875 -0.1475  0.4680  0.2930
 7639TIP3   OH247111   6.372   3.236   3.396 -0.2006 -0.2580 -1.0016
 7639TIP3    H147112   6.455   3.278   3.419 -0.7717  0.5987 -0.4471
 7639TIP3    H247113   6.309   3.271   3.459 -1.1414 -0.3000 -1.8938
 7640TIP3   OH247114   3.036   1.215   3.966 -0.1644  0.3460 -0.5282
 7640TIP3    H147115   3.128   1.240   3.961 -0.4718  2.7994  2.7629
 7640TIP3    H247116   3.037   1.120   3.957  2.6356  0.3213 -0.9190
 7641TIP3   OH247117   1.720   4.077   0.598 -0.3581  0.5311 -0.1692
 7641TIP3    H147118   1.696   3.988   0.575 -1.1933  0.9849 -1.1263
 7641TIP3    H247119   1.794   4.068   0.658 -0.9273 -0.8175  0.3595
 7642TIP3   OH247120   2.518   4.172   4.130  0.4400 -0.1990  0.8618
 7642TIP3    H147121   2.559   4.211   4.053  0.5490  1.5766  1.7499
 7642TIP3    H247122   2.465   4.243   4.167  0.1468 -1.0907  2.2264
 7643TIP3   OH247123   2.275   3.726   1.463 -0.0472  0.1209 -0.1926
 7643TIP3    H147124   2.239   3.813   1.479 -1.8298 -0.8771  1.5300
 7643TIP3    H247125   2.354   3.722   1.517 -0.6308  0.2399  0.6715
 7644TIP3   OH247126   3.896   0.468   2.619 -0.6802 -0.1947 -0.0441
 7644TIP3    H147127   3.914   0.558   2.646 -0.3922  0.0514 -0.9898
 7644TIP3    H247128   3.925   0.414   2.692  1.8585  0.3215 -0.5744
 7645TIP3   OH247129   1.952   4.610   1.770 -0.4893 -0.3664  0.0678
 7645TIP3    H147130   1.976   4.695   1.806 -0.7159 -0.3089  0.0808
 7645TIP3    H247131   2.028   4.554   1.789 -0.0790 -0.0075 -0.5019
 7646TIP3   OH247132   2.709   0.182   1.924  0.0852  0.2842 -0.4793
 7646TIP3    H147133   2.660   0.264   1.921 -0.0153  0.1859 -1.9483
 7646TIP3    H247134   2.642   0.114   1.936  0.1302  0.3657  0.2930
 7647TIP3   OH247135   4.369   2.779   1.193  0.5437 -0.2001  0.1549
 7647TIP3    H147136   4.430   2.852   1.181 -0.6670  0.7659 -0.3039
 7647TIP3    H247137   4.406   2.708   1.141  1.8064  0.0420  0.7015
 7648TIP3   OH247138   1.251   0.477   2.976 -0.2343  0.0210  0.0755
 7648TIP3    H147139   1.232   0.571   2.973 -0.2959  0.0277  0.5950
 7648TIP3    H247140   1.343   0.470   2.951 -0.8313  0.0053 -2.3597
 7649TIP3   OH247141   6.344   5.379   1.268 -0.0382 -0.0262 -0.0528
 7649TIP3    H147142   6.333   5.474   1.262  0.0664 -0.0978 -2.0818
 7649TIP3    H247143   6.398   5.357   1.192 -0.8215 -1.8122 -0.1285
 7650TIP3   OH247144   3.091   3.425   2.778  0.6323 -0.1271 -0.2971
 7650TIP3    H147145   3.099   3.339   2.817  2.4924 -0.0686 -0.4711
 7650TIP3    H247146   3.059   3.481   2.849  0.8018 -0.6755  0.2165
 7651TIP3   OH247147   4.078   0.519   2.016  0.4961  0.0701  0.0152
 7651TIP3    H147148   4.141   0.455   2.048 -0.0656 -0.5933 -0.1931
 7651TIP3    H247149   4.063   0.577   2.091  1.3933  0.2745  0.0487
 7652TIP3   OH247150   2.555   3.715   3.163 -0.5146 -0.2435  0.7385
 7652TIP3    H147151   2.642   3.697   3.198 -0.4886 -1.6531  0.0110
 7652TIP3    H247152   2.569   3.737   3.071 -0.9147 -0.3144  0.6564
 7653TIP3   OH247153   5.286   6.096   0.536 -0.8641  0.3649 -0.4217
 7653TIP3    H147154   5.223   6.099   0.463 -2.8293 -0.1785  1.1555
 7653TIP3    H247155   5.272   6.010   0.575  2.0648 -0.4393 -0.9379
 7654TIP3   OH247156   0.149   3.781   0.999 -0.6428 -0.6540  0.5881
 7654TIP3    H147157   0.102   3.739   0.927  1.4153  0.5833 -1.6138
 7654TIP3    H247158   0.185   3.708   1.050  0.7111 -1.6443 -1.6570
 7655TIP3   OH247159   3.781   4.695   0.935 -0.2311 -0.1097  0.3586
 7655TIP3    H147160   3.841   4.745   0.879  0.8882 -0.3362  1.3253
 7655TIP3    H247161   3.838   4.639   0.988 -1.3962 -1.8430 -0.1205
 7656TIP3   OH247162   1.110   5.217   1.258 -0.6458 -0.1040 -0.0043
 7656TIP3    H147163   1.107   5.123   1.277  1.7672 -0.1766  0.4161
 7656TIP3    H247164   1.135   5.257   1.341  1.5843  0.5091 -0.9034
 7657TIP3   OH247165   4.072   0.649   3.118 -0.3858 -0.1007 -0.3755
 7657TIP3    H147166   4.164   0.643   3.094 -0.4463  0.9217 -0.9291
 7657TIP3    H247167   4.068   0.620   3.209  0.5259  0.1552 -0.2506
 7658TIP3   OH247168   4.025   4.824   0.821 -0.2267 -0.1623 -0.6227
 7658TIP3    H147169   4.056   4.748   0.870 -0.2352 -0.8237 -1.6244
 7658TIP3    H247170   4.084   4.895   0.846 -1.2260 -0.0286  1.6259
 7659TIP3   OH247171   6.173   4.119   1.888 -0.8065  0.1513 -0.1597
 7659TIP3    H147172   6.263   4.135   1.860 -0.4957  3.5595  2.2326
 7659TIP3    H247173   6.120   4.177   1.834 -1.5317 -1.1072 -0.8577
 7660TIP3   OH247174   5.493   0.481   1.972  0.9634  0.3903  0.4092
 7660TIP3    H147175   5.499   0.408   1.910  0.2937 -0.4004  1.2443
 7660TIP3    H247176   5.472   0.557   1.918 -1.7144 -0.6512 -0.1889
 7661TIP3   OH247177   2.534   2.090   2.754 -0.0219  0.2421 -0.5688
 7661TIP3    H147178   2.591   2.013   2.748 -2.4253 -1.7297 -0.0624
 7661TIP3    H247179   2.506   2.106   2.665  0.7402  0.7745 -0.7218
 7662TIP3   OH247180   1.407   4.626   3.604  0.6298  0.2135  0.1724
 7662TIP3    H147181   1.491   4.671   3.613  1.6584 -1.3963 -0.7518
 7662TIP3    H247182   1.423   4.538   3.637 -0.6435 -0.1805 -0.1786
 7663TIP3   OH247183   2.296   0.199   1.730 -0.5534 -0.4527  0.1738
 7663TIP3    H147184   2.238   0.214   1.655  0.1343  0.4873 -0.1906
 7663TIP3    H247185   2.237   0.174   1.801 -1.3808  0.1599 -0.2804
 7664TIP3   OH247186   3.797   2.092   1.231  0.1424 -0.6463  0.2647
 7664TIP3    H147187   3.837   2.034   1.166  0.6177 -0.8775  0.7623
 7664TIP3    H247188   3.805   2.045   1.313  0.6743  0.1912  0.7048
 7665TIP3   OH247189   2.100   5.358   1.130 -0.2409  0.3297 -0.0622
 7665TIP3    H147190   2.015   5.396   1.151 -0.4405  0.4943 -1.1156
 7665TIP3    H247191   2.161   5.402   1.189 -0.7069  1.1572 -0.1789
 7666TIP3   OH247192   6.313   1.530   2.936  0.7026  0.0759  0.4620
 7666TIP3    H147193   6.329   1.619   2.906  0.0381  0.1753  0.4039
 7666TIP3    H247194   6.349   1.527   3.024 -0.9692  0.9552  1.2079
 7667TIP3   OH247195   1.875   5.491   1.190 -0.3394 -0.0320  0.1144
 7667TIP3    H147196   1.813   5.431   1.150 -1.3165  1.2261 -0.3070
 7667TIP3    H247197   1.822   5.564   1.222  0.8295  0.6965  0.4737
 7668TIP3   OH247198   3.678   5.501   2.141 -0.2483 -0.2457 -0.1881
 7668TIP3    H147199   3.724   5.470   2.063 -0.4287  1.5755 -1.0616
 7668TIP3    H247200   3.591   5.460   2.135  0.1774 -1.1706 -0.2073
 7669TIP3   OH247201   4.324   2.165   2.989 -0.2591 -0.1716 -0.5461
 7669TIP3    H147202   4.282   2.242   3.026  0.9970  0.4197 -0.3189
 7669TIP3    H247203   4.412   2.164   3.027  0.0586 -1.2005 -1.2490
 7670TIP3   OH247204   3.274   4.310   2.433  0.0790 -0.1136  0.1700
 7670TIP3    H147205   3.244   4.280   2.518  0.5952  0.3602  0.5212
 7670TIP3    H247206   3.212   4.378   2.408 -1.2020 -1.5287 -0.7083
 7671TIP3   OH247207   5.198   4.187   2.466 -0.1452  0.9275 -0.5802
 7671TIP3    H147208   5.267   4.253   2.464 -0.1862  1.1451  1.7010
 7671TIP3    H247209   5.150   4.206   2.547 -1.2852 -0.7849 -0.8076
 7672TIP3   OH247210   2.771   3.387   3.363  0.1009 -0.3728 -0.3347
 7672TIP3    H147211   2.841   3.338   3.406  0.6545  1.6390  1.2252
 7672TIP3    H247212   2.768   3.352   3.274  2.8602 -0.7704 -0.3507
 7673TIP3   OH247213   4.315   3.327   3.314  0.7686 -0.4863 -0.1488
 7673TIP3    H147214   4.322   3.388   3.387  2.3073 -1.1404  0.3104
 7673TIP3    H247215   4.338   3.242   3.352 -2.9037 -1.7360 -0.3796
 7674TIP3   OH247216   4.715   5.550   3.195 -0.1411  0.2908 -0.6661
 7674TIP3    H147217   4.805   5.521   3.180  0.5278  1.8970 -0.0061
 7674TIP3    H247218   4.703   5.624   3.135 -0.3880  1.2261  0.4884
 7675TIP3   OH247219   3.651   0.873   1.578  0.1107 -0.5198  0.0351
 7675TIP3    H147220   3.582   0.829   1.529  1.0577  0.2177 -2.0563
 7675TIP3    H247221   3.719   0.807   1.589  0.3424 -0.3983 -0.6193
 7676TIP3   OH247222   3.506   3.873   1.442 -0.4869  0.0102  0.0662
 7676TIP3    H147223   3.451   3.795   1.450 -0.7913 -0.3187 -3.5694
 7676TIP3    H247224   3.445   3.946   1.436 -0.3092  0.2236  0.8027
 7677TIP3   OH247225   4.296   5.405   1.514 -0.0319 -0.4677  0.7424
 7677TIP3    H147226   4.281   5.336   1.579 -0.1367  0.0920  1.3230
 7677TIP3    H247227   4.266   5.485   1.557 -1.3922 -0.2718 -0.5118
 7678TIP3   OH247228   4.085   1.861   2.430  0.2362  0.3249  0.4941
 7678TIP3    H147229   4.056   1.926   2.367  1.8924 -0.4710 -1.2022
 7678TIP3    H247230   4.027   1.786   2.417  0.8393  0.0034 -0.4370
 7679TIP3   OH247231   3.919   4.351   1.448 -1.1210  0.3201 -0.3383
 7679TIP3    H147232   4.001   4.396   1.468 -1.7415  0.9225  1.0221
 7679TIP3    H247233   3.851   4.416   1.466 -1.9354 -0.4140 -0.6668
 7680TIP3   OH247234   4.573   3.746   4.879  0.3237  0.4297  0.2867
 7680TIP3    H147235   4.601   3.682   4.813 -0.3739  1.2928 -0.8889
 7680TIP3    H247236   4.599   3.830   4.843  1.5025  0.8229  1.9606
 7681TIP3   OH247237   2.040   2.355   1.832  0.0369  0.5529 -0.2120
 7681TIP3    H147238   2.038   2.395   1.919 -1.3219  0.7151 -0.2972
 7681TIP3    H247239   2.128   2.372   1.800  0.5349  0.5437  1.1053
 7682TIP3   OH247240   1.533   6.224   1.559 -0.5983  0.5255 -0.4520
 7682TIP3    H147241   1.537   6.288   1.488 -0.5438  0.9606 -0.0675
 7682TIP3    H247242   1.451   6.245   1.605 -1.1202 -0.3672 -0.9491
 7683TIP3   OH247243   0.252   4.366   4.664 -0.2963  0.2650  0.2761
 7683TIP3    H147244   0.275   4.273   4.670 -1.4701 -0.1411 -0.9708
 7683TIP3    H247245   0.305   4.408   4.731  2.7396 -0.8358 -1.2237
 7684TIP3   OH247246   3.469   2.151   0.861 -0.1507 -1.0302 -0.0208
 7684TIP3    H147247   3.422   2.070   0.879  0.2587 -1.4521 -0.7887
 7684TIP3    H247248   3.465   2.200   0.943 -1.8533 -1.0831 -0.0272
 7685TIP3   OH247249   4.578   2.341   3.689  0.2268  0.1577 -0.3578
 7685TIP3    H147250   4.511   2.350   3.756 -0.6952 -0.2077 -1.2144
 7685TIP3    H247251   4.635   2.271   3.722 -0.9925 -0.9807 -0.5551
 7686TIP3   OH247252   2.045   6.465   3.098  0.0697 -0.2655 -0.1478
 7686TIP3    H147253   2.131   6.500   3.126  0.1721 -1.2675  0.8373
 7686TIP3    H247254   1.988   6.542   3.099  0.6663  0.1946  0.4295
 7687TIP3   OH247255   1.589   5.593   1.951  0.4582 -0.5280 -0.0507
 7687TIP3    H147256   1.658   5.644   1.908  1.4234 -2.0564 -0.4055
 7687TIP3    H247257   1.585   5.511   1.901 -1.3977 -0.6274  0.1813
 7688TIP3   OH247258   4.843   1.455   0.576 -0.0316  0.1424  0.6711
 7688TIP3    H147259   4.820   1.378   0.523  1.0658 -0.2110  0.6693
 7688TIP3    H247260   4.762   1.478   0.622 -0.5005 -0.7308  0.3094
 7689TIP3   OH247261   1.476   4.330   3.637 -0.3694  0.5134  0.5807
 7689TIP3    H147262   1.458   4.323   3.544  0.0300  2.1184  0.3567
 7689TIP3    H247263   1.571   4.331   3.644 -0.3933  0.1369  1.0312
 7690TIP3   OH247264   1.261   2.614   1.641 -0.0650  0.2042  0.0136
 7690TIP3    H147265   1.188   2.662   1.603  0.3218  0.2181 -0.7529
 7690TIP3    H247266   1.227   2.526   1.656 -0.4650  0.4239  0.4119
 7691TIP3   OH247267   1.198   0.845   2.171  0.6438 -0.4609 -0.1259
 7691TIP3    H147268   1.218   0.868   2.080 -0.4410 -0.7702 -0.4586
 7691TIP3    H247269   1.121   0.899   2.193  2.1990  1.2840  1.3696
 7692TIP3   OH247270   5.531   5.536   2.821  0.0894 -0.5228  0.0112
 7692TIP3    H147271   5.529   5.459   2.765 -0.2377 -0.7439  0.3170
 7692TIP3    H247272   5.622   5.544   2.849  0.1736 -0.6476 -0.2215
 7693TIP3   OH247273   2.973   5.495   9.896  0.5067  0.3044  0.3196
 7693TIP3    H147274   2.907   5.481   9.828 -0.2421  0.2029  1.0436
 7693TIP3    H247275   3.031   5.562   9.860  0.0186  0.3853 -0.3434
 7694TIP3   OH247276   0.202   0.428   2.538  0.0368 -0.2629 -0.1326
 7694TIP3    H147277   0.257   0.355   2.509  0.0966 -0.2556 -0.0353
 7694TIP3    H247278   0.115   0.390   2.546 -0.2735  0.0410 -1.6691
 7695TIP3   OH247279   0.610   2.732   1.640  0.0931 -0.3200  0.5969
 7695TIP3    H147280   0.589   2.640   1.623  1.6519 -0.2860 -2.2173
 7695TIP3    H247281   0.699   2.731   1.677 -0.4373  0.0181  1.9268
 7696TIP3   OH247282   5.819   3.444   1.677  0.2543  0.4207 -0.2737
 7696TIP3    H147283   5.843   3.355   1.705 -0.0933  0.5838  0.5841
 7696TIP3    H247284   5.902   3.489   1.667  0.3846  0.4178  0.7425
 7697TIP3   OH247285   6.494   6.140   2.365 -0.0841  0.7991  0.5197
 7697TIP3    H147286   6.445   6.068   2.404 -0.3832 -0.8663 -2.6224
 7697TIP3    H247287   6.586   6.121   2.386 -0.2656  0.2127  0.7945
 7698TIP3   OH247288   0.420   5.959   2.184 -0.2623 -0.1306  0.3175
 7698TIP3    H147289   0.330   5.934   2.164 -0.5872  0.2999  1.2086
 7698TIP3    H247290   0.467   5.876   2.189 -0.9729 -0.4831  1.5188
 7699TIP3   OH247291   2.934   5.099   1.525 -0.6818  0.1522 -0.1134
 7699TIP3    H147292   2.898   5.032   1.467 -0.3532 -0.6869  0.6407
 7699TIP3    H247293   3.024   5.111   1.494 -0.5228 -0.2568  0.1918
 7700TIP3   OH247294   5.642   1.660   3.952  0.5227  0.0101  0.0783
 7700TIP3    H147295   5.608   1.716   4.022  1.3622  0.7985 -0.1207
 7700TIP3    H247296   5.566   1.608   3.924 -0.2647  0.9747  0.3484
 7701TIP3   OH247297   1.178   1.421   2.323  0.0303 -0.8012  0.5363
 7701TIP3    H147298   1.236   1.476   2.375 -0.7870  0.5286  0.1245
 7701TIP3    H247299   1.146   1.480   2.254 -1.3839 -1.6265  0.4531
 7702TIP3   OH247300   0.624   4.629   3.457  0.4772 -0.2696 -0.5271
 7702TIP3    H147301   0.667   4.650   3.374 -1.4655  1.0081 -1.2878
 7702TIP3    H247302   0.695   4.607   3.516  2.0705  0.6367 -2.0206
 7703TIP3   OH247303   1.260   4.253   3.259  1.1290  0.1715 -0.9632
 7703TIP3    H147304   1.329   4.254   3.194  0.6312 -0.5228 -1.5120
 7703TIP3    H247305   1.216   4.169   3.247  1.2474 -0.1396  0.5067
 7704TIP3   OH247306   5.251   2.207   2.459 -0.4750 -0.0088 -0.1885
 7704TIP3    H147307   5.298   2.179   2.381 -0.0503  0.3082 -0.0491
 7704TIP3    H247308   5.159   2.189   2.440 -0.2100 -1.6891 -0.0261
 7705TIP3   OH247309   5.736   3.432   2.675  0.0150 -0.6713 -0.2750
 7705TIP3    H147310   5.770   3.354   2.630  2.4063  0.2140 -0.1627
 7705TIP3    H247311   5.719   3.495   2.604  0.3428 -0.5124 -0.2165
 7706TIP3   OH247312   0.368   3.457   2.510 -0.1209 -0.3405  0.1242
 7706TIP3    H147313   0.371   3.545   2.473 -1.4397 -0.0495  0.6564
 7706TIP3    H247314   0.379   3.399   2.434  0.4334  0.2637 -0.2717
 7707TIP3   OH247315   3.443   2.149   4.282 -0.1935 -0.5975  0.0957
 7707TIP3    H147316   3.478   2.229   4.243 -2.6515  0.6831  0.3034
 7707TIP3    H247317   3.396   2.106   4.211  1.2587 -2.0258 -0.0611
 7708TIP3   OH247318   5.064   0.426   1.784 -0.0906 -0.3280 -0.0241
 7708TIP3    H147319   5.133   0.383   1.734 -0.0977 -0.1383 -0.2003
 7708TIP3    H247320   4.993   0.361   1.789 -0.4651 -0.0231 -1.0717
 7709TIP3   OH247321   6.655   1.269   0.717 -0.3532  0.1700 -0.1287
 7709TIP3    H147322   6.569   1.274   0.675  0.3172  1.0103 -1.4836
 7709TIP3    H247323   6.651   1.191   0.771 -2.0813  0.3693  0.1014
 7710TIP3   OH247324   2.641   2.813   2.005 -0.3946 -0.1778 -0.0086
 7710TIP3    H147325   2.685   2.741   2.051 -1.1874  0.1602  1.3235
 7710TIP3    H247326   2.691   2.823   1.924  1.1206 -0.7292  0.8118
 7711TIP3   OH247327   1.271   1.821   1.098  0.0805  0.3220  0.4049
 7711TIP3    H147328   1.256   1.912   1.123 -1.3412  0.3512 -0.4457
 7711TIP3    H247329   1.356   1.799   1.136  0.1456  1.7971  1.1714
 7712TIP3   OH247330   4.183   1.687   2.154  0.1143 -0.3790 -0.2910
 7712TIP3    H147331   4.175   1.706   2.248 -2.7475 -3.0827  0.1896
 7712TIP3    H247332   4.160   1.770   2.111 -1.6483  0.1333  1.4669
 7713TIP3   OH247333   2.882   1.172   0.675  0.2566 -0.0580  0.3620
 7713TIP3    H147334   2.822   1.245   0.661  0.0805 -0.0122  1.2943
 7713TIP3    H247335   2.888   1.164   0.771  2.5689  0.6588  0.3462
 7714TIP3   OH247336   2.875   2.872   1.733  0.1443  0.4896  0.6508
 7714TIP3    H147337   2.894   2.851   1.824  0.9402 -1.7749  0.0435
 7714TIP3    H247338   2.858   2.787   1.692  0.7339  1.3359 -1.5020
 7715TIP3   OH247339   2.100   1.017   0.606 -0.0401  0.5078  0.4039
 7715TIP3    H147340   2.161   0.944   0.618 -1.5729 -0.8104  0.5053
 7715TIP3    H247341   2.014   0.975   0.594 -0.7396  2.2397 -1.1318
 7716TIP3   OH247342   6.575   1.468   0.945  0.0381  0.5385 -0.0438
 7716TIP3    H147343   6.521   1.404   0.991 -0.0150  1.7812  1.7392
 7716TIP3    H247344   6.610   1.421   0.869 -0.9619 -1.2119  0.5297
 7717TIP3   OH247345   0.040   4.437   1.297 -0.3980  0.9555  0.1528
 7717TIP3    H147346   0.010   4.355   1.259 -2.2865  1.8853 -0.4894
 7717TIP3    H247347   0.006   4.505   1.238  2.0945  2.1950  0.0001
 7718TIP3   OH247348   0.810   4.559   0.963  0.5355  0.2315 -0.5685
 7718TIP3    H147349   0.758   4.535   1.039  1.9055 -0.1273  0.2836
 7718TIP3    H247350   0.776   4.644   0.936 -0.3060  0.1227  0.1182
 7719TIP3   OH247351   4.501   5.139   3.231  0.4982 -0.0539 -0.1518
 7719TIP3    H147352   4.525   5.165   3.142 -1.2147  1.0921 -0.3199
 7719TIP3    H247353   4.491   5.221   3.279 -1.5372 -0.4740  0.2638
 7720TIP3   OH247354   1.629   2.643   2.636 -0.8149  0.1681 -0.1368
 7720TIP3    H147355   1.666   2.555   2.637  0.7026  0.7771  1.2117
 7720TIP3    H247356   1.704   2.701   2.643 -1.8303  1.5723 -0.4052
 7721TIP3   OH247357   5.997   1.627   0.801  0.0691 -0.2569  0.4824
 7721TIP3    H147358   6.080   1.676   0.806  0.1949 -0.2035 -1.4778
 7721TIP3    H247359   5.936   1.688   0.760  0.0542 -1.4431 -1.3891
 7722TIP3   OH247360   3.950   2.869   3.226  0.1178 -0.4564  0.3032
 7722TIP3    H147361   3.889   2.814   3.274  0.5502 -0.0529  1.3410
 7722TIP3    H247362   4.036   2.844   3.258  0.2960  1.1406  1.1737
 7723TIP3   OH247363   1.114   1.840   2.159 -0.0638  0.3125  0.5238
 7723TIP3    H147364   1.131   1.888   2.078  0.4737  0.2179  0.5746
 7723TIP3    H247365   1.087   1.752   2.130 -1.4401  0.7447  0.4222
 7724TIP3   OH247366   3.313   0.644   3.499 -0.2889 -0.0677 -0.1908
 7724TIP3    H147367   3.219   0.627   3.509  0.3841 -3.3145  2.2524
 7724TIP3    H247368   3.355   0.566   3.533  3.4223  2.6537  2.1834
 7725TIP3   OH247369   1.390   2.076   3.336 -0.6174  0.7383  0.3762
 7725TIP3    H147370   1.442   2.137   3.388  0.0808  1.6199 -1.2903
 7725TIP3    H247371   1.424   2.085   3.247 -1.6155 -0.8857 -0.2151
 7726TIP3   OH247372   3.292   6.026   3.265  0.5159 -0.1902  0.4780
 7726TIP3    H147373   3.327   5.966   3.199  1.1922  0.6735  0.0224
 7726TIP3    H247374   3.231   5.973   3.316  0.2395 -0.9724 -0.6204
 7727TIP3   OH247375   5.564   3.435   3.766 -0.1275  0.7616 -0.0997
 7727TIP3    H147376   5.507   3.377   3.716  0.5380 -1.0904  1.1634
 7727TIP3    H247377   5.646   3.437   3.716 -0.6958  2.0124 -1.0140
 7728TIP3   OH247378   0.206   1.644   2.237  0.0187  0.9255 -0.2807
 7728TIP3    H147379   0.209   1.554   2.267 -0.9537  1.1502  0.5523
 7728TIP3    H247380   0.274   1.689   2.287 -0.4212  0.9320  0.3213
 7729TIP3   OH247381   1.955   0.858   2.006 -0.1743 -0.4283  0.1358
 7729TIP3    H147382   1.991   0.909   1.934  0.9410  1.2493  1.7800
 7729TIP3    H247383   1.874   0.902   2.030 -0.8480 -1.3238 -0.4314
 7730TIP3   OH247384   2.565   2.436   0.473 -0.9352  0.4807  0.6829
 7730TIP3    H147385   2.503   2.466   0.407 -2.3947  0.5157  2.0304
 7730TIP3    H247386   2.524   2.457   0.556  1.7706  2.3843  1.6848
 7731TIP3   OH247387   2.728   1.509   3.006  0.1029 -0.5797 -0.5432
 7731TIP3    H147388   2.789   1.583   3.010  0.9051 -1.2489  0.0819
 7731TIP3    H247389   2.782   1.434   2.983 -0.1527 -1.4794  1.4878
 7732TIP3   OH247390   0.992   1.929   1.362  0.0982 -0.2162  0.1510
 7732TIP3    H147391   0.934   1.880   1.420  0.5221  0.3973  1.1242
 7732TIP3    H247392   1.074   1.881   1.363  0.1610 -0.1079  0.1961
 7733TIP3   OH247393   3.595   0.981   0.918 -0.0898  0.3877 -0.4684
 7733TIP3    H147394   3.521   0.928   0.891  0.5278 -0.8463  0.1934
 7733TIP3    H247395   3.564   1.071   0.910 -2.9141 -0.0511  2.9897
 7734TIP3   OH247396   0.851   2.426   1.200  0.2339 -0.3902 -0.3837
 7734TIP3    H147397   0.925   2.474   1.238 -0.5650 -0.1720  0.9451
 7734TIP3    H247398   0.814   2.377   1.273 -0.2921 -1.3479 -1.2685
 7735TIP3   OH247399   2.899   6.218   2.849 -0.2303  0.2948 -0.1950
 7735TIP3    H147400   2.897   6.127   2.880 -1.1204  0.2255 -0.4222
 7735TIP3    H247401   2.988   6.248   2.870 -0.0573 -0.4875  0.2701
 7736TIP3   OH247402   4.826   2.015   0.564 -0.0296 -0.6038 -0.2492
 7736TIP3    H147403   4.876   1.973   0.494  0.9858  0.8327 -0.4507
 7736TIP3    H247404   4.891   2.033   0.633 -0.5693 -0.0844  0.1411
 7737TIP3   OH247405   5.409   5.261   3.796 -0.1167 -0.4823  0.3299
 7737TIP3    H147406   5.436   5.225   3.881 -0.3249 -0.3724  0.4426
 7737TIP3    H247407   5.314   5.255   3.797 -0.1315 -0.2484  0.2051
 7738TIP3   OH247408   2.780   0.219   3.610  0.8726  0.4063  0.2728
 7738TIP3    H147409   2.746   0.237   3.698  1.1090 -0.1047  0.4727
 7738TIP3    H247410   2.863   0.266   3.607  1.1031  0.0200  0.5047
 7739TIP3   OH247411   4.396   4.752   0.595 -0.0450  0.2854 -0.3648
 7739TIP3    H147412   4.387   4.827   0.653 -0.6165  2.1233 -2.7070
 7739TIP3    H247413   4.326   4.692   0.622 -0.7420  1.3983  0.3689
 7740TIP3   OH247414   1.849   2.593   1.455  0.5175 -0.0187  0.4520
 7740TIP3    H147415   1.838   2.682   1.488  0.4966  0.7454 -1.4783
 7740TIP3    H247416   1.914   2.601   1.385 -0.7466 -1.1846 -0.9250
 7741TIP3   OH247417   3.857   0.357   3.254  0.0138  0.1247 -0.4101
 7741TIP3    H147418   3.767   0.388   3.246 -0.1662  0.1226  1.3195
 7741TIP3    H247419   3.898   0.417   3.316 -0.2880 -2.7253  2.9007
 7742TIP3   OH247420   6.396   4.204   1.276  0.5806 -0.2739 -0.6856
 7742TIP3    H147421   6.391   4.253   1.358 -0.4997 -0.3485 -0.6862
 7742TIP3    H247422   6.308   4.212   1.238  1.0978 -0.1747 -1.8779
 7743TIP3   OH247423   3.731   5.353   0.404  0.4513  0.2242  0.1084
 7743TIP3    H147424   3.790   5.279   0.417 -0.4446 -1.0678 -2.5113
 7743TIP3    H247425   3.647   5.322   0.437  0.4025  0.6567  0.3956
 7744TIP3   OH247426   4.820   6.651   3.283  0.0654  0.1350  0.1825
 7744TIP3    H147427   4.873   6.696   3.349 -0.4174 -1.0671  1.4174
 7744TIP3    H247428   4.730   6.679   3.301 -0.3055 -1.6477  1.2824
 7745TIP3   OH247429   6.208   0.466   3.571  0.3506  0.2361 -0.2281
 7745TIP3    H147430   6.294   0.426   3.581 -0.0207 -0.1119  2.0188
 7745TIP3    H247431   6.206   0.535   3.637 -0.7539  0.8900 -0.9164
 7746TIP3   OH247432   5.296   3.442   2.587  0.0848 -0.7028  0.0424
 7746TIP3    H147433   5.350   3.452   2.665 -0.0109 -1.3462  0.1981
 7746TIP3    H247434   5.211   3.413   2.620 -0.8572  1.6934 -0.0636
 7747TIP3   OH247435   5.803   2.320   1.020 -0.0450  0.3235  0.3918
 7747TIP3    H147436   5.727   2.342   0.965  0.1352 -0.9427 -0.4035
 7747TIP3    H247437   5.868   2.286   0.959  1.0286  0.9990  1.1195
 7748TIP3   OH247438   5.097   1.662   3.505 -0.3403  0.1590  0.1102
 7748TIP3    H147439   5.051   1.593   3.458  2.3131 -0.7393 -1.4152
 7748TIP3    H247440   5.090   1.738   3.449 -1.3155  0.5185  0.6913
 7749TIP3   OH247441   1.515   4.790   2.286  0.3204 -0.0830  0.1994
 7749TIP3    H147442   1.557   4.712   2.248 -0.6281 -0.6709  0.3076
 7749TIP3    H247443   1.555   4.799   2.373  0.3824 -0.4999  0.2161
 7750TIP3   OH247444   1.883   6.429   2.552 -0.1841 -0.3726 -0.6444
 7750TIP3    H147445   1.884   6.456   2.644 -1.2734 -1.6409 -0.2161
 7750TIP3    H247446   1.970   6.449   2.519  0.3948 -0.3698  0.8203
 7751TIP3   OH247447   5.649   3.489   1.464 -0.3786 -0.5156 -0.1576
 7751TIP3    H147448   5.610   3.404   1.446  0.1505 -0.6741 -0.5832
 7751TIP3    H247449   5.707   3.474   1.539 -0.8432 -0.3627  0.2369
 7752TIP3   OH247450   3.908   2.800   2.953  0.2898 -0.1902 -0.2377
 7752TIP3    H147451   3.892   2.833   3.042  0.6725  0.0642 -0.2565
 7752TIP3    H247452   3.875   2.869   2.896 -2.8292 -1.6430 -0.3949
 7753TIP3   OH247453   6.455   4.258   5.040  0.1226  0.1264 -0.0059
 7753TIP3    H147454   6.521   4.210   4.991 -1.4882 -2.2814  0.0289
 7753TIP3    H247455   6.387   4.277   4.975 -0.6416 -0.3963  0.6173
 7754TIP3   OH247456   1.913   0.436   1.639 -0.0811 -0.0998 -0.0398
 7754TIP3    H147457   1.849   0.489   1.687 -0.6031  0.4781 -1.3389
 7754TIP3    H247458   1.917   0.354   1.688 -2.2886 -0.3878 -0.2410
 7755TIP3   OH247459   2.736   1.298   2.412  0.6188  0.8351  0.1036
 7755TIP3    H147460   2.803   1.241   2.451  0.5969  0.8696  0.1922
 7755TIP3    H247461   2.703   1.248   2.337  0.8036  0.8544  0.0082
 7756TIP3   OH247462   2.786   2.307   2.945  0.1633 -0.3635  0.4113
 7756TIP3    H147463   2.801   2.249   3.020 -0.9196  0.5671  1.3675
 7756TIP3    H247464   2.727   2.374   2.977  0.2048  0.4432 -1.1053
 7757TIP3   OH247465   3.345   4.026   1.777  0.2192  0.2090  0.3312
 7757TIP3    H147466   3.346   4.063   1.865  1.0723  0.0420  0.3981
 7757TIP3    H247467   3.435   4.032   1.747  0.9738 -3.7405  1.1846
 7758TIP3   OH247468   5.717   1.224   2.842 -0.3807  0.1292 -0.1423
 7758TIP3    H147469   5.762   1.142   2.865 -1.5309 -0.3565  0.4578
 7758TIP3    H247470   5.700   1.216   2.748 -1.8067 -1.0254  0.1802
 7759TIP3   OH247471   3.916   4.582   2.931 -0.0969 -0.1032 -0.3190
 7759TIP3    H147472   3.889   4.673   2.944 -0.4859  0.0160 -1.7938
 7759TIP3    H247473   4.011   4.586   2.923 -0.2009  0.3208 -1.4143
 7760TIP3   OH247474   3.430   3.554   1.159 -0.3456 -0.7427  0.4026
 7760TIP3    H147475   3.511   3.589   1.120 -0.4574 -0.1251  0.7061
 7760TIP3    H247476   3.445   3.460   1.165  0.5908 -0.5692  0.9893
 7761TIP3   OH247477   2.162   2.365   2.563  0.3248 -0.0160  0.0504
 7761TIP3    H147478   2.104   2.329   2.496 -1.0442  1.2498  0.5080
 7761TIP3    H247479   2.121   2.447   2.590  0.3485 -0.8671  3.0692
 7762TIP3   OH247480   1.115   6.435   1.578  0.1055 -0.2423 -0.6475
 7762TIP3    H147481   1.127   6.352   1.624  0.5325  0.5259  0.6670
 7762TIP3    H247482   1.156   6.500   1.634  2.8573  0.4897 -3.2128
 7763TIP3   OH247483   1.360   2.290   1.770 -0.4693  0.1428 -0.0850
 7763TIP3    H147484   1.315   2.262   1.850  0.2978 -0.7907  0.0324
 7763TIP3    H247485   1.450   2.307   1.797 -0.0791 -0.6557 -0.8371
 7764TIP3   OH247486   0.703   1.787   3.501  0.0745 -0.0867  0.3686
 7764TIP3    H147487   0.718   1.835   3.582 -0.0704 -1.3124  1.1480
 7764TIP3    H247488   0.650   1.712   3.527  0.1329 -0.5738 -0.8454
 7765TIP3   OH247489   5.334   4.883   0.923 -0.0926  0.4634  0.1385
 7765TIP3    H147490   5.283   4.842   0.853  0.4941 -0.3363  0.1695
 7765TIP3    H247491   5.352   4.812   0.984  1.3105  0.6652 -0.0132
 7766TIP3   OH247492   3.070   3.826   1.302 -0.0823  0.1305 -0.0580
 7766TIP3    H147493   3.086   3.903   1.357  0.8109 -2.2998  3.4291
 7766TIP3    H247494   2.993   3.785   1.340  2.5628 -3.5372  2.0530
 7767TIP3   OH247495   4.058   0.272   3.078  0.4879  0.5111 -0.3049
 7767TIP3    H147496   4.002   0.314   3.144  0.4588 -0.2447  0.1729
 7767TIP3    H247497   4.075   0.184   3.114  2.8342  1.0495  0.0582
 7768TIP3   OH247498   3.968   3.663   1.757  0.0224  0.3145  0.6921
 7768TIP3    H147499   3.917   3.685   1.679 -0.2452  0.3237  0.8668
 7768TIP3    H247500   4.054   3.639   1.723  0.6875  2.6662  0.5637
 7769TIP3   OH247501   6.589   5.171   0.867 -0.6517  0.0576  0.1182
 7769TIP3    H147502   6.569   5.247   0.922  0.1120  0.6797 -0.4362
 7769TIP3    H247503   6.588   5.096   0.927 -0.2863  0.6546  0.8875
 7770TIP3   OH247504   3.999   2.525   1.242 -0.1617  0.1434 -0.2911
 7770TIP3    H147505   3.982   2.449   1.187  0.3729 -0.6160  0.5522
 7770TIP3    H247506   3.939   2.592   1.210  0.3488 -0.1482 -2.0055
 7771TIP3   OH247507   1.354   3.712   3.099  0.2526  0.3093  0.3421
 7771TIP3    H147508   1.292   3.742   3.165  1.5470  2.3187  0.7410
 7771TIP3    H247509   1.429   3.680   3.149  0.9226  1.1249 -0.1037
 7772TIP3   OH247510   5.707   3.600   3.412  0.5317 -0.1257  0.0434
 7772TIP3    H147511   5.681   3.525   3.359 -1.2762 -0.4333  1.2831
 7772TIP3    H247512   5.755   3.562   3.486 -0.5671 -0.1123  0.7823
 7773TIP3   OH247513   0.834   1.549   1.924 -0.1733  0.6128 -0.4327
 7773TIP3    H147514   0.783   1.514   1.851 -1.1149  0.5145  0.2541
 7773TIP3    H247515   0.776   1.612   1.966 -0.3419 -0.6380  1.3131
 7774TIP3   OH247516   1.032   0.519   1.749  0.0250 -1.1658 -0.1174
 7774TIP3    H147517   1.067   0.572   1.820  1.5481 -0.6801 -1.1697
 7774TIP3    H247518   1.045   0.428   1.777 -2.2089 -1.0539  1.5073
 7775TIP3   OH247519   6.445   1.236   2.445  0.4842 -0.8298  0.5427
 7775TIP3    H147520   6.449   1.166   2.511  0.4718 -0.7246  0.6544
 7775TIP3    H247521   6.374   1.292   2.474  0.4252 -0.8271  0.3950
 7776TIP3   OH247522   3.018   3.218   2.469 -0.1071  0.3495  0.5095
 7776TIP3    H147523   3.039   3.312   2.466  0.9513  0.1083  0.0703
 7776TIP3    H247524   3.099   3.176   2.497  0.6019 -0.7797 -2.8122
 7777TIP3   OH247525   2.340   5.393   0.930  0.2104  0.6897 -0.3294
 7777TIP3    H147526   2.413   5.420   0.985 -0.0353  1.0129 -0.1534
 7777TIP3    H247527   2.266   5.386   0.991  0.5970 -1.9743 -0.0660
 7778TIP3   OH247528   2.209   3.361   3.350  0.0350 -0.2903 -0.2000
 7778TIP3    H147529   2.285   3.314   3.385  0.1436  0.0416  0.0136
 7778TIP3    H247530   2.155   3.378   3.427  0.1497  0.2157 -0.2265
 7779TIP3   OH247531   0.310   3.766   2.153  0.0982  0.4112 -0.1764
 7779TIP3    H147532   0.370   3.691   2.160  1.5117  1.2180 -2.6111
 7779TIP3    H247533   0.273   3.774   2.241  2.8841 -0.7213  1.2357
 7780TIP3   OH247534   3.075   0.093   2.035 -0.0563 -0.4979 -0.5171
 7780TIP3    H147535   3.028   0.157   2.089  0.4455  1.0734 -1.8618
 7780TIP3    H247536   3.047   0.008   2.069 -1.7559  0.4045  0.4767
 7781TIP3   OH247537   0.860   3.896   1.594 -0.2475 -0.4095 -0.1760
 7781TIP3    H147538   0.862   3.988   1.623  2.2029 -0.5245  0.2000
 7781TIP3    H247539   0.898   3.847   1.667 -1.3346 -1.7307 -0.4636
 7782TIP3   OH247540   4.876   0.993   0.332  0.0843  0.3020 -0.2977
 7782TIP3    H147541   4.888   0.988   0.238 -0.7148  2.0621 -0.5363
 7782TIP3    H247542   4.948   0.942   0.369 -1.1709 -2.8242 -1.8548
 7783TIP3   OH247543   2.871   4.921   0.847 -0.0218 -0.1183  0.7326
 7783TIP3    H147544   2.948   4.863   0.843 -0.1926 -0.3088  0.0044
 7783TIP3    H247545   2.898   4.999   0.799 -0.0612  0.0941  1.0501
 7784TIP3   OH247546   0.361   0.200   2.479  0.2367 -0.6920 -0.6417
 7784TIP3    H147547   0.452   0.176   2.498  0.2894 -0.6915 -0.8930
 7784TIP3    H247548   0.353   0.190   2.384  0.2329  0.1941 -0.7401
 7785TIP3   OH247549   2.017   0.476   2.226  0.6904  0.2826 -0.0065
 7785TIP3    H147550   2.002   0.382   2.221  1.2442  0.1654  0.4311
 7785TIP3    H247551   2.091   0.492   2.167  1.3825  0.2514  0.8277
 7786TIP3   OH247552   0.820   1.889   3.288 -0.5680 -0.1451 -0.1526
 7786TIP3    H147553   0.786   1.869   3.375  0.4762  1.3810  0.6603
 7786TIP3    H247554   0.899   1.940   3.304  1.0532 -1.8854 -1.9743
 7787TIP3   OH247555   5.123   5.571   2.100  0.6285  0.3167 -0.0421
 7787TIP3    H147556   5.063   5.497   2.095  1.2097 -0.0924 -1.6592
 7787TIP3    H247557   5.067   5.647   2.113  0.0705 -0.4458  2.3963
 7788TIP3   OH247558   4.919   6.279   3.874  0.0598 -0.2291  0.2579
 7788TIP3    H147559   4.944   6.231   3.953 -1.6360  1.5913  1.9957
 7788TIP3    H247560   4.986   6.347   3.865 -0.9161  0.9278  1.4492
 7789TIP3   OH247561   2.652   1.186   2.188 -0.0749  0.4726 -0.4065
 7789TIP3    H147562   2.561   1.170   2.210  0.1586  0.0155  0.2749
 7789TIP3    H247563   2.649   1.249   2.116 -0.9123  1.7248  0.6611
 7790TIP3   OH247564   5.409   4.060   0.644  0.5088  0.0857 -0.0123
 7790TIP3    H147565   5.505   4.064   0.641  0.5226 -0.3962 -0.3140
 7790TIP3    H247566   5.381   4.108   0.566  0.4964  0.5255  0.2632
 7791TIP3   OH247567   2.664   5.220   0.772  0.0589 -0.1827  0.2235
 7791TIP3    H147568   2.592   5.164   0.743  2.0774 -3.4256  0.9389
 7791TIP3    H247569   2.663   5.212   0.868 -0.0085  1.6684  0.4095
 7792TIP3   OH247570   4.587   2.673   2.244  0.0062  0.1274 -0.3067
 7792TIP3    H147571   4.533   2.660   2.166 -0.8170 -1.9502  0.5121
 7792TIP3    H247572   4.629   2.588   2.258  1.0180  0.7895  0.8839
 7793TIP3   OH247573   3.340   6.123   3.565 -0.0469  0.1543 -0.4092
 7793TIP3    H147574   3.380   6.192   3.618 -1.1639 -0.0100  0.6920
 7793TIP3    H247575   3.247   6.128   3.586 -0.5136  0.0017 -2.3011
 7794TIP3   OH247576   3.969   2.717   1.901  0.5228 -0.3120 -0.1197
 7794TIP3    H147577   3.931   2.681   1.981  0.6512  1.7464  0.9283
 7794TIP3    H247578   4.031   2.783   1.932  0.1008  0.9915 -1.9214
 7795TIP3   OH247579   3.904   6.586   0.629 -0.3311  0.3599 -0.0502
 7795TIP3    H147580   3.971   6.653   0.641  0.0185 -0.1116  0.7237
 7795TIP3    H247581   3.944   6.521   0.571 -0.5781  0.6927 -0.5969
 7796TIP3   OH247582   2.378   6.100   1.817  0.1462 -0.2241  0.1909
 7796TIP3    H147583   2.358   6.193   1.827  0.7831 -0.0756  0.1507
 7796TIP3    H247584   2.450   6.098   1.754 -0.0951 -0.7717 -0.0769
 7797TIP3   OH247585   3.459   4.339   2.906 -0.1102  0.1911  0.1074
 7797TIP3    H147586   3.367   4.313   2.907  0.0126 -0.4173  2.5623
 7797TIP3    H247587   3.499   4.289   2.977  2.1842  0.3134 -1.0000
 7798TIP3   OH247588   2.118   1.827   3.210  0.2231  0.3416 -0.2847
 7798TIP3    H147589   2.082   1.782   3.287 -0.2165  1.3010  0.0917
 7798TIP3    H247590   2.064   1.796   3.137  0.7164 -0.6639 -0.2318
 7799TIP3   OH247591   0.044   1.638   1.968 -0.2264  0.0122  0.0096
 7799TIP3    H147592   0.040   1.579   2.043  0.7625 -0.2222 -0.1137
 7799TIP3    H247593   0.120   1.693   1.985  1.7974 -1.9188 -2.1478
 7800TIP3   OH247594   4.506   1.084   1.988  0.1511 -0.1906 -0.2475
 7800TIP3    H147595   4.517   0.991   2.009  1.8216  0.1711  0.6070
 7800TIP3    H247596   4.592   1.123   2.003 -0.9714  1.8849  1.3932
 7801TIP3   OH247597   4.341   0.563   3.564  0.2378  0.2965 -0.3277
 7801TIP3    H147598   4.271   0.625   3.543 -0.4342 -0.0919  0.6935
 7801TIP3    H247599   4.394   0.608   3.629 -1.6420 -1.0168  2.2952
 7802TIP3   OH247600   2.268   2.041   3.640 -0.2573 -0.7083 -0.2718
 7802TIP3    H147601   2.277   2.131   3.674 -0.5086 -0.6103 -0.4624
 7802TIP3    H247602   2.249   1.989   3.717 -1.2842 -0.4151 -0.3135
 7803TIP3   OH247603   2.390   4.595   0.977  0.2784  0.2991  1.0319
 7803TIP3    H147604   2.384   4.689   0.965 -0.6102  0.0186 -1.1570
 7803TIP3    H247605   2.333   4.577   1.053  0.2740  1.4752  1.3289
 7804TIP3   OH247606   1.702   3.761   3.829  0.2868  0.0531 -0.2727
 7804TIP3    H147607   1.619   3.748   3.875  0.2349 -2.7816 -1.0022
 7804TIP3    H247608   1.746   3.830   3.879 -2.2631  1.3268  0.4094
 7805TIP3   OH247609   3.422   3.301   2.456  0.7343 -0.0622  0.4133
 7805TIP3    H147610   3.437   3.275   2.365  0.1023 -0.6368  0.4635
 7805TIP3    H247611   3.354   3.241   2.487  1.0819  0.0002  1.3230
 7806TIP3   OH247612   1.606   2.435   3.033 -0.3558 -0.9453 -0.0697
 7806TIP3    H147613   1.562   2.450   2.949 -1.8485 -0.7752  0.7194
 7806TIP3    H247614   1.621   2.341   3.036 -0.4456 -0.9742 -0.4447
 7807TIP3   OH247615   1.410   3.824   5.411 -0.0457 -0.0548  0.7420
 7807TIP3    H147616   1.435   3.737   5.380  0.0941  0.7847 -1.7050
 7807TIP3    H247617   1.325   3.811   5.453  0.0669 -1.3836  0.5871
 7808TIP3   OH247618   3.301   1.297   2.483  0.0578 -0.2024 -0.4580
 7808TIP3    H147619   3.282   1.297   2.389  0.8187  0.5670 -0.6268
 7808TIP3    H247620   3.378   1.241   2.491 -0.5152 -0.9630 -0.1675
 7809TIP3   OH247621   3.626   3.458   1.582  0.6013 -0.3266  0.2427
 7809TIP3    H147622   3.711   3.423   1.610  1.4517  1.0690 -0.5159
 7809TIP3    H247623   3.640   3.486   1.492 -0.5413  0.3613  0.2623
 7810TIP3   OH247624   5.692   6.364   1.991  0.2057 -0.1463  0.2843
 7810TIP3    H147625   5.733   6.278   1.978  0.9005  0.1799  0.2751
 7810TIP3    H247626   5.598   6.345   1.995  0.3255 -0.8631 -0.0781
 7811TIP3   OH247627   2.156   4.439   1.670  0.0061  0.3293  0.1358
 7811TIP3    H147628   2.138   4.457   1.578  1.9603  2.3585  0.0522
 7811TIP3    H247629   2.228   4.376   1.669 -0.6388 -0.4122  0.2922
 7812TIP3   OH247630   0.560   4.303   1.838 -0.2996 -0.1387 -0.2262
 7812TIP3    H147631   0.512   4.276   1.916 -0.0562  1.0079  0.3251
 7812TIP3    H247632   0.524   4.248   1.768 -0.1171 -1.6018  0.7690
 7813TIP3   OH247633   5.760   5.035   3.483 -0.5543 -0.1852 -0.3494
 7813TIP3    H147634   5.715   4.969   3.536 -0.6134 -0.5583 -0.8608
 7813TIP3    H247635   5.700   5.110   3.485 -0.1742  0.1089  0.7921
 7814TIP3   OH247636   1.613   2.747   3.407  0.3694  0.7848  0.0125
 7814TIP3    H147637   1.535   2.803   3.408 -0.9475 -0.8539 -1.9239
 7814TIP3    H247638   1.658   2.771   3.326  1.9873  1.7505  1.1375
 7815TIP3   OH247639   2.300   2.795   1.364  0.1423 -0.2298  0.0945
 7815TIP3    H147640   2.324   2.883   1.392 -0.5726 -0.1204  0.3934
 7815TIP3    H247641   2.251   2.809   1.283  0.9297 -0.4372 -0.4282
 7816TIP3   OH247642   1.603   5.543   2.734  0.3123 -0.2089  0.3697
 7816TIP3    H147643   1.511   5.566   2.716 -0.0827 -0.1781  2.2183
 7816TIP3    H247644   1.649   5.627   2.730 -0.2076  0.1891  1.8557
 7817TIP3   OH247645   4.623   5.969   2.955 -0.0915 -0.8936  0.2072
 7817TIP3    H147646   4.545   5.987   3.008 -1.5142 -0.2201 -2.0007
 7817TIP3    H247647   4.625   5.874   2.946 -0.1636 -0.9727  0.9483
 7818TIP3   OH247648   5.317   5.698   0.956 -0.0573  0.0823 -0.1696
 7818TIP3    H147649   5.225   5.705   0.928 -1.0340 -0.5169  2.5605
 7818TIP3    H247650   5.334   5.780   1.002  1.3250  0.8392 -1.9318
 7819TIP3   OH247651   6.620   1.802   1.766  0.1422  0.3242 -0.1884
 7819TIP3    H147652   6.597   1.739   1.697 -0.1083  0.4162 -0.1901
 7819TIP3    H247653   6.654   1.749   1.837 -0.1726  0.1722 -0.1467
 7820TIP3   OH247654   5.375   2.924   0.875  0.1012 -0.3308  0.7296
 7820TIP3    H147655   5.286   2.900   0.849  0.3748 -1.1752  0.5362
 7820TIP3    H247656   5.363   2.994   0.938 -0.6258  0.8603 -0.6801
 7821TIP3   OH247657   0.557   5.395   2.749  0.6193 -0.9778 -0.0680
 7821TIP3    H147658   0.518   5.468   2.700  2.4318  1.5305  1.9673
 7821TIP3    H247659   0.487   5.368   2.809  0.4437  0.3278  0.3661
 7822TIP3   OH247660   3.130   5.014   1.135 -0.0921  0.1885 -0.2565
 7822TIP3    H147661   3.128   5.053   1.222 -2.0439 -0.4786  0.0605
 7822TIP3    H247662   3.122   5.088   1.075  1.4553  0.6646  0.1001
 7823TIP3   OH247663   4.668   4.377   1.061  0.3755  0.1086 -0.3306
 7823TIP3    H147664   4.612   4.452   1.039  0.3999 -0.0983 -1.0951
 7823TIP3    H247665   4.729   4.370   0.988  1.4955  0.3961  0.5488
 7824TIP3   OH247666   5.686   5.941   2.103 -0.3107 -0.5855  0.0362
 7824TIP3    H147667   5.734   5.869   2.145  0.5174  1.5603  3.1058
 7824TIP3    H247668   5.595   5.910   2.099  0.0699 -1.9070  0.9438
 7825TIP3   OH247669   2.296   2.054   3.188 -0.6464 -0.2123 -0.7029
 7825TIP3    H147670   2.315   2.077   3.097 -2.8840 -0.2567 -1.2559
 7825TIP3    H247671   2.241   1.976   3.182 -1.1092 -0.0241  0.6703
 7826TIP3   OH247672   1.979   1.046   3.700  0.3607 -0.2403  0.3480
 7826TIP3    H147673   1.905   0.993   3.727 -0.3042 -0.2002 -1.2908
 7826TIP3    H247674   1.951   1.136   3.713 -0.3487 -0.1860 -1.2918
 7827TIP3   OH247675   1.917   2.399   0.698  0.3150 -0.7437  0.4424
 7827TIP3    H147676   1.899   2.349   0.619 -3.3430  0.7387  0.1086
 7827TIP3    H247677   1.945   2.333   0.762 -2.4051 -3.0129 -0.4868
 7828TIP3   OH247678   5.963   1.676   2.396  0.0163  0.0254 -0.0054
 7828TIP3    H147679   5.975   1.590   2.357 -0.1682 -0.5329  1.1489
 7828TIP3    H247680   6.001   1.737   2.332  0.1752 -0.9061 -0.8082
 7829TIP3   OH247681   1.364   5.320   2.760 -0.6438  0.2632 -0.1272
 7829TIP3    H147682   1.413   5.327   2.842 -0.5906 -0.2090 -0.1140
 7829TIP3    H247683   1.314   5.238   2.769 -2.2613  1.2468  0.3027
 7830TIP3   OH247684   3.997   3.782   0.764 -0.7476 -0.0078 -0.1425
 7830TIP3    H147685   3.934   3.735   0.710  1.7418 -3.0438 -0.6492
 7830TIP3    H247686   4.015   3.862   0.715 -1.9891 -0.4827 -1.4419
 7831TIP3   OH247687   2.517   3.147   1.333 -0.1901 -0.2880 -0.3423
 7831TIP3    H147688   2.523   3.150   1.238 -0.1466 -0.8151 -0.3612
 7831TIP3    H247689   2.598   3.105   1.361 -0.7855 -1.3504 -0.1678
 7832TIP3   OH247690   3.013   0.866   1.941  0.0073 -0.0024  0.5682
 7832TIP3    H147691   2.948   0.797   1.931 -0.4059  0.5303 -0.6240
 7832TIP3    H247692   3.035   0.866   2.034 -2.0082  0.0823  1.0862
 7833TIP3   OH247693   2.064   0.947   1.755  0.3050  0.2577 -0.1579
 7833TIP3    H147694   2.092   1.012   1.690  1.5864 -0.1518 -0.0419
 7833TIP3    H247695   2.123   0.873   1.741  0.9042  0.3241  1.7618
 7834TIP3   OH247696   0.827   5.532   2.706 -1.0889 -0.3159 -0.4200
 7834TIP3    H147697   0.779   5.465   2.756  0.1301 -1.7642 -1.0900
 7834TIP3    H247698   0.761   5.570   2.648 -2.0286 -0.2185  0.6700
 7835TIP3   OH247699   5.443   1.043   1.178  0.0659  0.3794 -0.2446
 7835TIP3    H147700   5.412   0.976   1.239  1.9071  0.1372  0.4866
 7835TIP3    H247701   5.406   1.018   1.094  0.5019 -1.4207  0.0689
 7836TIP3   OH247702   5.911   5.431   0.936  0.3793  0.4541 -0.1246
 7836TIP3    H147703   5.816   5.420   0.931  0.6244 -1.3297 -1.3369
 7836TIP3    H247704   5.922   5.509   0.991 -1.7623  0.4920  0.3525
 7837TIP3   OH247705   5.775   0.848   1.254  0.1843  0.3545  0.3391
 7837TIP3    H147706   5.803   0.800   1.176 -1.1450 -0.9293  0.6159
 7837TIP3    H247707   5.850   0.842   1.314 -0.0335 -1.6619  0.4726
 7838TIP3   OH247708   6.126   5.193   1.314 -0.3378 -0.0182  0.8748
 7838TIP3    H147709   6.080   5.147   1.244 -0.4585 -1.5059  1.8835
 7838TIP3    H247710   6.211   5.216   1.277 -0.7244 -0.0192 -0.0222
 7839TIP3   OH247711   6.141   3.168   3.069 -0.3941  0.5208 -0.1129
 7839TIP3    H147712   6.124   3.193   3.160  2.3954 -4.2985  2.1328
 7839TIP3    H247713   6.056   3.141   3.036 -1.3365  1.5362  1.3496
 7840TIP3   OH247714   3.713   5.858   2.735  0.3224 -0.4709  0.1825
 7840TIP3    H147715   3.678   5.928   2.681  1.2152 -0.5827 -0.5750
 7840TIP3    H247716   3.638   5.824   2.783  0.0674  1.7874  1.4896
 7841TIP3   OH247717   4.448   2.098   0.709 -0.1963  0.5063 -0.2798
 7841TIP3    H147718   4.494   2.133   0.633  1.2886 -2.8611 -1.1356
 7841TIP3    H247719   4.378   2.044   0.672  0.0647 -0.5868  0.7438
 7842TIP3   OH247720   0.872   0.029   2.750 -0.8048 -0.0976 -0.0835
 7842TIP3    H147721   0.809   0.020   2.821 -0.1139  0.1547  0.5688
 7842TIP3    H247722   0.859   0.119   2.718  0.9807  0.9043  1.7839
 7843TIP3   OH247723   1.341   6.199   1.223  0.1652 -0.1722 -0.1147
 7843TIP3    H147724   1.434   6.222   1.214  0.2232 -0.2306  0.3116
 7843TIP3    H247725   1.342   6.120   1.277 -0.1261 -0.2660 -0.2480
 7844TIP3   OH247726   6.655   2.411   3.983  0.2596  0.0298 -0.3742
 7844TIP3    H147727   6.682   2.369   3.902  0.8429 -0.9976  0.3280
 7844TIP3    H247728   6.736   2.428   4.030 -0.1331 -0.4841  0.5199
 7845TIP3   OH247729   3.305   1.590   1.077  0.3591  0.2934 -0.4021
 7845TIP3    H147730   3.242   1.634   1.135 -0.3662 -2.2159  0.8408
 7845TIP3    H247731   3.389   1.599   1.122  0.0278 -0.4865  0.3984
 7846TIP3   OH247732   5.978   5.815   2.399  0.4625  0.7092 -0.6488
 7846TIP3    H147733   6.025   5.882   2.349 -1.8948  3.1789  0.2174
 7846TIP3    H247734   5.923   5.772   2.334  2.4565 -0.9994 -1.3342
 7847TIP3   OH247735   5.797   5.717   2.227  0.9756 -0.3302  0.1673
 7847TIP3    H147736   5.715   5.670   2.245  0.7339 -0.4849 -1.2480
 7847TIP3    H247737   5.841   5.664   2.161  1.6603  0.3860  0.0404
 7848TIP3   OH247738   5.637   1.039   2.198 -0.4087 -0.1431  0.1562
 7848TIP3    H147739   5.622   1.116   2.143 -0.6391  1.3950  2.2652
 7848TIP3    H247740   5.565   1.039   2.261  1.2956 -0.1895  2.2132
 7849TIP3   OH247741   1.569   5.649   3.299  0.0226  0.5951  0.5538
 7849TIP3    H147742   1.560   5.609   3.385  0.5452  1.9438  1.2590
 7849TIP3    H247743   1.480   5.670   3.272 -0.1956 -0.3698  0.4831
 7850TIP3   OH247744   4.291   3.556   2.312 -0.1374  0.4756  0.6158
 7850TIP3    H147745   4.225   3.608   2.358  1.2875  1.4416  1.6868
 7850TIP3    H247746   4.374   3.584   2.350  0.9508 -0.3232 -1.0234
 7851TIP3   OH247747   5.917   0.585   0.935  0.5696 -0.1234 -0.2825
 7851TIP3    H147748   5.833   0.563   0.976 -0.5391  0.7810 -1.9084
 7851TIP3    H247749   5.976   0.603   1.007 -1.2408  1.2900  0.9440
 7852TIP3   OH247750   4.566   4.598   2.646  0.3203  0.0907  0.0897
 7852TIP3    H147751   4.534   4.573   2.560 -0.1033  0.9518 -0.0186
 7852TIP3    H247752   4.615   4.522   2.677  1.5712  0.2332 -1.4423
 7853TIP3   OH247753   2.853   4.876   1.390 -0.3162  0.3555 -0.2404
 7853TIP3    H147754   2.850   4.894   1.296 -0.0899  1.7793 -0.0013
 7853TIP3    H247755   2.922   4.810   1.400 -0.9936 -0.5091 -1.1546
 7854TIP3   OH247756   4.064   5.444   1.919 -0.1820 -0.2985  0.4260
 7854TIP3    H147757   4.030   5.354   1.924  0.2948 -0.4997  0.1615
 7854TIP3    H247758   4.156   5.433   1.894  0.8963  0.0792  3.6849
 7855TIP3   OH247759   5.571   5.608   2.356  0.0897 -0.0551  0.3887
 7855TIP3    H147760   5.558   5.566   2.270 -1.7867 -0.5500  0.8590
 7855TIP3    H247761   5.497   5.577   2.409  0.0022  1.9270  1.5277
 7856TIP3   OH247762   3.767   1.483   2.572 -0.1987 -0.0033 -0.2735
 7856TIP3    H147763   3.717   1.415   2.618  0.6088 -0.8400 -0.6041
 7856TIP3    H247764   3.845   1.495   2.626  1.1923 -1.6108 -1.7845
 7857TIP3   OH247765   0.774   6.143   3.098 -0.3784  0.6034 -0.2144
 7857TIP3    H147766   0.819   6.208   3.045 -0.6171  1.4490  0.5923
 7857TIP3    H247767   0.757   6.187   3.182 -1.4134 -0.1597  0.0078
 7858TIP3   OH247768   5.080   1.195   2.208  0.2059 -0.1655 -0.3014
 7858TIP3    H147769   5.147   1.159   2.266 -0.1024 -0.4782 -0.1340
 7858TIP3    H247770   5.004   1.139   2.222  0.1683 -0.3251 -1.1089
 7859TIP3   OH247771   0.324   5.424   1.110  0.0009  0.4499  0.3931
 7859TIP3    H147772   0.355   5.515   1.112  2.0713 -0.1890 -0.4189
 7859TIP3    H247773   0.381   5.378   1.171 -0.7561 -0.4118  0.4669
 7860TIP3   OH247774   6.404   3.955   4.039 -0.1696 -0.5232 -0.2376
 7860TIP3    H147775   6.433   4.017   4.106  0.1587  0.3191 -1.1403
 7860TIP3    H247776   6.344   3.896   4.085 -0.8133  0.7145  0.5444
 7861TIP3   OH247777   4.733   4.353   2.707 -0.7101 -0.2930  0.0978
 7861TIP3    H147778   4.779   4.307   2.636  0.1438  1.1784 -0.3689
 7861TIP3    H247779   4.652   4.304   2.719  0.2573 -2.0517 -0.1624
 7862TIP3   OH247780   0.244   1.199   1.951  0.2843  0.0043 -0.0215
 7862TIP3    H147781   0.183   1.257   1.997  1.6585  1.3808  0.1280
 7862TIP3    H247782   0.297   1.160   2.020 -1.4170 -2.5012  0.0060
 7863TIP3   OH247783   2.348   2.861   2.285 -0.2016  0.5683 -0.1048
 7863TIP3    H147784   2.306   2.793   2.232 -1.0315  0.6845  0.3853
 7863TIP3    H247785   2.389   2.919   2.221 -1.6379  1.0036 -0.6797
 7864TIP3   OH247786   1.895   1.159   1.486 -0.0690 -0.1823 -0.1741
 7864TIP3    H147787   1.834   1.173   1.414 -0.1923 -3.0626 -0.7459
 7864TIP3    H247788   1.971   1.213   1.464 -0.3281 -0.5783 -2.1985
 7865TIP3   OH247789   3.772   5.665   2.998  0.0870  0.5725  0.5349
 7865TIP3    H147790   3.753   5.645   2.906 -1.0232  1.0199  0.6499
 7865TIP3    H247791   3.854   5.620   3.016 -0.0200 -0.0620 -0.4925
 7866TIP3   OH247792   5.767   4.212   1.525 -0.6644  0.4488 -0.1605
 7866TIP3    H147793   5.708   4.196   1.452 -0.2253 -0.7764 -0.2564
 7866TIP3    H247794   5.711   4.211   1.602 -1.0567  1.2974 -0.4177
 7867TIP3   OH247795   5.625   6.223   1.421 -0.7269  0.3902 -0.4098
 7867TIP3    H147796   5.584   6.231   1.335 -1.1818  0.5816 -0.1784
 7867TIP3    H247797   5.688   6.151   1.411 -0.6812  0.5001 -0.9355
 7868TIP3   OH247798   3.016   0.075   1.657 -0.0578  0.4629  0.2120
 7868TIP3    H147799   3.045  -0.004   1.704  0.9915  0.1472 -0.9196
 7868TIP3    H247800   3.003   0.140   1.726  1.7176  0.0962  0.9500
 7869TIP3   OH247801   2.757   2.044   1.511  0.1181  0.2085 -0.1850
 7869TIP3    H147802   2.813   2.114   1.542  2.1172 -0.2687 -2.4614
 7869TIP3    H247803   2.711   2.081   1.436 -1.7203  0.1646  0.8394
 7870TIP3   OH247804   0.815   5.193   2.445 -0.2671  0.1418  0.0095
 7870TIP3    H147805   0.854   5.269   2.489 -0.5387  0.3152 -0.0451
 7870TIP3    H247806   0.849   5.117   2.492  2.7303  0.0724 -1.9334
 7871TIP3   OH247807   0.268   1.220   1.374  0.1331 -0.8125  0.2766
 7871TIP3    H147808   0.248   1.265   1.457 -0.1913  0.1179 -0.2925
 7871TIP3    H247809   0.250   1.285   1.307  1.8772 -1.0396 -0.4655
 7872TIP3   OH247810   4.425   5.113   1.501 -0.9030  0.5219  0.0231
 7872TIP3    H147811   4.365   5.147   1.568 -1.1445  1.1379 -0.4943
 7872TIP3    H247812   4.371   5.057   1.446 -0.3777 -1.2702  1.2371
 7873TIP3   OH247813   3.747   1.259   1.669 -0.7029  0.3234 -0.0755
 7873TIP3    H147814   3.728   1.352   1.679 -3.0342 -0.2121  1.4423
 7873TIP3    H247815   3.683   1.228   1.606  0.4925 -0.1696 -1.0811
 7874TIP3   OH247816   1.065   6.345   2.615 -0.1454 -0.3707 -0.1634
 7874TIP3    H147817   0.979   6.358   2.576 -0.0482  1.3261  0.1133
 7874TIP3    H247818   1.125   6.341   2.541 -0.1448  1.2780 -0.2760
 7875TIP3   OH247819   3.793   4.482   1.144 -0.2240  0.3378  0.2690
 7875TIP3    H147820   3.864   4.431   1.105 -0.4694 -0.3314  0.6831
 7875TIP3    H247821   3.718   4.423   1.144 -0.0411  0.0196  2.4318
 7876TIP3   OH247822   5.989   5.164   3.379 -0.0158 -0.2717  0.1563
 7876TIP3    H147823   6.077   5.130   3.398 -0.1312  0.0184  1.2799
 7876TIP3    H247824   5.930   5.099   3.417 -0.2740 -0.0872  0.0656
 7877TIP3   OH247825   2.748   3.324   3.094 -0.4974 -1.0851 -0.3205
 7877TIP3    H147826   2.653   3.335   3.089 -0.5763 -1.4565  0.3154
 7877TIP3    H247827   2.762   3.229   3.097 -0.2430 -1.0183  1.9266
 7878TIP3   OH247828   5.782   5.307   1.240 -0.8928  0.2271  0.5625
 7878TIP3    H147829   5.727   5.385   1.244  0.4524  1.2690 -0.4229
 7878TIP3    H247830   5.759   5.264   1.158  1.0549  1.7253 -0.8458
 7879TIP3   OH247831   6.463   0.137   2.866  0.1361  0.2700  0.4444
 7879TIP3    H147832   6.480   0.231   2.859 -1.9753  0.7409  0.8507
 7879TIP3    H247833   6.429   0.125   2.955  0.4810 -0.9081  0.4334
 7880TIP3   OH247834   1.022   5.378   3.427 -0.1896  0.2503  0.2163
 7880TIP3    H147835   1.052   5.462   3.393  1.3134 -0.6846 -0.8722
 7880TIP3    H247836   1.087   5.315   3.397 -1.0091 -1.2457  1.4281
 7881TIP3   OH247837   1.400   0.453   4.029  0.2356  0.3187 -0.5903
 7881TIP3    H147838   1.402   0.548   4.025  2.4116  0.3991  0.6967
 7881TIP3    H247839   1.471   0.430   4.089 -2.3735 -1.9580  1.9562
 7882TIP3   OH247840   4.404   5.183   2.140  0.0998  0.0857  0.6323
 7882TIP3    H147841   4.350   5.187   2.219  0.1052 -0.5922  0.6755
 7882TIP3    H247842   4.361   5.244   2.080 -0.5036 -0.1583  0.7985
 7883TIP3   OH247843   3.960   3.002   1.725 -0.4577  0.0344 -0.4263
 7883TIP3    H147844   3.872   2.975   1.749 -0.0754 -0.6081  0.3125
 7883TIP3    H247845   3.957   3.015   1.631 -1.7354  1.5433 -0.2142
 7884TIP3   OH247846   1.204   5.077   2.737  0.1203  0.1520  0.0749
 7884TIP3    H147847   1.228   4.987   2.717  0.3101  0.4112 -0.9355
 7884TIP3    H247848   1.187   5.117   2.652 -0.5809  0.9013  0.5536
 7885TIP3   OH247849   5.193   2.008   2.075 -0.4062 -0.0187  0.3044
 7885TIP3    H147850   5.193   1.935   2.013  0.6053 -1.5937  2.0348
 7885TIP3    H247851   5.191   2.086   2.021  1.3200 -1.2933 -1.7488
 7886TIP3   OH247852   4.416   0.338   2.764  0.0990 -0.0736  0.4410
 7886TIP3    H147853   4.346   0.335   2.698  0.6812 -0.6944 -0.1655
 7886TIP3    H247854   4.371   0.359   2.846 -0.4983  1.8368 -0.3238
 7887TIP3   OH247855   3.327   0.452   2.578  0.1503  0.3963  0.2725
 7887TIP3    H147856   3.273   0.387   2.535  0.2451  0.9166 -0.6621
 7887TIP3    H247857   3.372   0.497   2.507 -0.1968  1.7324  0.8551
 7888TIP3   OH247858   0.456   4.315   3.023 -1.0867 -0.4073 -0.6250
 7888TIP3    H147859   0.483   4.268   3.102  0.4677  0.0125 -0.8747
 7888TIP3    H247860   0.419   4.397   3.054 -0.2159 -0.1174 -0.3226
 7889TIP3   OH247861   3.054   1.451   2.428  0.1017 -0.5615  0.2031
 7889TIP3    H147862   2.983   1.395   2.458  0.3043 -1.2611 -0.5778
 7889TIP3    H247863   3.134   1.405   2.453  0.2813 -0.0717  0.5480
 7890TIP3   OH247864   2.418   1.492   1.760  0.0422  0.1090  0.2388
 7890TIP3    H147865   2.484   1.558   1.738 -0.7613  0.4708 -1.2179
 7890TIP3    H247866   2.356   1.495   1.686 -2.2055  0.5553  2.0242
 7891TIP3   OH247867   0.168   1.650   3.141 -0.0438 -0.5335 -0.1905
 7891TIP3    H147868   0.093   1.618   3.192  0.7519 -1.1916  0.5829
 7891TIP3    H247869   0.158   1.608   3.055  0.1412 -1.6487  0.3241
 7892TIP3   OH247870   6.209   2.908   0.876  0.3360  0.3373 -0.2888
 7892TIP3    H147871   6.294   2.878   0.844 -0.0649 -0.8843 -0.2530
 7892TIP3    H247872   6.147   2.843   0.843 -0.4425  0.5885  0.6435
 7893TIP3   OH247873   5.636   5.349   3.191  0.2672 -0.2193 -0.6524
 7893TIP3    H147874   5.586   5.425   3.159 -0.9525 -1.0144 -0.7187
 7893TIP3    H247875   5.689   5.322   3.116 -0.1848 -0.1442 -1.0013
 7894TIP3   OH247876   6.143   5.331   1.020 -0.7601 -0.0771 -0.6474
 7894TIP3    H147877   6.071   5.369   0.971 -1.0497 -0.9500 -0.9237
 7894TIP3    H247878   6.130   5.361   1.110 -0.9174  0.5409 -0.8737
 7895TIP3   OH247879   2.497   4.224   2.388 -0.2948  0.1517  0.0150
 7895TIP3    H147880   2.508   4.279   2.310 -0.8085 -0.3347 -0.4099
 7895TIP3    H247881   2.481   4.287   2.459 -0.8680  0.5613 -0.4639
 7896TIP3   OH247882   1.112   5.171   2.465 -0.5785  0.0311 -0.3630
 7896TIP3    H147883   1.124   5.144   2.374  1.5158  0.3353 -0.2339
 7896TIP3    H247884   1.047   5.241   2.461 -1.7457 -1.0490 -1.3946
 7897TIP3   OH247885   3.390   5.848   3.527  0.2577  0.3972 -0.0263
 7897TIP3    H147886   3.389   5.942   3.512  0.2416  0.4740  0.4326
 7897TIP3    H247887   3.448   5.836   3.602 -0.0995  0.0898  0.2086
 7898TIP3   OH247888   3.086   5.784   1.322 -0.0455  0.4874 -0.2219
 7898TIP3    H147889   3.163   5.776   1.265 -0.2750 -0.2878 -0.4234
 7898TIP3    H247890   3.053   5.872   1.305  0.7329  0.7879 -0.2156
 7899TIP3   OH247891   3.414   2.448   1.936 -0.8946  0.1738 -0.4038
 7899TIP3    H147892   3.331   2.401   1.924 -1.2976  1.0282 -1.0345
 7899TIP3    H247893   3.408   2.523   1.877  0.6559 -0.1664 -1.0313
 7900TIP3   OH247894   6.390   3.744   2.867 -0.1001 -0.3986 -0.2330
 7900TIP3    H147895   6.371   3.698   2.948 -1.4762 -0.9348 -0.8291
 7900TIP3    H247896   6.421   3.830   2.895  2.4580 -1.5826  0.8909
 7901TIP3   OH247897   1.486   3.742   3.412 -0.0504  0.0056 -0.6910
 7901TIP3    H147898   1.479   3.836   3.426 -2.0374 -0.1678 -0.2934
 7901TIP3    H247899   1.581   3.725   3.416  0.2714  1.7649  0.6748
 7902TIP3   OH247900   2.925   6.416   1.581  0.0856  0.2270  0.0231
 7902TIP3    H147901   2.982   6.436   1.656 -0.0164 -1.7322  0.6843
 7902TIP3    H247902   2.970   6.345   1.536 -1.6326 -1.1505  0.3825
 7903TIP3   OH247903   2.890   1.451   4.068  0.0549 -0.7701  0.2219
 7903TIP3    H147904   2.830   1.418   4.001 -1.0139 -0.4052  0.9631
 7903TIP3    H247905   2.951   1.379   4.083 -0.8544 -1.5668  0.1990
 7904TIP3   OH247906   2.442   1.048   1.827 -0.3674  0.1920 -0.1155
 7904TIP3    H147907   2.440   1.139   1.857 -4.4483  0.4639 -0.5800
 7904TIP3    H247908   2.403   0.999   1.900 -0.6482 -0.7553 -0.8889
 7905TIP3   OH247909   5.069   4.426   3.833 -0.2210  0.3574 -0.0492
 7905TIP3    H147910   5.111   4.412   3.918 -0.8683 -0.3072  0.1723
 7905TIP3    H247911   5.106   4.508   3.801  0.2156  0.4855  0.7638
 7906TIP3   OH247912   4.721   2.829   3.331  0.0405 -0.1863  0.1193
 7906TIP3    H147913   4.786   2.804   3.264 -2.3468 -1.2585 -1.9634
 7906TIP3    H247914   4.646   2.773   3.313 -1.2110  0.4051  2.9832
 7907TIP3   OH247915   3.023   6.220   9.957 -0.1487  0.4143  0.1548
 7907TIP3    H147916   2.987   6.138   9.925 -1.4052  0.9310  0.1956
 7907TIP3    H247917   2.947   6.277   9.968  0.8892  2.5056 -2.4171
 7908TIP3   OH247918   3.801   0.410   1.951  0.5805  0.6071 -0.1926
 7908TIP3    H147919   3.814   0.321   1.984  0.7570  0.8170  0.3049
 7908TIP3    H247920   3.885   0.454   1.967  0.5676  0.7984 -0.6411
 7909TIP3   OH247921   5.481   6.543   2.761 -0.5457 -0.0653  0.4639
 7909TIP3    H147922   5.406   6.599   2.742 -0.7058  0.6099  2.7627
 7909TIP3    H247923   5.547   6.568   2.695 -1.4272  1.1796  0.0131
 7910TIP3   OH247924   4.526   0.301   1.040  0.0166 -0.9013  0.5233
 7910TIP3    H147925   4.521   0.393   1.068 -0.8338 -0.8832  0.3263
 7910TIP3    H247926   4.501   0.251   1.117 -1.6928 -0.8744  0.0231
 7911TIP3   OH247927   2.598   5.900   2.060  0.5360 -0.0326 -0.0484
 7911TIP3    H147928   2.646   5.936   1.985  2.4633 -1.1676  0.5524
 7911TIP3    H247929   2.519   5.861   2.022  0.2998  1.4299 -1.1528
 7912TIP3   OH247930   6.389   1.964   1.877 -0.1538 -0.3190  0.3272
 7912TIP3    H147931   6.459   1.917   1.833  0.2106  0.7796 -0.3005
 7912TIP3    H247932   6.356   1.902   1.942 -1.3225 -2.3270 -2.0240
 7913TIP3   OH247933   1.968   3.227   1.988  0.1385 -0.0152  0.0909
 7913TIP3    H147934   1.897   3.187   1.937  1.5041 -2.1658 -0.2064
 7913TIP3    H247935   1.973   3.175   2.067  0.9415  0.5770  0.4400
 7914TIP3   OH247936   6.300   5.362   2.356 -0.8621 -0.6433 -0.5854
 7914TIP3    H147937   6.222   5.393   2.401 -1.2886 -1.4341 -0.7553
 7914TIP3    H247938   6.295   5.266   2.363 -0.9577 -0.7958 -2.3278
 7915TIP3   OH247939   6.659   6.598   0.820 -0.1183 -0.5080  0.5107
 7915TIP3    H147940   6.707   6.615   0.901 -0.0910 -1.3201  0.6732
 7915TIP3    H247941   6.568   6.621   0.841 -0.0970 -0.6366  0.7491
 7916TIP3   OH247942   2.961   1.138   2.467  0.4500 -0.3313  0.0493
 7916TIP3    H147943   2.941   1.073   2.535  1.4199  0.7360  1.4128
 7916TIP3    H247944   3.055   1.127   2.451  0.3293 -0.2221 -0.7639
 7917TIP3   OH247945   3.763   4.882   1.698 -0.7379  0.6586  0.9485
 7917TIP3    H147946   3.730   4.938   1.628 -0.8278 -0.4964  0.0428
 7917TIP3    H247947   3.718   4.913   1.776 -2.1473  0.6937  0.1569
 7918TIP3   OH247948   3.984   4.431   3.176  0.0971 -0.1355  0.0930
 7918TIP3    H147949   3.948   4.483   3.105  0.5147 -1.0475 -0.8077
 7918TIP3    H247950   4.054   4.379   3.136  0.7809 -0.1930  1.3022
 7919TIP3   OH247951   0.710   1.604   2.389  0.7714  0.0210 -0.2838
 7919TIP3    H147952   0.752   1.626   2.473 -0.1909  1.3891 -0.1226
 7919TIP3    H247953   0.689   1.689   2.350  0.1075 -0.6149 -1.3510
 7920TIP3   OH247954   0.645   3.030   5.096  0.2179 -0.3329  0.7110
 7920TIP3    H147955   0.733   3.024   5.133  0.6199  0.3711 -0.0748
 7920TIP3    H247956   0.639   2.956   5.036  0.4868 -0.0713  0.3562
 7921TIP3   OH247957   2.156   1.697   3.615 -0.2393 -0.3736 -0.2034
 7921TIP3    H147958   2.216   1.735   3.679 -0.5234 -1.1253  0.5280
 7921TIP3    H247959   2.071   1.699   3.658 -0.5185 -0.4795 -0.7412
 7922TIP3   OH247960   4.305   3.211   2.939  0.0800 -0.1310 -0.3528
 7922TIP3    H147961   4.351   3.237   2.859  0.3970 -2.1434 -0.8646
 7922TIP3    H247962   4.215   3.196   2.912 -0.3546  1.3691  0.1568
 7923TIP3   OH247963   2.170   6.674   1.563 -0.2582 -0.2148  0.1761
 7923TIP3    H147964   2.078   6.678   1.538 -0.8300  1.1589  2.2368
 7923TIP3    H247965   2.169   6.645   1.654  1.4117 -1.0068 -0.0241
 7924TIP3   OH247966   2.079   6.157   2.635 -0.1992  0.5741  0.6489
 7924TIP3    H147967   2.037   6.135   2.719  0.6235  2.2016  1.5408
 7924TIP3    H247968   2.007   6.155   2.572 -0.8777 -0.5191  1.4036
 7925TIP3   OH247969   0.476   2.858   4.430 -0.5528  0.0073 -0.4304
 7925TIP3    H147970   0.424   2.791   4.386  1.8837 -1.7500 -0.7606
 7925TIP3    H247971   0.455   2.939   4.383 -1.8869 -0.8937 -1.4501
 7926TIP3   OH247972   3.746   4.666   2.215  0.1671  0.0370  0.4750
 7926TIP3    H147973   3.810   4.605   2.251  0.2692  0.0546  0.3215
 7926TIP3    H247974   3.666   4.615   2.208 -0.1497  0.3169  1.7409
 7927TIP3   OH247975   0.595   3.398   1.710 -0.5845 -0.0964 -0.0408
 7927TIP3    H147976   0.586   3.308   1.742  1.6916 -0.7024 -0.8555
 7927TIP3    H247977   0.604   3.452   1.788 -2.0922 -0.5432  0.4582
 7928TIP3   OH247978   4.032   3.531   3.338 -0.3880  0.6813 -0.4642
 7928TIP3    H147979   4.112   3.581   3.326  0.8056 -1.3700 -1.5413
 7928TIP3    H247980   4.037   3.460   3.275 -1.3196 -1.5955  1.8064
 7929TIP3   OH247981   3.499   0.655   3.001  0.2559 -0.2977  0.1946
 7929TIP3    H147982   3.525   0.687   2.915 -0.5131 -2.6766 -1.0252
 7929TIP3    H247983   3.443   0.724   3.037  0.3325  0.6157 -1.3498
 7930TIP3   OH247984   0.691   2.525   2.566  0.6912 -0.3362  0.5195
 7930TIP3    H147985   0.600   2.509   2.593  0.0034  2.0589 -0.1276
 7930TIP3    H247986   0.699   2.480   2.482 -1.7311  3.5023 -2.1471
 7931TIP3   OH247987   2.912   3.960   1.571 -0.2567  0.0028  0.0996
 7931TIP3    H147988   2.883   3.881   1.526  1.8612 -0.4550 -0.5728
 7931TIP3    H247989   2.850   3.972   1.643 -0.9030 -1.9854 -0.0860
 7932TIP3   OH247990   6.312   3.694   3.132  0.5442  0.7323  0.4241
 7932TIP3    H147991   6.257   3.628   3.174  1.0205  0.3857  0.5083
 7932TIP3    H247992   6.281   3.777   3.168  1.1220  0.4292  1.6876
 7933TIP3   OH247993   6.536   3.915   1.671 -0.6651 -0.8285 -0.1284
 7933TIP3    H147994   6.460   3.861   1.649 -0.8729 -1.6184  2.2197
 7933TIP3    H247995   6.503   4.005   1.672 -0.2235 -0.4225 -4.4994
 7934TIP3   OH247996   2.132   5.228   1.880 -0.5261 -0.2324  0.3006
 7934TIP3    H147997   2.059   5.285   1.857  0.2474  1.6417  2.1763
 7934TIP3    H247998   2.208   5.270   1.838  0.1585  0.5748  2.2585
 7935TIP3   OH247999   6.208   0.713   0.816  0.0598 -0.1151  0.7085
 7935TIP3    H148000   6.254   0.753   0.743 -0.8157 -0.5416 -0.0901
 7935TIP3    H248001   6.180   0.787   0.870  0.6425  0.2017  0.5865
 7936TIP3   OH248002   2.320   4.561   4.042  0.2851 -0.3630 -0.3203
 7936TIP3    H148003   2.365   4.573   3.958 -1.4285 -0.3814 -1.3031
 7936TIP3    H248004   2.376   4.603   4.106  0.0511  2.7823 -1.9780
 7937TIP3   OH248005   2.280   1.246   0.617 -0.2112  0.0232  0.5723
 7937TIP3    H148006   2.367   1.211   0.599 -0.7164 -1.1935  0.4579
 7937TIP3    H248007   2.222   1.170   0.619 -1.2984  0.8194  0.5677
 7938TIP3   OH248008   2.391   4.719   3.405 -0.0501  0.3523 -0.1615
 7938TIP3    H148009   2.412   4.629   3.430 -1.4389 -0.1728 -0.8029
 7938TIP3    H248010   2.392   4.767   3.488 -1.2813 -0.6810  0.4948
 7939TIP3   OH248011   3.348   3.860   3.131 -0.7146 -0.4482  0.1595
 7939TIP3    H148012   3.340   3.888   3.040 -2.3264  2.3361  1.0248
 7939TIP3    H248013   3.428   3.902   3.163 -0.6052 -0.7293  0.2670
 7940TIP3   OH248014   0.511   5.070   2.918 -0.2539 -0.1497  0.7561
 7940TIP3    H148015   0.604   5.089   2.904  0.1144 -3.1429 -2.1292
 7940TIP3    H248016   0.511   4.997   2.980 -0.5564 -0.9109 -0.1215
 7941TIP3   OH248017   2.381   0.461   3.593 -0.1073  0.1678  0.4223
 7941TIP3    H148018   2.475   0.445   3.603  0.0718  0.6348 -0.4305
 7941TIP3    H248019   2.376   0.548   3.555 -0.8927  0.1512  0.4808
 7942TIP3   OH248020   3.304   6.257   2.982 -0.2669  0.2556  0.3815
 7942TIP3    H148021   3.248   6.312   2.927  1.0563  0.7659 -0.4932
 7942TIP3    H248022   3.249   6.182   3.005 -0.4198 -0.7589 -2.8856
 7943TIP3   OH248023   2.615   3.664   4.321 -0.3344 -0.2501  0.0297
 7943TIP3    H148024   2.698   3.674   4.275 -0.2473  0.8475  0.3914
 7943TIP3    H248025   2.571   3.592   4.276 -0.2198  0.7295 -1.7269
 7944TIP3   OH248026   2.247   2.743   3.156 -0.4550 -0.8122  0.2281
 7944TIP3    H148027   2.173   2.744   3.215  0.4761  0.8748  1.4591
 7944TIP3    H248028   2.233   2.819   3.098  0.6263 -0.0092  0.9638
 7945TIP3   OH248029   2.844   0.556   2.961  0.1591 -0.2167  0.3577
 7945TIP3    H148030   2.925   0.602   2.984 -0.4285  1.1678 -0.2372
 7945TIP3    H248031   2.826   0.581   2.871  0.2321 -2.2998 -0.2990
 7946TIP3   OH248032   0.951   1.868   1.075  0.8376  0.0811 -0.7388
 7946TIP3    H148033   1.016   1.799   1.063  0.9314 -0.0478  0.4105
 7946TIP3    H248034   0.979   1.914   1.155  0.7783  1.4513 -1.4747
 7947TIP3   OH248035   4.735   4.155   1.646 -0.1609 -0.1874 -0.2400
 7947TIP3    H148036   4.708   4.064   1.632 -0.3478 -0.5204  1.9096
 7947TIP3    H248037   4.828   4.157   1.623 -0.2833 -0.7956 -0.7966
 7948TIP3   OH248038   6.326   1.534   1.163 -0.2400  0.1544 -0.4353
 7948TIP3    H148039   6.258   1.532   1.231 -0.7856 -1.0293 -0.9699
 7948TIP3    H248040   6.280   1.563   1.084  0.3382  1.3018 -0.3603
 7949TIP3   OH248041   0.672   5.953   2.662  0.3936 -0.1326  0.1869
 7949TIP3    H148042   0.639   5.917   2.580  0.9893 -0.8413  0.2517
 7949TIP3    H248043   0.767   5.949   2.654  0.5930  2.9246 -0.4768
 7950TIP3   OH248044   2.208   3.255   3.739 -0.2914  0.1383 -0.1645
 7950TIP3    H148045   2.189   3.334   3.789  0.2522  0.0311  0.2216
 7950TIP3    H248046   2.275   3.282   3.676  0.6042 -0.2260  0.6055
 7951TIP3   OH248047   3.100   0.884   0.878 -0.6622 -0.0257 -0.5544
 7951TIP3    H148048   3.039   0.949   0.914 -0.6315 -0.3162  0.0326
 7951TIP3    H248049   3.106   0.817   0.945 -1.4210 -1.1193 -1.5317
 7952TIP3   OH248050   3.376   0.785   4.034 -0.3331 -0.1513  0.3567
 7952TIP3    H148051   3.439   0.820   3.970 -1.0527  0.0012 -0.2869
 7952TIP3    H248052   3.430   0.748   4.103  0.4789 -0.8012 -0.5957
 7953TIP3   OH248053   0.910   1.317   1.279 -0.2259 -0.4073 -0.1825
 7953TIP3    H148054   0.941   1.406   1.260  0.6712 -0.4758  0.8463
 7953TIP3    H248055   0.906   1.274   1.194 -0.6749  0.6163 -0.6953
 7954TIP3   OH248056   5.324   2.852   1.967  0.1419 -0.0820 -0.4435
 7954TIP3    H148057   5.404   2.873   2.015 -0.5784 -1.3730  1.4134
 7954TIP3    H248058   5.341   2.765   1.930  0.2394  0.4044 -1.5855
 7955TIP3   OH248059   1.132   4.852   4.386  0.3195 -0.4232  0.9705
 7955TIP3    H148060   1.067   4.830   4.320  0.6568  0.9436  0.1414
 7955TIP3    H248061   1.082   4.864   4.467 -0.2537 -0.8057  0.6781
 7956TIP3   OH248062   0.694   1.390   2.742 -0.4050  0.0231  0.2713
 7956TIP3    H148063   0.656   1.351   2.664  0.2145 -0.2591  0.1008
 7956TIP3    H248064   0.663   1.480   2.743 -1.0025 -0.1810  0.0975
 7957TIP3   OH248065   0.367   3.008   2.382  0.2739  0.1240 -0.1786
 7957TIP3    H148066   0.433   2.958   2.333  1.2938  0.8276  0.4245
 7957TIP3    H248067   0.341   2.950   2.453  0.0261 -0.2757 -0.5984
 7958TIP3   OH248068   0.532   1.464   1.533  0.4752  0.6989  0.2006
 7958TIP3    H148069   0.547   1.370   1.542 -1.2902  0.2525 -1.0502
 7958TIP3    H248070   0.481   1.488   1.611 -0.2782  0.3314 -0.1792
 7959TIP3   OH248071   4.209   0.910   0.606 -0.6333  0.8338  0.2408
 7959TIP3    H148072   4.200   0.820   0.576  1.2789  0.9077 -0.6915
 7959TIP3    H248073   4.119   0.941   0.616 -1.3288 -1.3804  1.3032
 7960TIP3   OH248074   6.467   4.236   2.027  0.1359  0.5353  0.0949
 7960TIP3    H148075   6.420   4.186   2.094  0.5477 -3.7559 -2.4161
 7960TIP3    H248076   6.556   4.202   2.029  0.2988  0.6377 -2.1971
 7961TIP3   OH248077   4.537   1.106   1.319 -0.0582 -0.0143  0.5431
 7961TIP3    H148078   4.609   1.156   1.280 -0.7641  1.9653  1.6568
 7961TIP3    H248079   4.554   1.016   1.292  2.2146  0.5468 -0.1536
 7962TIP3   OH248080   2.051   1.498   3.027  0.2219 -0.2699 -0.1215
 7962TIP3    H148081   2.078   1.558   2.958 -0.8602 -0.2554 -0.5616
 7962TIP3    H248082   1.965   1.530   3.054 -0.1166 -1.2783  0.0367
 7963TIP3   OH248083   6.706   0.488   0.443  0.5246 -0.7771 -0.0747
 7963TIP3    H148084   6.617   0.498   0.410  0.7084  0.8305 -0.1255
 7963TIP3    H248085   6.701   0.410   0.499 -0.4417 -1.8750 -1.5908
 7964TIP3   OH248086   6.262   2.388   2.737  0.2967 -0.0925 -0.2345
 7964TIP3    H148087   6.185   2.348   2.695  0.3218  0.4596 -0.8312
 7964TIP3    H248088   6.225   2.456   2.794  0.3818  1.2610 -1.7200
 7965TIP3   OH248089   1.515   2.030   1.827 -0.5554  0.8051  0.0923
 7965TIP3    H148090   1.452   1.997   1.764  0.1990 -0.2762 -0.1250
 7965TIP3    H248091   1.591   2.056   1.775  0.0694 -0.0787  0.5230
 7966TIP3   OH248092   3.128   3.195   2.129  0.4577 -0.1943  0.1281
 7966TIP3    H148093   3.218   3.206   2.159 -0.2339  0.5734  2.0771
 7966TIP3    H248094   3.085   3.278   2.150 -0.9420 -0.9001  0.1429
 7967TIP3   OH248095   6.423   3.273   3.781 -0.0556 -0.1568 -0.2174
 7967TIP3    H148096   6.352   3.310   3.728  1.1097  1.5588 -0.6452
 7967TIP3    H248097   6.491   3.250   3.718  0.5123 -0.0576  0.3523
 7968TIP3   OH248098   0.435   4.788   4.125  0.5048 -0.2163 -0.7961
 7968TIP3    H148099   0.414   4.879   4.146  2.6262 -0.4773  3.4403
 7968TIP3    H248100   0.510   4.794   4.065 -0.1204  0.7494 -1.5129
 7969TIP3   OH248101   4.471   2.271   2.439 -0.1142 -0.0388  0.2091
 7969TIP3    H148102   4.540   2.312   2.387 -0.4874 -0.9957 -1.1084
 7969TIP3    H248103   4.452   2.335   2.508  0.6800  1.1202 -0.5997
 7970TIP3   OH248104   5.954   2.493   1.403  0.0582 -0.1688  0.4301
 7970TIP3    H148105   6.016   2.432   1.444  1.2483  1.1706  0.6932
 7970TIP3    H248106   5.968   2.576   1.448 -1.8786  0.2159  0.4185
 7971TIP3   OH248107   1.821   3.068   2.389  0.4964  0.3051  0.0265
 7971TIP3    H148108   1.783   2.991   2.346 -0.3040  1.2299 -1.0041
 7971TIP3    H248109   1.843   3.039   2.477  1.3671 -1.4341 -0.7255
 7972TIP3   OH248110   2.732   1.556   1.891 -0.1061  0.1444 -0.3533
 7972TIP3    H148111   2.696   1.616   1.826 -0.0294 -1.5315 -2.0633
 7972TIP3    H248112   2.663   1.492   1.905  1.3361 -1.9602 -2.1336
 7973TIP3   OH248113   4.120   6.207   1.794 -0.4357 -0.8604 -0.2756
 7973TIP3    H148114   4.120   6.303   1.802 -0.8200 -0.9164  0.4724
 7973TIP3    H248115   4.211   6.182   1.810 -0.3243 -0.6178 -0.5251
 7974TIP3   OH248116   1.151   0.661   2.484 -0.2260  0.1666  0.7280
 7974TIP3    H148117   1.080   0.725   2.479  1.5770  2.1836 -0.3921
 7974TIP3    H248118   1.163   0.631   2.394 -0.3751 -1.0385  1.0892
 7975TIP3   OH248119   0.551   5.632   3.109  0.8280  0.2676  0.3804
 7975TIP3    H148120   0.594   5.557   3.067 -1.2914 -0.5152 -0.5229
 7975TIP3    H248121   0.552   5.700   3.042 -0.5075 -0.2158 -0.1605
 7976TIP3   OH248122   5.513   6.161   0.706 -0.3322  0.2664  0.4762
 7976TIP3    H148123   5.437   6.140   0.652 -0.6875  1.1600  0.6105
 7976TIP3    H248124   5.479   6.223   0.771 -0.0755 -1.2549  2.1515
 7977TIP3   OH248125   2.057   2.146   2.389  0.2361 -0.0057 -0.0378
 7977TIP3    H148126   2.121   2.088   2.429 -0.1600  0.0491  0.6818
 7977TIP3    H248127   1.999   2.171   2.460 -0.3314  0.2903 -0.5961
 7978TIP3   OH248128   6.019   1.451   1.140  0.1078  0.2283 -0.1775
 7978TIP3    H148129   6.055   1.495   1.217 -0.0638  0.0534  0.0021
 7978TIP3    H248130   5.951   1.510   1.108 -0.1744  0.0659  0.1074
 7979TIP3   OH248131   5.630   0.658   0.579 -0.3033  0.0984 -0.0877
 7979TIP3    H148132   5.656   0.749   0.594  1.1976  0.1769 -2.6405
 7979TIP3    H248133   5.699   0.607   0.621 -0.9347  0.0988  0.9957
 7980TIP3   OH248134   5.194   1.437   1.583 -0.1106  0.4241 -0.0525
 7980TIP3    H148135   5.276   1.452   1.537 -0.6669  1.6213 -0.6944
 7980TIP3    H248136   5.171   1.521   1.622 -0.6172 -0.1006  0.8380
 7981TIP3   OH248137   5.897   4.435   2.005 -0.2093  0.2811  0.0205
 7981TIP3    H148138   5.960   4.504   1.981 -0.5029  0.3130 -0.6889
 7981TIP3    H248139   5.883   4.386   1.924  1.8418 -2.1813  1.0113
 7982TIP3   OH248140   4.127   1.507   1.736  0.5648  0.4323 -0.5287
 7982TIP3    H148141   4.141   1.416   1.711 -0.9811 -0.5922  1.9697
 7982TIP3    H248142   4.072   1.543   1.666  0.2538 -0.9032 -1.0042
 7983TIP3   OH248143   5.167   0.797   1.952  0.1420  0.0391 -0.6986
 7983TIP3    H148144   5.189   0.857   2.024 -1.8387  2.1053 -1.6607
 7983TIP3    H248145   5.088   0.835   1.913  0.5117 -1.6024 -3.2963
 7984TIP3   OH248146   4.734   0.820   1.875 -0.7291 -0.2373  0.2197
 7984TIP3    H148147   4.655   0.868   1.852 -0.5832  0.3173  0.8550
 7984TIP3    H248148   4.703   0.748   1.930 -0.9551 -0.9253 -0.7858
 7985TIP3   OH248149   4.592   2.960   1.642  0.0352  0.1053 -0.2986
 7985TIP3    H148150   4.547   2.888   1.598 -2.4779  3.1672 -3.2286
 7985TIP3    H248151   4.685   2.943   1.626 -0.5773 -1.2970 -2.9738
 7986TIP3   OH248152   1.036   5.703   1.527 -0.3299  0.2645  0.4550
 7986TIP3    H148153   1.061   5.796   1.529 -1.6824  0.6787  3.4298
 7986TIP3    H248154   0.941   5.704   1.517 -0.6245 -0.6266  2.5376
 7987TIP3   OH248155   3.890   0.021   3.449 -0.3667 -0.0151 -0.0507
 7987TIP3    H148156   3.981   0.049   3.463 -0.2135 -0.1294 -0.7819
 7987TIP3    H248157   3.895  -0.074   3.439 -0.6194 -0.0659  0.2703
 7988TIP3   OH248158   6.199   3.666   1.064 -0.5484  0.6108  0.0170
 7988TIP3    H148159   6.190   3.741   1.123 -2.6479 -0.2958  0.9463
 7988TIP3    H248160   6.268   3.612   1.104 -1.1254  0.5927  1.0168
 7989TIP3   OH248161   3.789   5.158   1.831  0.1011 -0.1612  0.2403
 7989TIP3    H148162   3.742   5.240   1.841 -0.9680 -0.9000  1.6276
 7989TIP3    H248163   3.858   5.161   1.897  1.2267  0.3660 -0.9226
 7990TIP3   OH248164   6.107   0.687   2.154 -0.3192  0.1313  0.6289
 7990TIP3    H148165   6.056   0.741   2.094 -2.3547 -1.2411  1.0034
 7990TIP3    H248166   6.053   0.681   2.233  0.8530 -0.6484  1.4116
 7991TIP3   OH248167   1.471   3.075   1.931  0.4805  0.3549 -0.2613
 7991TIP3    H148168   1.477   2.980   1.917  0.0253 -0.0030  1.6055
 7991TIP3    H248169   1.412   3.106   1.863 -2.0891 -1.2855  1.0459
 7992TIP3   OH248170   0.356   2.643   4.294 -0.0390 -0.6367  0.5846
 7992TIP3    H148171   0.308   2.698   4.231 -1.7964 -1.0041  1.5310
 7992TIP3    H248172   0.415   2.591   4.240 -0.2939  0.2463 -0.5985
 7993TIP3   OH248173   3.379   0.627   2.312 -0.6503 -0.2024  0.1321
 7993TIP3    H148174   3.321   0.567   2.265  0.4029  0.1838 -1.7620
 7993TIP3    H248175   3.459   0.577   2.327 -0.2864  0.2658 -0.1961
 7994TIP3   OH248176   0.031   3.938   3.297  0.4881 -0.2168  0.3583
 7994TIP3    H148177  -0.013   3.856   3.274  0.6777 -1.0969  2.8981
 7994TIP3    H248178   0.113   3.935   3.247  0.4524 -1.5267  0.3326
 7995TIP3   OH248179   3.153   3.868   2.106  0.8195 -0.0814 -0.5425
 7995TIP3    H148180   3.191   3.803   2.047  2.1417 -1.3010  1.5306
 7995TIP3    H248181   3.111   3.817   2.175  0.5963  1.2722  0.3768
 7996TIP3   OH248182   4.736   6.309   2.859  0.5507  0.7389  0.1076
 7996TIP3    H148183   4.725   6.340   2.949  1.1068 -0.2825  0.5466
 7996TIP3    H248184   4.798   6.237   2.866 -0.4434 -0.2600 -0.9115
 7997TIP3   OH248185   4.236   4.643   3.585 -0.2061  0.0018 -0.3993
 7997TIP3    H148186   4.173   4.710   3.610 -0.2072 -0.1890  0.1146
 7997TIP3    H248187   4.195   4.561   3.612 -0.3032 -0.2340 -1.2157
 7998TIP3   OH248188   2.566   1.833   3.005 -0.3166  0.1599  0.5638
 7998TIP3    H148189   2.598   1.744   3.014 -0.1821  0.1514  0.0208
 7998TIP3    H248190   2.634   1.879   2.957 -1.7605 -0.2715 -2.0820
 7999TIP3   OH248191   0.465   0.810   2.986 -0.0153  0.2306  0.2154
 7999TIP3    H148192   0.490   0.892   3.030 -0.5914  0.3888  0.2562
 7999TIP3    H248193   0.475   0.829   2.893  0.2856  0.1982  0.2376
 8000TIP3   OH248194   2.123   6.592   1.820 -0.0530  0.6385 -0.6493
 8000TIP3    H148195   2.055   6.629   1.875 -1.8700  2.3649 -3.7454
 8000TIP3    H248196   2.088   6.509   1.789  1.2381 -0.6545  1.1286
 8001TIP3   OH248197   5.606   2.692   2.831 -0.1111  0.4955  0.7148
 8001TIP3    H148198   5.544   2.619   2.825 -0.0760  0.6147 -1.6492
 8001TIP3    H248199   5.665   2.667   2.903 -2.5129  0.1452  2.7058
 8002TIP3   OH248200   3.349   5.504   1.697 -0.6617 -0.0188  0.9943
 8002TIP3    H148201   3.278   5.550   1.743 -0.6702 -0.4080  1.3772
 8002TIP3    H248202   3.423   5.565   1.701 -0.2417 -0.5907  2.7602
 8003TIP3   OH248203   5.028   0.079   2.765 -0.3697  0.3496 -0.4228
 8003TIP3    H148204   5.098   0.042   2.711  0.7450  1.5581  0.1371
 8003TIP3    H248205   4.955   0.019   2.754  1.3697 -2.0940  0.5464
 8004TIP3   OH248206   3.079   1.343   0.821 -0.0472  0.2000 -0.1486
 8004TIP3    H148207   2.993   1.376   0.849 -0.1619 -0.8710  0.8477
 8004TIP3    H248208   3.077   1.351   0.726 -1.7340 -0.8635 -0.2580
 8005TIP3   OH248209   4.048   4.697   2.133  0.2026 -0.3612 -0.0100
 8005TIP3    H148210   4.002   4.653   2.205  0.1959 -0.5174 -0.1074
 8005TIP3    H248211   4.139   4.671   2.144  0.1243 -0.7902 -0.3468
 8006TIP3   OH248212   6.445   6.574   2.892 -0.0955  0.1507  0.5455
 8006TIP3    H148213   6.394   6.568   2.973 -0.5184  0.0690  0.2777
 8006TIP3    H248214   6.456   6.668   2.877 -2.0856  0.2479 -0.5686
 8007TIP3   OH248215   1.677   2.353   2.369  0.1940 -0.1175 -0.0356
 8007TIP3    H148216   1.583   2.358   2.386 -0.0765 -1.0708 -1.0940
 8007TIP3    H248217   1.711   2.297   2.439 -0.0206  0.2306  0.3510
 8008TIP3   OH248218   4.870   5.712   0.992  0.1490 -0.5482 -0.1231
 8008TIP3    H148219   4.876   5.617   1.001 -2.2955 -0.9128 -1.3358
 8008TIP3    H248220   4.822   5.741   1.070 -1.7357 -0.7828 -1.1252
 8009TIP3   OH248221   0.085   3.705   2.999 -0.2741  0.1552 -0.3629
 8009TIP3    H148222   0.129   3.621   2.984 -2.4316 -0.6700 -2.6626
 8009TIP3    H248223   0.085   3.748   2.914 -1.9079  1.1340  0.0932
 8010TIP3   OH248224   0.179   2.595   2.848 -0.0349  0.6043  0.3765
 8010TIP3    H148225   0.166   2.671   2.790  1.4396  0.5350 -0.0920
 8010TIP3    H248226   0.155   2.520   2.795 -2.8185  0.7714  1.2760
 8011TIP3   OH248227   0.477   5.699   0.757  0.5100  0.0933 -0.6041
 8011TIP3    H148228   0.564   5.720   0.791 -0.3081 -0.6257  2.1894
 8011TIP3    H248229   0.464   5.607   0.779 -1.1048  0.2973 -0.5907
 8012TIP3   OH248230   5.325   6.075   2.811 -0.6249 -0.4955 -0.1012
 8012TIP3    H148231   5.324   5.996   2.755  0.3934  0.8101 -2.0789
 8012TIP3    H248232   5.343   6.147   2.750  0.7422  1.0102  1.9687
 8013TIP3   OH248233   2.028   3.331   1.575  0.2934  0.4186  0.3154
 8013TIP3    H148234   2.078   3.378   1.507  0.4922 -0.2741 -0.0291
 8013TIP3    H248235   2.077   3.347   1.656  0.6880  0.3325  0.0985
 8014TIP3   OH248236   0.385   2.360   3.688 -0.1346  0.2292 -0.0432
 8014TIP3    H148237   0.465   2.368   3.740  0.9274  0.6938 -1.6650
 8014TIP3    H248238   0.409   2.302   3.616 -1.2298  0.4253 -0.5920
 8015TIP3   OH248239   1.625   6.545   3.033  0.4969 -0.1594  0.3519
 8015TIP3    H148240   1.559   6.614   3.032 -0.0603 -0.6921  0.0642
 8015TIP3    H248241   1.577   6.465   3.014  1.0398 -0.7281  1.3011
 8016TIP3   OH248242   2.853   5.226   3.565 -0.7074  0.3060  0.1732
 8016TIP3    H148243   2.875   5.291   3.632 -0.5742  1.0817 -0.6093
 8016TIP3    H248244   2.907   5.250   3.489 -0.4786 -0.8647 -0.0531
 8017TIP3   OH248245   5.603   6.451   0.635  0.0711  0.0384  0.3023
 8017TIP3    H148246   5.601   6.386   0.565 -1.5359 -0.3730  0.6809
 8017TIP3    H248247   5.649   6.526   0.597  0.5008 -0.7020 -0.6888
 8018TIP3   OH248248   1.700   2.697   1.776 -0.6633 -0.7756  0.4230
 8018TIP3    H148249   1.731   2.607   1.782  0.6012 -0.2849  1.9418
 8018TIP3    H248250   1.730   2.727   1.690  0.8357 -1.1568  0.7826
 8019TIP3   OH248251   0.922   2.069   1.668 -1.0205  0.0781  0.5781
 8019TIP3    H148252   0.864   2.011   1.717 -0.3624  0.1648  1.4966
 8019TIP3    H248253   1.010   2.037   1.688 -0.4957  2.4390  2.6371
 8020TIP3   OH248254   6.704   3.734   1.973  0.0623 -0.4643  0.0519
 8020TIP3    H148255   6.683   3.796   2.043 -0.5776 -0.2809 -0.2927
 8020TIP3    H248256   6.661   3.770   1.896  1.4562 -0.2141 -0.6426
 8021TIP3   OH248257   4.277   0.061   0.404  0.4107 -0.4343  0.4251
 8021TIP3    H148258   4.296  -0.006   0.470  0.9879 -1.2148 -0.5173
 8021TIP3    H248259   4.280   0.015   0.321  0.1191  0.6285 -0.1948
 8022TIP3   OH248260   3.907   1.596   0.808 -0.1788 -0.2086 -0.0890
 8022TIP3    H148261   3.895   1.654   0.733 -1.1808  1.5006  1.3170
 8022TIP3    H248262   3.985   1.631   0.853  0.5783 -1.3812 -0.4433
 8023TIP3   OH248263   6.536   4.812   1.886  0.4148  0.4970 -0.0563
 8023TIP3    H148264   6.507   4.882   1.827  0.9397  1.9531  1.3501
 8023TIP3    H248265   6.559   4.740   1.827 -0.8831  1.2044 -1.5075
 8024TIP3   OH248266   5.413   1.898   1.358  0.1715 -0.5014  0.0939
 8024TIP3    H148267   5.452   1.843   1.426  2.2782 -0.6372 -1.1386
 8024TIP3    H248268   5.357   1.959   1.406  1.6029 -0.5700  1.9723
 8025TIP3   OH248269   6.478   2.399   2.924 -0.5867  0.8229  0.3418
 8025TIP3    H148270   6.412   2.376   2.858 -1.8372  1.7823  1.2281
 8025TIP3    H248271   6.491   2.493   2.914  1.5262  0.5072 -0.5629
 8026TIP3   OH248272   1.485   0.193   3.468  0.1598 -0.1888  0.5146
 8026TIP3    H148273   1.570   0.219   3.434  0.3803  0.5444  1.5608
 8026TIP3    H248274   1.427   0.266   3.444 -0.5364 -1.3354 -1.4700
 8027TIP3   OH248275   2.885   4.577   1.020  0.2460 -0.3520  0.0104
 8027TIP3    H148276   2.813   4.555   1.078 -0.3960  0.2342 -0.5469
 8027TIP3    H248277   2.934   4.644   1.067  0.8755 -1.2769  0.7100
 8028TIP3   OH248278   6.606   3.950   2.121  0.6262  0.1448 -0.1035
 8028TIP3    H148279   6.647   4.026   2.162  1.1059  1.0108 -2.0863
 8028TIP3    H248280   6.513   3.960   2.139  0.7841  0.7034  0.4361
 8029TIP3   OH248281   3.430   6.478   3.561 -0.3893 -0.0621  0.0847
 8029TIP3    H148282   3.451   6.544   3.628 -0.5404 -0.3804  0.4442
 8029TIP3    H248283   3.487   6.501   3.487  2.0831 -1.5438  1.4078
 8030TIP3   OH248284   5.945   5.089   1.141  0.0561  0.0379 -0.1975
 8030TIP3    H148285   5.904   5.167   1.177  0.3354  0.2893 -0.4160
 8030TIP3    H248286   5.873   5.040   1.101  0.1853  1.3550 -2.1831
 8031TIP3   OH248287   2.887   3.332   2.035  0.5904 -0.0016 -0.3874
 8031TIP3    H148288   2.804   3.357   2.076 -0.6244 -1.6545 -1.6849
 8031TIP3    H248289   2.945   3.407   2.051 -1.2916  1.4344  0.1159
 8032TIP3   OH248290   4.128   2.634   2.931  0.3832 -0.1791  0.3068
 8032TIP3    H148291   4.195   2.696   2.959 -0.9104  1.0699  0.7782
 8032TIP3    H248292   4.045   2.679   2.948 -0.6321 -2.2277  1.0985
 8033TIP3   OH248293   5.571   0.041   0.921  0.1370  0.0875 -0.1261
 8033TIP3    H148294   5.500   0.094   0.956  1.5604  1.3386  1.0017
 8033TIP3    H248295   5.557   0.041   0.826 -1.5780 -0.0717  0.1037
 8034TIP3   OH248296   2.782   5.567   1.761 -0.1885 -0.0103  0.0466
 8034TIP3    H148297   2.752   5.553   1.671  1.8538 -2.4888 -0.3693
 8034TIP3    H248298   2.762   5.485   1.806  1.4911  0.0650  1.0227
 8035TIP3   OH248299   4.839   2.438   1.040  0.2681 -0.2861 -0.2923
 8035TIP3    H148300   4.897   2.514   1.042  0.2530 -0.2873  1.1230
 8035TIP3    H248301   4.844   2.406   0.950  0.9377  0.8763 -0.6853
 8036TIP3   OH248302   2.472   3.423   1.428  0.1822 -0.1174  0.1059
 8036TIP3    H148303   2.504   3.436   1.517 -1.8773 -1.8092  1.1868
 8036TIP3    H248304   2.501   3.334   1.405 -0.2167 -0.0994 -0.4928
 8037TIP3   OH248305   3.842   1.948   1.475  0.0853 -0.0071 -0.0724
 8037TIP3    H148306   3.903   1.878   1.450 -0.1236 -0.3643  0.4113
 8037TIP3    H248307   3.792   1.912   1.548  0.5208  0.9398  0.7177
 8038TIP3   OH248308   5.951   0.186   1.595  0.0055 -0.8701 -0.5848
 8038TIP3    H148309   5.944   0.142   1.680  0.3395 -0.8759 -0.5597
 8038TIP3    H248310   5.995   0.269   1.615 -1.5169 -0.0582 -0.4657
 8039TIP3   OH248311   5.392   3.617   1.538  0.1736  0.0279  0.3441
 8039TIP3    H148312   5.391   3.685   1.606  0.7688 -0.2090  0.6057
 8039TIP3    H248313   5.483   3.588   1.536 -0.0280 -0.5907  0.0634
 8040TIP3   OH248314   2.189   1.899   1.045 -0.4809 -0.4818  0.0443
 8040TIP3    H148315   2.224   1.816   1.012 -0.2327  0.0495 -1.0801
 8040TIP3    H248316   2.246   1.922   1.118  1.2399  0.0825 -1.4044
 8041TIP3   OH248317   3.354   0.513   1.907 -0.1043  0.4833  0.2653
 8041TIP3    H148318   3.263   0.532   1.928 -0.2631 -1.1331  1.2070
 8041TIP3    H248319   3.358   0.418   1.900  1.6157  0.4844  0.7191
 8042TIP3   OH248320   1.159   6.311   2.363  0.1796 -0.0514 -0.0623
 8042TIP3    H148321   1.196   6.228   2.394  0.7275 -0.8537 -2.6086
 8042TIP3    H248322   1.065   6.296   2.361  0.2455 -0.4800 -0.1277
 8043TIP3   OH248323   5.486   5.061   0.785 -0.1874 -0.0999  0.6892
 8043TIP3    H148324   5.432   4.983   0.798 -0.9561 -0.1879 -2.2437
 8043TIP3    H248325   5.572   5.028   0.760 -0.7633 -0.1248 -1.4781
 8044TIP3   OH248326   2.353   4.485   1.237  0.1575 -0.7811 -0.2284
 8044TIP3    H148327   2.277   4.440   1.273  0.0450 -2.4457 -2.3410
 8044TIP3    H248328   2.328   4.578   1.237 -2.1522 -1.3298 -1.3815
 8045TIP3   OH248329   0.139   3.458   2.283  0.2273  0.1201  0.0677
 8045TIP3    H148330   0.179   3.475   2.198 -0.4691 -0.8923 -0.4884
 8045TIP3    H248331   0.174   3.526   2.340  0.3463  1.1133 -1.1422
 8046TIP3   OH248332   2.171   1.732   1.778 -0.1979  0.4255  0.1628
 8046TIP3    H148333   2.250   1.737   1.832 -0.2646  0.3520  0.2680
 8046TIP3    H248334   2.111   1.677   1.829  0.8179 -2.2383 -1.3003
 8047TIP3   OH248335   2.576   0.682   2.746  0.8029 -0.1351  0.5131
 8047TIP3    H148336   2.492   0.666   2.703  1.4711 -0.9588 -0.5104
 8047TIP3    H248337   2.587   0.777   2.740  0.8519 -0.2109 -1.1274
 8048TIP3   OH248338   0.006   2.893   4.286 -0.2376  0.2141  0.5703
 8048TIP3    H148339   0.064   2.957   4.328  0.4175  0.4204 -0.6157
 8048TIP3    H248340  -0.055   2.946   4.236 -0.1925 -0.0661  0.2177
 8049TIP3   OH248341   3.977   4.049   2.822 -0.0489 -0.0238  0.0874
 8049TIP3    H148342   4.064   4.027   2.787  1.2911  0.2907  2.9628
 8049TIP3    H248343   3.952   4.129   2.775 -0.0904 -1.5131 -2.6847
 8050TIP3   OH248344   2.513   1.085   0.631 -0.3853  0.6851  0.0517
 8050TIP3    H148345   2.484   0.994   0.630 -0.8200  0.8239 -0.3415
 8050TIP3    H248346   2.580   1.088   0.699 -0.3112  0.0547  0.0117
 8051TIP3   OH248347   0.483   4.004   0.544  0.1251 -0.3416  0.5070
 8051TIP3    H148348   0.530   4.088   0.543  0.2431 -0.3988 -0.6380
 8051TIP3    H248349   0.534   3.948   0.485 -1.4683 -0.3316 -0.9621
 8052TIP3   OH248350   3.917   0.268   1.154 -0.3391  0.2894 -0.4563
 8052TIP3    H148351   4.003   0.266   1.113 -0.9043 -0.7171 -1.6820
 8052TIP3    H248352   3.855   0.259   1.081 -1.6036  2.9133  0.1505
 8053TIP3   OH248353   2.250   4.494   4.586  0.0384  0.3806  0.2052
 8053TIP3    H148354   2.158   4.519   4.589  0.1213  0.6981  0.1138
 8053TIP3    H248355   2.284   4.536   4.508 -0.2495 -1.4922 -0.9917
 8054TIP3   OH248356   0.594   5.155   4.099  0.1058 -0.1515 -0.5113
 8054TIP3    H148357   0.650   5.088   4.138  0.7280 -0.3024 -1.6290
 8054TIP3    H248358   0.635   5.238   4.123  0.7584 -0.2589 -1.2412
 8055TIP3   OH248359   2.286   4.872   0.986  0.2778  0.1039  0.1732
 8055TIP3    H148360   2.211   4.914   0.942 -0.8741 -0.7283  1.2598
 8055TIP3    H248361   2.359   4.931   0.970 -1.0176  1.9478  0.6727
 8056TIP3   OH248362   3.468   5.272   0.510  0.4953  0.3703 -0.2966
 8056TIP3    H148363   3.425   5.192   0.540 -0.6098  1.1999  0.4088
 8056TIP3    H248364   3.396   5.335   0.499  1.0857  0.7389 -2.7222
 8057TIP3   OH248365   0.837   4.261   3.837 -0.5970 -0.1030 -0.2746
 8057TIP3    H148366   0.828   4.314   3.916 -0.9665  1.1239 -1.1106
 8057TIP3    H248367   0.763   4.286   3.783  1.2849  1.4552 -2.3441
 8058TIP3   OH248368   3.857   5.897   3.093  0.0981 -0.0126  0.1281
 8058TIP3    H148369   3.812   5.850   3.022 -1.3084 -0.6356  1.3858
 8058TIP3    H248370   3.871   5.832   3.161 -0.0059  0.9135  1.0716
 8059TIP3   OH248371   6.203   1.000   2.338  0.3984  0.0408  0.8464
 8059TIP3    H148372   6.168   1.088   2.353 -0.1056 -0.2530  1.3936
 8059TIP3    H248373   6.258   0.982   2.414 -0.1615 -0.4502  1.1345
 8060TIP3   OH248374   3.677   4.984   3.139  0.3818 -0.1355 -0.1258
 8060TIP3    H148375   3.698   4.973   3.232 -0.8112 -3.7980 -0.1100
 8060TIP3    H248376   3.584   5.005   3.138  0.6797  1.2202 -0.5027
 8061TIP3   OH248377   3.090   3.511   2.153  0.1985  0.3354 -0.0075
 8061TIP3    H148378   3.122   3.583   2.099 -3.2293  2.2034  0.1515
 8061TIP3    H248379   3.086   3.546   2.241  2.3897 -1.5285  0.9169
 8062TIP3   OH248380   3.233   1.611   1.789  0.2002  0.4428  0.3731
 8062TIP3    H148381   3.196   1.697   1.811 -0.7780 -0.4203  2.2873
 8062TIP3    H248382   3.324   1.617   1.819 -0.0181  0.6335  1.0108
 8063TIP3   OH248383   5.440   5.087   3.264 -0.0117  0.1043 -0.3780
 8063TIP3    H148384   5.396   5.029   3.326  0.0164  0.4227 -0.0586
 8063TIP3    H248385   5.440   5.038   3.182  2.7675 -1.7124  0.5529
 8064TIP3   OH248386   2.882   1.356   2.013  0.2280 -0.2807 -0.1718
 8064TIP3    H148387   2.826   1.405   1.953  0.0527 -1.4732 -1.0131
 8064TIP3    H248388   2.885   1.410   2.092 -0.7751  0.5920 -0.6999
 8065TIP3   OH248389   2.462   6.692   1.773 -0.3303 -0.2129 -0.6136
 8065TIP3    H148390   2.401   6.766   1.765  0.1620  0.7977  3.1335
 8065TIP3    H248391   2.488   6.692   1.865  2.2332 -3.1270 -1.1717
 8066TIP3   OH248392   3.089   2.809   2.879 -0.5897 -0.1115 -0.1025
 8066TIP3    H148393   3.014   2.842   2.829 -0.0561 -0.1160 -0.9365
 8066TIP3    H248394   3.051   2.749   2.943 -1.6037  2.1075  1.5216
 8067TIP3   OH248395   2.146   5.077   2.842 -0.2746  0.0405 -0.1654
 8067TIP3    H148396   2.059   5.116   2.841 -0.6541 -0.7632  0.5987
 8067TIP3    H248397   2.132   4.984   2.827  0.6711  0.2022 -2.5359
 8068TIP3   OH248398   5.678   1.181   1.635 -0.0567 -0.0445  0.4737
 8068TIP3    H148399   5.669   1.142   1.548 -0.2538  0.1864  0.3878
 8068TIP3    H248400   5.589   1.205   1.660 -0.0009 -0.1089  0.7400
 8069TIP3   OH248401   6.229   1.616   1.982  0.5984  0.2733 -0.2513
 8069TIP3    H148402   6.178   1.645   1.907  0.5914  0.3131 -0.2317
 8069TIP3    H248403   6.166   1.615   2.055  0.5391 -0.0434 -0.3062
 8070TIP3   OH248404   4.748   1.596   2.849  0.2623  0.4605  0.7347
 8070TIP3    H148405   4.707   1.578   2.933 -1.0707 -2.7470 -0.4465
 8070TIP3    H248406   4.694   1.665   2.811 -1.3976 -0.5636  1.0903
 8071TIP3   OH248407   4.474   6.035   1.153 -0.1849  0.1412  0.1666
 8071TIP3    H148408   4.398   6.065   1.203 -1.3447 -0.1570 -1.3436
 8071TIP3    H248409   4.438   6.011   1.067  0.9955 -3.3312  0.4775
 8072TIP3   OH248410   6.368   1.076   0.802 -0.1158  0.2244  0.1837
 8072TIP3    H148411   6.370   1.008   0.734  0.4764 -0.6334  1.0329
 8072TIP3    H248412   6.304   1.045   0.866  0.6967  0.0678  0.9503
 8073TIP3   OH248413   5.250   5.951   2.268 -0.5004  0.1566 -0.0908
 8073TIP3    H148414   5.295   5.875   2.303 -1.2505 -1.3139 -2.1833
 8073TIP3    H248415   5.243   6.011   2.343  1.7601 -0.9894  1.1414
 8074TIP3   OH248416   6.137   4.980   2.857  0.3495  0.5328  0.1724
 8074TIP3    H148417   6.065   4.966   2.918  0.1876 -0.5730 -0.2447
 8074TIP3    H248418   6.095   4.989   2.771  0.6551  0.7848  0.0447
 8075TIP3   OH248419   3.667   1.843   3.102 -0.0723 -0.1107 -0.4481
 8075TIP3    H148420   3.748   1.879   3.065  0.1922 -1.8832 -1.7165
 8075TIP3    H248421   3.649   1.766   3.049 -1.6059 -0.8017  0.9941
 8076TIP3   OH248422   1.939   0.238   0.819  0.6490 -0.1171 -0.2335
 8076TIP3    H148423   1.999   0.183   0.869  0.4271  1.7618  2.3090
 8076TIP3    H248424   1.862   0.184   0.804  0.6885 -0.7438  1.6047
 8077TIP3   OH248425   3.081   1.806   3.441 -0.0678 -0.3274  0.1750
 8077TIP3    H148426   3.001   1.858   3.443  1.3552  2.0099 -0.5015
 8077TIP3    H248427   3.092   1.776   3.531 -2.3105 -1.8110  0.0489
 8078TIP3   OH248428   3.239   0.431   0.951 -0.1991 -0.0391  0.3425
 8078TIP3    H148429   3.332   0.411   0.944 -0.3203 -0.1440 -1.3316
 8078TIP3    H248430   3.196   0.367   0.894 -1.1478  0.9873 -0.1273
 8079TIP3   OH248431   6.338   5.962   1.423  0.1895  0.3344  0.9877
 8079TIP3    H148432   6.376   6.032   1.369  1.7843 -1.4182 -0.2878
 8079TIP3    H248433   6.388   5.964   1.504  1.9432 -0.8416 -0.0083
 8080TIP3   OH248434   5.397   1.068   1.540 -0.9809  0.1765  0.0443
 8080TIP3    H148435   5.469   1.033   1.487 -0.5670  0.8299  0.1670
 8080TIP3    H248436   5.329   1.090   1.476 -0.0985  1.9152 -0.3649
 8081TIP3   OH248437   1.063   6.131   3.253  0.3126  0.6925  0.0632
 8081TIP3    H148438   1.046   6.158   3.343 -0.5766  1.5758 -0.3636
 8081TIP3    H248439   1.071   6.035   3.259 -1.2242  0.5903  0.8524
 8082TIP3   OH248440   4.425   0.462   0.367 -0.2538  0.1023 -0.5289
 8082TIP3    H148441   4.515   0.427   0.366 -0.5804 -0.7827 -0.1748
 8082TIP3    H248442   4.436   0.556   0.356  0.7067 -0.0279 -0.7921
 8083TIP3   OH248443   5.761   3.829   2.738 -0.0815 -0.0968  0.4459
 8083TIP3    H148444   5.683   3.886   2.736  0.0800  0.1370  0.7345
 8083TIP3    H248445   5.742   3.766   2.807 -0.2602 -0.4007  0.1255
 8084TIP3   OH248446   4.124   5.073   3.084 -0.3332 -0.2613 -0.0468
 8084TIP3    H148447   4.102   4.980   3.090  0.5637 -0.5156 -0.5747
 8084TIP3    H248448   4.087   5.112   3.164 -1.3759 -0.9263 -0.1913
 8085TIP3   OH248449   6.059   2.450   0.742 -0.2874 -0.5702  0.0375
 8085TIP3    H148450   6.087   2.411   0.660  0.0767 -0.3059  0.0327
 8085TIP3    H248451   6.001   2.385   0.782  0.3322 -1.1233  0.0469
 8086TIP3   OH248452   4.117   2.096   1.786  0.0126 -0.2804 -0.1956
 8086TIP3    H148453   4.044   2.147   1.752 -0.0915  1.0411  1.8269
 8086TIP3    H248454   4.188   2.110   1.723 -1.2796 -1.1656 -1.9125
 8087TIP3   OH248455   6.658   0.577   0.902  0.5112  0.0368 -0.1884
 8087TIP3    H148456   6.583   0.525   0.873  0.2595  0.5049 -0.3668
 8087TIP3    H248457   6.704   0.600   0.822  0.5916  0.1449 -0.1108
 8088TIP3   OH248458   3.638   6.273   0.759 -0.4015  0.6582  0.2957
 8088TIP3    H148459   3.612   6.295   0.670 -0.7152  1.1963  0.5204
 8088TIP3    H248460   3.565   6.302   0.814  0.5155  1.9099  0.9008
 8089TIP3   OH248461   5.689   5.437   2.161 -0.3584 -0.0838 -0.2841
 8089TIP3    H148462   5.623   5.369   2.176 -0.2483  0.0590  1.0179
 8089TIP3    H248463   5.771   5.396   2.189 -0.0244  0.0351 -1.0729
 8090TIP3   OH248464   0.684   0.111   2.340  1.0426 -0.7335  0.3195
 8090TIP3    H148465   0.663   0.200   2.368 -0.0113 -1.0504  0.5826
 8090TIP3    H248466   0.749   0.122   2.270  0.3867  0.2680 -0.1421
 8091TIP3   OH248467   3.980   4.836   3.109  0.1355  0.6701 -0.4250
 8091TIP3    H148468   3.969   4.828   3.204  2.5225  1.1324 -0.0563
 8091TIP3    H248469   3.899   4.878   3.079 -0.3921  1.1109  1.4982
 8092TIP3   OH248470   0.175   2.026   2.153  0.6035 -0.2123  0.7718
 8092TIP3    H148471   0.262   2.068   2.150  0.3179  0.4242  1.1240
 8092TIP3    H248472   0.134   2.049   2.070  1.1452 -1.3672  0.1629
 8093TIP3   OH248473   5.785   3.100   1.806 -0.1528  0.0420 -0.1663
 8093TIP3    H148474   5.784   3.006   1.825 -1.0566 -0.2033 -1.2727
 8093TIP3    H248475   5.826   3.140   1.882 -2.7738 -0.9032  1.8849
 8094TIP3   OH248476   1.156   5.145   3.388  0.3091 -0.0837 -0.1786
 8094TIP3    H148477   1.141   5.072   3.449  1.2144  1.1850  1.6445
 8094TIP3    H248478   1.248   5.169   3.402  0.0255  1.4249 -0.7596
 8095TIP3   OH248479   2.359   3.035   1.516 -0.0853  0.0179  0.5818
 8095TIP3    H148480   2.405   3.080   1.445  1.4680 -1.2569  0.7256
 8095TIP3    H248481   2.266   3.050   1.497  0.3109  0.5013 -1.1873
 8096TIP3   OH248482   3.556   1.334   0.544 -0.4197 -0.5038 -0.3239
 8096TIP3    H148483   3.649   1.358   0.544 -0.7794  1.1095  1.9310
 8096TIP3    H248484   3.515   1.398   0.487 -0.1270 -1.6272 -1.8768
 8097TIP3   OH248485   0.704   2.910   3.291 -0.8573  0.5155 -0.1304
 8097TIP3    H148486   0.667   2.824   3.273 -0.5814  0.1732  0.8853
 8097TIP3    H248487   0.634   2.958   3.334 -0.9433  0.7407 -0.5119
 8098TIP3   OH248488   2.767   4.962   1.103  0.3288  0.0222  0.4572
 8098TIP3    H148489   2.798   5.046   1.137 -2.4580  1.8257 -1.0279
 8098TIP3    H248490   2.814   4.950   1.020  0.1423  0.5530  0.2728
 8099TIP3   OH248491   1.522   4.523   0.795 -0.1351  0.2833  0.0229
 8099TIP3    H148492   1.433   4.555   0.804 -0.3984 -0.2706 -0.5230
 8099TIP3    H248493   1.514   4.427   0.795  0.4512  0.2272 -0.0794
 8100TIP3   OH248494   2.594   4.387   2.848 -0.1912 -0.0415  0.4015
 8100TIP3    H148495   2.675   4.434   2.866 -0.4065  0.7883 -0.7042
 8100TIP3    H248496   2.537   4.408   2.922  0.9791 -1.6364  1.8403
 8101TIP3   OH248497   3.027   5.984   2.098  0.3007 -0.6235  0.5729
 8101TIP3    H148498   3.113   5.947   2.080  0.5218 -0.0321  0.3739
 8101TIP3    H248499   2.965   5.916   2.071  0.6430 -0.2455 -1.3550
 8102TIP3   OH248500   2.402   2.176   2.963 -0.0904 -0.2224 -1.0041
 8102TIP3    H148501   2.366   2.255   2.924 -0.9064 -0.2495 -0.3524
 8102TIP3    H248502   2.458   2.138   2.896  1.0313  1.3777 -1.0054
 8103TIP3   OH248503   3.645   1.365   1.108  0.2047 -0.1442 -0.0116
 8103TIP3    H148504   3.625   1.452   1.072 -0.0104 -0.4439 -0.6267
 8103TIP3    H248505   3.560   1.322   1.115  0.0642  0.3843  2.1775
 8104TIP3   OH248506   0.042   6.648   2.925  0.0438  0.3708  0.2534
 8104TIP3    H148507  -0.011   6.570   2.941  0.1957  0.1138 -0.4590
 8104TIP3    H248508   0.019   6.675   2.836  1.8392 -0.3485 -0.4673
 8105TIP3   OH248509   2.472   5.408   2.986 -0.0728  0.1549 -0.2452
 8105TIP3    H148510   2.519   5.335   3.027  0.2336 -1.1147 -2.6777
 8105TIP3    H248511   2.382   5.399   3.016  0.0318 -1.0342 -0.2511
 8106TIP3   OH248512   3.826   5.456   2.778  0.1112  0.3471 -0.3214
 8106TIP3    H148513   3.791   5.382   2.828  0.9250  0.1324 -0.0621
 8106TIP3    H248514   3.913   5.429   2.751  0.3578  1.1518 -0.3706
 8107TIP3   OH248515   2.855   2.616   2.789  0.2726  0.1444  0.5251
 8107TIP3    H148516   2.761   2.606   2.774  0.3853 -0.2147  0.0401
 8107TIP3    H248517   2.896   2.548   2.736  0.8350  0.6388  0.3027
 8108TIP3   OH248518   1.980   4.778   2.092  0.1924  0.1905 -0.4214
 8108TIP3    H148519   1.905   4.723   2.070  0.0176  0.1609  0.2242
 8108TIP3    H248520   1.945   4.867   2.091  0.3200  0.2379 -0.8209
 8109TIP3   OH248521   0.810   2.033   0.693  0.2473  0.5633  0.2616
 8109TIP3    H148522   0.816   2.047   0.788 -1.0959  1.7916  0.2017
 8109TIP3    H248523   0.733   2.083   0.666 -0.1321 -0.7572 -1.2984
 8110TIP3   OH248524   2.083   0.136   3.057  0.6056  0.0046 -0.0103
 8110TIP3    H148525   2.178   0.144   3.057  0.5053  1.3925  0.1955
 8110TIP3    H248526   2.061   0.111   3.147  0.8129 -1.1453 -0.2590
 8111TIP3   OH248527   6.323   0.863   2.829 -0.1770 -0.3885 -0.7443
 8111TIP3    H148528   6.342   0.913   2.909 -2.0808  0.5818 -0.8321
 8111TIP3    H248529   6.396   0.802   2.821  0.1346 -0.4618  1.6983
 8112TIP3   OH248530   4.339   6.470   2.987  0.1237 -0.2882 -0.0021
 8112TIP3    H148531   4.412   6.464   2.925 -0.0611  1.7499 -0.4795
 8112TIP3    H248532   4.381   6.481   3.072  0.3791 -0.2648 -0.1280
 8113TIP3   OH248533   6.510   6.003   1.683  0.7175  0.0560  0.9646
 8113TIP3    H148534   6.453   6.072   1.716  0.1346  0.1666 -0.2290
 8113TIP3    H248535   6.598   6.042   1.683  0.3237  0.9805 -0.1658
 8114TIP3   OH248536   4.906   3.972   2.309 -0.1240 -0.3726 -0.5872
 8114TIP3    H148537   4.879   3.892   2.263 -0.2977 -0.9517  0.4860
 8114TIP3    H248538   4.998   3.983   2.285 -0.3740 -0.3148 -1.5488
 8115TIP3   OH248539   5.633   0.857   0.933  0.4875  0.3956  0.6284
 8115TIP3    H148540   5.724   0.876   0.953  0.5383  0.3967  0.3954
 8115TIP3    H248541   5.586   0.937   0.955  0.6028  0.5444  0.3295
 8116TIP3   OH248542   4.279   4.086   2.032 -0.1500  0.1814  0.3431
 8116TIP3    H148543   4.274   4.143   2.109 -0.9377  0.0232  0.4221
 8116TIP3    H248544   4.192   4.045   2.027 -0.9611  1.9556 -1.9963
 8117TIP3   OH248545   4.891   6.078   2.152 -0.1704 -0.3816  0.0170
 8117TIP3    H148546   4.850   6.069   2.066 -0.2446  2.7349 -0.4049
 8117TIP3    H248547   4.834   6.138   2.200  0.4644 -1.1850  1.8605
 8118TIP3   OH248548   1.860   3.382   4.610  0.0869 -0.8814 -0.8893
 8118TIP3    H148549   1.909   3.392   4.529  1.2530 -1.7415 -0.3277
 8118TIP3    H248550   1.878   3.462   4.659  1.7338 -1.5613 -0.3069
 8119TIP3   OH248551   6.142   4.279   1.180  0.2031 -0.2172 -0.0313
 8119TIP3    H148552   6.154   4.362   1.226 -0.0774 -0.7322  0.9916
 8119TIP3    H248553   6.132   4.305   1.088 -0.2080  0.9161  0.3052
 8120TIP3   OH248554   0.826   2.308   1.565 -0.5474 -0.0817 -0.0750
 8120TIP3    H148555   0.825   2.283   1.473  1.6145  2.4171 -0.9124
 8120TIP3    H248556   0.857   2.231   1.611  1.7488 -0.3502 -1.9219
 8121TIP3   OH248557   6.138   1.402   0.728 -0.0240  0.2438  0.1995
 8121TIP3    H148558   6.073   1.469   0.750 -0.1458  0.6238 -1.2488
 8121TIP3    H248559   6.208   1.449   0.685 -0.2035 -0.5661 -1.0274
 8122TIP3   OH248560   0.764   2.023  11.048  0.2297  0.3545  0.2333
 8122TIP3    H148561   0.798   1.936  11.066  0.7274  0.2882 -0.9736
 8122TIP3    H248562   0.842   2.076  11.029 -0.2265  0.4524 -1.5220
 8123TIP3   OH248563   2.816   1.081   1.919 -0.0369 -0.2820 -0.2601
 8123TIP3    H148564   2.841   1.167   1.951  1.2063 -0.8224  0.3161
 8123TIP3    H248565   2.899   1.038   1.897 -0.3681 -2.2914  2.0063
 8124TIP3   OH248566   4.792   3.342   0.902  0.1996  0.6345  0.3194
 8124TIP3    H148567   4.700   3.337   0.875  0.5438 -2.7359 -0.7869
 8124TIP3    H248568   4.818   3.250   0.913  2.9275  1.5449  2.5012
 8125TIP3   OH248569   5.502   3.045   1.716 -0.1989  0.0563  0.1980
 8125TIP3    H148570   5.457   3.129   1.728 -0.4259  0.1377 -1.0395
 8125TIP3    H248571   5.595   3.067   1.723 -0.2902  0.0920  1.6025
 8126TIP3   OH248572   2.319   2.674   2.477  0.2080 -0.0301 -0.5841
 8126TIP3    H148573   2.322   2.753   2.422 -0.6139 -0.2997 -1.0310
 8126TIP3    H248574   2.375   2.611   2.433 -0.1075 -0.1012 -0.8865
 8127TIP3   OH248575   5.579   0.777   1.581  0.1121  0.5293 -0.5683
 8127TIP3    H148576   5.647   0.819   1.632  0.4569 -2.1892  1.4185
 8127TIP3    H248577   5.620   0.758   1.496  0.0591  3.5448 -1.4109
 8128TIP3   OH248578   6.532   6.550   1.487  0.1234 -0.3717  0.7865
 8128TIP3    H148579   6.564   6.627   1.533  0.5670 -0.3008  0.3770
 8128TIP3    H248580   6.461   6.516   1.541  0.2389  0.0531  1.2060
 8129TIP3   OH248581   2.463   5.061   3.868  0.1546  0.4029 -0.3375
 8129TIP3    H148582   2.544   5.107   3.850  0.2330  0.2369 -0.4082
 8129TIP3    H248583   2.468   5.038   3.961 -0.8112  2.3806  0.2550
 8130TIP3   OH248584   3.720   4.140   2.061 -0.4535  0.2467 -0.3246
 8130TIP3    H148585   3.699   4.101   2.146 -0.7406  2.4350  0.6559
 8130TIP3    H248586   3.735   4.233   2.079 -0.6254  0.8037 -2.6902
 8131TIP3   OH248587   3.930   4.219   2.481  0.1717  0.1405  0.0992
 8131TIP3    H148588   4.022   4.196   2.479 -0.2418 -1.6240 -1.1032
 8131TIP3    H248589   3.918   4.265   2.563  2.4610  2.0475 -0.5488
 8132TIP3   OH248590   0.026   2.511   1.540 -0.4894  0.4338  0.2429
 8132TIP3    H148591   0.032   2.547   1.451  0.6509  0.6508  0.3863
 8132TIP3    H248592  -0.057   2.544   1.573  0.2690  2.5914  0.1812
 8133TIP3   OH248593   4.422   1.507   2.845 -0.5011 -0.2027 -0.0692
 8133TIP3    H148594   4.473   1.507   2.926  0.7188  0.2301 -0.8035
 8133TIP3    H248595   4.370   1.587   2.849  0.4832  0.4646 -0.2534
 8134TIP3   OH248596   5.019   1.213   9.460 -0.0276  0.5819 -0.0759
 8134TIP3    H148597   5.056   1.214   9.548  1.2919 -0.4436 -0.5921
 8134TIP3    H248598   4.951   1.281   9.462 -0.4576  0.1348  1.8917
 8135TIP3   OH248599   5.977   0.867   2.334 -0.1289 -0.4976 -0.6227
 8135TIP3    H148600   5.980   0.831   2.423  1.8947 -1.9835 -1.2160
 8135TIP3    H248601   6.061   0.912   2.324  0.2289 -1.4496 -2.1774
 8136TIP3   OH248602   5.327   5.983   1.549 -0.7320 -0.3137  0.1529
 8136TIP3    H148603   5.418   5.995   1.523 -1.3043  1.3171 -1.3401
 8136TIP3    H248604   5.330   5.918   1.619  1.2106 -3.1759 -2.3170
 8137TIP3   OH248605   0.847   0.883   1.986  0.1586  0.4917  0.1713
 8137TIP3    H148606   0.775   0.824   1.965  0.5602 -0.0514  0.2729
 8137TIP3    H248607   0.854   0.878   2.082 -0.4474  1.4824  0.2752
 8138TIP3   OH248608   1.108   1.806   0.653 -0.4579  0.1874  0.1666
 8138TIP3    H148609   1.165   1.839   0.722  0.5326 -2.4891  0.7290
 8138TIP3    H248610   1.167   1.762   0.592 -1.6985 -1.1033 -0.1696
 8139TIP3   OH248611   1.439   4.326   2.275 -0.2750 -0.5339 -0.3514
 8139TIP3    H148612   1.500   4.284   2.215  0.1385 -2.1746  1.1130
 8139TIP3    H248613   1.493   4.353   2.349 -1.0248 -0.1954  0.0818
 8140TIP3   OH248614   2.646   4.674   3.073 -0.1026  0.2507  0.4117
 8140TIP3    H148615   2.690   4.675   2.988 -2.1920  1.2840 -0.7580
 8140TIP3    H248616   2.617   4.765   3.086  0.4194  0.1868  2.4024
 8141TIP3   OH248617   2.372   0.846   1.353  0.3729  0.0674 -0.5038
 8141TIP3    H148618   2.299   0.907   1.360 -0.5652 -0.9288 -1.2537
 8141TIP3    H248619   2.378   0.827   1.259 -0.1315 -1.8888 -0.1735
 8142TIP3   OH248620   4.434   1.622   1.599  0.0277 -0.0897  0.6419
 8142TIP3    H148621   4.509   1.602   1.543 -0.2889 -0.0815  0.2131
 8142TIP3    H248622   4.409   1.537   1.637 -0.6136 -0.3425 -0.3049
 8143TIP3   OH248623   0.460   2.861   3.657 -0.6390  0.0486  0.0173
 8143TIP3    H148624   0.365   2.867   3.669 -0.4422 -0.1737  2.2394
 8143TIP3    H248625   0.475   2.769   3.636 -0.8886 -0.0243  0.1495
 8144TIP3   OH248626   0.246   2.566   1.297  0.2134  0.0145  0.0998
 8144TIP3    H148627   0.178   2.632   1.281  0.6317  0.4871  0.2347
 8144TIP3    H248628   0.305   2.573   1.222  0.2936 -0.1622  0.1456
 8145TIP3   OH248629   0.412   3.578   1.608 -0.3190 -0.1073  0.3291
 8145TIP3    H148630   0.401   3.614   1.697 -3.1189  0.5844 -0.2116
 8145TIP3    H248631   0.475   3.507   1.619  0.0506  0.4919  2.7168
 8146TIP3   OH248632   3.994   4.826   3.392 -0.7802  0.3432 -0.0096
 8146TIP3    H148633   3.984   4.745   3.442  0.4079 -0.5282 -1.1125
 8146TIP3    H248634   3.918   4.879   3.417 -1.7188 -1.1991  0.5690
 8147TIP3   OH248635   0.549   1.052   1.017 -0.1818 -0.1173  0.0473
 8147TIP3    H148636   0.554   0.967   0.973  3.9677  0.6811 -1.4664
 8147TIP3    H248637   0.492   1.104   0.960 -1.8388 -1.4660  0.3779
 8148TIP3   OH248638   3.297   0.386   3.599 -0.0164 -0.1391  0.7800
 8148TIP3    H148639   3.208   0.399   3.567  0.3170 -0.3238 -0.2645
 8148TIP3    H248640   3.293   0.303   3.646 -0.4256 -0.0775  0.8578
 8149TIP3   OH248641   6.129   6.223   2.394 -0.2478  0.0668  0.4050
 8149TIP3    H148642   6.190   6.199   2.464  1.2216  1.7012 -0.2482
 8149TIP3    H248643   6.150   6.164   2.322 -0.4181 -0.3233  0.6754
 8150TIP3   OH248644   0.848   3.321   1.884 -0.4326 -0.1530  0.1610
 8150TIP3    H148645   0.776   3.284   1.832  0.6923 -1.2261 -0.7070
 8150TIP3    H248646   0.916   3.341   1.820  1.8552 -3.5081  1.2614
 8151TIP3   OH248647   0.278   3.594   1.145  0.5265  0.2419 -0.2567
 8151TIP3    H148648   0.361   3.640   1.138 -0.0977  1.4345 -0.0972
 8151TIP3    H248649   0.260   3.590   1.239  0.0952  0.5813 -0.3199
 8152TIP3   OH248650   2.656   3.109   3.892 -0.3869  0.0110 -0.1408
 8152TIP3    H148651   2.744   3.133   3.920 -0.6423 -0.1778  0.8721
 8152TIP3    H248652   2.618   3.064   3.968 -0.8538 -1.2126 -1.0596
 8153TIP3   OH248653   5.180   2.900   1.706 -0.2524  0.7979  0.1640
 8153TIP3    H148654   5.172   2.980   1.654  1.9775  0.6301 -0.5436
 8153TIP3    H248655   5.210   2.930   1.792 -2.1868  0.9164  0.8440
 8154TIP3   OH248656   4.669   6.312   3.734  0.7067  0.1404 -0.2799
 8154TIP3    H148657   4.742   6.361   3.695  0.2445  0.8625 -0.2468
 8154TIP3    H248658   4.648   6.245   3.668  2.0535 -0.7528  0.1366
 8155TIP3   OH248659   1.755   0.292   3.496  0.2088  0.0957 -0.4285
 8155TIP3    H148660   1.809   0.369   3.515  0.4933 -0.2256  0.0656
 8155TIP3    H248661   1.742   0.250   3.581  1.1161 -1.1026 -0.8591
 8156TIP3   OH248662   1.685   0.623   1.673 -0.5448 -0.4136 -0.4586
 8156TIP3    H148663   1.670   0.677   1.751  0.1171  1.7624 -1.7471
 8156TIP3    H248664   1.613   0.646   1.614 -0.7958 -1.7108 -0.6904
 8157TIP3   OH248665   5.878   1.754   3.678  0.3582 -0.1565  0.5830
 8157TIP3    H148666   5.926   1.830   3.710  1.5024 -0.8058  0.4916
 8157TIP3    H248667   5.946   1.696   3.643 -0.5241 -1.0256  0.2533
 8158TIP3   OH248668   4.465   6.553   4.013 -0.1045  0.2994  0.0781
 8158TIP3    H148669   4.550   6.530   4.049  0.4054  0.2822 -1.0988
 8158TIP3    H248670   4.483   6.584   3.924 -1.3012  0.4763 -0.1288
 8159TIP3   OH248671   2.024   0.640   2.769  0.2605  0.5212  0.5400
 8159TIP3    H148672   2.023   0.569   2.705 -2.5243 -0.0852  1.1355
 8159TIP3    H248673   1.997   0.717   2.720 -0.7300  0.2926  0.7021
 8160TIP3   OH248674   5.429   6.205   2.182  0.6220 -0.0488  0.1131
 8160TIP3    H148675   5.441   6.173   2.272 -0.1842  1.8774  0.9601
 8160TIP3    H248676   5.368   6.278   2.190  1.0390  0.6000 -1.9314
 8161TIP3   OH248677   1.666   0.150   3.040 -0.2417  1.1568  0.2374
 8161TIP3    H148678   1.651   0.234   3.083 -2.9449  1.3496 -0.8586
 8161TIP3    H248679   1.578   0.114   3.028  0.5725 -0.1119 -2.6663
 8162TIP3   OH248680   5.990   4.214   3.172  0.6959  0.5970 -0.1023
 8162TIP3    H148681   6.068   4.269   3.178 -0.2537  1.9365  0.4642
 8162TIP3    H248682   5.971   4.208   3.079 -0.2528  2.8544 -0.1171
 8163TIP3   OH248683   6.459   1.268   3.083 -0.2617 -0.1219  0.1033
 8163TIP3    H148684   6.509   1.224   3.151 -0.0837  0.9663  0.6975
 8163TIP3    H248685   6.451   1.359   3.114 -2.3798 -0.1938 -0.0769
 8164TIP3   OH248686   3.910   0.728   2.696  0.2982  0.2353  0.6694
 8164TIP3    H148687   3.959   0.790   2.751 -0.1150  1.0752  0.1206
 8164TIP3    H248688   3.820   0.760   2.700 -0.0564 -0.7480  0.9212
 8165TIP3   OH248689   1.113   1.137   1.331  0.0243 -0.0044 -0.1739
 8165TIP3    H148690   1.168   1.171   1.260  0.4539  3.7019  1.7368
 8165TIP3    H248691   1.040   1.198   1.335 -0.3817 -0.5816  2.0600
 8166TIP3   OH248692   1.349   6.423   2.550 -0.0086  0.0324  0.2086
 8166TIP3    H148693   1.402   6.502   2.537 -0.7249  0.5105  0.1171
 8166TIP3    H248694   1.281   6.429   2.482  0.1616 -0.8679 -0.0553
 8167TIP3   OH248695   0.747   4.880   2.130  0.6553 -0.1577 -0.1184
 8167TIP3    H148696   0.706   4.894   2.215  1.9505  1.5670  0.2762
 8167TIP3    H248697   0.813   4.949   2.123  0.6991 -0.3517 -2.4676
 8168TIP3   OH248698   3.051   0.730   3.070  0.5488  0.3196  0.0053
 8168TIP3    H148699   3.081   0.814   3.036  1.1590  0.5865  1.1703
 8168TIP3    H248700   3.126   0.696   3.118 -1.0693  1.1764  3.3817
 8169TIP3   OH248701   5.317   4.556   1.545  0.0036 -0.3387 -0.4699
 8169TIP3    H148702   5.342   4.483   1.488 -0.4873 -0.5698 -0.3956
 8169TIP3    H248703   5.223   4.545   1.558 -0.3603  1.1273 -1.6176
 8170TIP3   OH248704   5.421   5.852   2.069 -0.3763  1.4126 -0.3782
 8170TIP3    H148705   5.359   5.881   2.135 -0.2216 -1.2685  1.0858
 8170TIP3    H248706   5.393   5.763   2.047  1.0354  1.3400 -2.1240
 8171TIP3   OH248707   2.774   0.282   3.343  0.2552  0.0453 -0.0379
 8171TIP3    H148708   2.784   0.248   3.432  1.7744  0.7847  0.1123
 8171TIP3    H248709   2.864   0.299   3.314 -0.3338  2.0956 -0.8026
 8172TIP3   OH248710   5.927   2.762   1.515  0.2810  0.3000  0.0196
 8172TIP3    H148711   5.861   2.829   1.498  0.7926  0.2257 -2.6692
 8172TIP3    H248712   6.008   2.798   1.478  1.3088 -0.5116  1.3606
 8173TIP3   OH248713   1.020   5.456   1.616 -0.0473 -0.7796 -0.3280
 8173TIP3    H148714   1.028   5.532   1.559 -3.2966  1.1829  1.5334
 8173TIP3    H248715   1.054   5.486   1.701 -2.4298 -0.8985  0.7380
 8174TIP3   OH248716   3.230   1.548   3.844  0.2139  0.0386 -0.2240
 8174TIP3    H148717   3.269   1.464   3.819 -1.1847 -0.4362 -0.9109
 8174TIP3    H248718   3.297   1.590   3.899  1.0648 -1.3781 -0.1268
 8175TIP3   OH248719   4.847   4.777   2.856 -0.0213 -0.0021 -0.5287
 8175TIP3    H148720   4.838   4.813   2.945  0.3955  0.3549 -0.6281
 8175TIP3    H248721   4.766   4.802   2.812  0.1067  0.5090 -0.4848
 8176TIP3   OH248722   3.266   5.229   0.720 -0.4007  0.2960 -0.0803
 8176TIP3    H148723   3.309   5.309   0.751 -0.5162 -0.1840  1.3790
 8176TIP3    H248724   3.317   5.158   0.759 -0.8194 -0.3357 -0.6606
 8177TIP3   OH248725   4.218   5.749   1.006 -0.2435  0.1229  0.2342
 8177TIP3    H148726   4.244   5.696   0.930  2.1606 -0.1532  1.1572
 8177TIP3    H248727   4.154   5.695   1.051  0.1770 -0.8417 -0.2862
 8178TIP3   OH248728   0.708   4.528   3.209  0.0597  0.3317 -0.6619
 8178TIP3    H148729   0.673   4.441   3.231 -0.5183  0.6270 -0.3924
 8178TIP3    H248730   0.801   4.513   3.195  0.0549 -0.2510 -0.1326
 8179TIP3   OH248731   4.586   0.260   0.771  0.4107  0.0070  0.1948
 8179TIP3    H148732   4.563   0.167   0.764 -0.1739  0.2662 -2.2546
 8179TIP3    H248733   4.553   0.286   0.857  0.7876 -2.0786  1.0303
 8180TIP3   OH248734   3.541   4.575   1.457 -0.2696 -0.0729  0.4553
 8180TIP3    H148735   3.552   4.606   1.547  0.3283 -1.3044  0.8380
 8180TIP3    H248736   3.602   4.626   1.405 -0.5538  0.5835  0.7620
 8181TIP3   OH248737   0.972   4.370   2.503 -0.2988 -0.2743  1.0174
 8181TIP3    H148738   0.919   4.291   2.511 -0.8151 -0.2304 -1.3548
 8181TIP3    H248739   1.040   4.347   2.439  0.1257  0.9145  1.0112
 8182TIP3   OH248740   3.286   5.248   3.476  0.6781  0.3482 -0.0889
 8182TIP3    H148741   3.301   5.231   3.569 -0.1379  0.5651  0.0921
 8182TIP3    H248742   3.369   5.282   3.444  1.2189 -0.5100  0.3703
 8183TIP3   OH248743   6.001   0.938   1.372  0.3678  0.1143  0.1672
 8183TIP3    H148744   6.005   1.030   1.400  0.5502  0.5019 -1.0731
 8183TIP3    H248745   6.093   0.911   1.370  0.2363 -1.2609  4.0220
 8184TIP3   OH248746   3.628   6.332   3.742 -0.1967 -0.1087  0.1328
 8184TIP3    H148747   3.575   6.365   3.670  0.8913  0.4256 -0.4325
 8184TIP3    H248748   3.616   6.237   3.738 -0.2458 -0.0771 -0.6780
 8185TIP3   OH248749   6.004   4.663   1.168  0.4043  0.7620  0.0347
 8185TIP3    H148750   6.082   4.610   1.181 -0.0141  0.1104 -0.0477
 8185TIP3    H248751   6.015   4.736   1.228  1.0325  0.6317  0.0891
 8186TIP3   OH248752   1.692   0.724   2.783 -0.7804 -0.0512  0.0050
 8186TIP3    H148753   1.744   0.803   2.770  0.2002 -0.8519 -1.2001
 8186TIP3    H248754   1.695   0.679   2.699 -1.6355 -1.1857  0.5515
 8187TIP3   OH248755   1.148   0.636   1.500  0.3618  0.5326  0.1854
 8187TIP3    H148756   1.141   0.584   1.580  0.3984  0.1598 -0.0542
 8187TIP3    H248757   1.063   0.680   1.493  0.1586  0.1406  0.1380
 8188TIP3   OH248758   1.241   4.699   1.189 -0.2162  0.4738  0.2746
 8188TIP3    H148759   1.296   4.633   1.148  1.6383  0.5416  2.5150
 8188TIP3    H248760   1.287   4.782   1.174 -0.8105  0.8376  0.3910
 8189TIP3   OH248761   0.941   6.355   3.426 -0.3712  0.5505  0.0458
 8189TIP3    H148762   0.953   6.391   3.514 -1.0217  0.7083  0.0728
 8189TIP3    H248763   0.852   6.321   3.426 -0.1982  0.0797 -0.3912
 8190TIP3   OH248764   4.756   2.131   2.360 -0.2301 -0.1078 -0.0146
 8190TIP3    H148765   4.699   2.063   2.397  0.3784 -0.5451  0.1466
 8190TIP3    H248766   4.816   2.083   2.302 -1.2946  0.5860 -1.7679
 8191TIP3   OH248767   2.602   4.133   1.300  0.2441  0.6202 -0.4795
 8191TIP3    H148768   2.654   4.142   1.380  0.6690  0.2579 -0.7122
 8191TIP3    H248769   2.634   4.053   1.259  1.3014  1.7494 -1.9543
 8192TIP3   OH248770   0.129   5.881   3.194  0.3610  0.1706 -0.2011
 8192TIP3    H148771   0.201   5.901   3.254  0.4690 -0.2462 -0.1958
 8192TIP3    H248772   0.146   5.792   3.164  0.1780  0.2953 -0.6744
 8193TIP3   OH248773   0.334   0.395   2.098 -0.2865 -0.7426  0.1563
 8193TIP3    H148774   0.422   0.419   2.069 -0.2818 -1.4292 -0.4235
 8193TIP3    H248775   0.346   0.313   2.146 -0.7108 -1.2562 -0.6047
 8194TIP3   OH248776   6.600   5.553   2.122  0.1434  0.1490  0.6977
 8194TIP3    H148777   6.587   5.507   2.205 -1.8607 -0.3411  0.1632
 8194TIP3    H248778   6.557   5.497   2.057 -0.2553  1.6079 -0.3362
 8195TIP3   OH248779   0.077   3.382   1.138 -0.1252  0.1551  0.2384
 8195TIP3    H148780   0.169   3.360   1.152 -0.6904 -2.0140  0.8353
 8195TIP3    H248781   0.076   3.478   1.136  2.3093  0.2405 -1.0704
 8196TIP3   OH248782   0.226   6.523   2.515 -0.4086 -0.0339 -0.2414
 8196TIP3    H148783   0.281   6.558   2.586 -1.6372 -2.2185  1.9422
 8196TIP3    H248784   0.168   6.461   2.559 -2.0045 -0.6697 -3.0572
 8197TIP3   OH248785   2.476   2.104   2.440 -0.0719  0.5642  0.3728
 8197TIP3    H148786   2.391   2.062   2.451  0.4698 -0.6830  0.0529
 8197TIP3    H248787   2.485   2.116   2.346  1.7126 -3.0210 -0.0859
 8198TIP3   OH248788   6.539   1.051   1.287  0.0319 -0.2755  0.2445
 8198TIP3    H148789   6.625   1.010   1.293  0.2824  0.2839  0.4637
 8198TIP3    H248790   6.479   0.978   1.269  0.1953 -1.0554  2.5190
 8199TIP3   OH248791   3.817   2.530   1.762  0.3307 -0.2218 -0.1537
 8199TIP3    H148792   3.822   2.538   1.667 -2.0447  1.3527 -0.2435
 8199TIP3    H248793   3.835   2.618   1.794 -0.5614 -0.3429  0.7239
 8200TIP3   OH248794   5.674   1.536   1.278 -0.6576  0.3401  0.0230
 8200TIP3    H148795   5.697   1.603   1.213 -0.7418 -0.1917 -0.5631
 8200TIP3    H248796   5.601   1.489   1.239  0.1231 -0.8226 -0.0756
 8201TIP3   OH248797   6.247   2.494   3.897  0.0921  0.2086 -0.4306
 8201TIP3    H148798   6.214   2.584   3.901 -0.0620  0.1451 -0.2508
 8201TIP3    H248799   6.173   2.440   3.925  0.9088  0.2026  1.9623
 8202TIP3   OH248800   6.187   4.749   4.546 -0.2293  0.1555  0.2062
 8202TIP3    H148801   6.104   4.773   4.505 -0.7395 -1.3303  0.2889
 8202TIP3    H248802   6.240   4.714   4.474 -0.3305 -0.4835  0.4340
 8203TIP3   OH248803   0.829   4.086   3.195 -0.9070  0.0105 -0.2247
 8203TIP3    H148804   0.800   4.159   3.141  0.1702  0.6008 -0.0247
 8203TIP3    H248805   0.749   4.056   3.238 -1.0102  2.8921  1.8837
 8204TIP3   OH248806   1.617   5.919   0.955 -0.0314  0.0909  0.3172
 8204TIP3    H148807   1.535   5.891   0.916  0.1010 -0.2088  0.2449
 8204TIP3    H248808   1.657   5.977   0.890  0.3141 -0.6176 -0.1132
 8205TIP3   OH248809   0.724   2.795   2.513  0.5725  0.1267  0.0707
 8205TIP3    H148810   0.641   2.813   2.470  1.6190  0.3722 -1.9417
 8205TIP3    H248811   0.719   2.703   2.539  0.5615 -0.5536 -2.1869
 8206TIP3   OH248812   1.779   0.903   0.918 -0.1031  0.4938  0.5377
 8206TIP3    H148813   1.714   0.844   0.957  0.2766 -0.5048 -0.2776
 8206TIP3    H248814   1.862   0.875   0.956  0.3906 -1.0517 -1.5176
 8207TIP3   OH248815   3.030   1.990   2.686  0.2766 -0.0224  0.3174
 8207TIP3    H148816   3.064   2.017   2.771 -0.4851  0.2441  0.5413
 8207TIP3    H248817   3.103   1.943   2.645  1.1122  1.0596  0.5318
 8208TIP3   OH248818   6.132   2.352   0.483 -0.0140  0.4664 -0.1983
 8208TIP3    H148819   6.169   2.265   0.495 -1.5126 -0.3126 -0.9064
 8208TIP3    H248820   6.051   2.337   0.434  0.0585  2.3314 -0.9692
 8209TIP3   OH248821   2.688   0.379   2.542  0.6848  0.1463  0.5896
 8209TIP3    H148822   2.594   0.373   2.526  0.8997  0.6206 -1.0600
 8209TIP3    H248823   2.700   0.462   2.588  0.3887  0.5767 -0.1016
 8210TIP3   OH248824   1.671   4.344   2.456  0.2654 -0.3130 -0.3383
 8210TIP3    H148825   1.766   4.350   2.460  0.1288  1.1122  1.7171
 8210TIP3    H248826   1.645   4.309   2.541 -1.0590 -0.7969 -0.9131
 8211TIP3   OH248827   3.205   2.978   3.806  0.0773  0.3254 -0.2446
 8211TIP3    H148828   3.215   2.994   3.900 -1.3385 -0.8493  0.1322
 8211TIP3    H248829   3.142   2.906   3.800  0.8152 -0.2249 -2.0724
 8212TIP3   OH248830   1.129   6.394   3.201  0.7247 -0.2552 -0.1699
 8212TIP3    H148831   1.128   6.303   3.172  0.0775 -0.5143  0.6310
 8212TIP3    H248832   1.052   6.402   3.258  0.0371  1.1219 -1.2222
 8213TIP3   OH248833   1.051   3.559   2.280  0.4270  0.0855  0.4544
 8213TIP3    H148834   1.056   3.463   2.285  0.9991  0.0791 -0.1122
 8213TIP3    H248835   1.125   3.589   2.332  0.4009  0.2209  0.4127
 8214TIP3   OH248836   5.285   3.373   3.667  0.4910  0.2412 -0.3554
 8214TIP3    H148837   5.274   3.286   3.705  0.2232  0.2525 -0.4067
 8214TIP3    H248838   5.343   3.360   3.592 -1.1414 -0.2254 -1.5858
 8215TIP3   OH248839   0.062   6.130   2.318 -0.2525 -0.1114 -0.1863
 8215TIP3    H148840   0.121   6.078   2.372  0.7784  0.5511 -0.6364
 8215TIP3    H248841   0.119   6.196   2.278 -1.6503  1.9629  1.0986
 8216TIP3   OH248842   3.596   0.575   2.040  0.1777  0.1278  0.0644
 8216TIP3    H148843   3.517   0.543   1.997 -0.5338  2.1991 -0.3009
 8216TIP3    H248844   3.661   0.507   2.025 -0.8452 -0.5047 -1.8306
 8217TIP3   OH248845   5.466   3.531   1.002  0.2928 -0.4145 -0.0305
 8217TIP3    H148846   5.493   3.598   0.939 -0.6417 -0.2794 -0.3091
 8217TIP3    H248847   5.517   3.549   1.081  0.5528  0.1971 -0.3373
 8218TIP3   OH248848   2.928   0.882   1.285 -0.4362 -0.0753 -0.3291
 8218TIP3    H148849   2.870   0.895   1.360 -0.9475  0.2484 -0.7742
 8218TIP3    H248850   2.995   0.822   1.317 -0.5826  0.1472  0.4227
 8219TIP3   OH248851   5.406   1.589   1.447 -0.2891 -0.3128 -0.5885
 8219TIP3    H148852   5.395   1.672   1.494 -1.2412 -0.1554 -1.0768
 8219TIP3    H248853   5.500   1.584   1.430 -0.3493  1.2194 -1.5457
 8220TIP3   OH248854   2.058   3.063   2.219  0.1450  0.3820  0.1335
 8220TIP3    H148855   2.116   3.039   2.292 -0.3448 -1.9958 -0.1946
 8220TIP3    H248856   1.971   3.040   2.250 -0.1641  0.1568 -0.8767
 8221TIP3   OH248857   2.727   6.211   1.074  0.0391  0.2503 -0.4547
 8221TIP3    H148858   2.787   6.276   1.111  0.0842 -0.5218  0.9100
 8221TIP3    H248859   2.704   6.246   0.988  3.0319  0.2190 -1.4036
 8222TIP3   OH248860   6.524   2.866   1.224  0.0182 -0.1514  0.1003
 8222TIP3    H148861   6.518   2.960   1.240 -0.2710  0.0264 -0.9561
 8222TIP3    H248862   6.518   2.858   1.129 -0.8240 -1.2937  0.2312
 8223TIP3   OH248863   4.368   2.411   2.640  0.3900  0.2742  0.1955
 8223TIP3    H148864   4.301   2.464   2.598  0.4882 -1.0448 -1.8031
 8223TIP3    H248865   4.434   2.474   2.668 -0.7291  1.4162  0.3520
 8224TIP3   OH248866   1.255   2.283   1.516 -0.1637  0.3356 -0.0105
 8224TIP3    H148867   1.322   2.278   1.584 -2.2427 -1.2987  2.0865
 8224TIP3    H248868   1.184   2.333   1.556 -0.8675  0.6345 -1.5505
 8225TIP3   OH248869   5.207   2.720   3.028  0.6242 -0.3173  0.3317
 8225TIP3    H148870   5.200   2.639   2.978  0.3415 -0.6923  0.9635
 8225TIP3    H248871   5.224   2.788   2.962  0.3370 -0.8073 -0.2560
 8226TIP3   OH248872   4.037   0.725   0.998 -0.0365  0.2344 -0.4030
 8226TIP3    H148873   4.114   0.758   0.951 -0.7709  0.7778 -1.2478
 8226TIP3    H248874   3.986   0.804   1.017  0.6641  0.1767  2.1658
 8227TIP3   OH248875   0.699   3.809   0.694 -0.9662 -0.0194  0.3873
 8227TIP3    H148876   0.626   3.861   0.728 -0.2770 -0.2432  2.3863
 8227TIP3    H248877   0.774   3.869   0.696 -0.4497 -0.6782  1.4207
 8228TIP3   OH248878   0.422   2.158   2.195  0.7385 -0.6360 -0.5528
 8228TIP3    H148879   0.473   2.132   2.118  1.2525  1.6570 -1.0840
 8228TIP3    H248880   0.482   2.151   2.268  1.0743 -0.3114 -0.7946
 8229TIP3   OH248881   3.038   0.238   1.404 -0.1629 -0.3390 -0.2027
 8229TIP3    H148882   2.991   0.263   1.484 -1.6110 -2.2806 -0.3780
 8229TIP3    H248883   3.077   0.153   1.424 -1.2303 -1.2556 -1.7762
 8230TIP3   OH248884   0.277   5.692   2.353  0.1286  0.2903  0.1461
 8230TIP3    H148885   0.236   5.753   2.291 -0.2878 -1.4320 -1.3617
 8230TIP3    H248886   0.207   5.668   2.413 -0.9681 -1.9063 -1.8484
 8231TIP3   OH248887   3.557   5.246   1.534 -0.2940 -0.1695 -0.1066
 8231TIP3    H148888   3.480   5.235   1.589  0.1481 -1.0102  0.3572
 8231TIP3    H248889   3.597   5.159   1.532 -0.0408 -0.0413 -1.3631
 8232TIP3   OH248890   4.640   3.449   2.143 -0.0818 -0.3338 -0.0942
 8232TIP3    H148891   4.579   3.489   2.081 -0.5904 -1.0390 -0.0654
 8232TIP3    H248892   4.687   3.523   2.182 -0.8980  0.2217 -0.1379
 8233TIP3   OH248893   0.047   5.251   4.050  0.1940 -0.2012 -0.6766
 8233TIP3    H148894   0.142   5.262   4.056  0.3270 -0.7117 -1.7272
 8233TIP3    H248895   0.025   5.194   4.123  0.7134 -0.2119 -0.5215
 8234TIP3   OH248896   3.163   5.140   1.368 -0.4069  0.9017  0.5719
 8234TIP3    H148897   3.200   5.224   1.397 -0.1829  1.2860 -0.7330
 8234TIP3    H248898   3.233   5.076   1.384 -0.6351  0.9163  1.7190
 8235TIP3   OH248899   5.324   3.147   3.822  0.1275  0.2101 -0.3323
 8235TIP3    H148900   5.384   3.193   3.881 -0.5351 -1.3609  1.6945
 8235TIP3    H248901   5.348   3.055   3.830  0.3094 -0.0414 -2.9624
 8236TIP3   OH248902   5.937   5.998   3.269  0.2861  0.0956 -0.2841
 8236TIP3    H148903   5.995   5.941   3.219 -2.3440 -2.8050 -0.3139
 8236TIP3    H248904   5.907   5.945   3.343 -0.8276  2.1292  0.8453
 8237TIP3   OH248905   1.326   5.048   4.196 -0.4094 -0.2949 -0.4731
 8237TIP3    H148906   1.332   5.075   4.287  0.2452  1.4916 -1.0067
 8237TIP3    H248907   1.357   4.957   4.196 -0.1117 -0.2192  1.0219
 8238TIP3   OH248908   3.039   4.389   1.915  0.3483  0.4302  0.3782
 8238TIP3    H148909   2.976   4.371   1.845  1.1358  0.9924 -0.4945
 8238TIP3    H248910   2.996   4.358   1.994 -1.1795  1.1112 -0.1481
 8239TIP3   OH248911   3.457   0.699   1.506  0.2644 -0.0369 -0.3473
 8239TIP3    H148912   3.462   0.609   1.538  2.3412  0.1671  0.0448
 8239TIP3    H248913   3.468   0.691   1.411  0.9445 -0.1714 -0.2612
 8240TIP3   OH248914   0.170   2.908   0.450  0.0755 -0.4395 -0.1611
 8240TIP3    H148915   0.245   2.947   0.406  0.0451 -0.7832 -0.5261
 8240TIP3    H248916   0.154   2.964   0.525  1.9684 -1.4764  1.0889
 8241TIP3   OH248917   3.171   4.052   1.428 -0.2947 -0.3080  0.1007
 8241TIP3    H148918   3.242   4.075   1.368 -0.1060 -0.4719  0.2604
 8241TIP3    H248919   3.096   4.100   1.395 -0.0055  0.2150  0.1871
 8242TIP3   OH248920   6.444   0.341   3.597  0.1111 -0.3019 -0.0033
 8242TIP3    H148921   6.418   0.256   3.562  1.5996 -0.5106 -0.6829
 8242TIP3    H248922   6.510   0.321   3.663  0.7245  0.3305 -0.4100
 8243TIP3   OH248923   2.957   0.335   0.943 -0.6321  0.2275 -0.3481
 8243TIP3    H148924   3.033   0.365   0.993 -0.4809 -0.8944  0.1266
 8243TIP3    H248925   2.945   0.402   0.876 -1.1522  2.0471  1.4631
 8244TIP3   OH248926   5.607   6.576   2.474  0.6729  0.2379  1.3322
 8244TIP3    H148927   5.526   6.583   2.424  0.1109 -0.7416  2.0631
 8244TIP3    H248928   5.671   6.540   2.413 -0.0903 -1.2485  1.3751
 8245TIP3   OH248929   1.654   5.027   1.074 -0.1701  0.4399 -0.0262
 8245TIP3    H148930   1.691   4.988   1.153 -1.9687  1.7068  1.5235
 8245TIP3    H248931   1.690   4.974   1.003 -0.9670 -2.8418  1.8023
 8246TIP3   OH248932   5.214   5.663   1.852  0.5681 -0.3382  0.0416
 8246TIP3    H148933   5.254   5.747   1.875 -0.5747  0.1777  0.1798
 8246TIP3    H248934   5.188   5.625   1.936  1.3361 -0.9745  0.0028
 8247TIP3   OH248935   4.457   0.115   1.226  0.2043 -0.1842  0.4896
 8247TIP3    H148936   4.473   0.102   1.319  0.4723  1.3049  0.6725
 8247TIP3    H248937   4.450   0.026   1.190  0.3677 -0.7761  1.8684
 8248TIP3   OH248938   5.757   2.019   3.543 -0.2273 -0.9984  0.3782
 8248TIP3    H148939   5.809   1.965   3.484 -2.1700 -3.0528  0.3954
 8248TIP3    H248940   5.807   2.021   3.625  0.2921 -2.0674  0.1008
 8249TIP3   OH248941   4.923   0.733   2.530  0.0135  0.3392  0.6709
 8249TIP3    H148942   4.844   0.756   2.481  0.4147 -0.2905 -0.3001
 8249TIP3    H248943   4.992   0.730   2.464  0.5572 -0.5956  1.2556
 8250TIP3   OH248944   4.772   0.605   2.868 -0.5698 -0.2317 -0.2407
 8250TIP3    H148945   4.715   0.667   2.823  0.6910  1.2454  0.1233
 8250TIP3    H248946   4.855   0.610   2.820 -0.4589 -1.7398 -0.2610
 8251TIP3   OH248947   5.212   1.542   1.879 -0.1857 -0.3954  0.3437
 8251TIP3    H148948   5.142   1.527   1.815 -0.0256 -1.5329  0.4247
 8251TIP3    H248949   5.223   1.458   1.923  0.1932  0.1897  1.3874
 8252TIP3   OH248950   5.941   0.342   2.860  0.0455  0.2039 -0.5587
 8252TIP3    H148951   5.893   0.352   2.943  0.5044 -2.3878  0.1015
 8252TIP3    H248952   6.032   0.359   2.883  0.3235 -1.5609 -0.2387
 8253TIP3   OH248953   4.827   0.041   1.334  0.1038 -0.7110 -0.2978
 8253TIP3    H148954   4.787  -0.046   1.326  0.0688 -0.7719  0.4356
 8253TIP3    H248955   4.772   0.087   1.397  0.3218 -0.2770 -0.4252
 8254TIP3   OH248956   6.552   2.898   0.953 -0.2081 -0.1737  0.3823
 8254TIP3    H148957   6.597   2.858   0.878 -1.6786 -0.9775 -0.1135
 8254TIP3    H248958   6.512   2.977   0.918  0.3296  0.2391  0.6862
 8255TIP3   OH248959   3.915   6.629   2.915 -0.0198 -0.6005  0.0829
 8255TIP3    H148960   3.985   6.692   2.933 -1.3478  0.4841  1.7592
 8255TIP3    H248961   3.953   6.544   2.939  2.2280 -0.7853 -3.3550
 8256TIP3   OH248962   0.590   2.192   0.619 -0.0065  0.0104 -0.3317
 8256TIP3    H148963   0.586   2.287   0.630  0.0074 -0.0474  0.1764
 8256TIP3    H248964   0.549   2.176   0.533 -3.1844  0.1885  1.0164
 8257TIP3   OH248965   4.896   3.523   1.605 -0.2786 -0.2365 -0.2409
 8257TIP3    H148966   4.940   3.438   1.612  1.4121  0.5570 -0.8748
 8257TIP3    H248967   4.903   3.546   1.513  1.0339  1.4756  0.2345
 8258TIP3   OH248968   3.992   5.170   3.311  0.3391 -0.2638  0.4493
 8258TIP3    H148969   4.032   5.216   3.385  0.7863  0.1023 -0.0112
 8258TIP3    H248970   3.926   5.113   3.350  1.2313 -0.7876  1.2150
 8259TIP3   OH248971   1.626   6.467   2.523  0.1964  0.2914  0.6402
 8259TIP3    H148972   1.605   6.451   2.432 -0.0942 -3.2644  1.1981
 8259TIP3    H248973   1.721   6.454   2.529 -0.0779 -2.0392  1.1460
 8260TIP3   OH248974   6.099   1.246   2.370  0.0894  0.1260 -0.5057
 8260TIP3    H148975   6.012   1.266   2.336 -1.1445  0.3859  2.5651
 8260TIP3    H248976   6.142   1.331   2.381 -0.4827  0.2597  0.8798
 8261TIP3   OH248977   0.461   0.792   0.923 -0.1670  0.4194  0.6184
 8261TIP3    H148978   0.461   0.760   0.833 -1.5549  1.8832  0.0475
 8261TIP3    H248979   0.401   0.733   0.969  0.5694 -0.3528  0.6120
 8262TIP3   OH248980   4.169   2.653   2.254 -0.2094  0.0094 -0.1019
 8262TIP3    H148981   4.173   2.581   2.317  1.4667 -0.0423 -0.2137
 8262TIP3    H248982   4.151   2.610   2.170  0.2980 -0.2270 -0.0908
 8263TIP3   OH248983   1.397   4.935   1.104  0.0074  0.3184  0.3153
 8263TIP3    H148984   1.398   4.941   1.199  1.5439 -0.2633  0.3745
 8263TIP3    H248985   1.490   4.935   1.080 -0.3564  1.2280 -1.2378
 8264TIP3   OH248986   1.084   5.501   0.787 -0.3391 -0.1307 -0.3715
 8264TIP3    H148987   1.148   5.457   0.843  2.7472 -0.8980 -4.0918
 8264TIP3    H248988   1.015   5.435   0.773  1.7036 -2.1113 -1.8494
 8265TIP3   OH248989   4.858   3.076   0.943  0.6572 -0.3809 -0.4158
 8265TIP3    H148990   4.885   3.040   1.028 -0.9389 -1.1567 -0.2116
 8265TIP3    H248991   4.800   3.010   0.906 -1.8079  1.5911 -0.3713
 8266TIP3   OH248992   3.437   3.844   2.386  0.2567 -0.2808  0.1437
 8266TIP3    H148993   3.531   3.838   2.371  0.1708 -1.8615  0.0109
 8266TIP3    H248994   3.400   3.864   2.300  0.3916 -1.0113 -0.0958
 8267TIP3   OH248995   6.300   1.754   2.778  0.4854  0.0150 -0.0326
 8267TIP3    H148996   6.347   1.837   2.783  0.5547  0.1613 -2.3833
 8267TIP3    H248997   6.208   1.779   2.775  0.4023 -0.1125  0.9479
 8268TIP3   OH248998   5.470   3.333   2.331 -0.5435  1.2370 -0.2470
 8268TIP3    H148999   5.460   3.239   2.349  1.0795  1.2363  0.8716
 8268TIP3    H249000   5.388   3.372   2.363 -1.8892  0.0774 -2.1119
 8269TIP3   OH249001   5.214   3.449   1.038  0.0881  0.3626  0.9183
 8269TIP3    H149002   5.161   3.468   0.961  1.3803 -2.5604 -0.8463
 8269TIP3    H249003   5.288   3.509   1.031  0.4262 -0.1812 -0.4047
 8270TIP3   OH249004   0.003   3.142   1.255  0.1571  0.2285  0.2133
 8270TIP3    H149005   0.035   3.217   1.204 -1.1517  1.8133  1.6105
 8270TIP3    H249006   0.083   3.101   1.289  0.9999 -0.2332 -2.1439
 8271TIP3   OH249007   0.362   6.608   0.732  0.0684  0.3342  0.0776
 8271TIP3    H149008   0.449   6.596   0.692 -0.5798 -1.1836 -0.9842
 8271TIP3    H249009   0.358   6.541   0.800  0.2453  1.3447  1.1106
 8272TIP3   OH249010   0.665   1.625   1.013  0.1506 -0.0175  0.1109
 8272TIP3    H149011   0.662   1.581   1.098 -0.0286  0.6168  0.4407
 8272TIP3    H249012   0.712   1.707   1.030 -1.4873  0.9913  0.0221
 8273TIP3   OH249013   1.915   6.398   1.804 -0.4468  0.3720  0.2592
 8273TIP3    H149014   1.954   6.333   1.745 -1.6735 -1.7196  1.6405
 8273TIP3    H249015   1.821   6.393   1.786 -0.5407  2.1731  0.0606
 8274TIP3   OH249016   3.646   3.780   1.132 -0.1838  0.2568  0.1475
 8274TIP3    H149017   3.607   3.773   1.220  0.2993  0.9150  0.4211
 8274TIP3    H249018   3.738   3.799   1.149  0.4982 -2.1221 -0.4643
 8275TIP3   OH249019   2.568   1.728   1.038 -0.0528  0.0233  0.0879
 8275TIP3    H149020   2.588   1.754   1.128  0.4190  1.0784 -0.3128
 8275TIP3    H249021   2.484   1.681   1.045 -0.2460  0.4811  1.0131
 8276TIP3   OH249022   6.266   4.851   1.783  0.4400  0.4545 -0.0294
 8276TIP3    H149023   6.266   4.854   1.879  0.2878 -1.5701  0.0831
 8276TIP3    H249024   6.183   4.892   1.758 -0.7768 -1.2820  0.8906
 8277TIP3   OH249025   2.229   6.139   3.167  0.3790 -0.4797 -0.4237
 8277TIP3    H149026   2.189   6.182   3.091  0.7404 -0.0928 -0.3975
 8277TIP3    H249027   2.292   6.203   3.200  0.3274 -0.7019  0.1165
 8278TIP3   OH249028   1.800   4.080   1.986  0.6528  0.4906 -0.3202
 8278TIP3    H149029   1.894   4.097   1.992  1.0357 -1.6294  0.6728
 8278TIP3    H249030   1.788   4.040   1.900  0.6050  1.0353 -0.5680
 8279TIP3   OH249031   1.215   6.652   3.218  0.3596 -0.2684  0.1612
 8279TIP3    H149032   1.162   6.664   3.296 -1.8410  1.0131 -1.3969
 8279TIP3    H249033   1.174   6.578   3.172 -0.4013  0.9356 -1.2183
 8280TIP3   OH249034   5.472   5.946   1.821 -0.3543 -0.1287 -0.6256
 8280TIP3    H149035   5.470   5.917   1.912 -0.9078  1.5186 -0.0963
 8280TIP3    H249036   5.563   5.972   1.806 -0.5988  1.0958 -0.0451
 8281TIP3   OH249037   6.261   3.736   2.611 -0.0006  0.5259 -0.1074
 8281TIP3    H149038   6.322   3.736   2.684 -0.1470  1.4788  0.0330
 8281TIP3    H249039   6.218   3.650   2.615  1.1138 -0.0371 -0.0427
 8282TIP3   OH249040   3.987   0.467   0.859  0.4156  0.1281  0.0094
 8282TIP3    H149041   3.990   0.552   0.902  0.7563  0.5410 -0.8030
 8282TIP3    H249042   4.071   0.427   0.879  1.0943  0.8350 -1.2420
 8283TIP3   OH249043   6.246   0.643   3.074 -0.0478 -0.4970 -0.7325
 8283TIP3    H149044   6.341   0.646   3.062  0.1649 -0.5965  0.7383
 8283TIP3    H249045   6.234   0.625   3.167 -1.5150  0.2946 -0.7325
 8284TIP3   OH249046   4.439   0.089   1.501  0.3068  0.3082 -0.6201
 8284TIP3    H149047   4.401   0.136   1.575  0.0140 -0.6698 -0.1293
 8284TIP3    H249048   4.489   0.018   1.541  1.5381  0.7632 -1.3133
 8285TIP3   OH249049   2.219   2.912   3.484  0.1259  0.6420 -0.1233
 8285TIP3    H149050   2.152   2.875   3.427  1.2103  1.1177 -1.7909
 8285TIP3    H249051   2.170   2.965   3.547 -1.2087 -1.0751  0.3408
 8286TIP3   OH249052   0.293   5.130   3.162  0.1273 -0.0646  0.1912
 8286TIP3    H149053   0.316   5.040   3.184  0.7105  0.3485  1.3499
 8286TIP3    H249054   0.367   5.182   3.193  0.1282  0.7648 -1.0950
 8287TIP3   OH249055   1.312   4.305   0.885  0.2881  0.1220 -0.2127
 8287TIP3    H149056   1.343   4.285   0.797 -2.0789  1.9693 -1.5940
 8287TIP3    H249057   1.271   4.391   0.877  0.4564  0.6161  2.8503
 8288TIP3   OH249058   1.099   0.662   2.808 -0.2818  0.1813 -0.3654
 8288TIP3    H149059   1.042   0.687   2.882  3.1980  1.1150  2.2715
 8288TIP3    H249060   1.110   0.742   2.758 -0.4757  0.2536 -0.2947
 8289TIP3   OH249061   6.189   1.863   0.997 -0.2203  0.6133  0.1097
 8289TIP3    H149062   6.188   1.856   1.093 -1.3055 -2.1994 -0.0353
 8289TIP3    H249063   6.105   1.903   0.975 -0.1408  0.8904  0.2974
 8290TIP3   OH249064   0.137   1.877   1.210 -0.4726  0.2890  0.5711
 8290TIP3    H149065   0.217   1.857   1.161 -2.1600 -0.8242 -1.9950
 8290TIP3    H249066   0.081   1.920   1.145 -2.5184 -0.3859  1.8167
 8291TIP3   OH249067   0.625   4.529   0.722 -0.1286 -0.3499  0.4355
 8291TIP3    H149068   0.680   4.503   0.649 -2.0356  0.8168 -1.5393
 8291TIP3    H249069   0.582   4.449   0.750  2.2601 -1.2329  1.8552
 8292TIP3   OH249070   1.195   3.043   4.448 -0.4815 -0.6423  0.6133
 8292TIP3    H149071   1.283   3.054   4.483 -0.4641 -0.0882  0.4011
 8292TIP3    H249072   1.146   2.999   4.517  0.5278 -3.0143 -0.0478
 8293TIP3   OH249073   0.795   2.063   0.969 -0.7207 -0.5752  0.0361
 8293TIP3    H149074   0.732   2.085   1.039  0.9436  0.1354  1.3984
 8293TIP3    H249075   0.856   2.002   1.011  1.3371  1.1985 -0.1671
 8294TIP3   OH249076   2.534   6.032   2.298  0.0365 -0.3487  0.2853
 8294TIP3    H149077   2.616   6.065   2.336  0.1113 -0.9252  0.6295
 8294TIP3    H249078   2.561   5.987   2.218  0.1571 -1.2329  0.8090
 8295TIP3   OH249079   2.938   2.738   2.381 -0.3877  0.4994  0.0911
 8295TIP3    H149080   2.952   2.800   2.310 -1.2070  1.1500  0.4875
 8295TIP3    H249081   2.843   2.735   2.393 -0.2671  0.4459  1.1870
 8296TIP3   OH249082   3.865   0.932   0.897 -0.3677  0.4566 -0.6612
 8296TIP3    H149083   3.771   0.942   0.915 -0.3945  1.3145 -1.2220
 8296TIP3    H249084   3.869   0.863   0.831 -0.3858 -1.4810  1.2315
 8297TIP3   OH249085   3.424   5.657   2.900 -0.1389  0.3737  0.2786
 8297TIP3    H149086   3.494   5.613   2.851  1.1828  1.5322  1.0645
 8297TIP3    H249087   3.384   5.587   2.952  0.3001 -0.3467 -0.3254
 8298TIP3   OH249088   5.800   5.994   1.399  0.7899 -0.2159 -0.1047
 8298TIP3    H149089   5.795   5.975   1.306 -0.0241 -4.2749  0.5760
 8298TIP3    H249090   5.885   5.961   1.426  0.2610 -0.8434  0.8638
 8299TIP3   OH249091   5.738   6.180   2.767  0.2589  0.3312  0.4531
 8299TIP3    H149092   5.769   6.255   2.818  1.1686 -0.1582  0.6565
 8299TIP3    H249093   5.819   6.138   2.735 -0.2237 -0.6189  0.4429
 8300TIP3   OH249094   0.462   3.981   3.996 -0.1448  0.2561  0.2906
 8300TIP3    H149095   0.481   4.048   3.930  0.6512 -0.9440 -0.7671
 8300TIP3    H249096   0.402   4.023   4.057 -0.3506  1.6470 -0.8128
 8301TIP3   OH249097   2.519   3.686   1.869  0.1331  0.2277  0.1006
 8301TIP3    H149098   2.498   3.656   1.957  0.0932 -1.2840 -0.3985
 8301TIP3    H249099   2.611   3.711   1.873 -0.3537  1.9945  1.0205
 8302TIP3   OH249100   1.776   0.673   3.457  0.6696 -0.1893  0.3251
 8302TIP3    H149101   1.688   0.635   3.470  0.2238  0.9426  0.7767
 8302TIP3    H249102   1.828   0.634   3.527  0.4829 -0.7132  0.1838
 8303TIP3   OH249103   1.730   0.896   3.741 -0.2019 -0.3333 -0.4012
 8303TIP3    H149104   1.641   0.929   3.738 -0.3018 -0.5844 -0.2338
 8303TIP3    H249105   1.720   0.801   3.746  0.0746 -0.3598 -0.3345
 8304TIP3   OH249106   5.816   1.850   2.565 -0.3794  0.2658  0.4373
 8304TIP3    H149107   5.877   1.920   2.542  0.6063 -0.9370 -0.7884
 8304TIP3    H249108   5.843   1.776   2.511 -1.0309 -1.2495  2.0847
 8305TIP3   OH249109   0.877   3.654   1.810 -0.0632  0.1760  0.1751
 8305TIP3    H149110   0.933   3.658   1.888  1.3990 -0.9210 -0.7718
 8305TIP3    H249111   0.909   3.578   1.761 -0.2429  1.4527 -2.0316
 8306TIP3   OH249112   6.478   3.466   3.564 -0.2570  0.4448  0.4934
 8306TIP3    H149113   6.383   3.464   3.575 -0.3367  0.2103 -0.1633
 8306TIP3    H249114   6.513   3.429   3.645 -0.7326  0.3679  0.6646
 8307TIP3   OH249115   4.846   6.587   2.781  0.0668 -0.3287 -0.1716
 8307TIP3    H149116   4.814   6.496   2.777 -0.1767 -0.2229 -0.8905
 8307TIP3    H249117   4.769   6.637   2.810  0.0420 -0.2809 -0.3206
 8308TIP3   OH249118   3.569   0.117   2.149 -0.0795 -0.1389 -0.3958
 8308TIP3    H149119   3.557   0.070   2.232  0.8342  0.9303  0.3849
 8308TIP3    H249120   3.500   0.183   2.149  1.1034  1.1791  0.5365
 8309TIP3   OH249121   0.562   1.762   1.633 -0.1574 -0.2656 -0.3379
 8309TIP3    H149122   0.614   1.826   1.682  0.5519 -0.9297 -0.1956
 8309TIP3    H249123   0.559   1.686   1.691 -1.7865 -0.0420 -0.1050
 8310TIP3   OH249124   1.590   4.474   4.111  0.1423  0.0953 -0.2433
 8310TIP3    H149125   1.579   4.569   4.111  1.3719  0.2467 -0.2778
 8310TIP3    H249126   1.532   4.444   4.181 -1.5913  0.6793 -1.3604
 8311TIP3   OH249127   3.595   3.455   2.205 -0.1379 -0.4291  0.0313
 8311TIP3    H149128   3.623   3.476   2.295  0.5100  0.8305 -0.4374
 8311TIP3    H249129   3.660   3.498   2.149 -0.0457 -1.9089 -1.0608
 8312TIP3   OH249130   2.461   6.257   1.478  0.1414 -0.1225 -0.0021
 8312TIP3    H149131   2.502   6.237   1.562 -0.1780 -0.6559  0.0390
 8312TIP3    H249132   2.468   6.352   1.469  0.4133 -0.0902  0.5029
 8313TIP3   OH249133   6.455   0.381   1.339  0.4509  0.1968  0.2596
 8313TIP3    H149134   6.505   0.414   1.263  2.1534 -0.0737  1.2141
 8313TIP3    H249135   6.487   0.292   1.351 -1.0749 -0.3757  0.2736
 8314TIP3   OH249136   2.500   4.456   3.450  0.2049 -0.3849 -0.1752
 8314TIP3    H149137   2.578   4.437   3.397  0.9027 -0.1494  0.7273
 8314TIP3    H249138   2.465   4.370   3.473  1.0402 -0.5446  0.5839
 8315TIP3   OH249139   4.739   5.002   2.457 -0.3748 -0.6360  0.3234
 8315TIP3    H149140   4.815   4.958   2.495 -0.4869 -0.8575  0.2921
 8315TIP3    H249141   4.776   5.079   2.413  0.1651 -2.0339 -1.8240
 8316TIP3   OH249142   3.182   3.596   3.098  0.3738 -0.3461 -0.3292
 8316TIP3    H149143   3.239   3.673   3.090  0.4507 -0.1849  1.2980
 8316TIP3    H249144   3.106   3.617   3.044  0.2103  1.0946  0.3916
 8317TIP3   OH249145   5.367   6.684   2.367 -0.3240 -0.1110  0.5932
 8317TIP3    H149146   5.406   6.754   2.315 -0.1013 -1.4960 -1.2190
 8317TIP3    H249147   5.282   6.719   2.393 -0.8133  0.3873 -1.4441
 8318TIP3   OH249148   4.843   1.078   2.342 -0.1304 -0.1806 -0.2558
 8318TIP3    H149149   4.786   1.003   2.355 -0.6693  0.2876  0.1539
 8318TIP3    H249150   4.925   1.054   2.386  0.0119 -0.8698 -0.8765
 8319TIP3   OH249151   2.441   4.659   2.839  0.4193 -0.3447  0.4402
 8319TIP3    H149152   2.459   4.735   2.893  1.7268 -0.9685  0.9356
 8319TIP3    H249153   2.525   4.637   2.799  0.0976 -1.5728  0.3814
 8320TIP3   OH249154   2.777   3.081   1.407  0.1709 -0.1432 -0.2805
 8320TIP3    H149155   2.811   2.992   1.412 -0.1607 -0.5480 -3.1362
 8320TIP3    H249156   2.850   3.137   1.432 -0.0603 -1.1432  3.1289
 8321TIP3   OH249157   4.528   4.834   2.393 -0.6343  0.4343  0.2806
 8321TIP3    H149158   4.592   4.905   2.402 -0.4588  0.3248 -0.0638
 8321TIP3    H249159   4.575   4.766   2.345 -1.6519  1.2222 -2.0087
 8322TIP3   OH249160   2.115   1.513   1.939 -0.0781 -0.0051 -0.0333
 8322TIP3    H149161   2.086   1.437   1.888 -2.2017  0.6719  0.0421
 8322TIP3    H249162   2.200   1.488   1.974  0.2441 -1.5129 -1.7349
 8323TIP3   OH249163   2.076   5.364   3.691  0.0583  0.3385  0.0328
 8323TIP3    H149164   2.095   5.276   3.658  0.6144  0.3631  0.2714
 8323TIP3    H249165   2.088   5.357   3.786  0.7833  0.8287 -0.0157
 8324TIP3   OH249166   6.535   1.731   3.857  0.1986  0.2418 -0.4078
 8324TIP3    H149167   6.516   1.708   3.766  0.8102  0.7145 -0.6701
 8324TIP3    H249168   6.519   1.651   3.907  0.4793 -0.2099 -1.0287
 8325TIP3   OH249169   3.271   4.395   0.699 -0.2565  0.3635 -0.4081
 8325TIP3    H149170   3.258   4.482   0.663  0.7673  0.1582 -1.3335
 8325TIP3    H249171   3.268   4.337   0.623  2.2589 -0.0591 -0.2960
 8326TIP3   OH249172   1.322   0.366   1.092 -0.6585 -0.1312  0.3519
 8326TIP3    H149173   1.327   0.295   1.156  0.0288  2.1510  2.9979
 8326TIP3    H249174   1.287   0.440   1.141 -0.2799  1.7140 -2.0005
 8327TIP3   OH249175   5.766   6.175   2.390  0.4780  0.2523 -0.6351
 8327TIP3    H149176   5.777   6.254   2.444 -0.5147 -0.4518  0.6708
 8327TIP3    H249177   5.700   6.200   2.325 -1.6617 -0.1194  1.2456
 8328TIP3   OH249178   0.420   1.568   1.777  0.6617  0.0166  0.6384
 8328TIP3    H149179   0.389   1.526   1.858 -0.3259  3.5454  2.3278
 8328TIP3    H249180   0.342   1.610   1.741  1.1667 -1.1456 -2.0728
 8329TIP3   OH249181   4.246   6.084   3.397  0.2222  0.5160 -0.3422
 8329TIP3    H149182   4.206   6.033   3.327 -1.6460  1.5189 -0.0608
 8329TIP3    H249183   4.235   6.031   3.476 -0.7986  0.8865 -0.2268
 8330TIP3   OH249184   0.060   6.260   2.962  0.5376  0.6961  0.4981
 8330TIP3    H149185  -0.021   6.297   2.927  0.5481  0.2219 -0.0339
 8330TIP3    H249186   0.062   6.171   2.928  0.4880  0.1787  1.7983
 8331TIP3   OH249187   4.192   3.862   2.278 -0.1444 -0.0814 -0.3178
 8331TIP3    H149188   4.115   3.906   2.243  1.2505  3.6291  0.7952
 8331TIP3    H249189   4.157   3.807   2.349 -1.8825  0.8756 -0.3632
 8332TIP3   OH249190   3.940   2.314   3.462 -0.0102  0.2518  0.1453
 8332TIP3    H149191   3.889   2.339   3.384  0.8610  1.9212  0.0744
 8332TIP3    H249192   3.877   2.320   3.534 -0.4731  0.1027 -0.2379
 8333TIP3   OH249193   3.855   6.455   2.183 -0.2285 -0.4106  0.5335
 8333TIP3    H149194   3.769   6.419   2.203 -1.8810  2.3487 -0.9680
 8333TIP3    H249195   3.861   6.535   2.235 -0.4732  1.6699 -2.4062
 8334TIP3   OH249196   6.156   4.046   2.738  0.3420 -0.1811  0.2927
 8334TIP3    H149197   6.159   4.051   2.642 -0.3221  2.6241  0.3249
 8334TIP3    H249198   6.245   4.069   2.766 -0.1198  1.6636  0.3377
 8335TIP3   OH249199   5.108   3.046   3.355  0.0630  0.6877 -0.5253
 8335TIP3    H149200   5.071   3.079   3.436  0.1961  0.4017 -0.3495
 8335TIP3    H249201   5.066   3.099   3.286 -0.5673  0.4483 -0.3226
 8336TIP3   OH249202   0.361   6.697  10.026 -0.1453 -0.3269 -0.3079
 8336TIP3    H149203   0.313   6.775   9.995 -1.8147 -1.6177 -1.1335
 8336TIP3    H249204   0.436   6.690   9.967 -0.8181 -0.1751 -1.2067
 8337TIP3   OH249205   4.645   5.276   1.886 -0.0104 -0.1156  0.3115
 8337TIP3    H149206   4.555   5.276   1.920 -0.3002  0.2613 -0.4309
 8337TIP3    H249207   4.639   5.229   1.803  0.1164  1.4607 -0.6354
 8338TIP3   OH249208   0.988   5.412   2.530 -0.0712  0.3510 -0.1691
 8338TIP3    H149209   1.079   5.425   2.554  0.1454  1.1347 -1.3150
 8338TIP3    H249210   0.939   5.474   2.585  0.1537  0.3606  0.0203
 8339TIP3   OH249211   4.121   0.465   2.316 -0.1759  0.2671 -0.2200
 8339TIP3    H149212   4.090   0.516   2.391 -1.6210 -0.6588 -0.1636
 8339TIP3    H249213   4.216   0.477   2.317 -0.0045 -0.6327  2.4703
 8340TIP3   OH249214   5.742   6.311   1.662  0.2262 -0.1854 -0.3917
 8340TIP3    H149215   5.712   6.281   1.576  0.1034  0.2036 -0.4831
 8340TIP3    H249216   5.762   6.403   1.650 -2.3533  0.5976  0.6292
 8341TIP3   OH249217   3.323   2.825   3.402  0.0416 -0.0455  0.0944
 8341TIP3    H149218   3.282   2.767   3.338 -1.6332  1.3016 -0.1448
 8341TIP3    H249219   3.341   2.905   3.353  0.0648  0.4900  0.9546
 8342TIP3   OH249220   1.506   5.249   1.130 -0.2211 -0.4708 -0.0336
 8342TIP3    H149221   1.460   5.252   1.214  0.5505  1.0000  0.3602
 8342TIP3    H249222   1.567   5.175   1.139 -0.6232 -0.7540  0.4357
 8343TIP3   OH249223   0.127   2.390   3.290 -0.0447  0.1846  0.1872
 8343TIP3    H149224   0.142   2.401   3.196 -4.0022  1.0319 -0.4888
 8343TIP3    H249225   0.190   2.449   3.331  0.3754  1.3826 -2.0056
 8344TIP3   OH249226   1.137   1.296   3.310 -0.1025  0.2650  0.3305
 8344TIP3    H149227   1.117   1.265   3.221 -0.0421  1.1073  0.0138
 8344TIP3    H249228   1.053   1.293   3.356 -0.0191 -0.7778  0.4485
 8345TIP3   OH249229   0.601   0.506   2.671 -0.6076  0.3930 -0.7856
 8345TIP3    H149230   0.516   0.494   2.712 -1.1635 -2.7164 -2.5013
 8345TIP3    H249231   0.594   0.589   2.624 -2.1258  0.9119  0.2673
 8346TIP3   OH249232   5.923   3.662   1.135  0.3836  0.5443 -0.6800
 8346TIP3    H149233   6.003   3.655   1.083  0.1365 -0.2497 -0.9693
 8346TIP3    H249234   5.928   3.749   1.174  2.5479 -0.3139  1.1920
 8347TIP3   OH249235   0.937   5.914   1.283 -0.6252  0.4495  0.4873
 8347TIP3    H149236   0.990   5.938   1.359 -0.6024  1.6066  0.1221
 8347TIP3    H249237   0.944   5.989   1.224 -1.1398 -0.1753 -0.3967
 8348TIP3   OH249238   0.558   0.936  11.512  0.2142 -0.3294  0.3622
 8348TIP3    H149239   0.503   1.014  11.509 -0.5409 -0.7563  1.9643
 8348TIP3    H249240   0.628   0.954  11.450 -1.4096  0.4661 -1.3450
 8349TIP3   OH249241   5.724   2.518   1.892 -0.5124  0.5500 -0.2691
 8349TIP3    H149242   5.782   2.559   1.829 -1.4157  0.7452 -0.9956
 8349TIP3    H249243   5.678   2.450   1.842 -0.9397  0.4312  0.2757
 8350TIP3   OH249244   6.288   6.670   1.180 -0.1596 -0.2189  0.2217
 8350TIP3    H149245   6.314   6.584   1.213 -1.7117 -0.6137  0.4922
 8350TIP3    H249246   6.266   6.720   1.258  0.4078  0.3262  0.0417
 8351TIP3   OH249247   5.844   4.646   4.029 -0.1710 -0.2717  0.1337
 8351TIP3    H149248   5.911   4.704   4.065 -1.3415  0.4350  1.2669
 8351TIP3    H249249   5.804   4.696   3.958  0.4503 -0.6754 -0.5124
 8352TIP3   OH249250   0.859   6.592   3.171 -0.1657 -0.6904 -0.1639
 8352TIP3    H149251   0.810   6.521   3.130  1.7191 -2.0734 -0.1717
 8352TIP3    H249252   0.863   6.660   3.104 -2.5580 -0.2453  0.0674
 8353TIP3   OH249253   6.120   2.037   0.646  0.3166 -0.2886 -0.0675
 8353TIP3    H149254   6.161   1.953   0.667  1.5147  0.3353  0.1853
 8353TIP3    H249255   6.061   2.017   0.573 -1.4004 -1.8437  1.6211
 8354TIP3   OH249256   0.967   2.830   1.033 -0.1366  0.5547 -0.2923
 8354TIP3    H149257   1.011   2.748   1.056  0.6937  0.9499 -0.4144
 8354TIP3    H249258   0.961   2.829   0.938  0.3228  0.8479 -0.3294
 8355TIP3   OH249259   1.442   4.899   3.335  0.4310 -0.3209 -0.2015
 8355TIP3    H149260   1.451   4.874   3.243 -0.9604  0.2762 -0.5280
 8355TIP3    H249261   1.376   4.839   3.369 -0.3791  0.6287 -0.0748
 8356TIP3   OH249262   2.174   4.054   1.795 -0.3171  0.5216  0.4359
 8356TIP3    H149263   2.232   4.041   1.870  0.9929  0.8337 -0.4781
 8356TIP3    H249264   2.097   4.098   1.831 -0.1724 -0.2497  1.7506
 8357TIP3   OH249265   5.113   0.223   1.423  0.0169  0.4911  0.1580
 8357TIP3    H149266   5.092   0.162   1.495 -1.0963 -0.5013 -0.9499
 8357TIP3    H249267   5.051   0.295   1.435 -0.0977  0.3786  0.2529
 8358TIP3   OH249268   3.100   1.250   1.536 -0.0342 -0.1610 -0.1174
 8358TIP3    H149269   3.115   1.295   1.453  1.5214  1.1010  0.7921
 8358TIP3    H249270   3.164   1.287   1.596 -0.8650 -1.3015  1.5789
 8359TIP3   OH249271   1.234   5.307   2.037  0.4784  0.5209  0.2946
 8359TIP3    H149272   1.238   5.347   2.124  0.0274  0.5542  0.3009
 8359TIP3    H249273   1.189   5.224   2.051  1.6443 -0.1383  0.3328
 8360TIP3   OH249274   1.768   5.130   2.433  0.0726 -0.0462  0.4104
 8360TIP3    H149275   1.692   5.079   2.458  0.3996 -0.7896 -0.0865
 8360TIP3    H249276   1.792   5.179   2.512 -1.7279  1.2629  0.2148
 8361TIP3   OH249277   2.764   3.109   2.501  0.1332 -0.3330  0.5003
 8361TIP3    H149278   2.853   3.135   2.479  0.1380 -0.6888  0.0712
 8361TIP3    H249279   2.730   3.072   2.419 -0.8877  1.1049  0.2453
 8362TIP3   OH249280   5.860   4.601   0.394  0.5687  0.0081  0.3023
 8362TIP3    H149281   5.925   4.671   0.391  3.3710 -2.2949  2.0677
 8362TIP3    H249282   5.812   4.616   0.475  0.4136  0.4487  0.1344
 8363TIP3   OH249283   3.968   2.657   2.583  0.6375 -0.6710  0.1198
 8363TIP3    H149284   3.950   2.596   2.654 -1.2212  0.6326  0.8647
 8363TIP3    H249285   3.895   2.645   2.522  0.1692  0.8205  0.3372
 8364TIP3   OH249286   5.645   2.991   2.315 -0.3443  0.3488  0.0770
 8364TIP3    H149287   5.646   3.004   2.409  0.0925 -0.4395  0.1935
 8364TIP3    H249288   5.725   2.941   2.297  0.2458  1.5762 -0.8722
 8365TIP3   OH249289   5.963   2.598   1.725  0.0531  0.1642  0.3177
 8365TIP3    H149290   6.053   2.569   1.714 -0.0194  0.1044 -0.1179
 8365TIP3    H249291   5.944   2.650   1.647 -0.6948 -0.8729 -0.2219
 8366TIP3   OH249292   0.907   4.771   3.585 -0.3789 -0.5836  0.0320
 8366TIP3    H149293   0.938   4.723   3.662  1.1573  1.6312  0.8922
 8366TIP3    H249294   0.951   4.730   3.511  1.4848 -0.0855  0.8171
 8367TIP3   OH249295   0.907   6.235   2.294  0.3326 -0.0355  0.1425
 8367TIP3    H149296   0.822   6.194   2.278 -0.8398  1.1425  2.7039
 8367TIP3    H249297   0.892   6.328   2.276  1.0550  0.1789  0.6145
 8368TIP3   OH249298   5.508   3.601   3.005  0.5394 -0.3225  0.0814
 8368TIP3    H149299   5.591   3.644   3.023 -0.0720  1.0061 -0.1815
 8368TIP3    H249300   5.445   3.645   3.062 -0.0594 -1.0496  0.0022
 8369TIP3   OH249301   1.242   4.099   1.056 -0.2967 -0.0284  0.0067
 8369TIP3    H149302   1.201   4.041   0.992  0.5051 -0.0853 -0.4749
 8369TIP3    H249303   1.269   4.176   1.006 -0.7136  0.4616  0.5071
 8370TIP3   OH249304   4.246   5.719   2.436  0.1489  0.0431 -0.0655
 8370TIP3    H149305   4.298   5.785   2.391 -0.0006  0.1042 -0.1484
 8370TIP3    H249306   4.233   5.650   2.372  1.5149 -0.7333  0.4519
 8371TIP3   OH249307   6.045   4.655   2.801 -0.2934 -0.4697 -0.2456
 8371TIP3    H149308   6.011   4.732   2.848  0.3495 -0.5487  0.3640
 8371TIP3    H249309   5.996   4.654   2.719 -1.2449 -0.1711  0.3071
 8372TIP3   OH249310   2.925   3.293   1.776 -0.4934 -0.0918 -0.2470
 8372TIP3    H149311   2.885   3.315   1.860 -0.1939  0.8574 -0.3506
 8372TIP3    H249312   3.003   3.347   1.771  0.5303 -1.5302 -0.3013
 8373TIP3   OH249313   6.674   4.728   4.172  0.4951  0.1564  0.0633
 8373TIP3    H149314   6.697   4.713   4.264  0.4637 -0.2530  0.0076
 8373TIP3    H249315   6.620   4.807   4.173 -2.1913 -1.5742  0.8096
 8374TIP3   OH249316   0.762   1.465   0.606 -0.0032  0.0017  0.4431
 8374TIP3    H149317   0.845   1.479   0.560  0.2453 -0.9006  0.6029
 8374TIP3    H249318   0.757   1.536   0.670 -0.2710  1.1816 -0.8477
 8375TIP3   OH249319   1.239   5.413   1.041 -0.1895 -0.0049  0.5801
 8375TIP3    H149320   1.321   5.374   1.011  0.0534  1.0281 -0.1639
 8375TIP3    H249321   1.199   5.346   1.095  0.6990 -0.8869  0.1791
 8376TIP3   OH249322   3.755   6.679   2.666  0.0776  0.1501 -0.2841
 8376TIP3    H149323   3.827   6.665   2.727  1.0841  0.1837 -1.4086
 8376TIP3    H249324   3.685   6.718   2.719  1.1110  0.6951  0.7229
 8377TIP3   OH249325   2.617   5.129   3.564  0.4768 -0.3065 -0.4775
 8377TIP3    H149326   2.578   5.141   3.478  0.8520  0.8532 -0.4985
 8377TIP3    H249327   2.703   5.170   3.557  0.3830  0.0817  0.5364
 8378TIP3   OH249328   2.846   0.909   1.562 -0.1532 -0.0770  0.0338
 8378TIP3    H149329   2.859   0.814   1.562 -0.0674 -0.1091  2.1746
 8378TIP3    H249330   2.751   0.920   1.564 -0.2605 -0.0287 -2.2470
 8379TIP3   OH249331   5.968   3.804   2.532 -0.2268  0.5275  0.4398
 8379TIP3    H149332   5.901   3.791   2.600 -0.0132  0.0218  0.5560
 8379TIP3    H249333   6.051   3.806   2.580 -0.1589  1.2204  0.3018
 8380TIP3   OH249334   4.175   4.575   0.635  0.0140  0.0238  0.2106
 8380TIP3    H149335   4.179   4.496   0.689  0.9631 -0.9499 -1.2094
 8380TIP3    H249336   4.087   4.574   0.597  0.3060 -0.8483 -0.4760
 8381TIP3   OH249337   1.502   6.683   1.738  0.1384 -0.2263  0.6475
 8381TIP3    H149338   1.549   6.600   1.727  0.3840 -0.1240  0.8996
 8381TIP3    H249339   1.561   6.737   1.791  0.0750  0.1902  0.3003
 8382TIP3   OH249340   6.493   2.960   2.619  0.2459  0.3161  0.8773
 8382TIP3    H149341   6.574   2.909   2.611 -0.8493 -1.6627  1.5804
 8382TIP3    H249342   6.470   2.982   2.529  1.4693  0.7841  0.6518
 8383TIP3   OH249343   0.560   6.360   2.305  0.2467  0.3486  0.1611
 8383TIP3    H149344   0.626   6.417   2.345  1.4139 -0.6551 -0.2590
 8383TIP3    H249345   0.598   6.333   2.222 -0.5335 -0.5367  0.0679
 8384TIP3   OH249346   6.165   3.701   3.511 -0.3465  0.5636  0.7996
 8384TIP3    H149347   6.167   3.683   3.417 -2.1387  1.2922  0.5851
 8384TIP3    H249348   6.181   3.616   3.552  2.9109  0.6174 -0.0814
 8385TIP3   OH249349   0.362   1.368   0.420 -0.0255 -0.5953 -0.6672
 8385TIP3    H149350   0.352   1.443   0.361  0.2052 -1.2860 -1.6132
 8385TIP3    H249351   0.276   1.325   0.420 -0.6917  0.6052  1.2445
 8386TIP3   OH249352   0.153   5.274   1.844  0.3861  0.4587  0.0679
 8386TIP3    H149353   0.072   5.300   1.801  0.0110 -1.2912 -0.3625
 8386TIP3    H249354   0.203   5.356   1.853 -1.2515  1.5106  0.0328
 8387TIP3   OH249355   3.878   1.988   3.347 -0.2875  0.0327  0.0204
 8387TIP3    H149356   3.816   1.916   3.355 -0.0512 -0.0127  1.8852
 8387TIP3    H249357   3.912   2.000   3.436  2.9394 -0.4317 -1.0175
 8388TIP3   OH249358   4.780   6.090   2.541 -0.2984 -0.5145 -0.4793
 8388TIP3    H149359   4.701   6.097   2.595 -1.6660 -2.7278 -1.9940
 8388TIP3    H249360   4.787   5.996   2.521  1.4719 -0.0943 -2.2121
 8389TIP3   OH249361   3.936   5.707   2.721  0.1430 -0.1072  0.1551
 8389TIP3    H149362   3.904   5.628   2.764  0.9527 -0.4401  0.1445
 8389TIP3    H249363   3.864   5.770   2.731 -0.4322 -0.7849  0.3112
 8390TIP3   OH249364   3.966   5.488   3.104 -0.3976 -0.0397  0.2683
 8390TIP3    H149365   3.990   5.403   3.067  2.4939  0.3711  0.9558
 8390TIP3    H249366   4.046   5.518   3.148 -1.7583  2.4126  1.2405
 8391TIP3   OH249367   6.278   0.319   1.076 -0.5451  0.0497  0.0154
 8391TIP3    H149368   6.211   0.271   1.027 -0.0881 -0.5265 -0.0567
 8391TIP3    H249369   6.359   0.271   1.059 -0.1624  0.5780  0.3257
 8392TIP3   OH249370   5.828   1.432   2.503 -0.2307  0.0517 -0.2796
 8392TIP3    H149371   5.840   1.505   2.441  0.0277  0.3292  0.0908
 8392TIP3    H249372   5.816   1.474   2.588 -0.4851 -0.3310 -0.1229
 8393TIP3   OH249373   1.193   3.367   4.713  0.2319 -0.0777 -0.4009
 8393TIP3    H149374   1.221   3.356   4.622  0.5099  0.1706 -0.3470
 8393TIP3    H249375   1.152   3.284   4.736  0.7165 -0.3640 -0.5576
 8394TIP3   OH249376   2.533   2.360   3.352 -0.2546  0.0685  0.0112
 8394TIP3    H149377   2.516   2.336   3.261 -0.5139  0.6735 -0.1016
 8394TIP3    H249378   2.455   2.408   3.379  0.6184  1.6236 -0.0727
 8395TIP3   OH249379   0.199   1.541   2.550  0.2016 -0.4056 -0.4079
 8395TIP3    H149380   0.236   1.572   2.633 -0.6831 -1.4904  0.4188
 8395TIP3    H249381   0.274   1.508   2.501  0.6573 -0.3411  0.2369
 8396TIP3   OH249382   0.820   4.647   2.007  0.3916 -0.0561 -0.8053
 8396TIP3    H149383   0.729   4.619   1.995 -0.0297 -1.0932  3.3566
 8396TIP3    H249384   0.813   4.735   2.043  0.9896 -0.1924 -0.3472
 8397TIP3   OH249385   3.840   0.586   2.999 -0.6131  0.1512 -0.3832
 8397TIP3    H149386   3.828   0.518   3.065 -0.8677 -0.3632 -0.9550
 8397TIP3    H249387   3.930   0.617   3.014 -1.2526  1.3164  1.3783
 8398TIP3   OH249388   3.172   3.442   3.322 -0.1042  0.3452 -0.1445
 8398TIP3    H149389   3.208   3.508   3.381 -0.4320  1.0736 -0.7431
 8398TIP3    H249390   3.159   3.488   3.239 -0.4390 -0.4440 -0.5453
 8399TIP3   OH249391   3.830   1.478   3.149 -0.8739  0.4824  0.2755
 8399TIP3    H149392   3.860   1.545   3.211 -0.4781  0.1800  0.4088
 8399TIP3    H249393   3.821   1.399   3.201  1.5753 -0.3514 -0.4522
 8400TIP3   OH249394   0.434   2.135   0.849  0.1863  0.2593 -0.7506
 8400TIP3    H149395   0.491   2.068   0.886  0.3428  0.9705  0.3478
 8400TIP3    H249396   0.480   2.165   0.770  1.7273  1.3116  0.4819
 8401TIP3   OH249397   0.853   5.633   2.137 -0.3266  0.1450  0.4873
 8401TIP3    H149398   0.809   5.600   2.058  0.2488  0.3717  0.0662
 8401TIP3    H249399   0.880   5.555   2.184 -1.0319  0.0039  0.6673
 8402TIP3   OH249400   6.691   1.045   2.677 -0.4246  0.1494 -0.1274
 8402TIP3    H149401   6.660   1.077   2.762  0.0158 -0.7161  0.3672
 8402TIP3    H249402   6.684   1.121   2.619  0.0629  0.9860  0.8828
 8403TIP3   OH249403   4.438   3.971   1.842  0.3786 -0.0224 -0.0646
 8403TIP3    H149404   4.401   4.022   1.769  0.8590  1.2766  0.5545
 8403TIP3    H249405   4.372   3.977   1.911 -0.2332 -1.5511 -0.4847
 8404TIP3   OH249406   2.004   2.930   1.734  0.3831  0.3646 -0.1551
 8404TIP3    H149407   2.075   2.989   1.707  2.3330 -1.8666 -0.1589
 8404TIP3    H249408   2.016   2.919   1.828  0.4749 -0.5741 -0.2721
 8405TIP3   OH249409   5.241   0.843   2.825 -0.5431  0.3909 -0.5872
 8405TIP3    H149410   5.235   0.875   2.915 -0.2902 -2.7260  0.6553
 8405TIP3    H249411   5.280   0.916   2.776  1.9467  1.2491  2.3643
 8406TIP3   OH249412   3.331   1.372   0.930 -0.6331  0.5553  0.2461
 8406TIP3    H149413   3.249   1.383   0.882 -1.2538  1.7630  1.5109
 8406TIP3    H249414   3.320   1.426   1.008  1.3352  0.6580  0.4950
 8407TIP3   OH249415   6.677   2.015   1.049 -0.1566  0.2012 -0.2172
 8407TIP3    H149416   6.737   2.029   0.976 -0.0206  0.7251 -0.0081
 8407TIP3    H249417   6.605   2.076   1.033  0.9608  2.0492  1.2736
 8408TIP3   OH249418   3.084   4.898   2.647  0.0667 -0.3699  0.2314
 8408TIP3    H149419   3.080   4.946   2.565  3.0767  1.0165  0.7693
 8408TIP3    H249420   3.030   4.949   2.708  0.7617  0.6412  0.0135
 8409TIP3   OH249421   4.369   0.619   1.567 -0.7648 -0.2398  0.8377
 8409TIP3    H149422   4.373   0.540   1.621 -1.5648  0.1777  1.5162
 8409TIP3    H249423   4.382   0.691   1.629  0.4478  0.1558  0.1572
 8410TIP3   OH249424   3.598   3.328   1.308  0.0468 -0.4052  0.7533
 8410TIP3    H149425   3.629   3.258   1.250  0.2831  0.1256  0.2309
 8410TIP3    H249426   3.527   3.288   1.357 -0.4397 -0.7404 -0.2001
 8411TIP3   OH249427   5.237   3.618   3.837 -0.3823  0.1961  0.0035
 8411TIP3    H149428   5.307   3.596   3.898 -0.3415  0.1420 -0.0626
 8411TIP3    H249429   5.254   3.563   3.761  0.1867  1.0518 -0.4928
 8412TIP3   OH249430   6.291   4.355   1.519  0.0309 -0.8298  0.5604
 8412TIP3    H149431   6.322   4.281   1.570  0.2976  0.9347  3.1415
 8412TIP3    H249432   6.270   4.422   1.584  1.7173  2.0976 -1.6517
 8413TIP3   OH249433   5.982   3.390   1.160 -0.3611 -0.3872  0.0102
 8413TIP3    H149434   5.945   3.478   1.162  1.5755  0.6103 -2.4398
 8413TIP3    H249435   5.934   3.346   1.089 -0.7903 -1.0882  0.7156
 8414TIP3   OH249436   6.684   3.550   2.567 -0.2637 -0.2155 -0.2129
 8414TIP3    H149437   6.667   3.456   2.573  1.6457 -0.6300 -0.7139
 8414TIP3    H249438   6.620   3.582   2.504 -1.3412 -1.0565  0.4172
 8415TIP3   OH249439   6.200   2.689   1.418  0.5712  0.3113 -0.5340
 8415TIP3    H149440   6.286   2.658   1.389  0.6760 -0.2782  0.3662
 8415TIP3    H249441   6.190   2.654   1.507 -0.0842  1.3716 -0.1627
 8416TIP3   OH249442   5.523   2.701   1.329 -0.5558  0.0874  0.1805
 8416TIP3    H149443   5.576   2.779   1.311  0.1890 -0.2067  1.0529
 8416TIP3    H249444   5.586   2.629   1.333 -1.2086 -0.5392 -0.3714
 8417TIP3   OH249445   1.315   0.549   2.672  0.5293  0.7391  0.3029
 8417TIP3    H149446   1.278   0.596   2.598 -0.5076 -0.4845  0.0026
 8417TIP3    H249447   1.267   0.582   2.749 -0.8344 -0.4005 -0.0116
 8418TIP3   OH249448   4.411   1.962   1.919 -0.6413 -0.3044 -0.0446
 8418TIP3    H149449   4.381   1.904   1.989 -0.3672 -1.3367 -0.7485
 8418TIP3    H249450   4.504   1.974   1.935 -0.7804  0.2584  0.3247
 8419TIP3   OH249451   0.176   3.314   3.074  0.1227  0.0494 -0.3285
 8419TIP3    H149452   0.090   3.276   3.091  0.8484 -1.6494 -0.2121
 8419TIP3    H249453   0.213   3.260   3.004  1.7359 -0.3612  0.7700
 8420TIP3   OH249454   1.536   1.003   1.905 -0.1028 -0.4703 -0.1916
 8420TIP3    H149455   1.490   1.025   1.985  0.4567  0.8142 -0.2005
 8420TIP3    H249456   1.472   0.957   1.852 -0.4828 -1.3275  0.9737
 8421TIP3   OH249457   2.961   2.260   0.930  0.6591  0.0780  0.3379
 8421TIP3    H149458   2.887   2.202   0.911  0.9415  0.1576 -1.1428
 8421TIP3    H249459   3.029   2.232   0.869  1.3050  1.0069  0.6234
 8422TIP3   OH249460   3.169   1.599   3.264  0.1990  0.2432 -0.3342
 8422TIP3    H149461   3.154   1.600   3.359 -0.4718 -1.4901 -0.3917
 8422TIP3    H249462   3.263   1.614   3.255  0.3008  0.2508  0.6179
 8423TIP3   OH249463   4.067   4.429   3.912 -0.4107 -0.3675  0.3540
 8423TIP3    H149464   4.003   4.449   3.843 -0.1111  0.5796  0.3395
 8423TIP3    H249465   4.027   4.464   3.992 -0.0166  0.0236  0.3822
 8424TIP3   OH249466   1.586   1.936   0.774  0.0082  0.1426 -0.0523
 8424TIP3    H149467   1.493   1.950   0.789  0.3180  1.8180  0.5159
 8424TIP3    H249468   1.611   1.870   0.839 -0.5500  0.5590  0.6024
 8425TIP3   OH249469   3.427   1.219   1.148  0.0191  0.0623 -0.3714
 8425TIP3    H149470   3.391   1.222   1.059  5.2516  0.5445 -2.8379
 8425TIP3    H249471   3.445   1.127   1.164 -1.4366 -0.0938  0.5500
 8426TIP3   OH249472   1.621   1.141   3.026  0.4102  0.2605  0.0617
 8426TIP3    H149473   1.602   1.120   2.935  0.0749 -0.2013  0.2323
 8426TIP3    H249474   1.664   1.063   3.061 -1.8103 -0.6257  0.9905
 8427TIP3   OH249475   6.256   5.100   1.532  0.4620 -0.2557  0.2014
 8427TIP3    H149476   6.199   5.143   1.468 -0.0555  1.2082  1.5710
 8427TIP3    H249477   6.274   5.014   1.494 -0.7877  0.1109 -1.3428
 8428TIP3   OH249478   3.335   4.643   0.573 -0.0455  0.8901 -0.4639
 8428TIP3    H149479   3.429   4.626   0.573 -0.1410  0.3677 -0.3274
 8428TIP3    H249480   3.328   4.737   0.593  0.4037  0.7144  0.5444
 8429TIP3   OH249481   2.028   3.432   4.415  0.0066  0.0285 -0.0284
 8429TIP3    H149482   2.119   3.434   4.386 -0.2742 -0.2921 -0.9945
 8429TIP3    H249483   1.983   3.492   4.355 -0.5901 -0.6196 -0.2474
 8430TIP3   OH249484   5.118   4.406   0.829  0.0671 -0.1776  0.1748
 8430TIP3    H149485   5.150   4.376   0.744 -0.3901 -0.2041  0.0100
 8430TIP3    H249486   5.131   4.501   0.828 -2.6598  0.2759 -1.1367
 8431TIP3   OH249487   3.141   0.069   3.936 -0.2666  0.2954 -0.5473
 8431TIP3    H149488   3.203   0.074   3.863  1.1927  2.5266  0.7243
 8431TIP3    H249489   3.183   0.012   4.000 -0.1106  0.7765 -0.2157
 8432TIP3   OH249490   6.348   4.658   3.362 -0.0809  0.0251  0.4715
 8432TIP3    H149491   6.415   4.612   3.312 -0.4305  0.6060 -0.5562
 8432TIP3    H249492   6.347   4.614   3.447  1.3914 -0.1730  0.3997
 8433TIP3   OH249493   5.536   1.780   1.605 -0.1951 -0.1297  0.5951
 8433TIP3    H149494   5.553   1.866   1.643 -1.7827  0.4234  0.1484
 8433TIP3    H249495   5.572   1.718   1.668  1.1530  0.8559  0.8230
 8434TIP3   OH249496   0.020   0.358   0.677  0.8481  0.0372 -0.2526
 8434TIP3    H149497   0.096   0.401   0.716  0.3061  1.0726 -0.3013
 8434TIP3    H249498   0.037   0.264   0.689  1.4476  0.2813  1.0349
 8435TIP3   OH249499   6.619   3.765   0.528  0.8523 -0.3154 -0.0917
 8435TIP3    H149500   6.550   3.797   0.470  0.2365 -0.4665  0.5480
 8435TIP3    H249501   6.641   3.678   0.494 -1.2726 -1.5117  1.3242
 8436TIP3   OH249502   5.481   1.369   1.114  0.6798 -0.4484  0.8672
 8436TIP3    H149503   5.396   1.327   1.105 -0.0677  0.7505  1.8948
 8436TIP3    H249504   5.544   1.297   1.115 -0.3152 -1.3574  0.1639
 8437TIP3   OH249505   1.917   1.714   0.846 -0.4454  0.2800  0.4353
 8437TIP3    H149506   1.828   1.732   0.877 -1.0489 -0.4224 -0.8264
 8437TIP3    H249507   1.955   1.801   0.831 -0.6464  0.6012  1.6723
 8438TIP3   OH249508   1.428   3.770   2.063 -0.4491 -0.3665  0.3599
 8438TIP3    H149509   1.446   3.804   1.976 -0.6123 -0.4243  0.3040
 8438TIP3    H249510   1.434   3.675   2.054 -1.6769 -0.4351  0.1353
 8439TIP3   OH249511   5.904   4.577   3.063 -0.1263 -0.4888  0.0374
 8439TIP3    H149512   5.841   4.649   3.069  0.7888  0.3967 -0.7133
 8439TIP3    H249513   5.849   4.498   3.061 -1.1787  0.2149  0.1823
 8440TIP3   OH249514   4.205   1.224   1.621 -0.0714 -0.0080 -0.7689
 8440TIP3    H149515   4.117   1.189   1.626  0.3651 -1.0810 -0.1845
 8440TIP3    H249516   4.226   1.225   1.528  0.3407 -2.5477 -0.7761
 8441TIP3   OH249517   1.255   1.648   0.870 -0.3954  0.0611 -0.2013
 8441TIP3    H149518   1.288   1.718   0.926 -1.4722 -0.1103  0.6679
 8441TIP3    H249519   1.161   1.644   0.888 -0.7022 -0.2755 -1.7241
 8442TIP3   OH249520   4.848   0.833   2.144 -0.0188  0.4493 -0.0851
 8442TIP3    H149521   4.936   0.870   2.145 -0.6699  2.0831  0.5854
 8442TIP3    H249522   4.817   0.845   2.055  0.5733 -0.5188 -0.4331
 8443TIP3   OH249523   3.767   4.978   1.172 -0.1952  0.3977 -0.4861
 8443TIP3    H149524   3.683   5.016   1.149 -0.6540  0.3094  0.9318
 8443TIP3    H249525   3.748   4.887   1.194  0.2345  0.4215  0.0076
 8444TIP3   OH249526   5.183   6.599   1.824  0.4860 -0.0046 -0.0470
 8444TIP3    H149527   5.195   6.521   1.878  0.2995 -0.4789 -0.6791
 8444TIP3    H249528   5.218   6.671   1.878 -1.0698 -0.2267  1.3380
 8445TIP3   OH249529   5.896   1.736   1.221  0.4986  0.4209 -0.0517
 8445TIP3    H149530   5.922   1.800   1.287 -1.1626  0.7588  0.3159
 8445TIP3    H249531   5.914   1.779   1.137  0.6773  0.8188  0.1871
 8446TIP3   OH249532   1.957   1.264   0.713 -0.4607  0.3640 -0.5169
 8446TIP3    H149533   1.918   1.203   0.650 -0.1111 -0.1540 -0.2448
 8446TIP3    H249534   2.033   1.216   0.748 -0.7982  0.5396  0.4859
 8447TIP3   OH249535   1.716   3.426   1.482 -0.1532  0.3214 -0.5044
 8447TIP3    H149536   1.643   3.372   1.511 -0.9749 -0.0530 -3.0348
 8447TIP3    H249537   1.744   3.474   1.561 -0.4555 -2.5086  1.4472
 8448TIP3   OH249538   0.892   1.592   1.291 -0.3073 -0.1136 -0.0094
 8448TIP3    H149539   0.917   1.624   1.378  1.1223 -0.1269 -0.3801
 8448TIP3    H249540   0.799   1.573   1.298 -0.6890  1.8425  0.9378
 8449TIP3   OH249541   1.763   6.102   1.647 -0.1348  0.8221 -0.0191
 8449TIP3    H149542   1.772   6.113   1.742 -2.3274  0.3347  0.3156
 8449TIP3    H249543   1.676   6.136   1.627 -0.0780  0.0952 -1.7038
 8450TIP3   OH249544   1.714   2.019   2.694  0.3214 -0.5906  0.5507
 8450TIP3    H149545   1.789   1.965   2.667  1.0237  1.0322 -0.8924
 8450TIP3    H249546   1.638   1.974   2.657  1.0383  0.1624 -2.0252
 8451TIP3   OH249547   1.110   0.670   1.954 -1.2168  0.2765  0.0694
 8451TIP3    H149548   1.042   0.737   1.955 -1.4199  0.0979 -0.9176
 8451TIP3    H249549   1.104   0.628   2.040 -0.9698  1.6205  0.7852
 8452TIP3   OH249550   1.251   6.437   3.475 -0.1343 -0.6269 -0.2206
 8452TIP3    H149551   1.209   6.464   3.557  0.7683  0.0516  0.0354
 8452TIP3    H249552   1.178   6.413   3.418 -0.9882  1.4469 -0.1142
 8453TIP3   OH249553   6.593   5.280   1.735 -0.0836  0.5025 -0.1780
 8453TIP3    H149554   6.498   5.279   1.727 -0.0676  1.3823 -0.6686
 8453TIP3    H249555   6.623   5.314   1.651  0.6252  0.9842  0.2606
 8454TIP3   OH249556   3.930   1.526   1.235  0.1519 -0.2165 -0.4592
 8454TIP3    H149557   4.015   1.489   1.212  1.1519  0.8034  1.3967
 8454TIP3    H249558   3.878   1.450   1.260  1.3212 -0.6588  0.7381
 8455TIP3   OH249559   6.173   2.631   0.449 -0.0972 -0.4617 -0.4028
 8455TIP3    H149560   6.129   2.660   0.369 -3.3418  0.2312  1.4716
 8455TIP3    H249561   6.151   2.539   0.457  0.6662 -0.6657 -0.5141
 8456TIP3   OH249562   5.906   2.225   0.358 -0.5872 -0.2927 -0.2169
 8456TIP3    H149563   5.829   2.276   0.384 -0.5273  1.5266 -3.0811
 8456TIP3    H249564   5.887   2.199   0.268  0.7265 -2.8505  0.1660
 8457TIP3   OH249565   3.555   6.463   2.160 -0.1251  0.6099 -0.5768
 8457TIP3    H149566   3.538   6.411   2.238 -0.7129  0.0761 -1.0540
 8457TIP3    H249567   3.469   6.483   2.124  0.1562 -0.3508 -1.8694
 8458TIP3   OH249568   3.686   3.511   1.917  0.4604 -0.8824 -0.2727
 8458TIP3    H149569   3.702   3.601   1.890  0.0945 -0.9976 -0.8998
 8458TIP3    H249570   3.764   3.463   1.890  0.1620 -0.9670 -1.0002
 8459TIP3   OH249571   5.052   1.796   1.128  0.1725 -0.4236  0.6824
 8459TIP3    H149572   5.124   1.753   1.082  0.1858 -0.2823  0.5676
 8459TIP3    H249573   4.973   1.754   1.094  0.2836 -2.1833  2.4854
 8460TIP3   OH249574   2.649   4.610   1.278 -0.3409  0.0586  0.2568
 8460TIP3    H149575   2.603   4.526   1.288 -0.0508 -0.2362 -0.8049
 8460TIP3    H249576   2.636   4.634   1.186  2.3480 -0.4847 -0.3491
 8461TIP3   OH249577   1.529   6.105   2.367  0.6063 -0.0239  0.0628
 8461TIP3    H149578   1.442   6.081   2.401 -0.0097 -0.2577 -1.6013
 8461TIP3    H249579   1.578   6.133   2.445 -0.9539  0.1337  1.0335
 8462TIP3   OH249580   5.942   1.669   1.729  0.6671  0.4951 -0.9994
 8462TIP3    H149581   5.996   1.724   1.672  1.1124  0.0103 -1.0543
 8462TIP3    H249582   5.968   1.580   1.706 -1.9801  0.0975 -2.9091
 8463TIP3   OH249583   1.099   0.763   1.055 -0.2484 -0.2117 -0.2129
 8463TIP3    H149584   1.174   0.785   1.000 -0.9055  0.0539 -1.0293
 8463TIP3    H249585   1.031   0.825   1.029 -0.8356 -0.6148  0.3278
 8464TIP3   OH249586   2.563   4.797   1.474  0.2380 -0.6781 -0.0660
 8464TIP3    H149587   2.558   4.721   1.416 -0.5131 -0.2027 -0.6462
 8464TIP3    H249588   2.650   4.834   1.458  0.0514 -0.5654 -0.8815
 8465TIP3   OH249589   0.497   3.361   1.098 -0.3438 -0.8546 -0.4669
 8465TIP3    H149590   0.484   3.269   1.123  2.2827 -1.1491  0.1271
 8465TIP3    H249591   0.537   3.402   1.175 -0.9699  0.6599 -0.9119
 8466TIP3   OH249592   3.781   2.280   0.495 -0.1797 -0.0721  0.3319
 8466TIP3    H149593   3.706   2.221   0.488 -1.5715  1.8380 -1.7088
 8466TIP3    H249594   3.767   2.327   0.577 -2.5548  1.9036 -1.1017
 8467TIP3   OH249595   6.304   3.487   3.922 -0.4525  0.3713 -0.1374
 8467TIP3    H149596   6.325   3.407   3.875 -0.2491  1.3961 -1.8795
 8467TIP3    H249597   6.373   3.496   3.987  0.4026 -0.0724 -0.9643
 8468TIP3   OH249598   3.444   5.017   3.037  0.0334 -0.2057  0.0973
 8468TIP3    H149599   3.363   5.019   3.088  0.5232  0.9211  0.8623
 8468TIP3    H249600   3.414   5.022   2.946 -0.7528  1.1742  0.3884
 8469TIP3   OH249601   0.925   0.815   2.468 -0.2869  0.0051 -0.0107
 8469TIP3    H149602   0.838   0.816   2.509 -0.8819  2.5068 -1.1369
 8469TIP3    H249603   0.908   0.813   2.374  0.6869  2.5925 -0.3483
 8470TIP3   OH249604   2.411   6.278   1.032  0.5895  0.3996  0.6367
 8470TIP3    H149605   2.443   6.210   1.091 -1.3218 -0.0233  1.2763
 8470TIP3    H249606   2.395   6.354   1.088 -0.3054  0.3221  0.4955
 8471TIP3   OH249607   3.140   4.732   1.736 -0.4608  0.4310  0.1516
 8471TIP3    H149608   3.177   4.644   1.743 -1.8113 -0.1800 -0.0463
 8471TIP3    H249609   3.208   4.790   1.772  1.5284 -0.3905 -2.0271
 8472TIP3   OH249610   1.113   5.659   1.140 -0.0945 -0.0115 -0.4172
 8472TIP3    H149611   1.043   5.663   1.204  0.1771  0.4968 -0.1449
 8472TIP3    H249612   1.122   5.566   1.119  0.2070 -0.2462  0.7163
 8473TIP3   OH249613   5.035   6.424   2.084 -0.0676  0.7354 -0.4497
 8473TIP3    H149614   5.107   6.408   2.145  0.2563 -1.2254 -1.2731
 8473TIP3    H249615   5.076   6.419   1.998 -1.1301 -0.0415 -0.9186
 8474TIP3   OH249616   4.068   1.933   2.706 -0.1153  0.5190  0.5597
 8474TIP3    H149617   4.051   2.026   2.716  0.1063  0.6190  0.0521
 8474TIP3    H249618   4.077   1.920   2.612 -1.0315 -0.1807  0.5585
 8475TIP3   OH249619   1.648   3.972   2.483  0.5413  0.2035  0.0504
 8475TIP3    H149620   1.558   4.005   2.488  0.8936  1.5196 -1.4401
 8475TIP3    H249621   1.661   3.952   2.390  0.8186 -2.9845  0.6645
 8476TIP3   OH249622   0.352   6.047   2.433 -0.6876 -0.6034  0.1635
 8476TIP3    H149623   0.342   6.140   2.450  1.6199 -0.4484  0.9975
 8476TIP3    H249624   0.360   6.040   2.338 -1.8850 -0.1150  0.0011
 8477TIP3   OH249625   2.421   6.610   2.957  0.3073  0.2211 -0.2195
 8477TIP3    H149626   2.477   6.569   3.022 -0.8123 -0.0709  0.5940
 8477TIP3    H249627   2.383   6.537   2.908  1.3056  0.4422 -1.3734
 8478TIP3   OH249628   1.984   3.842   3.670  0.1846 -0.0611 -0.3223
 8478TIP3    H149629   1.982   3.759   3.718  0.6036 -0.4984 -1.0360
 8478TIP3    H249630   2.053   3.830   3.605 -0.4440  0.4749 -1.1072
 8479TIP3   OH249631   3.107   0.671   1.063  0.1678 -0.5854 -0.3318
 8479TIP3    H149632   3.091   0.685   1.156  1.6999 -1.2879  0.0734
 8479TIP3    H249633   3.166   0.596   1.060  0.4824 -0.3112 -1.8508
 8480TIP3   OH249634   5.028   5.282   2.083 -0.0152 -0.1949  0.0016
 8480TIP3    H149635   5.097   5.217   2.089  0.2603 -0.0388 -1.1244
 8480TIP3    H249636   5.026   5.306   1.990 -1.0633  0.3630  0.1461
 8481TIP3   OH249637   1.441   4.181   3.047  0.0829  0.0415  0.4529
 8481TIP3    H149638   1.499   4.257   3.049 -0.5456  0.5378 -0.0837
 8481TIP3    H249639   1.407   4.179   2.958 -0.5059 -0.4144  0.6844
 8482TIP3   OH249640   5.183   3.665   2.482 -0.2101 -0.0775  0.3176
 8482TIP3    H149641   5.183   3.728   2.554  1.8185  1.6232 -1.0517
 8482TIP3    H249642   5.227   3.588   2.517  0.2450  0.5086  1.0653
 8483TIP3   OH249643   3.845   4.688   1.523 -0.3295  0.4458 -0.5796
 8483TIP3    H149644   3.819   4.763   1.577 -1.5670 -0.7282  0.5547
 8483TIP3    H249645   3.831   4.717   1.433 -1.3056  1.4136 -0.1434
 8484TIP3   OH249646   3.974   0.648   1.250  0.2253  0.0672 -0.8913
 8484TIP3    H149647   3.881   0.637   1.231  0.3509  0.7335 -1.9217
 8484TIP3    H249648   4.014   0.668   1.166  1.4701 -1.2169 -0.6423
 8485TIP3   OH249649   4.642   4.176   3.624  0.3220  0.6054  0.4060
 8485TIP3    H149650   4.714   4.203   3.681  0.0933  0.9808  0.5194
 8485TIP3    H249651   4.564   4.184   3.678  0.3709 -1.5299  0.8651
 8486TIP3   OH249652   4.351   0.834   2.619  0.3110  0.1037  0.0452
 8486TIP3    H149653   4.296   0.788   2.556 -1.0429  1.2079  0.3831
 8486TIP3    H249654   4.323   0.925   2.614 -0.8632  0.0435  3.2115
 8487TIP3   OH249655   5.131   2.628   1.817  0.1562  0.3917  0.3063
 8487TIP3    H149656   5.094   2.673   1.892 -1.3024  2.5584 -1.5679
 8487TIP3    H249657   5.222   2.658   1.813  0.6308 -0.7088  1.8252
 8488TIP3   OH249658   1.248   2.939   1.150  0.2378 -0.3806  0.3412
 8488TIP3    H149659   1.200   2.872   1.101  1.3653 -0.4436 -0.7282
 8488TIP3    H249660   1.239   3.018   1.097  0.7055 -0.2241  0.4885
 8489TIP3   OH249661   3.734   0.433   1.600 -0.9911 -0.1126  0.4727
 8489TIP3    H149662   3.728   0.486   1.680 -2.5256 -1.7022  1.4676
 8489TIP3    H249663   3.687   0.353   1.621  0.3776 -1.4627 -1.3514
 8490TIP3   OH249664   0.637   0.363   2.389  0.4916  0.6974 -0.1650
 8490TIP3    H149665   0.555   0.404   2.363  1.5827  2.6863 -0.6642
 8490TIP3    H249666   0.650   0.391   2.480  0.4261  0.0422  0.0533
 8491TIP3   OH249667   6.453   2.203   0.986 -0.5548 -0.2239 -0.0732
 8491TIP3    H149668   6.413   2.289   0.974 -0.4929 -0.4059 -1.8633
 8491TIP3    H249669   6.429   2.154   0.908  1.6930 -0.9179 -0.4057
 8492TIP3   OH249670   4.355   6.417   1.938  0.2138  0.0793 -0.2359
 8492TIP3    H149671   4.348   6.505   1.902  0.2515  0.6564  1.1263
 8492TIP3    H249672   4.296   6.417   2.013  0.9338 -0.7546  0.3500
 8493TIP3   OH249673   2.744   6.605   0.793 -0.6581 -0.5447 -0.2819
 8493TIP3    H149674   2.824   6.588   0.744  1.4487 -0.3124  2.8148
 8493TIP3    H249675   2.712   6.689   0.758  0.9104 -0.2090 -1.0097
 8494TIP3   OH249676   6.470   4.735   0.709 -0.6552  0.0049  0.1550
 8494TIP3    H149677   6.546   4.716   0.763 -0.8934 -2.5057 -0.2671
 8494TIP3    H249678   6.505   4.775   0.629  0.0907 -0.0820  0.4390
 8495TIP3   OH249679   2.651   2.966   3.335  0.5992  0.6939  0.5678
 8495TIP3    H149680   2.582   3.019   3.294  0.7363 -0.0399 -0.6486
 8495TIP3    H249681   2.724   2.970   3.274  0.1816 -1.9000 -0.2284
 8496TIP3   OH249682   3.478   5.994   0.609  0.0480 -0.0224  0.0769
 8496TIP3    H149683   3.566   5.958   0.621 -0.3129 -1.5373 -1.4108
 8496TIP3    H249684   3.482   6.040   0.525 -0.6685 -0.4202 -0.1831
 8497TIP3   OH249685   0.509   3.918   0.857 -0.2677  0.0166  0.2371
 8497TIP3    H149686   0.427   3.897   0.812 -1.0975 -2.4072  2.6306
 8497TIP3    H249687   0.496   3.886   0.946  2.5538  1.4625  1.2748
 8498TIP3   OH249688   3.402   5.111   3.694  0.2846 -0.1718 -0.0791
 8498TIP3    H149689   3.466   5.072   3.754 -0.6643 -0.4848  0.7528
 8498TIP3    H249690   3.396   5.202   3.723 -0.0115 -0.2690  0.1761
 8499TIP3   OH249691   0.668   6.107   2.374  0.8047 -0.0397 -0.6355
 8499TIP3    H149692   0.625   6.043   2.318  1.2310 -0.4382 -0.5134
 8499TIP3    H249693   0.628   6.191   2.350  1.5879 -0.0623 -2.1513
 8500TIP3   OH249694   5.143   5.049   3.545  0.0336  0.2828 -0.1932
 8500TIP3    H149695   5.220   5.000   3.572  0.0237  0.0440 -0.5978
 8500TIP3    H249696   5.070   4.988   3.556  0.0149  0.2208 -0.6458
 8501TIP3   OH249697   6.673   5.039   1.305 -0.5735 -0.0527 -0.4706
 8501TIP3    H149698   6.619   5.022   1.227  0.3052 -0.9927 -0.8946
 8501TIP3    H249699   6.616   5.090   1.362 -2.3618 -1.9835 -0.3860
 8502TIP3   OH249700   3.294   6.120   1.547  0.4668  0.4171  0.2598
 8502TIP3    H149701   3.367   6.093   1.603  1.5440  1.8711 -0.3863
 8502TIP3    H249702   3.328   6.112   1.458 -0.1663  1.1200 -0.0476
 8503TIP3   OH249703   4.881   1.637   3.698  0.3426 -0.2521  0.5507
 8503TIP3    H149704   4.925   1.638   3.783 -0.6138  0.3595  1.0553
 8503TIP3    H249705   4.952   1.623   3.634  1.0955 -0.4913  1.4207
 8504TIP3   OH249706   0.181   2.268   0.654  0.0201  0.7323  0.1269
 8504TIP3    H149707   0.170   2.325   0.578  0.0867  2.2885  1.2401
 8504TIP3    H249708   0.267   2.229   0.643 -0.6173 -0.3350 -1.3861
 8505TIP3   OH249709   3.835   2.740   1.101 -0.2744  0.0306  0.0947
 8505TIP3    H149710   3.815   2.820   1.149  1.3463  0.8012 -0.4526
 8505TIP3    H249711   3.770   2.737   1.031 -1.2792  0.0542  1.0021
 8506TIP3   OH249712   0.333   6.462   0.980  0.0143  0.2062  0.0310
 8506TIP3    H149713   0.254   6.498   1.020 -1.0414 -1.1531 -0.7024
 8506TIP3    H249714   0.403   6.482   1.042 -1.2946 -0.5468  1.8782
 8507TIP3   OH249715   1.457   0.709   4.075  0.0579  0.2548 -0.0445
 8507TIP3    H149716   1.416   0.700   4.161 -1.3352  0.0041 -0.6983
 8507TIP3    H249717   1.425   0.792   4.041  0.8368  0.4956 -0.2080
 8508TIP3   OH249718   2.609   3.475   4.027  0.7945 -0.3345 -0.0563
 8508TIP3    H149719   2.703   3.464   4.041  0.7377 -1.3510 -0.4535
 8508TIP3    H249720   2.569   3.444   4.108  0.7684 -0.6208 -0.1766
 8509TIP3   OH249721   3.983   1.734   1.464 -0.0527 -0.7834 -0.0196
 8509TIP3    H149722   4.065   1.694   1.434  0.1569 -1.3116  1.1898
 8509TIP3    H249723   3.934   1.662   1.504 -0.0492 -0.0261  1.4107
 8510TIP3   OH249724   1.598   1.923   3.539 -0.0320 -0.5628 -0.6431
 8510TIP3    H149725   1.646   1.841   3.547 -0.0310 -0.5739 -0.7540
 8510TIP3    H249726   1.527   1.903   3.477 -1.3562 -1.0866  0.9909
 8511TIP3   OH249727   0.387   4.573   0.913 -0.8868 -0.1521 -0.2616
 8511TIP3    H149728   0.332   4.523   0.852  0.2673 -2.5091  0.5148
 8511TIP3    H249729   0.459   4.605   0.859  0.7227 -3.1551 -0.0875
 8512TIP3   OH249730   1.118   4.886   1.384 -0.1695 -0.0035  0.2215
 8512TIP3    H149731   1.213   4.897   1.391 -0.2689  1.0865  0.0196
 8512TIP3    H249732   1.107   4.805   1.335  0.6322 -1.1779  1.8636
 8513TIP3   OH249733   2.995   3.635   1.854 -0.0459  0.4017 -0.4143
 8513TIP3    H149734   2.961   3.651   1.766 -0.9241  1.4009  0.0882
 8513TIP3    H249735   3.067   3.573   1.840  0.0424  0.7762 -1.8683
 8514TIP3   OH249736   0.706   5.215   2.201  0.2672 -0.2062 -0.3895
 8514TIP3    H149737   0.660   5.299   2.197  0.8684  0.1618  0.2174
 8514TIP3    H249738   0.747   5.214   2.287 -0.1629 -1.3624 -0.1898
 8515TIP3   OH249739   4.252   1.122   2.163 -0.9720 -0.2992 -0.3355
 8515TIP3    H149740   4.164   1.089   2.143 -0.2116 -1.7003 -1.4886
 8515TIP3    H249741   4.301   1.110   2.083  0.7423 -1.0520  0.7780
 8516TIP3   OH249742   0.398   3.305   0.639  0.0180  0.1668  0.4582
 8516TIP3    H149743   0.325   3.349   0.685  0.5696  2.2313 -0.5039
 8516TIP3    H249744   0.460   3.284   0.709 -0.5435  0.3652  1.0349
 8517TIP3   OH249745   2.460   0.200   0.734  0.2691  0.1879 -0.7643
 8517TIP3    H149746   2.392   0.193   0.667  1.6075 -2.0853 -1.9927
 8517TIP3    H249747   2.417   0.172   0.815 -0.7145  0.5592 -1.1466
 8518TIP3   OH249748   0.429   0.151   1.208 -0.4110 -0.1136 -0.0704
 8518TIP3    H149749   0.523   0.162   1.195 -0.3907 -0.6731 -0.4064
 8518TIP3    H249750   0.391   0.160   1.120 -0.6133 -0.5030 -0.0230
 8519TIP3   OH249751   3.773   1.772   1.253 -0.1431 -0.5555  0.0747
 8519TIP3    H149752   3.810   1.854   1.219  1.2224  0.0321  2.7520
 8519TIP3    H249753   3.846   1.710   1.253 -0.9611 -1.5682 -1.1314
 8520TIP3   OH249754   0.631   3.220   3.647  0.4599  1.0077  0.3699
 8520TIP3    H149755   0.640   3.157   3.718  0.0548  0.0226 -0.4221
 8520TIP3    H249756   0.716   3.263   3.642  1.1737 -0.3522  0.1476
 8521TIP3   OH249757   0.838   2.061   4.011  0.5801  0.2640 -0.5099
 8521TIP3    H149758   0.764   2.054   3.951 -2.0410 -3.5497  2.6860
 8521TIP3    H249759   0.813   2.131   4.072  0.4281  0.1240 -0.4123
 8522TIP3   OH249760   3.857   2.500   2.815 -0.6608  0.1003 -0.2702
 8522TIP3    H149761   3.901   2.487   2.899  0.0883  2.4377 -0.2343
 8522TIP3    H249762   3.777   2.449   2.822 -0.2277 -0.3933  1.5603
 8523TIP3   OH249763   3.365   1.427   1.355 -0.1179 -0.1738  0.1089
 8523TIP3    H149764   3.452   1.440   1.318  0.0238  0.7160  0.7189
 8523TIP3    H249765   3.345   1.335   1.338  0.3777 -0.0672 -1.2117
 8524TIP3   OH249766   0.904   2.771   1.768 -0.0077 -0.1297 -0.2382
 8524TIP3    H149767   0.964   2.799   1.837  1.1169 -1.8725 -0.4439
 8524TIP3    H249768   0.953   2.788   1.687 -0.5243  0.0742 -0.5087
 8525TIP3   OH249769   5.582   1.669   2.480 -0.0350 -0.6541 -0.0573
 8525TIP3    H149770   5.658   1.727   2.490  0.1249 -0.8600 -0.0846
 8525TIP3    H249771   5.521   1.699   2.548 -0.9742  1.1410 -1.5982
 8526TIP3   OH249772   4.859   2.299   0.798 -0.1529 -0.7197 -0.4687
 8526TIP3    H149773   4.896   2.214   0.818 -0.4411 -0.9767 -1.0067
 8526TIP3    H249774   4.892   2.320   0.711 -0.8767 -0.7416 -0.7631
 8527TIP3   OH249775   6.653   5.638   0.587  0.3427  0.0897  0.2517
 8527TIP3    H149776   6.733   5.691   0.580  0.0784  0.3892 -0.7827
 8527TIP3    H249777   6.677   5.555   0.547  1.5080 -1.5886  3.9980
 8528TIP3   OH249778   1.427   2.722   1.865 -0.3093  0.1676  0.9648
 8528TIP3    H149779   1.388   2.672   1.793  1.0891  0.2380  0.1199
 8528TIP3    H249780   1.516   2.742   1.835 -0.3672  1.9886  1.8491
 8529TIP3   OH249781   5.112   1.917   2.488  0.3907  0.6175 -0.4639
 8529TIP3    H149782   5.200   1.889   2.511  0.0972 -2.1555 -2.2566
 8529TIP3    H249783   5.121   1.960   2.403 -0.0232 -0.3268 -1.0067
 8530TIP3   OH249784   1.898   1.847   2.615  0.0726 -0.1262  0.0637
 8530TIP3    H149785   1.932   1.795   2.688 -1.1701 -0.4555  0.4290
 8530TIP3    H249786   1.931   1.803   2.537 -1.3922 -1.8506  0.3422
 8531TIP3   OH249787   1.358   2.643   2.690  0.0877  0.3697  0.2902
 8531TIP3    H149788   1.301   2.713   2.659 -0.1922 -0.1290 -0.3269
 8531TIP3    H249789   1.447   2.677   2.677 -0.0530  0.9091  0.7012
 8532TIP3   OH249790   5.812   2.326   2.707  0.7805 -0.4634 -0.3932
 8532TIP3    H149791   5.799   2.248   2.760  0.8381  0.3589  0.8918
 8532TIP3    H249792   5.733   2.331   2.652 -0.1672 -0.3741  0.9151
 8533TIP3   OH249793   2.582   3.354   2.152  0.1399 -0.4031  0.3029
 8533TIP3    H149794   2.587   3.374   2.059 -1.9051  0.0120  0.2312
 8533TIP3    H249795   2.488   3.347   2.170  0.4997 -0.7821  2.2684
 8534TIP3   OH249796   4.004   3.694   2.471  0.6442 -0.2440  0.5838
 8534TIP3    H149797   3.964   3.609   2.457  1.1849 -0.5371  0.7861
 8534TIP3    H249798   3.986   3.716   2.562 -2.1189  1.2661 -0.2266
 8535TIP3   OH249799   4.340   5.858   1.526  0.0436 -0.0891 -0.5789
 8535TIP3    H149800   4.329   5.899   1.612 -1.8276  1.1150 -1.3373
 8535TIP3    H249801   4.251   5.849   1.492  0.7188 -0.9706 -2.2137
 8536TIP3   OH249802   1.935   2.453   1.084 -0.2712 -0.1571  0.1940
 8536TIP3    H149803   2.030   2.452   1.077 -0.2134 -0.6406  0.9768
 8536TIP3    H249804   1.910   2.541   1.054  0.4204  0.0013  0.0649
 8537TIP3   OH249805   4.386   6.566   3.466 -0.2645 -0.1467 -0.3523
 8537TIP3    H149806   4.421   6.554   3.554  0.9239  0.7051 -0.6822
 8537TIP3    H249807   4.296   6.533   3.471  0.3745 -1.8432  0.6844
 8538TIP3   OH249808   0.950   1.319   1.555  0.2140 -0.0555 -0.0436
 8538TIP3    H149809   0.919   1.344   1.468  0.4358 -0.2132 -0.1696
 8538TIP3    H249810   0.918   1.230   1.568 -1.0622  0.4876  0.6433
 8539TIP3   OH249811   2.540   2.924   4.093  0.2180  0.2389  0.3896
 8539TIP3    H149812   2.576   2.841   4.124  1.0236  0.4184 -0.0186
 8539TIP3    H249813   2.547   2.983   4.168 -0.4234 -0.0765  0.7030
 8540TIP3   OH249814   1.360   5.960   1.341 -0.4959  0.4567  0.6402
 8540TIP3    H149815   1.451   5.943   1.364 -0.5229  1.1648  1.2906
 8540TIP3    H249816   1.335   5.885   1.287 -0.3584 -1.1918  2.7279
 8541TIP3   OH249817   3.223   3.114   1.221  0.1528 -0.3751 -0.7870
 8541TIP3    H149818   3.237   3.020   1.233 -1.2029 -0.3176  2.2139
 8541TIP3    H249819   3.131   3.121   1.195  0.2273  0.1174 -0.9234
 8542TIP3   OH249820   3.407   1.746   2.005 -0.3094  0.5431 -0.1947
 8542TIP3    H149821   3.475   1.813   1.993  0.2470  0.4619  2.0076
 8542TIP3    H249822   3.325   1.793   1.991  0.0984  1.5409  0.5835
 8543TIP3   OH249823   6.393   1.693   3.589  0.0577 -0.3618  0.2723
 8543TIP3    H149824   6.346   1.640   3.526  0.0443  0.2065 -0.2035
 8543TIP3    H249825   6.331   1.703   3.662 -0.3312 -0.1429 -0.0788
 8544TIP3   OH249826   1.468   5.791   2.351  0.6088 -0.0359 -0.4834
 8544TIP3    H149827   1.384   5.767   2.311  1.0882  0.3573 -1.7474
 8544TIP3    H249828   1.496   5.868   2.303  1.5990 -0.0249  0.0944
 8545TIP3   OH249829   4.546   0.788   3.645 -0.3988 -0.0727  0.7718
 8545TIP3    H149830   4.501   0.813   3.725 -0.3583 -1.0482  1.1176
 8545TIP3    H249831   4.604   0.716   3.671 -0.5116 -0.5215 -0.1520
 8546TIP3   OH249832   3.303   3.681   1.972  0.0552  0.3826 -0.2577
 8546TIP3    H149833   3.320   3.671   1.879 -1.6372 -1.5654 -0.4261
 8546TIP3    H249834   3.385   3.717   2.008  1.5718 -1.0252 -2.1220
 8547TIP3   OH249835   6.334   4.885   1.365  0.1877 -0.2364  0.2827
 8547TIP3    H149836   6.252   4.836   1.370  1.3565 -2.9160 -2.9097
 8547TIP3    H249837   6.383   4.857   1.442 -1.0044 -0.3858  1.0090
 8548TIP3   OH249838   4.613   2.614   2.648  0.4519 -0.0198 -0.1097
 8548TIP3    H149839   4.655   2.693   2.616  0.7149 -0.0221  0.2321
 8548TIP3    H249840   4.519   2.633   2.644  0.5143  0.2957 -0.0525
 8549TIP3   OH249841   1.601   3.968   3.149  0.0111 -0.0384  0.0967
 8549TIP3    H149842   1.648   3.973   3.232 -0.2337  1.8885  0.1461
 8549TIP3    H249843   1.549   4.048   3.146 -1.5046 -1.0203 -1.0202
 8550TIP3   OH249844   0.242   6.503  10.828 -0.2691 -0.1103 -0.0267
 8550TIP3    H149845   0.214   6.481  10.740 -0.2512  0.1060 -0.0881
 8550TIP3    H249846   0.317   6.562  10.815 -0.1246 -0.2571  0.1329
 8551TIP3   OH249847   0.142   0.825   2.498 -0.0292  0.2752 -0.4549
 8551TIP3    H149848   0.071   0.783   2.450  1.1312 -0.2539 -1.7833
 8551TIP3    H249849   0.151   0.911   2.459  1.1166 -0.2664 -1.4561
 8552TIP3   OH249850   0.164   5.992   1.362 -0.1141 -0.6392  0.0303
 8552TIP3    H149851   0.117   5.952   1.288 -1.6024 -1.1485  1.1849
 8552TIP3    H249852   0.097   6.002   1.429  0.8070  1.4760  0.6958
 8553TIP3   OH249853   6.505   4.070   4.696 -0.2384 -0.1061 -0.9866
 8553TIP3    H149854   6.475   4.117   4.618  0.2652  1.2939 -0.3725
 8553TIP3    H249855   6.600   4.061   4.683 -0.1355  0.2310 -0.4962
 8554TIP3   OH249856   6.080   0.585   1.521 -0.5549 -0.1362 -0.0061
 8554TIP3    H149857   6.158   0.530   1.525 -0.6221 -0.3043 -0.7805
 8554TIP3    H249858   6.013   0.534   1.566 -0.8463 -1.1206 -1.4623
 8555TIP3   OH249859   6.611   1.849   3.036 -0.4673  0.2288 -0.0477
 8555TIP3    H149860   6.559   1.810   3.106  0.1247  0.6363  0.6467
 8555TIP3    H249861   6.664   1.778   3.002 -0.8941 -0.0129 -0.2097
 8556TIP3   OH249862   6.228   4.951   3.411  0.3908 -0.4169 -0.0101
 8556TIP3    H149863   6.262   4.882   3.354 -0.2128 -0.7081 -0.0265
 8556TIP3    H249864   6.170   4.905   3.472 -1.2328  0.2468 -0.9724
 8557TIP3   OH249865   5.085   2.708   2.094 -0.0617 -0.0076  0.6048
 8557TIP3    H149866   5.094   2.721   2.188 -0.4188 -0.4922  0.7126
 8557TIP3    H249867   5.010   2.762   2.069 -0.9247 -1.0487  0.8769
 8558TIP3   OH249868   0.951   4.823   2.356  0.7286  0.0567 -0.1836
 8558TIP3    H149869   0.974   4.916   2.355 -0.3222  0.3587 -2.3778
 8558TIP3    H249870   1.035   4.778   2.367  1.6487  1.2307 -1.8808
 8559TIP3   OH249871   6.075   5.907   1.457  0.2008  0.0567 -0.1670
 8559TIP3    H149872   6.085   5.819   1.493  1.6168 -0.0733 -0.8177
 8559TIP3    H249873   6.158   5.924   1.412 -1.0233  0.7120 -2.2849
 8560TIP3   OH249874   0.527   4.185   3.264  0.2530 -0.1409 -0.0498
 8560TIP3    H149875   0.492   4.246   3.329  1.9266  0.5823  0.2323
 8560TIP3    H249876   0.578   4.122   3.315  0.6276 -0.2605 -0.5620
 8561TIP3   OH249877   1.189   6.518   2.177 -0.3892 -0.7022  0.1740
 8561TIP3    H149878   1.205   6.455   2.247 -0.2176 -1.1245 -0.2416
 8561TIP3    H249879   1.123   6.577   2.213 -0.0060 -0.6641  0.8479
 8562TIP3   OH249880   2.699   0.268  10.984  1.0603  0.8202 -0.0360
 8562TIP3    H149881   2.685   0.192  11.040  0.6121 -0.1711 -1.4143
 8562TIP3    H249882   2.792   0.263  10.959  0.5843 -0.5429 -1.7786
 8563TIP3   OH249883   1.677   1.680   3.140 -0.5056 -0.3125  0.9335
 8563TIP3    H149884   1.637   1.722   3.064  1.6830  1.7126  0.7808
 8563TIP3    H249885   1.655   1.587   3.131 -1.3006  0.0521 -1.5302
 8564TIP3   OH249886   5.279   2.568   3.420  0.2211 -0.6899  0.4748
 8564TIP3    H149887   5.230   2.624   3.360  1.7613 -0.9204 -1.0795
 8564TIP3    H249888   5.263   2.606   3.507 -1.4246  0.1335 -0.1462
 8565TIP3   OH249889   4.606   5.455   1.017 -0.2803 -0.2321 -0.1581
 8565TIP3    H149890   4.679   5.442   1.078  2.3349  1.2696 -2.6955
 8565TIP3    H249891   4.532   5.479   1.073  1.0816 -1.8416  2.5698
 8566TIP3   OH249892   5.057   0.039   1.616  0.0535  0.2163 -0.5771
 8566TIP3    H149893   5.023  -0.044   1.583 -0.5285 -0.0365  0.6004
 8566TIP3    H249894   5.127   0.014   1.675  0.9871  0.6575 -1.4662
 8567TIP3   OH249895   1.197   2.847   3.502 -0.5951  0.2215 -0.4129
 8567TIP3    H149896   1.171   2.756   3.490 -0.2876  0.0344  0.2649
 8567TIP3    H249897   1.128   2.898   3.460 -1.4149 -0.2915  0.2881
 8568TIP3   OH249898   2.286   5.199   2.395  0.1807  0.6836  0.1818
 8568TIP3    H149899   2.357   5.138   2.375 -2.2126 -2.2072 -0.0608
 8568TIP3    H249900   2.238   5.208   2.312 -1.4964  0.0654  1.0381
 8569TIP3   OH249901   6.456   1.979   2.808 -0.2557  0.0691  0.2160
 8569TIP3    H149902   6.491   2.045   2.747  0.9226  0.0193  0.8028
 8569TIP3    H249903   6.529   1.962   2.868 -1.1882 -0.3342  1.2644
 8570TIP3   OH249904   4.676   3.269   3.104  0.2567  0.6157  0.0935
 8570TIP3    H149905   4.608   3.332   3.080  1.9706  2.6723  0.4303
 8570TIP3    H249906   4.664   3.257   3.199 -0.5348 -0.2163 -0.0871
 8571TIP3   OH249907   0.206   3.551   4.237  0.2577 -0.3195  1.0552
 8571TIP3    H149908   0.118   3.579   4.262  0.1223 -0.0743  0.3440
 8571TIP3    H249909   0.217   3.466   4.280 -0.6677 -0.7520  0.4738
 8572TIP3   OH249910   0.844   2.503   1.889 -0.0436 -0.3967 -0.0704
 8572TIP3    H149911   0.888   2.576   1.846  0.5610  0.3473  1.6816
 8572TIP3    H249912   0.760   2.495   1.845  0.1357  0.9533 -0.6981
 8573TIP3   OH249913   5.946   6.421   1.452  0.5211  0.6867 -0.6705
 8573TIP3    H149914   5.958   6.332   1.487  2.9725  0.9527 -0.6639
 8573TIP3    H249915   5.890   6.409   1.376 -2.3446 -0.3216  1.4371
 8574TIP3   OH249916   2.786   0.938   2.202 -0.3832 -0.0140  0.6564
 8574TIP3    H149917   2.761   0.889   2.124 -2.9636  0.5188  1.0401
 8574TIP3    H249918   2.736   1.020   2.196  1.3135  1.1626  1.6290
 8575TIP3   OH249919   4.506   6.543   1.644 -0.6436 -0.1613  0.4195
 8575TIP3    H149920   4.447   6.472   1.621 -1.4885 -0.6751  3.6130
 8575TIP3    H249921   4.593   6.505   1.638 -0.8753 -0.5106 -0.8554
 8576TIP3   OH249922   2.401   3.935   1.974  0.6376 -0.2800  0.4738
 8576TIP3    H149923   2.416   3.853   1.927 -1.3035 -1.2095  1.3247
 8576TIP3    H249924   2.489   3.966   1.998  1.4839 -1.3400 -1.1076
 8577TIP3   OH249925   3.780   6.633   2.399  0.1016 -0.0200 -0.2235
 8577TIP3    H149926   3.692   6.629   2.362 -0.3331  0.1017  0.7494
 8577TIP3    H249927   3.767   6.669   2.487  1.3846  2.3350 -0.9047
 8578TIP3   OH249928   0.765   4.599   2.365 -0.3532 -0.0997 -0.1034
 8578TIP3    H149929   0.812   4.524   2.402 -0.5601 -0.0130  0.3327
 8578TIP3    H249930   0.828   4.670   2.366 -1.0647  0.5791  2.3592
 8579TIP3   OH249931   0.148   0.185   1.172  0.1018 -0.3121  0.3281
 8579TIP3    H149932   0.171   0.278   1.169  0.3962 -0.3420  1.2687
 8579TIP3    H249933   0.093   0.177   1.250 -0.2541 -0.8566  0.0264
 8580TIP3   OH249934   4.899   4.211   2.514  1.0412  0.3599  0.0942
 8580TIP3    H149935   4.889   4.193   2.421  2.1190  0.8896 -0.1448
 8580TIP3    H249936   4.941   4.133   2.550 -1.2561 -0.7243  0.5704
 8581TIP3   OH249937   1.884   4.795   3.925 -0.7413  0.5613 -0.5813
 8581TIP3    H149938   1.927   4.865   3.974 -0.3194 -1.6648  2.5445
 8581TIP3    H249939   1.790   4.814   3.933 -0.6887  0.2350  1.2743
 8582TIP3   OH249940   2.729   5.650   1.097  0.1547  0.0043 -0.0023
 8582TIP3    H149941   2.817   5.679   1.073  0.0931  0.9429  0.8527
 8582TIP3    H249942   2.675   5.729   1.093 -0.5422 -0.4579  0.0156
 8583TIP3   OH249943   4.580   4.169   2.469 -0.6195  0.5858 -0.3442
 8583TIP3    H149944   4.634   4.217   2.406  0.7086 -0.7029 -0.2384
 8583TIP3    H249945   4.633   4.093   2.494 -2.0367 -0.1393  0.6307
 8584TIP3   OH249946   6.449   4.481   0.850  0.4061  0.0496  0.4592
 8584TIP3    H149947   6.367   4.443   0.882 -0.4633  1.3133 -0.2048
 8584TIP3    H249948   6.429   4.573   0.835  1.7252  0.2085 -0.4931
 8585TIP3   OH249949   3.126   4.022   3.239 -0.4614  0.3311 -0.3532
 8585TIP3    H149950   3.094   3.952   3.296  1.4768  1.0342  1.7219
 8585TIP3    H249951   3.205   3.987   3.199 -1.1191  0.3018 -1.6748
 8586TIP3   OH249952   6.331   6.163   1.787 -0.1044  0.3854 -0.2046
 8586TIP3    H149953   6.250   6.111   1.783  0.2875 -0.1323 -2.3561
 8586TIP3    H249954   6.379   6.126   1.861 -2.3034  1.5269  1.9876
 8587TIP3   OH249955   0.617   5.143   3.805  0.1746  0.2242  0.2213
 8587TIP3    H149956   0.625   5.111   3.895  1.1249  1.6308  0.6688
 8587TIP3    H249957   0.651   5.232   3.808 -0.1160  0.4256 -1.4723
 8588TIP3   OH249958   0.363   1.915   0.376 -0.0481 -0.6127 -0.3215
 8588TIP3    H149959   0.308   1.846   0.413 -0.2819 -0.2589 -0.0073
 8588TIP3    H249960   0.449   1.900   0.416  0.3370 -1.7138 -1.4885
 8589TIP3   OH249961   5.487   6.118   2.434 -0.0457 -0.1687 -0.4247
 8589TIP3    H149962   5.504   6.137   2.526  1.1509  0.4806 -0.7528
 8589TIP3    H249963   5.505   6.024   2.425 -0.9140 -0.3999  0.1466
 8590TIP3   OH249964   0.953   0.735   1.317  0.2862 -0.0510 -0.6248
 8590TIP3    H149965   0.874   0.787   1.310 -0.0536 -0.3876  0.5747
 8590TIP3    H249966   0.991   0.737   1.228 -0.4759  1.0022 -0.9415
 8591TIP3   OH249967   3.936   6.647   1.803 -0.2540  0.2333  0.4065
 8591TIP3    H149968   3.945   6.725   1.747 -0.3329 -1.1531 -1.6674
 8591TIP3    H249969   3.859   6.665   1.856 -1.2976  0.9237 -1.2376
 8592TIP3   OH249970   0.872   4.496   1.601  0.5409  0.5115  0.0482
 8592TIP3    H149971   0.927   4.489   1.523  0.2380  0.8748 -0.2065
 8592TIP3    H249972   0.791   4.452   1.577  2.0265 -3.6576  1.7547
 8593TIP3   OH249973   4.696   4.059   1.222  0.7655  0.2608 -0.1175
 8593TIP3    H149974   4.733   4.118   1.287 -1.3916  2.9250 -1.1045
 8593TIP3    H249975   4.745   4.078   1.142 -0.3250  1.2209 -0.5822
 8594TIP3   OH249976   5.205   3.427   3.033  0.1874  0.3690 -0.1338
 8594TIP3    H149977   5.121   3.410   2.990 -0.5173  3.5204 -0.1959
 8594TIP3    H249978   5.267   3.441   2.961 -0.0956  1.6638 -0.1475
 8595TIP3   OH249979   5.811   4.364   4.107 -0.0088 -0.2783 -0.2944
 8595TIP3    H149980   5.904   4.344   4.091  0.1367  0.8493 -0.9504
 8595TIP3    H249981   5.804   4.458   4.093 -1.5366 -0.5554 -1.7416
 8596TIP3   OH249982   4.034   5.261   2.918 -0.0276 -0.7479 -0.1062
 8596TIP3    H149983   4.070   5.192   2.974  1.0969 -1.5646 -1.7452
 8596TIP3    H249984   3.974   5.216   2.859  1.6315 -0.6437 -2.0101
 8597TIP3   OH249985   4.841   3.110   1.314 -0.1004 -0.2542 -0.0165
 8597TIP3    H149986   4.783   3.157   1.374 -0.7342 -0.1101 -0.7296
 8597TIP3    H249987   4.889   3.179   1.269 -1.3890 -0.2124 -1.4272
 8598TIP3   OH249988   2.482   4.464   3.108 -0.0634 -0.3231 -0.5112
 8598TIP3    H149989   2.466   4.441   3.199 -0.0269 -1.5148 -0.7917
 8598TIP3    H249990   2.539   4.541   3.112 -0.3879 -0.1290  0.4642
 8599TIP3   OH249991   4.586   6.328   3.325 -0.3153  0.4229  0.2316
 8599TIP3    H149992   4.493   6.315   3.307  0.1343 -1.4781 -1.0025
 8599TIP3    H249993   4.603   6.277   3.404 -0.1970  0.3114  0.1336
 8600TIP3   OH249994   3.606   1.745   2.589  0.0832 -0.1479 -0.1206
 8600TIP3    H149995   3.591   1.767   2.497  0.3134 -2.0471 -0.6319
 8600TIP3    H249996   3.686   1.693   2.590  2.0424  2.5678  1.5932
 8601TIP3   OH249997   4.206   2.443   2.006 -0.0313 -0.0437  0.0218
 8601TIP3    H149998   4.287   2.495   2.007  0.8551 -1.3850  0.5098
 8601TIP3    H249999   4.174   2.450   1.916  0.7722  0.2806 -0.2463
 8602TIP3   OH250000   2.856   3.281   1.011  0.2072 -0.3027  0.4331
 8602TIP3    H150001   2.889   3.320   1.092 -1.1907 -0.0946  0.9426
 8602TIP3    H250002   2.761   3.286   1.020  0.0258 -1.0377 -0.8682
 8603TIP3   OH250003   4.449   2.429   3.123  0.5362  0.3370 -0.3311
 8603TIP3    H150004   4.498   2.415   3.042  0.8562  0.3448 -0.1393
 8603TIP3    H250005   4.357   2.422   3.096  0.6519 -1.1734 -0.4244
 8604TIP3   OH250006   6.113   2.289   1.477 -0.0792  0.2839  0.0167
 8604TIP3    H150007   6.204   2.303   1.504  0.1522 -1.8216  0.5206
 8604TIP3    H250008   6.120   2.257   1.387 -0.4954  2.1010 -0.6925
 8605TIP3   OH250009   5.418   4.907   3.018  0.7997 -0.3575 -0.6045
 8605TIP3    H150010   5.366   4.871   2.945 -0.3744  0.8923 -0.4228
 8605TIP3    H250011   5.425   4.835   3.080  0.7355 -1.0667 -1.4052
 8606TIP3   OH250012   1.103   3.493   3.772 -0.0298 -0.1553  0.4799
 8606TIP3    H150013   1.133   3.403   3.773  0.8476  0.1204  2.0718
 8606TIP3    H250014   1.181   3.545   3.755 -0.2913  0.3623  0.8081
 8607TIP3   OH250015   4.194   0.363   2.593 -0.4256 -0.5692 -0.7229
 8607TIP3    H150016   4.245   0.309   2.533 -2.0606  1.1020 -3.8726
 8607TIP3    H250017   4.103   0.334   2.580 -0.9126  0.3944  0.3427
 8608TIP3   OH250018   3.286   4.842   1.969 -0.2629 -0.3383  0.0206
 8608TIP3    H150019   3.329   4.866   2.051 -2.6071 -1.5342  1.7254
 8608TIP3    H250020   3.278   4.746   1.973 -0.8894 -0.3738 -1.3698
 8609TIP3   OH250021   5.019   3.141   0.715  0.0068 -0.1669 -0.4871
 8609TIP3    H150022   5.026   3.206   0.645 -0.6768 -2.1555 -2.5515
 8609TIP3    H250023   4.988   3.190   0.791  0.2059  2.0062 -1.7226
 8610TIP3   OH250024   3.148   1.323   1.937  0.8077  0.8494 -0.1872
 8610TIP3    H150025   3.158   1.228   1.946  2.3970  0.9811 -0.3377
 8610TIP3    H250026   3.055   1.336   1.920  0.1286 -0.4951  2.1168
 8611TIP3   OH250027   1.163   5.064   1.028 -0.4262 -0.1550 -0.0412
 8611TIP3    H150028   1.245   5.029   1.062 -0.2297  0.4189  0.0773
 8611TIP3    H250029   1.103   4.989   1.030 -0.3857 -0.1814  1.4383
 8612TIP3   OH250030   2.356   4.206   3.540 -0.4590 -0.2842 -0.4456
 8612TIP3    H150031   2.322   4.226   3.627 -2.3990 -0.1591 -1.1954
 8612TIP3    H250032   2.380   4.114   3.545 -0.6293 -0.3010  0.1952
 8613TIP3   OH250033   5.487   0.281   1.406  0.5588 -0.3828 -0.5122
 8613TIP3    H150034   5.472   0.254   1.497 -1.2525 -0.4622 -0.8079
 8613TIP3    H250035   5.475   0.201   1.355 -0.3884  0.0615 -0.9948
 8614TIP3   OH250036   6.536   0.703   2.978  0.7265  0.4472  0.1793
 8614TIP3    H150037   6.611   0.699   2.919  0.9688 -0.3519  0.5183
 8614TIP3    H250038   6.553   0.779   3.034  1.6478 -0.1287  0.7065
 8615TIP3   OH250039   5.521   2.123   2.431 -0.0912 -0.5802  0.3054
 8615TIP3    H150040   5.482   2.155   2.350  1.3090  0.4297 -0.0011
 8615TIP3    H250041   5.470   2.044   2.452  0.3357 -1.6634 -2.2668
 8616TIP3   OH250042   4.918   0.237   1.118 -0.0475 -0.3345  0.9752
 8616TIP3    H150043   5.013   0.228   1.119 -0.1305 -1.3428  1.0443
 8616TIP3    H250044   4.886   0.159   1.164 -0.9595 -1.0658 -0.7914
 8617TIP3   OH250045   6.190   3.925   3.200  0.0299 -0.0054 -0.1911
 8617TIP3    H150046   6.137   3.920   3.120 -0.2320  0.3214 -0.0379
 8617TIP3    H250047   6.243   4.003   3.189  1.7244 -1.2218 -1.0997
 8618TIP3   OH250048   2.175   5.145   3.511  0.0601 -0.3247  0.3865
 8618TIP3    H150049   2.189   5.057   3.546  1.9085 -0.4507 -0.4989
 8618TIP3    H250050   2.113   5.133   3.440  0.5833 -1.0091  0.0286
 8619TIP3   OH250051   3.021   1.794   1.168 -0.1391 -0.0141 -0.1228
 8619TIP3    H150052   2.947   1.830   1.217 -0.9325 -0.4034 -1.0130
 8619TIP3    H250053   3.011   1.699   1.175 -0.6008 -0.0870 -1.5047
 8620TIP3   OH250054   5.309   3.195   2.014  0.1061 -0.8829 -0.3543
 8620TIP3    H150055   5.329   3.233   1.929  0.9437 -1.8880 -0.6319
 8620TIP3    H250056   5.366   3.119   2.021  0.0213 -0.8565  1.0963
 8621TIP3   OH250057   5.106   5.431   1.342  0.3672 -0.2764  0.4628
 8621TIP3    H150058   5.192   5.441   1.303  0.9777 -0.3246  1.7405
 8621TIP3    H250059   5.056   5.379   1.279  0.2976  2.1689 -1.6872
 8622TIP3   OH250060   1.709   4.317   3.901 -0.2210  0.4480  0.0133
 8622TIP3    H150061   1.696   4.343   3.992 -0.0640 -0.7134  0.3711
 8622TIP3    H250062   1.627   4.340   3.858 -0.6158  0.2078  0.6311
 8623TIP3   OH250063   5.379   1.684   3.573 -0.0254  0.6375 -0.2007
 8623TIP3    H150064   5.407   1.593   3.575  1.6672  1.1029 -0.6418
 8623TIP3    H250065   5.283   1.681   3.571  0.0218 -1.1212 -0.8505
 8624TIP3   OH250066   4.413   0.682   1.975  0.1653  0.3724 -0.5811
 8624TIP3    H150067   4.367   0.720   2.050 -0.6772  0.6241 -1.2076
 8624TIP3    H250068   4.445   0.598   2.006 -3.8603 -1.5908 -1.0674
 8625TIP3   OH250069   2.633   4.737   3.748  0.3555  0.7825  0.0200
 8625TIP3    H150070   2.622   4.733   3.843 -0.9783  1.0935 -0.0969
 8625TIP3    H250071   2.558   4.788   3.718 -1.3139 -2.3277 -1.5306
 8626TIP3   OH250072   4.445   3.455   3.114  0.7403  0.0085 -0.0657
 8626TIP3    H150073   4.385   3.432   3.185 -2.1260  1.9488 -1.6216
 8626TIP3    H250074   4.510   3.513   3.154  0.9917 -1.2987  1.4915
 8627TIP3   OH250075   6.686   2.653   1.064  0.2994 -0.6530  0.2727
 8627TIP3    H150076   6.721   2.671   0.977 -2.0420 -0.1976 -0.6563
 8627TIP3    H250077   6.710   2.729   1.117  2.2751 -1.2103  0.2520
 8628TIP3   OH250078   5.143   3.883   1.085 -0.3258 -0.2503 -0.3220
 8628TIP3    H150079   5.066   3.826   1.085 -1.3099  1.0376 -1.0171
 8628TIP3    H250080   5.152   3.911   0.994  0.3242  0.4699 -0.0489
 8629TIP3   OH250081   2.594   5.406   3.846 -0.0289  0.1607  0.1124
 8629TIP3    H150082   2.661   5.366   3.901  1.8947  1.1026 -1.4606
 8629TIP3    H250083   2.624   5.496   3.833 -1.2033  0.3842 -1.2684
 8630TIP3   OH250084   5.132   5.782   0.417  0.2358  0.0631 -0.5987
 8630TIP3    H150085   5.184   5.799   0.496 -1.3507  1.0192  0.3111
 8630TIP3    H250086   5.105   5.691   0.424  1.0141 -0.1666 -0.5996
 8631TIP3   OH250087   0.522   4.822   0.438 -0.5013 -0.9792 -0.6366
 8631TIP3    H150088   0.488   4.788   0.520  0.7993 -2.8796 -0.8132
 8631TIP3    H250089   0.456   4.800   0.372 -0.9778 -0.5467 -0.3117
 8632TIP3   OH250090   2.039   2.049   3.471  0.3400  0.1900 -0.0090
 8632TIP3    H150091   2.026   1.967   3.423  1.7270 -0.7812  1.1410
 8632TIP3    H250092   2.117   2.032   3.524 -0.2812  1.7128  1.4611
 8633TIP3   OH250093   0.223   0.455   1.211 -0.0636  0.5630  0.2645
 8633TIP3    H150094   0.230   0.478   1.304 -1.7732  1.2627  0.2575
 8633TIP3    H250095   0.312   0.466   1.177  0.0177  3.5765  1.1145
 8634TIP3   OH250096   2.650   6.482   1.760 -0.3340  0.3006 -0.6913
 8634TIP3    H150097   2.729   6.510   1.714 -1.1278  1.2306 -1.5420
 8634TIP3    H250098   2.589   6.556   1.749 -0.4242  0.7876  2.2365
 8635TIP3   OH250099   3.132   2.992   1.652 -0.7797 -0.1897  0.0181
 8635TIP3    H150100   3.166   2.940   1.579 -0.5790 -0.5076  0.3348
 8635TIP3    H250101   3.049   2.950   1.675 -0.2749 -0.8182  0.7420
 8636TIP3   OH250102   5.364   4.535   2.415 -0.4082 -0.4156  0.2983
 8636TIP3    H150103   5.293   4.593   2.444 -0.2477 -0.7631  1.4088
 8636TIP3    H250104   5.442   4.569   2.459 -0.2525 -1.2683  0.6812
 8637TIP3   OH250105   4.386   4.179   0.964  0.6397 -0.6726 -0.1742
 8637TIP3    H150106   4.349   4.101   0.924 -1.0843  1.2194 -2.5477
 8637TIP3    H250107   4.470   4.193   0.919  0.8503 -1.0075  0.1068
 8638TIP3   OH250108   4.978   1.107   1.516 -0.3629 -0.3114 -0.4069
 8638TIP3    H150109   4.925   1.033   1.485 -0.2362 -0.2550 -0.7579
 8638TIP3    H250110   4.955   1.115   1.609  0.9696 -1.9650  0.1245
 8639TIP3   OH250111   2.799   5.925   3.319 -0.2600 -0.3901 -0.0459
 8639TIP3    H150112   2.751   5.847   3.347 -0.1838 -0.3250  0.2664
 8639TIP3    H250113   2.730   5.986   3.293 -0.3061 -0.7428 -0.7855
 8640TIP3   OH250114   4.082   2.056   1.373 -0.7563  0.2845  0.7058
 8640TIP3    H150115   4.000   2.054   1.423 -0.9993  0.9249  0.3543
 8640TIP3    H250116   4.092   2.148   1.349 -0.9817 -0.1010 -0.9713
 8641TIP3   OH250117   6.396   4.497   1.984 -0.2545  0.1580  0.1954
 8641TIP3    H150118   6.394   4.534   2.072  0.4511 -0.7050  0.5862
 8641TIP3    H250119   6.398   4.402   1.998  0.6945  0.0242 -0.7293
 8642TIP3   OH250120   0.502   1.877   2.576  0.8736  0.1449 -0.4161
 8642TIP3    H150121   0.440   1.824   2.626  0.6908  2.7334  2.3239
 8642TIP3    H250122   0.588   1.857   2.615  1.0937  0.3594 -0.7822
 8643TIP3   OH250123   2.912   6.559   2.776 -0.5246 -0.1559 -0.0557
 8643TIP3    H150124   2.951   6.646   2.767  0.5721 -0.7561 -1.6267
 8643TIP3    H250125   2.818   6.575   2.777 -0.3437  1.0523 -0.2011
 8644TIP3   OH250126   2.069   3.491   3.015  0.0322 -0.6174  0.1564
 8644TIP3    H150127   2.157   3.520   2.991 -0.4428  1.9160  1.1005
 8644TIP3    H250128   2.020   3.490   2.932  0.3256  0.4834 -0.0452
 8645TIP3   OH250129   1.118   0.942   3.243  0.0203  0.1495 -0.5540
 8645TIP3    H150130   1.059   1.010   3.210 -0.3787 -0.0027 -0.1647
 8645TIP3    H250131   1.184   0.932   3.174 -0.1079  0.6930 -0.7608
 8646TIP3   OH250132   4.831   5.219   2.275 -0.1438  0.0184  0.8238
 8646TIP3    H150133   4.895   5.218   2.204  1.4277 -0.2462  2.1601
 8646TIP3    H250134   4.779   5.298   2.260  2.2423  1.7750  1.0921
 8647TIP3   OH250135   0.368   2.694   4.010 -0.1023  0.0485  0.4208
 8647TIP3    H150136   0.327   2.608   4.002  1.0264 -0.4403 -0.5179
 8647TIP3    H250137   0.296   2.756   4.002 -1.0287 -0.8078  1.8563
 8648TIP3   OH250138   2.986   3.319   1.272  0.3317  0.0733  0.3629
 8648TIP3    H150139   3.006   3.294   1.362 -1.9621  1.1032  1.2510
 8648TIP3    H250140   2.896   3.352   1.276 -0.8230 -2.1515 -2.7373
 8649TIP3   OH250141   0.075   3.853   4.058  0.1085  0.0872  0.1867
 8649TIP3    H150142   0.048   3.875   4.147  0.2766  0.0989  0.2364
 8649TIP3    H250143   0.171   3.858   4.061  0.2411 -1.7730  0.5142
 8650TIP3   OH250144   3.982   0.189   1.652  0.1916 -0.0570 -0.3746
 8650TIP3    H150145   4.017   0.267   1.694 -0.9715  0.2133  0.1321
 8650TIP3    H250146   4.041   0.173   1.578  1.0375  0.6884  0.1237
 8651TIP3   OH250147   0.559   2.339   1.035  0.2180 -0.2752  0.2457
 8651TIP3    H150148   0.536   2.432   1.026  1.5512  0.0023 -0.5367
 8651TIP3    H250149   0.494   2.294   0.980 -2.1648 -0.1337  2.7166
 8652TIP3   OH250150   2.402   5.173   1.139 -0.2070  0.2232  0.0741
 8652TIP3    H150151   2.444   5.258   1.129 -0.3198  0.2691 -0.0131
 8652TIP3    H250152   2.453   5.129   1.207 -0.2982  0.4549  0.2970
 8653TIP3   OH250153   6.126   2.809   2.809 -0.1002 -0.6804  0.7286
 8653TIP3    H150154   6.047   2.821   2.862 -0.5633 -1.9379  0.3695
 8653TIP3    H250155   6.102   2.844   2.723  0.0533 -0.2137  0.8766
 8654TIP3   OH250156   1.919   6.566   0.799  0.2705 -0.3745 -0.2755
 8654TIP3    H150157   1.867   6.581   0.721  0.2734 -0.6791 -0.3367
 8654TIP3    H250158   2.000   6.527   0.767 -0.2538 -1.7169 -0.0140
 8655TIP3   OH250159   6.499   0.013   0.573 -0.6213  0.0830  0.3280
 8655TIP3    H150160   6.567  -0.017   0.633 -0.9351 -0.6251  0.3344
 8655TIP3    H250161   6.545   0.033   0.492 -0.2376  0.7507  0.6961
 8656TIP3   OH250162   4.705   0.846   2.381 -0.3306 -0.3270  0.3472
 8656TIP3    H150163   4.620   0.887   2.365  0.0505  0.5735  0.5737
 8656TIP3    H250164   4.743   0.834   2.294 -0.6121 -0.5757  0.2559
 8657TIP3   OH250165   4.030   0.653   1.672  0.2608  0.1312  0.3059
 8657TIP3    H150166   3.958   0.654   1.608  0.5802 -0.4504 -0.0747
 8657TIP3    H250167   4.105   0.688   1.625  0.5033 -0.3184  0.3542
 8658TIP3   OH250168   6.560   3.510   4.060  0.4496 -0.4468  0.0387
 8658TIP3    H150169   6.538   3.431   4.109  2.6224 -1.2369 -0.1377
 8658TIP3    H250170   6.567   3.578   4.127 -0.8810 -0.5072  0.2583
 8659TIP3   OH250171   1.300   2.867   2.123 -0.2515 -0.2486  0.1379
 8659TIP3    H150172   1.253   2.836   2.046 -0.3489 -1.4649  0.6600
 8659TIP3    H250173   1.392   2.852   2.103 -0.2417 -0.0360  0.0290
 8660TIP3   OH250174   2.380   4.986   1.551 -0.6137 -0.0058 -0.4631
 8660TIP3    H150175   2.310   5.000   1.487  1.1216  0.4836 -2.3753
 8660TIP3    H250176   2.437   4.921   1.511  0.8358  0.7222  0.3124
 8661TIP3   OH250177   5.481   4.502   3.587 -0.1867 -1.0549  0.1265
 8661TIP3    H150178   5.532   4.580   3.566 -0.5395 -0.4545  1.4015
 8661TIP3    H250179   5.497   4.487   3.680  0.2871 -2.8210 -0.1946
 8662TIP3   OH250180   0.523   3.713   2.873 -0.0290 -0.1672 -1.0989
 8662TIP3    H150181   0.539   3.806   2.857  0.1063  0.4020  1.9122
 8662TIP3    H250182   0.435   3.710   2.910  1.4535 -0.5892  2.8373
 8663TIP3   OH250183   0.523   5.286   1.649  0.3796 -0.7488 -0.2742
 8663TIP3    H150184   0.453   5.284   1.583 -1.2806 -0.8029  1.3974
 8663TIP3    H250185   0.506   5.366   1.699  1.4224 -0.8584  0.2676
 8664TIP3   OH250186   2.443   1.235   1.467 -0.0364  0.0940 -0.2045
 8664TIP3    H150187   2.520   1.192   1.504 -0.0658 -0.9938 -1.3448
 8664TIP3    H250188   2.443   1.208   1.375 -1.1596  0.9894 -0.4826
 8665TIP3   OH250189   0.501   5.510   3.988  0.5264 -0.3723  0.3650
 8665TIP3    H150190   0.576   5.478   3.938 -1.1823 -1.2479 -1.7802
 8665TIP3    H250191   0.470   5.586   3.939 -0.3584 -0.3892  0.8797
 8666TIP3   OH250192   3.635   2.375   4.048  0.1118 -0.0913 -0.0441
 8666TIP3    H150193   3.594   2.302   4.002  0.7548  0.0173 -0.8297
 8666TIP3    H250194   3.604   2.453   4.002 -1.3703  0.2326  1.4214
 8667TIP3   OH250195   6.242   0.300   3.220  0.4706 -0.3227  0.5023
 8667TIP3    H150196   6.152   0.299   3.253  0.1871  0.8243 -0.1962
 8667TIP3    H250197   6.287   0.362   3.276  0.9779 -1.2798  1.1808
 8668TIP3   OH250198   0.369   4.644   1.894  0.5766  0.2193  0.6945
 8668TIP3    H150199   0.407   4.558   1.908  1.4200  0.8121  2.2839
 8668TIP3    H250200   0.332   4.668   1.979  0.7483  1.5972  0.4076
 8669TIP3   OH250201   0.986   4.036   3.742  0.1302  0.0319 -0.1977
 8669TIP3    H150202   0.928   3.973   3.785  1.5430 -0.2099  1.5170
 8669TIP3    H250203   0.940   4.120   3.748 -0.2184 -0.2128  0.8443
 8670TIP3   OH250204   0.109   4.403   1.979  0.4585 -0.0770 -0.4973
 8670TIP3    H150205   0.068   4.318   1.966  0.3186 -0.0058 -0.5238
 8670TIP3    H250206   0.053   4.464   1.932 -1.5859  0.5949  2.4852
 8671TIP3   OH250207   3.044   5.712   2.784  0.4429 -0.0596 -0.6185
 8671TIP3    H150208   2.967   5.766   2.767  0.9663  0.7730 -0.4471
 8671TIP3    H250209   3.024   5.628   2.744 -1.1367 -0.3356  0.6390
 8672TIP3   OH250210   1.459   2.011   4.041  0.3632 -0.0709  0.6134
 8672TIP3    H150211   1.518   2.001   3.966 -0.6871  0.2246 -0.2807
 8672TIP3    H250212   1.506   1.971   4.114  1.1371 -0.9710 -0.3457
 8673TIP3   OH250213   5.391   1.562   0.389 -0.1255  1.1360  0.3711
 8673TIP3    H150214   5.301   1.572   0.417 -0.6317 -1.0205 -0.3272
 8673TIP3    H250215   5.413   1.647   0.350 -2.5588  1.0664 -1.3622
 8674TIP3   OH250216   3.632   4.500   3.512  0.4776 -0.2128  0.0295
 8674TIP3    H150217   3.632   4.474   3.604 -2.1168  0.7626  0.3731
 8674TIP3    H250218   3.565   4.446   3.471  0.3199  0.6491 -0.8950
 8675TIP3   OH250219   1.582   0.730   3.167 -0.7302  0.2580  0.3377
 8675TIP3    H150220   1.559   0.704   3.256 -0.3315 -1.8299 -0.1275
 8675TIP3    H250221   1.646   0.800   3.178  0.0372 -0.6255  1.7227
 8676TIP3   OH250222   3.495   4.610   2.807 -0.2359 -0.3770  0.2050
 8676TIP3    H150223   3.479   4.528   2.856  0.0622  0.4492  1.7637
 8676TIP3    H250224   3.413   4.659   2.816 -0.0339 -0.0440  0.2530
 8677TIP3   OH250225   2.615   3.225   3.654 -0.7013  0.1922  0.1931
 8677TIP3    H150226   2.707   3.244   3.636 -1.1201  2.0299 -0.1896
 8677TIP3    H250227   2.616   3.183   3.740  0.5834 -0.9660 -0.3540
 8678TIP3   OH250228   4.951   0.628   3.545  0.0258 -0.7682 -0.5615
 8678TIP3    H150229   4.978   0.553   3.492  1.8174 -0.0731 -0.7053
 8678TIP3    H250230   4.896   0.679   3.486 -0.3086 -1.4186 -0.8238
 8679TIP3   OH250231   2.166   0.152   2.024  0.7785  0.0620 -0.7131
 8679TIP3    H150232   2.081   0.112   2.010 -0.3689  1.7792  0.8656
 8679TIP3    H250233   2.213   0.091   2.081  0.9953 -1.2913 -2.2602
 8680TIP3   OH250234   1.721   1.410   3.032  0.2439 -0.4709 -0.1847
 8680TIP3    H150235   1.784   1.360   3.084  0.2319 -0.7080 -0.3954
 8680TIP3    H250236   1.641   1.358   3.035  0.0265 -0.1205  0.1652
 8681TIP3   OH250237   3.640   3.244   1.012  0.2920  0.0273  0.6090
 8681TIP3    H150238   3.548   3.252   1.040 -0.4085 -0.4750 -1.3522
 8681TIP3    H250239   3.670   3.334   1.001 -0.1248  0.1888  0.7598
 8682TIP3   OH250240   5.008   2.362   1.734 -0.0182  0.2109 -0.0573
 8682TIP3    H150241   4.913   2.374   1.732 -0.1113 -0.5363 -0.5959
 8682TIP3    H250242   5.042   2.445   1.768 -0.9205  0.0860  1.2204
 8683TIP3   OH250243   2.019   1.917   1.994 -0.2949  0.3550  0.0676
 8683TIP3    H150244   2.047   1.961   2.074  1.2110  1.1879 -0.8847
 8683TIP3    H250245   2.027   1.983   1.925  1.4949 -1.1847 -1.3070
 8684TIP3   OH250246   2.392   4.554   3.780  0.1895  0.1555 -0.0620
 8684TIP3    H150247   2.460   4.609   3.741 -0.6081  1.0709 -0.2166
 8684TIP3    H250248   2.401   4.469   3.737 -0.2641  0.9522 -1.7952
 8685TIP3   OH250249   3.214   5.752   3.308  0.3023 -0.0230  0.3466
 8685TIP3    H150250   3.298   5.747   3.354 -0.4061  1.0304  1.8233
 8685TIP3    H250251   3.177   5.664   3.316  0.5435 -0.0602  1.1234
 8686TIP3   OH250252   4.409   3.828   2.123 -0.3523 -0.0043  0.1598
 8686TIP3    H150253   4.443   3.900   2.069 -0.7455  1.7589  2.1386
 8686TIP3    H250254   4.332   3.864   2.166  1.9481  0.0605  4.7421
 8687TIP3   OH250255   6.219   2.170   1.999  0.0946  0.1156  0.4385
 8687TIP3    H150256   6.183   2.254   1.972  1.2114  0.9553  1.4560
 8687TIP3    H250257   6.271   2.141   1.925  1.4882  1.4125  0.8564
 8688TIP3   OH250258   5.009   6.289   1.751 -0.3553  0.1246  0.2546
 8688TIP3    H150259   5.098   6.321   1.741 -1.1086  1.7735 -1.8951
 8688TIP3    H250260   4.996   6.230   1.677 -1.1358  0.0475  0.4432
 8689TIP3   OH250261   3.254   4.426   3.274  0.1407  0.4487 -0.0288
 8689TIP3    H150262   3.253   4.514   3.236 -1.2073  1.1110  1.3877
 8689TIP3    H250263   3.224   4.439   3.364  0.6067 -1.3856  0.4333
 8690TIP3   OH250264   1.228   3.988   3.143 -0.6012  0.3624 -0.4724
 8690TIP3    H150265   1.209   4.048   3.071 -0.8077  0.5697 -0.2424
 8690TIP3    H250266   1.316   3.955   3.123 -0.8490  0.0503 -1.0771
 8691TIP3   OH250267   5.476   5.606   0.724  0.1794  0.0360  0.6276
 8691TIP3    H150268   5.421   5.604   0.803 -0.7863 -1.6737 -0.0147
 8691TIP3    H250269   5.477   5.515   0.694  1.0996  0.5284 -0.9450
 8692TIP3   OH250270   0.404   0.508   2.357  0.0270 -0.5481  0.2914
 8692TIP3    H150271   0.338   0.519   2.425  0.7902  2.6129  0.7026
 8692TIP3    H250272   0.354   0.492   2.277 -1.1683  0.2258  0.8478
 8693TIP3   OH250273   0.534   0.147   1.747  0.3061  0.0746  0.6373
 8693TIP3    H150274   0.591   0.119   1.676  0.5317 -0.2061  0.9246
 8693TIP3    H250275   0.585   0.215   1.793 -0.2223  0.9428 -0.0345
 8694TIP3   OH250276   5.302   5.875   2.621  0.4298 -0.2048 -0.2837
 8694TIP3    H150277   5.385   5.884   2.574  1.0721  2.0586  1.1464
 8694TIP3    H250278   5.293   5.780   2.636  1.7165 -0.6917 -2.1924
 8695TIP3   OH250279   3.359   5.698   4.180  0.0000  0.1826 -0.1309
 8695TIP3    H150280   3.448   5.694   4.215 -0.1348  0.2307  0.2265
 8695TIP3    H250281   3.344   5.612   4.141  0.8288  0.7372 -1.7684
 8696TIP3   OH250282   2.358   3.082   3.266 -0.1022 -0.1615 -0.3292
 8696TIP3    H150283   2.305   3.046   3.337  1.5011 -1.8119  0.0930
 8696TIP3    H250284   2.316   3.049   3.186 -1.3456  0.9117 -0.1523
 8697TIP3   OH250285   6.165   5.566   2.796 -0.1228 -0.0215 -0.3914
 8697TIP3    H150286   6.128   5.477   2.797  1.3577 -0.6918 -0.9108
 8697TIP3    H250287   6.243   5.559   2.850 -0.4083  1.1858  0.1901
 8698TIP3   OH250288   5.905   2.763   3.425 -0.5291 -0.2765 -0.3126
 8698TIP3    H150289   5.848   2.690   3.402  1.2270 -1.3207 -1.6626
 8698TIP3    H250290   5.982   2.721   3.465  0.8926  0.7189 -1.8881
 8699TIP3   OH250291   5.368   1.012   0.901 -0.0907  0.1146  0.2956
 8699TIP3    H150292   5.395   1.077   0.835  0.4407 -0.5904 -0.1998
 8699TIP3    H250293   5.284   1.045   0.934 -0.6388  0.2361 -1.1179
 8700TIP3   OH250294   0.473   5.628   1.448  0.3786  0.5471 -0.3665
 8700TIP3    H150295   0.455   5.721   1.463 -2.3085 -0.2650  2.9712
 8700TIP3    H250296   0.442   5.612   1.359  0.2391  2.7124 -0.7739
 8701TIP3   OH250297   1.768   2.161   0.785  0.4334 -0.3445 -0.0176
 8701TIP3    H150298   1.772   2.173   0.690  0.0210 -1.5914 -0.2104
 8701TIP3    H250299   1.677   2.134   0.802  0.6389 -0.6376  0.6639
 8702TIP3   OH250300   2.150   2.958   0.809  0.1163  1.0179 -0.2731
 8702TIP3    H150301   2.213   2.890   0.785  0.9238  0.7780  2.2898
 8702TIP3    H250302   2.110   2.927   0.890 -0.2774  3.0912  0.3866
 8703TIP3   OH250303   5.120   0.673   1.285 -0.2388  0.2718  0.4291
 8703TIP3    H150304   5.073   0.739   1.336 -0.3324 -1.0001  2.0858
 8703TIP3    H250305   5.052   0.612   1.256  0.2448 -1.6083  2.8868
 8704TIP3   OH250306   6.090   1.446   2.787 -0.4185  0.3094 -0.4208
 8704TIP3    H150307   6.022   1.445   2.854  0.5275 -1.9557  0.6350
 8704TIP3    H250308   6.171   1.458   2.836  0.3230 -1.6323 -1.0620
 8705TIP3   OH250309   5.643   0.132   3.057  0.2783  0.5736 -0.6071
 8705TIP3    H150310   5.684   0.218   3.062  1.5790 -0.0669  0.1713
 8705TIP3    H250311   5.651   0.096   3.146 -0.6608 -0.1704 -0.7999
 8706TIP3   OH250312   5.579   3.060   3.552  0.0487 -0.3171 -0.2050
 8706TIP3    H150313   5.620   2.980   3.586 -0.3647 -0.8152 -0.8588
 8706TIP3    H250314   5.495   3.030   3.517  1.2716 -0.2266 -3.5787
 8707TIP3   OH250315   5.448   0.028   3.270  0.2322 -0.5519 -0.4172
 8707TIP3    H150316   5.388  -0.026   3.321  0.7764 -1.2661 -0.5248
 8707TIP3    H250317   5.397   0.106   3.247 -1.6710 -2.4636 -3.1204
 8708TIP3   OH250318   6.393   4.854   3.962  0.7404 -0.1738  0.3682
 8708TIP3    H150319   6.459   4.849   4.031 -1.3481 -1.6728  2.3950
 8708TIP3    H250320   6.310   4.840   4.007 -1.1388  2.4549 -1.9225
 8709TIP3   OH250321   1.185   2.007   4.100  0.4025 -0.6888  0.1504
 8709TIP3    H150322   1.155   2.080   4.155  0.4420  0.2552 -1.0482
 8709TIP3    H250323   1.270   2.035   4.067 -0.6133 -0.2056 -2.2199
 8710TIP3   OH250324   1.030   3.956   5.149  0.8936 -0.1933  0.3543
 8710TIP3    H150325   0.963   3.919   5.092  0.4564 -2.0091  1.9310
 8710TIP3    H250326   0.984   4.020   5.203  0.8092 -0.2128  0.3046
 8711TIP3   OH250327   1.002   4.545   2.742  0.1382  0.1762 -0.1080
 8711TIP3    H150328   0.999   4.484   2.669  1.3873 -1.6233  1.2604
 8711TIP3    H250329   1.091   4.578   2.742  0.0736  0.3631  0.4475
 8712TIP3   OH250330   1.219   3.151   3.058  0.3329  0.2771  0.5113
 8712TIP3    H150331   1.175   3.152   2.973  2.6489  0.4623 -0.7653
 8712TIP3    H250332   1.160   3.200   3.116 -1.0772  0.5578 -1.0760
 8713TIP3   OH250333   6.678   0.273   2.471  0.1220  0.9187  0.1878
 8713TIP3    H150334   6.714   0.272   2.383  1.9272  0.5966  0.8997
 8713TIP3    H250335   6.617   0.198   2.472  0.4488  0.6324 -0.6289
 8714TIP3   OH250336   6.590   3.098   0.567 -0.6575  0.0196 -0.2637
 8714TIP3    H150337   6.634   3.110   0.651 -0.6050  0.4858 -0.3574
 8714TIP3    H250338   6.527   3.169   0.563 -0.0230  0.5451 -1.0344
 8715TIP3   OH250339   0.283   4.349   4.129  0.1738 -0.0506 -0.0298
 8715TIP3    H150340   0.257   4.441   4.128 -2.1705 -0.6389 -0.1180
 8715TIP3    H250341   0.245   4.312   4.049 -1.1272 -1.5821  1.2097
 8716TIP3   OH250342   4.191   2.421   1.653  0.0942  0.6969  0.4588
 8716TIP3    H150343   4.262   2.358   1.643 -0.7538 -0.0671 -1.1013
 8716TIP3    H250344   4.113   2.375   1.621 -1.0068  1.7225  1.5446
 8717TIP3   OH250345   6.591   6.358   3.365  0.0105 -0.0522  0.1026
 8717TIP3    H150346   6.588   6.447   3.399 -1.3791  0.5513 -1.5195
 8717TIP3    H250347   6.649   6.312   3.426  0.6589  1.9019  1.0474
 8718TIP3   OH250348   3.314   1.508   2.689 -0.0323  0.6687 -0.4319
 8718TIP3    H150349   3.397   1.464   2.706 -0.6648  0.0242  1.1968
 8718TIP3    H250350   3.271   1.454   2.622  0.6629  0.7679 -0.9676
 8719TIP3   OH250351   4.498   5.415   3.325 -0.5688 -0.0496 -0.5744
 8719TIP3    H150352   4.509   5.427   3.420  0.9578 -2.5141 -0.3417
 8719TIP3    H250353   4.567   5.470   3.286  1.0438 -1.5912 -0.0185
 8720TIP3   OH250354   3.925   0.692   2.176 -0.0727 -0.1080 -0.4917
 8720TIP3    H150355   3.902   0.758   2.242  2.0827 -0.4105  0.6620
 8720TIP3    H250356   3.891   0.727   2.094  0.1206  1.9396  0.2479
 8721TIP3   OH250357   1.056   4.257   0.625 -0.8622 -0.3922 -0.9681
 8721TIP3    H150358   1.134   4.265   0.569 -0.2140 -2.0611 -0.3860
 8721TIP3    H250359   1.049   4.342   0.669 -0.0029  0.1468 -1.8219
 8722TIP3   OH250360   2.968   1.501   1.115  0.0913  0.1425  0.1143
 8722TIP3    H150361   2.878   1.517   1.087  0.1446  1.3958  0.6074
 8722TIP3    H250362   3.013   1.474   1.035 -0.4767  0.5256 -0.3492
 8723TIP3   OH250363   2.462   1.979   4.034  0.3051 -0.4904 -0.2551
 8723TIP3    H150364   2.556   1.996   4.046 -0.0456  1.4054  0.0280
 8723TIP3    H250365   2.421   2.019   4.111 -0.7720 -1.0140 -0.5451
 8724TIP3   OH250366   2.228   4.527   2.976 -0.2390  0.5262  0.0326
 8724TIP3    H150367   2.230   4.436   3.005 -1.5322 -0.9600 -3.7940
 8724TIP3    H250368   2.315   4.561   2.997 -0.2039 -1.0404  2.8838
 8725TIP3   OH250369   3.080   4.054   1.911  0.2367 -0.1143 -0.1298
 8725TIP3    H150370   3.118   4.129   1.956 -0.6079  0.9123 -1.0913
 8725TIP3    H250371   3.064   3.990   1.981  0.7680  0.6790  0.7308
 8726TIP3   OH250372   4.141   4.348   3.450 -0.8000 -0.1564  0.5535
 8726TIP3    H150373   4.137   4.429   3.400  0.2902  0.0459  0.7646
 8726TIP3    H250374   4.183   4.372   3.532 -0.9425 -0.8307  0.8300
 8727TIP3   OH250375   5.086   5.805   0.863 -0.3051 -0.0341  0.1576
 8727TIP3    H150376   5.085   5.901   0.873  1.3119 -0.0679  1.0277
 8727TIP3    H250377   5.006   5.776   0.907 -0.9772  0.9311 -0.3937
 8728TIP3   OH250378   6.318   0.493   1.554  0.2572 -0.3023  0.5204
 8728TIP3    H150379   6.326   0.430   1.483 -2.2635 -0.1743  0.0152
 8728TIP3    H250380   6.391   0.553   1.542 -0.8519  0.5635 -2.8989
 8729TIP3   OH250381   2.382   0.466   1.043 -0.3603  0.4462 -1.0215
 8729TIP3    H150382   2.376   0.393   1.106 -0.0820  2.7845  1.9237
 8729TIP3    H250383   2.457   0.443   0.988  0.2917 -1.1009  0.3867
 8730TIP3   OH250384   1.755   1.583   1.305  0.2155 -0.2438  0.0720
 8730TIP3    H150385   1.683   1.523   1.289 -0.0588 -0.0290  0.5050
 8730TIP3    H250386   1.739   1.618   1.392  0.2906  0.5793 -0.2392
 8731TIP3   OH250387   0.994   3.453   0.605  0.0945 -0.4854  0.4978
 8731TIP3    H150388   0.944   3.516   0.553 -0.7530 -1.7992 -0.3480
 8731TIP3    H250389   1.078   3.496   0.619 -0.7895  1.2230  0.8053
 8732TIP3   OH250390   6.190   3.450   3.201 -0.1007 -0.0382 -0.4337
 8732TIP3    H150391   6.265   3.428   3.144  0.5501  0.1751  0.3198
 8732TIP3    H250392   6.166   3.367   3.242  1.0482  0.2456  0.8681
 8733TIP3   OH250393   1.131   1.782   2.710  0.7609  0.0092 -0.3755
 8733TIP3    H150394   1.074   1.709   2.735 -1.8015  2.1754  0.5920
 8733TIP3    H250395   1.105   1.805   2.621  0.2450  0.8645 -0.0175
 8734TIP3   OH250396   4.353   3.091   1.537 -0.0692 -0.2588 -0.1185
 8734TIP3    H150397   4.316   3.137   1.612 -0.5129 -1.6226  0.5365
 8734TIP3    H250398   4.427   3.042   1.573 -1.2338 -2.1859 -0.1814
 8735TIP3   OH250399   5.405   1.650   1.126  0.3426 -0.5062  0.0054
 8735TIP3    H150400   5.420   1.557   1.145  2.4534 -0.8982 -2.8621
 8735TIP3    H250401   5.386   1.689   1.211  1.6387 -3.1545  1.6589
 8736TIP3   OH250402   3.904   4.561   2.537  0.2791 -0.4214 -0.2442
 8736TIP3    H150403   3.809   4.558   2.547  0.2927 -0.3796 -0.0918
 8736TIP3    H250404   3.919   4.551   2.443  0.1195 -0.3091 -0.2813
 8737TIP3   OH250405   4.918   4.880   1.067 -0.6329  0.0779  0.1371
 8737TIP3    H150406   4.922   4.939   0.991  0.1659  0.5604  0.5462
 8737TIP3    H250407   4.898   4.938   1.141  0.8896 -0.0283  0.6675
 8738TIP3   OH250408   2.441   5.952   3.639  0.0323  0.0652  0.2774
 8738TIP3    H150409   2.450   6.043   3.669  1.8766 -0.2865  0.9092
 8738TIP3    H250410   2.511   5.905   3.684  2.1764 -0.7850 -3.4908
 8739TIP3   OH250411   1.930   4.946   4.286 -0.0508  0.1470 -0.4855
 8739TIP3    H150412   1.915   5.040   4.284  0.7842  0.2930 -0.5477
 8739TIP3    H250413   2.026   4.938   4.288 -0.1257 -0.6706  0.7575
 8740TIP3   OH250414   2.560   5.439   1.096  0.4834  0.8835  0.1358
 8740TIP3    H150415   2.628   5.493   1.055  0.2615  0.9385 -0.1638
 8740TIP3    H250416   2.557   5.469   1.187  1.9880 -0.2277  0.5985
 8741TIP3   OH250417   0.998   2.532   3.195  1.0885 -0.1344 -0.4785
 8741TIP3    H150418   0.997   2.627   3.202 -2.7140 -0.1210  2.7638
 8741TIP3    H250419   1.090   2.508   3.186  2.1340  3.7912 -1.8610
 8742TIP3   OH250420   1.433   6.273   2.145 -0.0463 -0.5147  0.5378
 8742TIP3    H150421   1.519   6.294   2.182  0.2137 -0.8323  0.1226
 8742TIP3    H250422   1.390   6.221   2.213  0.2478 -0.6996  0.5858
 8743TIP3   OH250423   3.638   2.155   3.079 -0.1029 -0.2247 -0.2659
 8743TIP3    H150424   3.548   2.184   3.063 -0.8889 -0.5732  2.8458
 8743TIP3    H250425   3.632   2.060   3.087  0.2124 -0.1439  1.3320
 8744TIP3   OH250426   5.509   3.995   3.880  0.5562  0.0193 -0.6222
 8744TIP3    H150427   5.572   4.010   3.809 -0.1069 -1.5493 -1.6013
 8744TIP3    H250428   5.425   3.985   3.835 -0.1228  0.4393  0.5199
 8745TIP3   OH250429   6.464   4.783   3.714 -0.4922 -0.0818 -0.0741
 8745TIP3    H150430   6.396   4.729   3.674 -2.5069  0.9609  1.7282
 8745TIP3    H250431   6.425   4.812   3.797  2.1111  0.7274  0.9520
 8746TIP3   OH250432   1.383   3.562   4.290  0.6610  0.3995 -0.4238
 8746TIP3    H150433   1.405   3.647   4.328  0.1870  0.7019 -0.8114
 8746TIP3    H250434   1.371   3.580   4.196  0.7237 -0.1234 -0.5357
 8747TIP3   OH250435   4.826   3.192   4.505  0.4682 -1.0877  0.1714
 8747TIP3    H150436   4.807   3.110   4.550 -0.1459 -0.9821  0.1134
 8747TIP3    H250437   4.757   3.200   4.439  0.4821 -0.4907  0.2231
 8748TIP3   OH250438   6.403   4.910   4.618 -0.1591 -0.2165  0.2104
 8748TIP3    H150439   6.343   4.958   4.676 -1.4294 -1.3867 -0.0747
 8748TIP3    H250440   6.354   4.832   4.593 -0.0211  0.5881 -3.0746
 8749TIP3   OH250441   5.443   3.305   3.445 -0.2768 -0.0434 -0.3005
 8749TIP3    H150442   5.500   3.349   3.381 -0.4586 -0.7813 -0.9912
 8749TIP3    H250443   5.488   3.223   3.465 -1.1433 -0.7076 -0.9701
 8750TIP3   OH250444   3.102   2.095   2.921 -0.7382 -0.1585 -0.5337
 8750TIP3    H150445   3.173   2.085   2.985  1.7210  1.9956 -2.7124
 8750TIP3    H250446   3.035   2.145   2.968 -0.6784 -1.7985  1.4307
 8751TIP3   OH250447   0.891   6.432   1.434 -0.3340 -0.0256  0.1407
 8751TIP3    H150448   0.985   6.433   1.454 -0.3426 -0.9671  0.2931
 8751TIP3    H250449   0.879   6.355   1.377 -1.0853 -0.2289  0.5530
 8752TIP3   OH250450   1.852   1.825   1.733 -0.0953 -0.0346  0.2537
 8752TIP3    H150451   1.917   1.873   1.784  0.4669  0.7649 -1.1676
 8752TIP3    H250452   1.865   1.854   1.643 -0.7844 -1.7045 -0.4331
 8753TIP3   OH250453   2.812   4.008   1.835  0.1477 -0.2634 -0.0737
 8753TIP3    H150454   2.800   3.924   1.880  1.6087 -0.2876  0.3474
 8753TIP3    H250455   2.902   4.033   1.856 -0.1177  1.2063 -0.5482
 8754TIP3   OH250456   4.959   2.844   1.062 -0.3363  0.0284 -0.3752
 8754TIP3    H150457   5.017   2.919   1.073 -2.5727  1.7847  0.3687
 8754TIP3    H250458   4.984   2.783   1.132 -0.6517  1.6616  1.2382
 8755TIP3   OH250459   1.671   3.433   2.447  0.0554 -0.5863 -0.1112
 8755TIP3    H150460   1.645   3.518   2.482 -0.5779 -0.8634  0.1056
 8755TIP3    H250461   1.600   3.374   2.472 -0.3238 -0.8446 -1.6667
 8756TIP3   OH250462   0.486   1.507   2.492  0.0710  0.4625 -0.1070
 8756TIP3    H150463   0.473   1.529   2.584  0.6914  1.0981 -0.1555
 8756TIP3    H250464   0.576   1.536   2.473  0.3352 -0.6500 -0.6317
 8757TIP3   OH250465   5.551   0.288   2.352 -0.1556 -0.1316 -0.5377
 8757TIP3    H150466   5.577   0.374   2.319  0.4403  0.0091  0.2751
 8757TIP3    H250467   5.514   0.305   2.438  1.3756 -0.8328  0.2933
 8758TIP3   OH250468   3.794   2.147   3.829  0.2476  0.4983  0.1260
 8758TIP3    H150469   3.703   2.152   3.860  0.4068 -1.8817  1.2087
 8758TIP3    H250470   3.846   2.145   3.909  1.0322 -0.9718 -0.3896
 8759TIP3   OH250471   0.450   2.201   3.126  0.7053 -0.4856  0.1286
 8759TIP3    H150472   0.505   2.123   3.125  1.1381 -0.1866 -0.5596
 8759TIP3    H250473   0.418   2.209   3.036  1.5588  0.7343 -0.0908
 8760TIP3   OH250474   6.148   1.238   1.031 -0.5019  0.2277 -0.0859
 8760TIP3    H150475   6.182   1.278   0.951 -0.2451 -0.5612 -0.3863
 8760TIP3    H250476   6.089   1.304   1.068  0.3099  1.0844 -0.2805
 8761TIP3   OH250477   5.935   3.851   3.623 -0.2050 -0.0925 -0.1131
 8761TIP3    H150478   5.882   3.791   3.675  0.6869  0.2104  1.1984
 8761TIP3    H250479   6.013   3.800   3.599  0.7825  0.6124  1.4046
 8762TIP3   OH250480   4.118   0.781   1.939  0.1504  0.1960 -0.0180
 8762TIP3    H150481   4.085   0.691   1.946 -1.8162  0.8055 -0.9566
 8762TIP3    H250482   4.162   0.783   1.854 -0.4304  0.3092 -0.3175
 8763TIP3   OH250483   6.375   0.789   2.195  0.2358 -0.4924 -0.2757
 8763TIP3    H150484   6.327   0.870   2.209  0.2059  0.0312 -2.8989
 8763TIP3    H250485   6.316   0.735   2.143  0.3029 -2.1993  1.3155
 8764TIP3   OH250486   6.170   2.184  11.619  0.3934  0.1179  0.4858
 8764TIP3    H150487   6.175   2.240  11.696  1.2602  1.3394 -0.4276
 8764TIP3    H250488   6.233   2.221  11.557 -0.3670 -0.7369 -0.8715
 8765TIP3   OH250489   3.102   4.509   2.320 -0.9289 -0.2006  0.3468
 8765TIP3    H150490   3.023   4.466   2.286 -0.8976 -0.3635  0.4757
 8765TIP3    H250491   3.137   4.557   2.246 -1.0483 -0.2780  0.2399
 8766TIP3   OH250492   4.859   4.405   1.467 -0.6947  0.2464 -0.6715
 8766TIP3    H150493   4.765   4.423   1.472 -0.8727 -0.8820  0.4795
 8766TIP3    H250494   4.884   4.432   1.378 -1.8500  1.6456 -0.6028
 8767TIP3   OH250495   6.398   5.906   2.447  0.1707 -0.0741  0.5179
 8767TIP3    H150496   6.418   5.879   2.537  0.3586 -0.5044  0.3510
 8767TIP3    H250497   6.337   5.840   2.415  0.3587 -0.1081  0.2228
 8768TIP3   OH250498   0.431   3.957   3.576 -0.0459 -0.0499 -0.6526
 8768TIP3    H150499   0.406   3.869   3.549  0.0747 -0.1577 -0.4225
 8768TIP3    H250500   0.505   3.980   3.520  0.6275 -0.5304  0.0047
 8769TIP3   OH250501   6.056   2.894   3.228 -0.4678 -0.1767 -0.1339
 8769TIP3    H150502   5.995   2.866   3.296  0.6057  0.2023  1.0034
 8769TIP3    H250503   6.143   2.876   3.264  0.2007  2.2586 -0.3736
 8770TIP3   OH250504   1.120   3.861   5.394 -0.0226  0.5206  0.3482
 8770TIP3    H150505   1.056   3.908   5.448 -0.3196  0.5556 -0.0266
 8770TIP3    H250506   1.104   3.893   5.305  0.0435  0.0098  0.1490
 8771TIP3   OH250507   5.725   1.526   3.711  0.4573  0.2859  0.2910
 8771TIP3    H150508   5.766   1.607   3.681  0.5545  0.4757  0.9365
 8771TIP3    H250509   5.735   1.527   3.806 -1.1771  0.4101  0.4930
 8772TIP3   OH250510   4.586   1.828   0.544  0.0593 -0.1264  0.3157
 8772TIP3    H150511   4.632   1.909   0.520 -1.1011  0.6624  0.6383
 8772TIP3    H250512   4.494   1.855   0.552 -0.4879 -1.6719 -0.4290
 8773TIP3   OH250513   6.395   3.514   1.206 -0.3079  0.4565 -0.0209
 8773TIP3    H150514   6.408   3.460   1.129  0.1191  1.3206 -0.5734
 8773TIP3    H250515   6.379   3.452   1.277 -0.7053 -0.3461 -0.7996
 8774TIP3   OH250516   2.787   1.879   2.841 -0.3121  0.4202  0.0133
 8774TIP3    H150517   2.850   1.923   2.784 -1.1001  0.0836 -1.1549
 8774TIP3    H250518   2.840   1.846   2.914  1.0628 -0.7465 -1.4324
 8775TIP3   OH250519   0.502   3.223   4.521 -0.0011  0.0281  0.7388
 8775TIP3    H150520   0.452   3.161   4.467 -1.7114 -0.0530  2.3178
 8775TIP3    H250521   0.520   3.176   4.602  0.8543  0.7847  1.0102
 8776TIP3   OH250522   1.683   5.534   8.559 -0.4117 -0.4484 -0.0395
 8776TIP3    H150523   1.625   5.459   8.543 -1.6381  0.1266  1.4542
 8776TIP3    H250524   1.659   5.598   8.493  0.9055 -1.4502 -1.5733
 8777TIP3   OH250525   6.600   5.543   2.615  0.3510  0.2180  0.1762
 8777TIP3    H150526   6.693   5.534   2.596  0.3352 -0.7658  0.5037
 8777TIP3    H250527   6.556   5.510   2.537  0.2799 -0.0462  0.3278
 8778TIP3   OH250528   4.243   3.230   2.141 -0.1398  0.3803  0.6290
 8778TIP3    H150529   4.203   3.152   2.104 -1.2485  1.5275 -0.7242
 8778TIP3    H250530   4.183   3.257   2.211  0.3348 -0.0671  1.2144
 8779TIP3   OH250531   3.328   4.912   3.380 -0.0685  0.1254  0.2006
 8779TIP3    H150532   3.382   4.991   3.372  1.3591 -0.7770  0.6268
 8779TIP3    H250533   3.387   4.840   3.360 -1.5979 -0.8049 -1.1400
 8780TIP3   OH250534   2.155   4.807   2.845 -0.6272 -0.2648 -0.7656
 8780TIP3    H150535   2.167   4.805   2.750  0.6544  2.5818 -0.7789
 8780TIP3    H250536   2.207   4.733   2.877 -1.2570 -1.3968 -2.2444
 8781TIP3   OH250537   1.746   6.158   0.772  0.4201  0.1317  0.0491
 8781TIP3    H150538   1.831   6.113   0.775 -0.0233 -0.7009  0.3630
 8781TIP3    H250539   1.730   6.172   0.679  0.7170 -0.0608 -0.0323
 8782TIP3   OH250540   3.869   6.299   1.606  0.1214  1.1561  0.8788
 8782TIP3    H150541   3.960   6.315   1.632 -0.6467  1.4895  3.6940
 8782TIP3    H250542   3.823   6.380   1.630 -0.9485  0.9818 -0.4694
 8783TIP3   OH250543   3.574   3.123   2.702  0.1535  0.0482 -0.0050
 8783TIP3    H150544   3.539   3.040   2.669 -1.2205  0.6267 -0.1033
 8783TIP3    H250545   3.529   3.190   2.650  0.4051  0.8773  0.8120
 8784TIP3   OH250546   4.783   0.690   3.342  0.0233  0.3170 -0.1276
 8784TIP3    H150547   4.705   0.636   3.352 -0.3450  0.7595 -0.5156
 8784TIP3    H250548   4.811   0.675   3.252  0.0592  0.5866 -0.1618
 8785TIP3   OH250549   5.102   5.070   2.640  0.4679  0.1308 -0.2438
 8785TIP3    H150550   5.085   5.129   2.713  1.5991  0.3937 -0.1761
 8785TIP3    H250551   5.099   5.125   2.562  0.4023  0.0653 -0.2884
 8786TIP3   OH250552   5.635   3.395   2.085 -0.2408 -0.3569  0.2584
 8786TIP3    H150553   5.559   3.376   2.140  0.9785 -0.2608  2.0418
 8786TIP3    H250554   5.599   3.402   1.997 -2.2471 -0.6371  1.0020
 8787TIP3   OH250555   4.308   1.626   1.122  0.4534  0.5080  0.7245
 8787TIP3    H150556   4.257   1.545   1.125  1.1406 -0.0275 -1.1244
 8787TIP3    H250557   4.263   1.685   1.183  0.9939 -1.8144  3.6256
 8788TIP3   OH250558   0.450   4.457   4.877  0.1358 -0.1801  0.2032
 8788TIP3    H150559   0.413   4.396   4.940 -0.0143 -1.5153 -1.1320
 8788TIP3    H250560   0.544   4.440   4.880  0.2119  0.2896  0.5968
 8789TIP3   OH250561   2.338   2.466   3.128 -0.4210 -0.2259 -0.2179
 8789TIP3    H150562   2.295   2.550   3.142 -0.3915 -0.1476 -0.5687
 8789TIP3    H250563   2.279   2.402   3.167 -1.3461 -0.2141 -1.5388
 8790TIP3   OH250564   6.054   5.806   1.760  0.3689  0.0018 -0.1299
 8790TIP3    H150565   6.128   5.748   1.748 -0.9807 -1.6041 -1.1871
 8790TIP3    H250566   5.989   5.754   1.808 -0.0295  1.4444  1.0207
 8791TIP3   OH250567   4.941   6.117   2.922  0.2451 -0.2065  0.2124
 8791TIP3    H150568   5.005   6.102   2.992 -0.1678  2.9916  1.4594
 8791TIP3    H250569   4.872   6.053   2.938  0.8698 -0.5297  1.8217
 8792TIP3   OH250570   2.256   0.177   1.438  0.2313  0.1123  0.7537
 8792TIP3    H150571   2.175   0.167   1.387  1.1657  2.2275 -1.3243
 8792TIP3    H250572   2.272   0.090   1.475 -1.1375 -1.2574 -1.6368
 8793TIP3   OH250573   0.199   2.354   2.999 -0.3410 -0.4291  0.5711
 8793TIP3    H150574   0.196   2.291   2.928  0.1522  0.4332 -0.2420
 8793TIP3    H250575   0.225   2.436   2.957  0.7257 -0.0728  1.8670
 8794TIP3   OH250576   4.473   3.240   2.308  0.1769  0.1908 -0.2293
 8794TIP3    H150577   4.511   3.325   2.285  0.3994 -0.2267 -1.4787
 8794TIP3    H250578   4.395   3.233   2.253  1.1405 -1.1682 -1.5113
 8795TIP3   OH250579   3.703   0.636   1.209 -0.0133  0.3498  0.3586
 8795TIP3    H150580   3.669   0.629   1.120  3.3148  2.1697 -1.2240
 8795TIP3    H250581   3.673   0.721   1.240  0.9604  0.8636 -0.0758
 8796TIP3   OH250582   4.892   5.036   1.274  0.6406 -0.2123 -0.4628
 8796TIP3    H150583   4.865   5.127   1.286 -1.1973 -0.8587  0.8569
 8796TIP3    H250584   4.917   5.007   1.362 -1.7160 -1.7647 -0.1876
 8797TIP3   OH250585   4.960   2.176   1.518 -0.3988  0.1133  0.4237
 8797TIP3    H150586   4.941   2.223   1.599  0.6187  1.9126 -0.3265
 8797TIP3    H250587   4.929   2.234   1.449 -0.0660 -0.8024 -0.5241
 8798TIP3   OH250588   0.156   1.303   3.314  0.0164  0.0000  0.0363
 8798TIP3    H150589   0.232   1.362   3.312 -1.0945  1.6000  1.8930
 8798TIP3    H250590   0.141   1.281   3.222  1.3846  1.4345 -0.5921
 8799TIP3   OH250591   1.131   6.642   1.143 -0.4045 -0.0887  0.1483
 8799TIP3    H150592   1.205   6.675   1.091  0.0599 -0.6437  0.4458
 8799TIP3    H250593   1.113   6.713   1.205  0.4789 -0.2963  0.6705
 8800TIP3   OH250594   1.516   3.745   1.109 -0.1980 -0.1345  0.1073
 8800TIP3    H150595   1.455   3.761   1.181 -0.1865 -0.8654  0.2897
 8800TIP3    H250596   1.570   3.671   1.139 -0.3048 -0.5597 -0.7155
 8801TIP3   OH250597   4.581   4.421   3.808 -0.2378  0.0529  0.0474
 8801TIP3    H150598   4.531   4.340   3.796  0.8817 -0.6857  0.1805
 8801TIP3    H250599   4.673   4.392   3.809  0.1879  1.3507 -0.0748
 8802TIP3   OH250600   4.842   4.346   0.555  0.8432  0.2556 -0.3250
 8802TIP3    H150601   4.765   4.383   0.510  1.4876  1.4984 -0.4529
 8802TIP3    H250602   4.855   4.404   0.630 -1.0006 -2.5167  2.3577
 8803TIP3   OH250603   3.022   0.372   3.297  0.5720 -0.4814  0.4823
 8803TIP3    H150604   3.094   0.368   3.234  1.0220  2.0393  0.7252
 8803TIP3    H250605   3.036   0.455   3.343 -2.0590 -0.3036  1.0870
 8804TIP3   OH250606   0.788   2.922   3.600  0.4739  0.0207 -0.4745
 8804TIP3    H150607   0.784   2.867   3.678  0.6450  0.7107  0.0355
 8804TIP3    H250608   0.732   2.878   3.536  0.7128 -0.8039 -0.1285
 8805TIP3   OH250609   0.843   3.937   4.324 -0.1596  0.4693 -0.4621
 8805TIP3    H150610   0.748   3.939   4.324 -0.2201  1.9376  2.3260
 8805TIP3    H250611   0.869   4.012   4.269 -0.5681 -0.0010 -1.3185
 8806TIP3   OH250612   0.439   6.610   2.964  0.1140 -0.0768  0.0516
 8806TIP3    H150613   0.511   6.555   2.994  0.0483 -0.2187 -0.0464
 8806TIP3    H250614   0.462   6.633   2.874  0.4751  0.6274  0.3145
 8807TIP3   OH250615   2.045   0.715   3.349  0.4230  0.1733 -1.0153
 8807TIP3    H150616   1.960   0.691   3.385  0.3769 -0.9769 -1.8354
 8807TIP3    H250617   2.101   0.729   3.426  0.7516 -3.7174 -0.3273
 8808TIP3   OH250618   3.753   0.214   2.994 -0.2868  0.0681 -0.0644
 8808TIP3    H150619   3.705   0.286   2.954 -0.2503 -0.7439 -1.6504
 8808TIP3    H250620   3.832   0.205   2.940 -0.6897 -1.6663 -0.4323
 8809TIP3   OH250621   4.918   3.177   3.562  0.0901 -0.2329  0.4088
 8809TIP3    H150622   4.957   3.230   3.632 -1.9145  1.8781  0.0188
 8809TIP3    H250623   4.903   3.238   3.490 -2.3767 -1.2506 -0.0533
 8810TIP3   OH250624   4.260   1.204   3.175 -0.8682 -0.8753  0.0801
 8810TIP3    H150625   4.332   1.257   3.208 -0.8934  0.1059 -1.3358
 8810TIP3    H250626   4.196   1.201   3.246 -0.2096 -0.2587  0.7093
 8811TIP3   OH250627   1.536   1.843   1.234 -0.3238 -0.0615 -0.5750
 8811TIP3    H150628   1.484   1.897   1.293  2.6301  2.5357 -0.1238
 8811TIP3    H250629   1.552   1.762   1.283 -1.7653  0.0948  0.2285
 8812TIP3   OH250630   1.866   5.966   2.578  0.0721 -0.0270  0.2584
 8812TIP3    H150631   1.942   5.911   2.599  0.6606  0.6522 -0.0480
 8812TIP3    H250632   1.895   6.021   2.506 -0.4790  0.7388  0.6068
 8813TIP3   OH250633   3.330   6.059   2.350  0.2072 -0.3390  0.2326
 8813TIP3    H150634   3.371   6.077   2.265  1.4704  0.4007  0.9709
 8813TIP3    H250635   3.239   6.086   2.339  0.2948 -0.4662 -0.9464
 8814TIP3   OH250636   5.448   3.241   1.054  0.0080 -0.1222  0.2465
 8814TIP3    H150637   5.523   3.295   1.029  0.8601 -1.3497  0.1194
 8814TIP3    H250638   5.372   3.298   1.040  0.8983  1.1266  0.3540
 8815TIP3   OH250639   1.152   1.166   2.457 -0.2410  0.4556 -0.1994
 8815TIP3    H150640   1.102   1.139   2.534 -1.2113 -2.4287 -1.6868
 8815TIP3    H250641   1.117   1.253   2.436 -0.3516  1.0614  2.2038
 8816TIP3   OH250642   2.988   5.128   0.704  0.4775  0.0736  0.2211
 8816TIP3    H150643   2.957   5.218   0.696 -0.9505 -0.5227 -1.6583
 8816TIP3    H250644   3.083   5.134   0.693  0.4241  1.3596  0.3547
 8817TIP3   OH250645   2.558   2.700   1.278 -0.2630  0.0240  0.1450
 8817TIP3    H150646   2.473   2.701   1.321 -0.1315 -2.0092  0.5327
 8817TIP3    H250647   2.621   2.718   1.348 -0.3156  1.0590 -0.0555
 8818TIP3   OH250648   1.008   3.314   2.554 -0.1527  0.4266 -0.5834
 8818TIP3    H150649   1.016   3.408   2.535 -3.9190  1.1045  0.3216
 8818TIP3    H250650   0.916   3.294   2.535  0.5179 -3.1305 -0.7493
 8819TIP3   OH250651   6.438   5.363   2.002 -0.2312 -0.6207 -0.3548
 8819TIP3    H150652   6.482   5.280   2.020  0.3969 -0.2574 -0.1943
 8819TIP3    H250653   6.421   5.361   1.908 -1.8381 -1.7048 -0.0962
 8820TIP3   OH250654   3.749   2.954   2.029 -0.2642  0.6063 -0.3732
 8820TIP3    H150655   3.753   2.965   1.934 -1.5296  2.6087 -0.2650
 8820TIP3    H250656   3.694   3.027   2.059  0.2166  0.1084  1.9137
 8821TIP3   OH250657   5.528   4.177   2.142 -0.5360  0.6481  0.4287
 8821TIP3    H150658   5.618   4.148   2.157 -0.6916  1.0494  2.3977
 8821TIP3    H250659   5.473   4.108   2.181 -1.0697  0.7629 -0.1020
 8822TIP3   OH250660   4.391   0.430   2.332  0.2921  0.2198 -0.2036
 8822TIP3    H150661   4.402   0.346   2.377  2.3967 -0.1046 -1.2008
 8822TIP3    H250662   4.453   0.488   2.375 -1.2017  1.3543  0.5264
 8823TIP3   OH250663   3.369   0.847   0.846 -0.1300 -0.1104 -0.2275
 8823TIP3    H150664   3.371   0.820   0.754 -1.0104 -0.0260 -0.2773
 8823TIP3    H250665   3.276   0.861   0.865  0.0096 -0.4862  0.7836
 8824TIP3   OH250666   1.149   0.449   0.875 -0.1297 -0.2274  0.2481
 8824TIP3    H150667   1.196   0.402   0.944  0.8586  0.4175  0.0324
 8824TIP3    H250668   1.191   0.535   0.872 -2.0583  0.7751  0.7946
 8825TIP3   OH250669   1.094   3.372   2.917  0.1811  0.0871  1.1349
 8825TIP3    H150670   1.018   3.314   2.912 -0.5320  1.0471  0.4129
 8825TIP3    H250671   1.056   3.458   2.935  1.0753  0.6410  0.4214
 8826TIP3   OH250672   2.284   3.735   1.108  0.0035  0.9410  0.2790
 8826TIP3    H150673   2.265   3.770   1.021  0.9067 -1.0035 -0.7577
 8826TIP3    H250674   2.264   3.808   1.168  0.1861  2.6152 -1.5858
 8827TIP3   OH250675   0.519   2.588   2.827 -0.2621  0.0617  0.6847
 8827TIP3    H150676   0.442   2.538   2.801  0.4089 -0.9484  0.6021
 8827TIP3    H250677   0.583   2.523   2.855  1.3902  0.6589 -1.3980
 8828TIP3   OH250678   1.948   5.808   1.966 -0.1003  0.3012 -0.4564
 8828TIP3    H150679   1.905   5.731   2.004  1.6475 -0.5239 -0.0418
 8828TIP3    H250680   2.012   5.772   1.905  1.5926  1.3401  0.6199
 8829TIP3   OH250681   4.625   2.223   0.539 -0.2359 -0.2720 -0.4941
 8829TIP3    H150682   4.687   2.292   0.517 -0.7306 -0.0248 -1.1343
 8829TIP3    H250683   4.680   2.149   0.568  0.2552  1.1590  2.6768
 8830TIP3   OH250684   1.188   0.129   2.615 -0.6581 -0.4727  0.0280
 8830TIP3    H150685   1.261   0.191   2.616  1.5097 -2.8552  1.0787
 8830TIP3    H250686   1.171   0.110   2.707 -1.6153 -1.0866 -0.2572
 8831TIP3   OH250687   3.863   6.219   2.021  0.1695 -0.1741 -0.1869
 8831TIP3    H150688   3.824   6.302   2.048  0.6858  0.1163 -0.3188
 8831TIP3    H250689   3.955   6.240   2.004  0.4696 -0.9122  0.4500
 8832TIP3   OH250690   0.230   5.493   2.654  0.3461 -0.1932 -0.2711
 8832TIP3    H150691   0.188   5.408   2.664  0.9019 -0.3975  0.4006
 8832TIP3    H250692   0.259   5.517   2.742 -0.3201  0.9642 -0.3421
 8833TIP3   OH250693   0.039   6.188   0.993 -0.1871  0.7674  0.4683
 8833TIP3    H150694  -0.032   6.223   1.047 -2.0734 -0.4295 -1.1047
 8833TIP3    H250695   0.033   6.237   0.911  1.6025  1.4451  0.7057
 8834TIP3   OH250696   3.551   5.968   2.151 -0.2654 -1.0047 -0.1291
 8834TIP3    H150697   3.590   5.889   2.187  2.4425 -0.8475 -2.3823
 8834TIP3    H250698   3.544   5.951   2.057 -0.6037  1.0246 -0.5167
 8835TIP3   OH250699   0.173   2.886   4.009 -0.3027 -0.2515  0.2656
 8835TIP3    H150700   0.084   2.862   3.982  0.7589 -1.5257 -2.4854
 8835TIP3    H250701   0.164   2.973   4.047 -2.5501  0.2753 -1.2864
 8836TIP3   OH250702   1.735   2.687   2.927  0.3659 -0.5661 -0.0389
 8836TIP3    H150703   1.760   2.738   2.850  0.2521  1.1881  1.0419
 8836TIP3    H250704   1.648   2.654   2.908  0.6244 -0.7473 -0.9347
 8837TIP3   OH250705   3.673   4.940   2.437 -0.1264 -0.0836 -0.2431
 8837TIP3    H150706   3.730   4.895   2.375  0.0344 -0.0918 -0.0894
 8837TIP3    H250707   3.699   4.906   2.522  2.0864  2.4491  0.2244
 8838TIP3   OH250708   3.652   5.338   3.165 -0.4259 -0.0837 -0.2700
 8838TIP3    H150709   3.746   5.334   3.145 -0.0109 -0.6803  1.5727
 8838TIP3    H250710   3.609   5.320   3.082  1.1142 -2.2447 -0.6898
 8839TIP3   OH250711   0.079   3.049   2.338 -0.4904  0.1947 -0.0354
 8839TIP3    H150712   0.110   3.103   2.410 -1.3478  1.1804 -0.3812
 8839TIP3    H250713   0.156   2.999   2.310  0.1621  0.7662  0.7100
 8840TIP3   OH250714   6.073   0.213   0.941 -0.2321 -0.2041 -0.1255
 8840TIP3    H150715   6.087   0.297   0.897  0.8254 -1.2575 -1.9146
 8840TIP3    H250716   5.981   0.215   0.968 -0.0808  1.7414  0.4180
 8841TIP3   OH250717   3.372   4.938   1.506 -0.3320 -0.4099 -0.6125
 8841TIP3    H150718   3.326   4.987   1.575 -1.6628 -0.6753 -1.2791
 8841TIP3    H250719   3.419   4.869   1.553 -1.1035 -0.4951  0.0591
 8842TIP3   OH250720   0.546   5.255   3.213 -0.5873  0.2067  0.6363
 8842TIP3    H150721   0.580   5.307   3.141  0.5489 -0.0657  0.9568
 8842TIP3    H250722   0.624   5.229   3.263 -1.2491 -0.6354  1.2603
 8843TIP3   OH250723   6.005   5.625   3.714  0.0311 -0.1412 -0.3903
 8843TIP3    H150724   6.074   5.690   3.701 -0.8707  0.7416 -0.9162
 8843TIP3    H250725   6.037   5.546   3.670  1.2281 -0.1364  0.4163
 8844TIP3   OH250726   5.938   2.131   1.641  0.4400  0.7223 -0.3839
 8844TIP3    H150727   5.920   2.152   1.733 -0.1565  2.0403 -0.7693
 8844TIP3    H250728   6.023   2.171   1.624  1.6773 -1.5056  0.1780
 8845TIP3   OH250729   3.943   2.874   3.560  0.5027 -0.0186 -0.2006
 8845TIP3    H150730   4.029   2.874   3.518  0.2091 -0.1569 -0.8140
 8845TIP3    H250731   3.920   2.782   3.569  1.3673 -0.0737  1.9838
 8846TIP3   OH250732   0.266   4.813   0.891 -0.4882  0.1375  0.0515
 8846TIP3    H150733   0.345   4.804   0.837  2.2688  3.4056  3.0756
 8846TIP3    H250734   0.279   4.749   0.962 -1.1340 -0.0637 -0.0083
 8847TIP3   OH250735   1.429   5.288   1.858 -0.3700  0.4246 -0.4715
 8847TIP3    H150736   1.353   5.323   1.905 -1.5983  0.2001 -2.2082
 8847TIP3    H250737   1.416   5.193   1.859 -0.1467  0.3895 -0.8237
 8848TIP3   OH250738   2.305   1.523   2.688  0.6021 -0.0530  0.4830
 8848TIP3    H150739   2.357   1.476   2.622 -0.2956 -1.2181  0.5721
 8848TIP3    H250740   2.344   1.496   2.771  0.7800  0.2264  0.4897
 8849TIP3   OH250741   3.971   5.079   1.632 -0.1850 -0.7476 -0.4598
 8849TIP3    H150742   3.892   5.108   1.677  0.4771  0.7577 -0.2054
 8849TIP3    H250743   3.981   4.987   1.658 -0.1855 -0.1378  1.9333
 8850TIP3   OH250744   1.954   4.563   3.211  0.5090 -0.0309  0.7531
 8850TIP3    H150745   1.914   4.554   3.298 -0.9872  0.7102  0.1628
 8850TIP3    H250746   2.016   4.636   3.221 -2.3015  2.6311  0.3756
 8851TIP3   OH250747   0.829   3.814   3.337  0.2650  0.2401  0.6495
 8851TIP3    H150748   0.841   3.881   3.270  3.7202 -0.9733 -0.1420
 8851TIP3    H250749   0.907   3.820   3.392 -0.9955 -0.8931  2.7337
 8852TIP3   OH250750   0.587   4.223   0.819  0.1480  0.2418 -0.1826
 8852TIP3    H150751   0.582   4.206   0.913  2.5417 -1.6773 -0.2984
 8852TIP3    H250752   0.574   4.137   0.778  1.4478  0.6213 -1.4773
 8853TIP3   OH250753   2.530   4.060   1.558 -0.4541  0.0317  0.1537
 8853TIP3    H150754   2.487   4.046   1.474  0.2354  0.7457 -0.3279
 8853TIP3    H250755   2.550   3.971   1.589 -0.1852 -0.2175 -0.7089
 8854TIP3   OH250756   3.401   3.002   2.248  0.0134  0.1128 -0.1521
 8854TIP3    H150757   3.466   3.072   2.239 -0.8444  0.6775 -2.9736
 8854TIP3    H250758   3.396   2.986   2.342  0.7383  3.3781  0.5754
 8855TIP3   OH250759   4.925   3.527   2.461  0.5051 -0.3758  0.4356
 8855TIP3    H150760   5.003   3.564   2.421  1.8711 -1.3750  2.0461
 8855TIP3    H250761   4.958   3.471   2.532 -1.7020  0.7272  2.4900
 8856TIP3   OH250762   0.900   0.372   0.780 -0.2759 -0.0767  0.0095
 8856TIP3    H150763   0.958   0.408   0.847 -0.1784  1.1888 -0.7163
 8856TIP3    H250764   0.958   0.354   0.705 -0.4124 -1.2894  0.1805
 8857TIP3   OH250765   5.296   3.797   3.218  0.2914 -0.1985 -0.3049
 8857TIP3    H150766   5.279   3.875   3.166 -0.2174 -1.1252 -1.5752
 8857TIP3    H250767   5.332   3.831   3.301  0.9195  1.3283 -1.1518
 8858TIP3   OH250768   5.121   1.090   2.878  0.5362 -0.1417  0.6259
 8858TIP3    H150769   5.074   1.030   2.820  0.1340 -1.2047  1.9913
 8858TIP3    H250770   5.052   1.144   2.918  0.8640  1.0192 -0.3222
 8859TIP3   OH250771   3.389   3.594   1.687  0.0293  0.1428 -0.4872
 8859TIP3    H150772   3.474   3.551   1.695 -0.1782 -0.3783 -1.0030
 8859TIP3    H250773   3.385   3.621   1.595  0.1109  1.1740 -0.1943
 8860TIP3   OH250774   6.497   5.340   4.036  0.3947  0.1178  0.7545
 8860TIP3    H150775   6.457   5.319   4.121  0.3388 -0.0818  0.6803
 8860TIP3    H250776   6.591   5.334   4.051  0.3749 -0.6339  0.6268
 8861TIP3   OH250777   0.586   5.178   1.958  0.6470 -0.0291 -0.6933
 8861TIP3    H150778   0.505   5.192   2.008  0.6590  0.2631 -0.7509
 8861TIP3    H250779   0.651   5.155   2.024  0.7288  0.6301 -0.5382
 8862TIP3   OH250780   6.599   4.832   3.342 -0.3560 -0.1645 -0.0609
 8862TIP3    H150781   6.546   4.760   3.378  0.0724 -0.8411 -0.7526
 8862TIP3    H250782   6.657   4.856   3.414 -0.1715 -0.8480  0.0293
 8863TIP3   OH250783   1.666   2.898   1.113 -0.1693 -0.2007 -0.1510
 8863TIP3    H150784   1.592   2.852   1.152 -0.4337 -0.0159 -0.4391
 8863TIP3    H250785   1.704   2.948   1.186  1.2985 -2.3323  0.6805
 8864TIP3   OH250786   4.374   6.635   2.748 -0.1786  0.2952  0.1224
 8864TIP3    H150787   4.400   6.652   2.657  0.4404  1.2735  0.4590
 8864TIP3    H250788   4.295   6.582   2.741  0.2155 -0.1735 -0.9796
 8865TIP3   OH250789   4.318   3.274   4.737 -0.4032  0.2529  0.2626
 8865TIP3    H150790   4.290   3.266   4.645 -1.2419 -0.4438  0.5632
 8865TIP3    H250791   4.255   3.221   4.785  0.7958 -0.4448  1.1078
 8866TIP3   OH250792   5.029   5.209   2.854 -0.0575  0.6663  0.0716
 8866TIP3    H150793   5.090   5.244   2.918  0.8787 -0.8185  0.0237
 8866TIP3    H250794   4.967   5.157   2.905  1.7063 -1.9897 -0.2580
 8867TIP3   OH250795   3.774   4.274   4.157  0.3947 -0.0683 -0.2672
 8867TIP3    H150796   3.739   4.257   4.069  0.5335 -1.3579 -0.0870
 8867TIP3    H250797   3.766   4.190   4.203  2.2594  0.0226  0.2852
 8868TIP3   OH250798   0.894   0.053   0.750 -0.5351  0.1068 -0.3759
 8868TIP3    H150799   0.899   0.147   0.731  0.4779 -0.1529 -1.4330
 8868TIP3    H250800   0.859   0.049   0.840  0.2334  1.5099  0.0066
 8869TIP3   OH250801   1.880   1.117   2.274 -0.2745  0.5589 -0.7893
 8869TIP3    H150802   1.847   1.084   2.190 -1.4303 -3.3948  0.9553
 8869TIP3    H250803   1.801   1.128   2.327  0.5809  0.4377  0.5368
 8870TIP3   OH250804   2.821   0.577   1.405  0.8058 -0.5472 -0.2078
 8870TIP3    H150805   2.781   0.564   1.319 -0.2366 -0.7242  0.2857
 8870TIP3    H250806   2.764   0.639   1.449  1.3420 -0.4449  0.3550
 8871TIP3   OH250807   4.849   5.121   3.243 -0.3005 -0.3167  0.0835
 8871TIP3    H150808   4.813   5.194   3.294 -1.6844 -0.9216  0.0252
 8871TIP3    H250809   4.943   5.134   3.245 -0.5137  1.5267  0.0067
 8872TIP3   OH250810   1.710   4.906   2.782  0.3505 -0.6942 -0.3536
 8872TIP3    H150811   1.785   4.956   2.814  0.6326 -1.3906  0.0819
 8872TIP3    H250812   1.664   4.877   2.861 -0.4170 -0.2251 -0.6132
 8873TIP3   OH250813   3.005   1.658   0.775 -0.2483  0.1076  0.5166
 8873TIP3    H150814   3.033   1.631   0.687 -0.7178 -1.5918  0.8570
 8873TIP3    H250815   2.910   1.657   0.771 -0.3083 -1.3120  1.3798
 8874TIP3   OH250816   1.328   1.579   2.475 -0.3115  0.6985 -0.2696
 8874TIP3    H150817   1.348   1.670   2.454 -1.3092  0.8587 -0.5771
 8874TIP3    H250818   1.413   1.535   2.475  0.2801  1.7653  0.5931
 8875TIP3   OH250819   2.226   4.289   4.093  0.0560  0.2922 -0.1957
 8875TIP3    H150820   2.251   4.379   4.072 -0.7804  0.6150  0.1683
 8875TIP3    H250821   2.197   4.292   4.184 -0.9468 -0.1350 -0.4853
 8876TIP3   OH250822   4.583   6.053   1.541  0.4428  0.2433  0.6710
 8876TIP3    H150823   4.496   6.036   1.576  0.6344  0.0091  1.0369
 8876TIP3    H250824   4.640   5.992   1.587  0.5441 -0.8894 -0.8745
 8877TIP3   OH250825   1.156   2.867   1.870 -0.1340 -0.3768  0.1121
 8877TIP3    H150826   1.230   2.820   1.832 -1.1313 -0.8124 -1.4037
 8877TIP3    H250827   1.153   2.950   1.822  0.0617  0.1372  0.9734
 8878TIP3   OH250828   4.572   1.695   1.173 -0.1809  0.0045 -0.1293
 8878TIP3    H150829   4.485   1.684   1.135  0.4536 -0.8834 -1.4037
 8878TIP3    H250830   4.586   1.789   1.176 -0.9719  0.1352 -0.4415
 8879TIP3   OH250831   5.020   4.168   3.652 -1.0931  0.4449  0.0613
 8879TIP3    H150832   4.965   4.232   3.607 -0.0860  1.2439 -0.0404
 8879TIP3    H250833   5.056   4.215   3.727 -0.5764 -0.0890  0.1559
 8880TIP3   OH250834   1.488   0.645   3.427 -0.1143 -0.3744 -0.1114
 8880TIP3    H150835   1.450   0.651   3.515 -0.0744 -0.4086 -0.0918
 8880TIP3    H250836   1.440   0.574   3.385  1.2084 -1.7349  0.5589
 8881TIP3   OH250837   2.875   2.553   1.027 -0.6039  0.3999  0.0325
 8881TIP3    H150838   2.875   2.467   0.986  1.4799 -0.0904  0.9448
 8881TIP3    H250839   2.787   2.588   1.010 -0.9520 -1.2084 -1.7482
 8882TIP3   OH250840   4.598   2.521   2.895 -0.2471  0.0148 -0.3246
 8882TIP3    H150841   4.682   2.557   2.924  0.0759 -0.7288 -0.3228
 8882TIP3    H250842   4.592   2.544   2.803 -0.9005  1.6779  0.0935
 8883TIP3   OH250843   3.422   0.987   2.495 -0.2273  0.5712 -0.3842
 8883TIP3    H150844   3.501   0.936   2.509 -0.2917  0.4742 -0.3705
 8883TIP3    H250845   3.402   1.025   2.581 -0.5648  0.0599 -0.2316
 8884TIP3   OH250846   3.959   3.392   1.070 -0.1198  0.0953  0.2873
 8884TIP3    H150847   4.031   3.442   1.032 -1.5476  0.3995 -2.2576
 8884TIP3    H250848   3.991   3.302   1.070 -0.6155 -0.2267 -3.5170
 8885TIP3   OH250849   6.555   2.325   1.744 -0.0505 -0.0545 -0.0616
 8885TIP3    H150850   6.559   2.399   1.805  1.4394 -0.0086 -0.1814
 8885TIP3    H250851   6.638   2.279   1.756 -0.7242 -1.4092 -0.3878
 8886TIP3   OH250852   2.525   2.216   1.757 -0.2056  0.3481 -0.3833
 8886TIP3    H150853   2.556   2.250   1.673 -2.4148  1.9965 -0.6337
 8886TIP3    H250854   2.462   2.148   1.734 -1.9131  1.7947 -0.1793
 8887TIP3   OH250855   6.242   1.773   3.809 -0.4899 -0.0356 -0.5118
 8887TIP3    H150856   6.319   1.762   3.864 -1.3953 -0.8912  0.6362
 8887TIP3    H250857   6.201   1.854   3.841  0.6174  1.2132 -2.0491
 8888TIP3   OH250858   5.655   5.597   1.952 -0.3728  0.0589  0.0496
 8888TIP3    H150859   5.672   5.553   2.035  0.9398  0.7753  0.1901
 8888TIP3    H250860   5.572   5.559   1.921 -0.5371 -0.6963  1.3436
 8889TIP3   OH250861   0.292   6.311   2.335 -0.1488 -0.8874  0.6512
 8889TIP3    H150862   0.387   6.319   2.325 -0.0879 -1.5484  0.6660
 8889TIP3    H250863   0.269   6.379   2.399 -0.0213  0.8602 -1.0839
 8890TIP3   OH250864   2.108   5.895   1.282  0.7499 -0.0944 -0.0305
 8890TIP3    H150865   2.148   5.966   1.332 -0.6056 -0.5479  1.8248
 8890TIP3    H250866   2.065   5.841   1.348 -1.2893 -0.6544 -1.7061
 8891TIP3   OH250867   4.829   4.272   3.831 -0.2377  0.0906 -0.2947
 8891TIP3    H150868   4.837   4.213   3.905 -2.1645 -1.3179 -1.1174
 8891TIP3    H250869   4.898   4.338   3.844 -0.2010 -0.3912  2.4361
 8892TIP3   OH250870   2.112   5.759   3.480  0.7853 -0.0312 -0.4836
 8892TIP3    H150871   2.133   5.792   3.393 -2.0763  1.2282 -0.8234
 8892TIP3    H250872   2.045   5.693   3.465 -1.9070  2.1939  0.7728
 8893TIP3   OH250873   5.986   4.108   3.561 -0.4439 -0.2247 -0.3686
 8893TIP3    H150874   5.978   4.018   3.592  0.4234 -0.4899 -0.8468
 8893TIP3    H250875   6.053   4.103   3.492 -0.9394  0.6569 -0.9359
 8894TIP3   OH250876   2.226   6.124   1.394  0.2958  0.2532  0.5590
 8894TIP3    H150877   2.171   6.191   1.354  1.7405  0.4252 -1.2443
 8894TIP3    H250878   2.308   6.169   1.416  0.2038 -0.2645  2.1344
 8895TIP3   OH250879   2.524   3.950   2.664 -0.1541 -0.0069  0.3456
 8895TIP3    H150880   2.441   3.997   2.661 -0.5439 -0.6200  1.2225
 8895TIP3    H250881   2.590   4.018   2.674 -0.4778  0.5376 -0.9634
 8896TIP3   OH250882   1.478   2.682   2.349  0.7096  0.4062  0.4818
 8896TIP3    H150883   1.488   2.666   2.255  0.7772 -0.1015  0.5708
 8896TIP3    H250884   1.385   2.704   2.360  0.6278  0.1309  0.3428
 8897TIP3   OH250885   2.992   2.207   1.623 -0.2179 -0.0107  0.0156
 8897TIP3    H150886   2.984   2.151   1.700  0.9544 -0.9775 -0.5303
 8897TIP3    H250887   3.080   2.191   1.590 -0.0822  1.7068 -0.5368
 8898TIP3   OH250888   4.865   0.106   2.418  0.3663 -0.2352 -0.1731
 8898TIP3    H150889   4.841   0.166   2.347 -0.3650 -1.1902 -0.7536
 8898TIP3    H250890   4.815   0.137   2.493  0.6041  0.3611 -0.2532
 8899TIP3   OH250891   4.918   1.469   3.435 -0.3261 -0.0446  0.4757
 8899TIP3    H150892   4.894   1.379   3.456 -0.8962 -0.2882 -1.1176
 8899TIP3    H250893   4.892   1.481   3.344  2.2527  0.8648 -0.2289
 8900TIP3   OH250894   4.224   4.638   2.967 -0.4981 -0.0763  0.2971
 8900TIP3    H150895   4.219   4.592   2.883 -2.1727  0.5167  0.0290
 8900TIP3    H250896   4.259   4.724   2.946  1.2219 -0.6783  0.5750
 8901TIP3   OH250897   1.609   0.139   2.325  0.0147 -0.1432  0.0226
 8901TIP3    H150898   1.537   0.092   2.283 -1.9318  3.4701 -1.0564
 8901TIP3    H250899   1.575   0.165   2.410 -0.3998  2.3312 -0.8296
 8902TIP3   OH250900   2.722   6.348   0.649 -0.1733  0.2393  0.0263
 8902TIP3    H150901   2.673   6.424   0.681 -0.2262  0.4765 -0.6083
 8902TIP3    H250902   2.683   6.273   0.694  0.4771  0.6697  1.3671
 8903TIP3   OH250903   0.060   3.774   2.720  0.3114 -0.0603  0.2437
 8903TIP3    H150904   0.043   3.707   2.653 -1.6168  1.1265 -0.5254
 8903TIP3    H250905  -0.012   3.836   2.711  0.5797  0.7115  2.7551
 8904TIP3   OH250906   4.540   3.533   4.034 -0.2620  0.4893  0.0218
 8904TIP3    H150907   4.597   3.487   4.095 -0.5034  0.3844  0.1675
 8904TIP3    H250908   4.476   3.577   4.089 -1.1548 -0.5092 -0.2091
 8905TIP3   OH250909   4.226   5.521   3.202  0.7671  0.3365  0.3914
 8905TIP3    H150910   4.223   5.501   3.295  0.9652  1.6908  0.7141
 8905TIP3    H250911   4.309   5.483   3.172 -0.0913 -1.6266  0.3506
 8906TIP3   OH250912   6.276   3.763   1.601  0.1132 -0.7455 -0.5348
 8906TIP3    H150913   6.254   3.812   1.680  1.9462  1.0639 -1.0274
 8906TIP3    H250914   6.216   3.689   1.600 -1.9776  0.8053  0.9617
 8907TIP3   OH250915   5.471   1.331   1.723  0.4820 -0.3993  0.1618
 8907TIP3    H150916   5.498   1.423   1.726  2.3575 -0.8048 -1.5395
 8907TIP3    H250917   5.377   1.332   1.740  0.4523  1.8379  0.1136
 8908TIP3   OH250918   0.137   5.151   1.131  0.4694 -0.3519 -1.1105
 8908TIP3    H150919   0.068   5.147   1.197  1.0844 -0.2624 -0.4512
 8908TIP3    H250920   0.133   5.240   1.097 -0.6019 -0.7263 -2.0359
 8909TIP3   OH250921   5.168   2.711   3.954  0.1935 -0.4705 -0.0108
 8909TIP3    H150922   5.126   2.750   3.878 -0.1299 -0.2988  0.2498
 8909TIP3    H250923   5.245   2.766   3.970  1.0954 -1.3724 -1.0854
 8910TIP3   OH250924   6.576   3.507   2.190  0.7190  1.1202 -0.0573
 8910TIP3    H150925   6.534   3.589   2.218  0.9531  0.6753  1.6596
 8910TIP3    H250926   6.662   3.509   2.231  0.8087  0.0920 -0.1789
 8911TIP3   OH250927   3.078   6.194   3.222 -0.2759  0.2005 -0.3675
 8911TIP3    H150928   3.108   6.274   3.265 -1.8334  0.6782 -0.1059
 8911TIP3    H250929   3.138   6.126   3.253 -0.2421  0.8744  1.1111
 8912TIP3   OH250930   1.848   3.497   0.703 -0.3457  0.3953 -0.5159
 8912TIP3    H150931   1.823   3.448   0.781  1.1857 -0.7076 -0.6712
 8912TIP3    H250932   1.851   3.431   0.634  2.7357  0.4083 -0.5260
 8913TIP3   OH250933   4.286   2.920   0.823  0.7696  0.3314 -0.1137
 8913TIP3    H150934   4.243   2.867   0.890  0.3957  0.9325  0.1352
 8913TIP3    H250935   4.215   2.950   0.766  1.3156 -2.2536 -2.3532
 8914TIP3   OH250936   3.804   6.020   2.265  0.2623  0.0003  0.1538
 8914TIP3    H150937   3.726   5.991   2.217 -0.0497 -1.3045  1.3721
 8914TIP3    H250938   3.846   6.084   2.207 -1.5874  0.5699 -0.6280
 8915TIP3   OH250939   3.126   6.225   2.196  0.3577  0.7911 -0.1819
 8915TIP3    H150940   3.158   6.253   2.110 -0.6128  0.3046 -0.7098
 8915TIP3    H250941   3.082   6.142   2.180 -1.8029  1.7617  0.3664
 8916TIP3   OH250942   2.275   0.083   2.429 -0.5433  0.2937  0.4823
 8916TIP3    H150943   2.322   0.115   2.352  0.1608  1.3686  1.3264
 8916TIP3    H250944   2.230   0.160   2.464  0.0696  0.0993  1.7829
 8917TIP3   OH250945   6.645   5.828   2.357 -0.3560 -0.4890  0.0612
 8917TIP3    H150946   6.680   5.816   2.446 -1.7395  1.0774  0.8671
 8917TIP3    H250947   6.553   5.800   2.363 -1.4335  2.7039  0.0470
 8918TIP3   OH250948   6.207   5.715   1.121  0.4186 -0.1411 -0.3349
 8918TIP3    H150949   6.257   5.796   1.117 -1.4471  1.0147 -1.8328
 8918TIP3    H250950   6.212   5.679   1.032 -0.4632 -0.5794 -0.2222
 8919TIP3   OH250951   0.575   3.256   3.294 -0.0399 -0.2585 -0.0904
 8919TIP3    H150952   0.653   3.301   3.326 -0.3200  0.3088 -0.1990
 8919TIP3    H250953   0.562   3.184   3.356  0.0868  0.1428  0.4092
 8920TIP3   OH250954   0.167   3.145   1.879 -0.1449 -0.0388  0.4010
 8920TIP3    H150955   0.225   3.071   1.894  2.8245  2.3365  1.7002
 8920TIP3    H250956   0.128   3.163   1.964 -1.2026 -0.3365 -0.0074
 8921TIP3   OH250957   5.061   0.493   3.317  0.1193 -0.1435  0.1210
 8921TIP3    H150958   5.013   0.412   3.304  0.6351 -0.3631 -0.4897
 8921TIP3    H250959   5.027   0.553   3.251  0.0629 -0.0156  0.2661
 8922TIP3   OH250960   4.462   3.955   1.174  0.1291 -0.5401 -0.0923
 8922TIP3    H150961   4.399   4.002   1.119 -0.5633 -1.3112  0.0177
 8922TIP3    H250962   4.534   4.017   1.187 -0.9215  0.6233  0.3637
 8923TIP3   OH250963   6.342   5.194   4.220 -0.0698 -0.4106  0.5375
 8923TIP3    H150964   6.264   5.250   4.220  1.1269  1.3579  0.3125
 8923TIP3    H250965   6.314   5.114   4.176 -1.8940 -0.0555  0.9712
 8924TIP3   OH250966   4.487   4.213   2.742  0.3436  0.2009  0.0981
 8924TIP3    H150967   4.414   4.151   2.743  0.2315  0.3378  0.4266
 8924TIP3    H250968   4.514   4.217   2.650  1.0481 -1.1562  0.2264
 8925TIP3   OH250969   2.776   0.234   1.290 -0.3455  0.1070 -0.4103
 8925TIP3    H150970   2.728   0.170   1.343  0.8853 -1.0375 -0.6147
 8925TIP3    H250971   2.857   0.248   1.339  0.0179  0.4181 -1.0963
 8926TIP3   OH250972   1.482   1.112   1.517 -0.1659  0.4431 -0.0356
 8926TIP3    H150973   1.556   1.092   1.575 -0.1821  0.9871  0.1833
 8926TIP3    H250974   1.481   1.208   1.513  0.4365  0.4155 -1.7120
 8927TIP3   OH250975   6.476   2.224   1.260 -0.2555 -0.2529  0.4889
 8927TIP3    H150976   6.527   2.306   1.259 -0.2361 -0.2455  1.3264
 8927TIP3    H250977   6.490   2.187   1.173 -0.4128  0.7270  0.0248
 8928TIP3   OH250978   2.231   1.118   0.896  0.0592  1.1212  0.0865
 8928TIP3    H150979   2.307   1.121   0.954  0.6598  1.8855 -0.7152
 8928TIP3    H250980   2.256   1.172   0.821 -1.8262  2.6462  0.4821
 8929TIP3   OH250981   2.621   3.097   4.279 -0.5372  0.0396  0.0025
 8929TIP3    H150982   2.546   3.140   4.319  0.1224  1.0726  0.1483
 8929TIP3    H250983   2.684   3.167   4.263  0.3845 -0.7987 -0.1586
 8930TIP3   OH250984   2.204   3.051   2.453 -0.3042 -0.2335  0.0966
 8930TIP3    H150985   2.273   3.002   2.409 -2.1804 -1.1988 -1.9620
 8930TIP3    H250986   2.240   3.140   2.462  2.0960 -1.2251  1.4102
 8931TIP3   OH250987   5.755   6.050   1.734  0.0130  0.2578  0.1518
 8931TIP3    H150988   5.817   6.051   1.807  3.1262 -0.2287 -2.2830
 8931TIP3    H250989   5.758   6.139   1.699 -0.7235  0.2355  0.0130
 8932TIP3   OH250990   4.080   3.628   2.016 -0.0533 -0.1326  0.2119
 8932TIP3    H150991   4.062   3.668   1.931  1.1649 -0.3972 -0.1926
 8932TIP3    H250992   4.139   3.690   2.059  1.2640 -1.1068 -0.1272
 8933TIP3   OH250993   3.428   2.527   3.185  0.0948  0.2762 -0.0755
 8933TIP3    H150994   3.335   2.546   3.187  0.5562  2.9020  0.1379
 8933TIP3    H250995   3.469   2.608   3.153  2.3174 -0.6975  0.0810
 8934TIP3   OH250996   2.050   2.620   2.530  1.0352 -0.3565 -0.0350
 8934TIP3    H150997   2.140   2.651   2.536  1.1898 -0.7919 -0.0525
 8934TIP3    H250998   2.001   2.675   2.591  1.4156 -0.4858  0.3917
 8935TIP3   OH250999   6.051   3.238   3.317 -0.2645  0.2015 -0.3863
 8935TIP3    H151000   6.092   3.253   3.402 -0.3987 -0.3372 -0.2218
 8935TIP3    H251001   5.977   3.180   3.337  1.1678 -2.0369 -1.1940
 8936TIP3   OH251002   5.795   5.992   1.135 -0.4762 -0.6927  0.3887
 8936TIP3    H151003   5.867   5.950   1.088  0.4225  0.5153  0.6205
 8936TIP3    H251004   5.760   6.056   1.072 -0.7980 -0.6898  0.5704
 8937TIP3   OH251005   6.237   3.227   1.189 -0.1350 -0.6640  0.0954
 8937TIP3    H151006   6.287   3.248   1.268  1.5019 -0.5594 -0.9161
 8937TIP3    H251007   6.165   3.289   1.189  0.2078 -0.2427  1.1799
 8938TIP3   OH251008   3.922   2.082   2.918 -0.1060  0.2455  0.5057
 8938TIP3    H151009   3.831   2.079   2.888  0.5210 -0.1902 -1.5377
 8938TIP3    H251010   3.966   2.139   2.855  1.3907 -1.0194  0.3434
 8939TIP3   OH251011   4.502   2.692   3.233 -0.7284 -0.6043 -0.7993
 8939TIP3    H151012   4.521   2.602   3.207 -0.4344 -0.7935  0.0203
 8939TIP3    H251013   4.408   2.694   3.248 -0.6100 -1.0333  0.0732
 8940TIP3   OH251014   4.105   2.532   0.540 -0.3594 -0.0161  0.4396
 8940TIP3    H151015   4.024   2.578   0.561 -0.7113 -0.2571 -0.3724
 8940TIP3    H251016   4.085   2.481   0.461  0.5365 -0.1949  0.3133
 8941TIP3   OH251017   5.819   0.489   0.688  0.0039 -0.2642  0.1608
 8941TIP3    H151018   5.891   0.494   0.752  1.5501 -1.5517 -1.3693
 8941TIP3    H251019   5.793   0.397   0.689 -0.6068 -0.1021 -0.3952
 8942TIP3   OH251020   5.725   6.645   1.608  0.5531 -0.4816 -0.0429
 8942TIP3    H151021   5.729   6.659   1.514  0.4535 -0.7634 -0.0917
 8942TIP3    H251022   5.800   6.692   1.644  0.0485  0.4293 -0.1633
 8943TIP3   OH251023   0.627   6.225   1.564 -0.0984 -0.0446  1.0111
 8943TIP3    H151024   0.650   6.164   1.493  2.9732 -0.1958  1.9868
 8943TIP3    H251025   0.566   6.176   1.619 -0.8188 -0.7128 -0.3298
 8944TIP3   OH251026   4.964   6.474   0.529 -0.2060  0.0172  0.4413
 8944TIP3    H151027   4.989   6.562   0.558 -0.0780  0.1103  0.0619
 8944TIP3    H251028   5.046   6.425   0.528 -0.1660  0.0878 -0.0044
 8945TIP3   OH251029   4.114   2.153   0.487 -0.2783  0.6387  0.3803
 8945TIP3    H151030   4.129   2.214   0.560  2.2480  0.8294 -0.2048
 8945TIP3    H251031   4.106   2.209   0.410  0.7311  0.3024  0.0213
 8946TIP3   OH251032   0.616   6.419   3.117 -0.6015 -0.0397 -0.0850
 8946TIP3    H151033   0.597   6.356   3.047  1.9999  0.0439 -0.9720
 8946TIP3    H251034   0.648   6.366   3.190 -1.0933  0.0625  0.2117
 8947TIP3   OH251035   5.560   2.927   0.651 -0.0760  0.2678 -0.3414
 8947TIP3    H151036   5.500   2.901   0.721 -0.0310 -1.0765 -0.7691
 8947TIP3    H251037   5.647   2.908   0.686  0.0250  0.8441 -0.2721
 8948TIP3   OH251038   0.293   4.840   2.467 -0.2998  0.4098  0.1169
 8948TIP3    H151039   0.368   4.831   2.525 -0.0014  1.2882 -0.1152
 8948TIP3    H251040   0.331   4.840   2.379 -0.9226 -3.3270 -0.3264
 8949TIP3   OH251041   3.510   2.983   1.125 -0.6470 -0.3161  0.4186
 8949TIP3    H151042   3.556   3.058   1.088 -0.2593 -1.5896 -1.7921
 8949TIP3    H251043   3.522   2.993   1.220  0.1977  1.8699  0.1545
 8950TIP3   OH251044   1.249   1.677   1.897  0.3302 -0.1337 -0.4027
 8950TIP3    H151045   1.184   1.646   1.960 -0.6010  1.8024 -0.3319
 8950TIP3    H251046   1.304   1.601   1.880 -1.8002 -1.8097 -0.2876
 8951TIP3   OH251047   5.953   3.467   2.417 -0.1906  0.3777 -0.2062
 8951TIP3    H151048   5.899   3.393   2.445 -0.3095  0.8793  0.9407
 8951TIP3    H251049   5.891   3.534   2.389 -0.1217  0.4657 -0.1504
 8952TIP3   OH251050   2.318   1.459   1.491 -0.5080 -0.1109  0.1895
 8952TIP3    H151051   2.366   1.377   1.486  1.0750  0.7948 -0.1724
 8952TIP3    H251052   2.367   1.519   1.435 -2.0443  0.8959 -0.1441
 8953TIP3   OH251053   5.413   4.658   3.170  0.4706  0.2561 -0.1153
 8953TIP3    H151054   5.350   4.683   3.237  0.6610  1.7984 -0.4534
 8953TIP3    H251055   5.384   4.573   3.139 -1.6372  1.0467 -0.4753
 8954TIP3   OH251056   1.469   3.384   3.716 -0.8127 -0.0013  0.1141
 8954TIP3    H151057   1.449   3.383   3.622 -0.2490  0.2945 -0.0103
 8954TIP3    H251058   1.556   3.424   3.722 -1.1814  0.7187  0.8302
 8955TIP3   OH251059   3.130   6.053   2.940 -0.0842  0.6038 -0.0321
 8955TIP3    H151060   3.111   5.999   3.018 -0.2670  0.8300  0.0830
 8955TIP3    H251061   3.174   5.994   2.880  0.3084  0.4967  0.3559
 8956TIP3   OH251062   6.549   1.955   3.463 -0.7300 -0.2869  0.2108
 8956TIP3    H151063   6.613   1.986   3.527  0.1685 -3.0495  0.7762
 8956TIP3    H251064   6.495   1.892   3.511 -3.4887  1.3795 -0.4470
 8957TIP3   OH251065   6.582   3.614   1.730  0.1860 -0.2480 -0.0657
 8957TIP3    H151066   6.663   3.582   1.770 -0.2894 -1.0775  0.2721
 8957TIP3    H251067   6.609   3.655   1.648  1.0810  0.6239  0.6486
 8958TIP3   OH251068   3.154   6.444   2.834  0.6786  0.7041 -0.6984
 8958TIP3    H151069   3.182   6.521   2.883  1.1921  1.3952 -2.0284
 8958TIP3    H251070   3.068   6.467   2.800  0.3603  0.2609 -0.2071
 8959TIP3   OH251071   0.041   6.243   1.319 -0.4722 -0.2431 -0.1502
 8959TIP3    H151072   0.077   6.275   1.402 -1.4776  1.9658 -0.4900
 8959TIP3    H251073   0.112   6.190   1.281  1.4628  1.8043  0.3979
 8960TIP3   OH251074   5.072   3.072   1.492  0.6269  0.7823 -0.3071
 8960TIP3    H151075   5.080   3.083   1.397  2.6777 -2.7589 -0.7078
 8960TIP3    H251076   5.010   2.999   1.503  2.6473 -0.8598  0.8301
 8961TIP3   OH251077   2.961   4.464   3.385  0.3263 -0.1289  0.1483
 8961TIP3    H151078   2.937   4.371   3.392 -0.3252  0.0726  0.5812
 8961TIP3    H251079   2.911   4.508   3.453  0.6260  0.5497 -0.0587
 8962TIP3   OH251080   5.948   4.214   2.899 -0.4101  0.4462 -0.2049
 8962TIP3    H151081   6.000   4.138   2.871  0.6974  0.8100  0.7702
 8962TIP3    H251082   5.956   4.277   2.827  0.5120  0.4934 -0.0674
 8963TIP3   OH251083   0.811   3.833   0.965  0.0032 -1.2773 -0.6759
 8963TIP3    H151084   0.889   3.778   0.962 -0.2579 -1.6554 -0.6909
 8963TIP3    H251085   0.790   3.849   0.872 -0.5626 -2.0928 -0.7026
 8964TIP3   OH251086   6.173   2.403   4.189  0.0504 -0.1240 -0.1323
 8964TIP3    H151087   6.108   2.423   4.121  1.0361  0.3356 -0.9641
 8964TIP3    H251088   6.128   2.420   4.271 -1.1005 -0.4702 -0.6717
 8965TIP3   OH251089   4.501   5.033   0.761  0.4035  0.0590 -0.3269
 8965TIP3    H151090   4.409   5.050   0.784  0.5282 -0.7329  0.8636
 8965TIP3    H251091   4.550   5.098   0.810  0.4548  1.1777 -1.7859
 8966TIP3   OH251092   0.261   2.823   3.114  0.3511  0.3117 -0.1494
 8966TIP3    H151093   0.199   2.879   3.068  1.2590  0.7113 -0.9194
 8966TIP3    H251094   0.336   2.816   3.055  0.6310 -0.9949  0.3090
 8967TIP3   OH251095   5.057   1.125   0.651  0.5253  0.1051 -0.1829
 8967TIP3    H151096   5.127   1.129   0.586  0.0349 -2.7889 -1.0064
 8967TIP3    H251097   4.977   1.119   0.599 -0.1261  0.5515  0.7390
 8968TIP3   OH251098   1.722   4.099   1.664  0.2293  0.3168  0.0323
 8968TIP3    H151099   1.709   4.029   1.600  2.8950  2.7744 -3.5819
 8968TIP3    H251100   1.638   4.145   1.666  0.0712  0.2099 -1.8678
 8969TIP3   OH251101   0.072   1.527   0.624 -0.0172  0.1029 -0.0799
 8969TIP3    H151102   0.099   1.556   0.711  0.4926  1.3784 -0.6306
 8969TIP3    H251103   0.031   1.442   0.638 -0.1384  0.3866  1.4300
 8970TIP3   OH251104   3.997   0.269   2.794 -0.4389  0.3022  0.4487
 8970TIP3    H151105   4.001   0.265   2.889  0.0630 -0.3511  0.4112
 8970TIP3    H251106   4.087   0.256   2.765 -0.8843 -1.9562 -0.1636
 8971TIP3   OH251107   2.788   2.369   0.601 -0.1936  0.3508  0.0822
 8971TIP3    H151108   2.721   2.390   0.535  1.5100  2.1784 -1.1551
 8971TIP3    H251109   2.817   2.454   0.634  3.1460 -0.1671 -1.1374
 8972TIP3   OH251110   3.225   3.110   2.795 -0.8971 -0.1116 -0.2589
 8972TIP3    H151111   3.139   3.152   2.807  0.4444  2.4505  1.2329
 8972TIP3    H251112   3.286   3.167   2.842  1.9130 -0.8546 -2.7224
 8973TIP3   OH251113   3.059   5.629   1.811  0.3639 -0.0649  0.3635
 8973TIP3    H151114   3.085   5.696   1.748  1.9838 -1.0291 -0.0741
 8973TIP3    H251115   2.965   5.620   1.799  0.3279  1.1907 -0.4944
 8974TIP3   OH251116   3.279   1.297   2.190  0.0642 -0.5237 -0.4241
 8974TIP3    H151117   3.347   1.361   2.173 -0.6194 -0.0963 -1.6721
 8974TIP3    H251118   3.208   1.320   2.129 -1.9354  0.1545  1.9704
 8975TIP3   OH251119   2.178   3.982   2.933 -0.4288 -0.1922  0.5010
 8975TIP3    H151120   2.236   3.957   3.005  1.3752  0.9532 -0.4595
 8975TIP3    H251121   2.190   3.913   2.867 -1.1319 -0.6048  0.8032
 8976TIP3   OH251122   5.745   0.842   1.904  0.1448 -0.0378 -0.0043
 8976TIP3    H151123   5.712   0.799   1.983 -0.1012 -2.6650 -1.4381
 8976TIP3    H251124   5.678   0.906   1.882 -0.3837 -0.1378  1.2064
 8977TIP3   OH251125   1.546   5.284   2.273  0.3733 -0.2007 -0.2738
 8977TIP3    H151126   1.575   5.374   2.257 -0.4244  0.1465  0.1831
 8977TIP3    H251127   1.627   5.236   2.291  0.7600  0.5547  0.0635
 8978TIP3   OH251128   1.746   0.163   1.458  0.2998 -0.2529 -0.0058
 8978TIP3    H151129   1.666   0.136   1.413 -0.0792 -1.2454  1.2089
 8978TIP3    H251130   1.716   0.200   1.541  1.0434  0.5734 -0.0847
 8979TIP3   OH251131   5.467   4.762   1.393  0.5554  0.1840 -0.5295
 8979TIP3    H151132   5.457   4.700   1.465 -0.2907 -1.0147 -1.6472
 8979TIP3    H251133   5.378   4.776   1.360  0.8616  1.1584 -0.9873
 8980TIP3   OH251134   5.785   5.955   2.544 -0.1427  0.9703  0.0712
 8980TIP3    H151135   5.846   5.897   2.499 -0.8512  0.7927 -0.6716
 8980TIP3    H251136   5.775   6.030   2.486 -0.7271  0.9385  0.1253
 8981TIP3   OH251137   4.763   6.458   1.683  0.2906  0.1607  0.0115
 8981TIP3    H151138   4.818   6.394   1.729  0.1677 -1.2910 -1.7489
 8981TIP3    H251139   4.818   6.489   1.611  0.3847  2.1845  0.8936
 8982TIP3   OH251140   4.527   4.326   2.164  0.5509 -0.2334 -0.3683
 8982TIP3    H151141   4.596   4.272   2.204  0.9808  0.0069 -0.7809
 8982TIP3    H251142   4.552   4.333   2.072  0.5008  0.6861 -0.3147
 8983TIP3   OH251143   1.687   0.746   0.449 -0.1365  0.5585 -0.3260
 8983TIP3    H151144   1.758   0.739   0.385  0.4696  0.3293  0.3719
 8983TIP3    H251145   1.730   0.759   0.533 -0.7980 -1.8738  0.4718
 8984TIP3   OH251146   3.476   4.487   0.861  0.2734  0.2382  0.1588
 8984TIP3    H151147   3.392   4.453   0.828 -1.2055  0.9941  2.8377
 8984TIP3    H251148   3.504   4.550   0.795 -0.9430 -0.4649 -1.0890
 8985TIP3   OH251149   2.709   0.678   1.642  0.1148 -0.1265 -0.1356
 8985TIP3    H151150   2.746   0.607   1.695  0.3617 -0.7732 -1.1483
 8985TIP3    H251151   2.616   0.680   1.667  0.4367  0.2973  1.0877
 8986TIP3   OH251152   4.969   1.351   0.785  0.1972 -0.2468 -0.2032
 8986TIP3    H151153   4.977   1.265   0.744  1.4179 -0.2879  0.0779
 8986TIP3    H251154   4.927   1.406   0.718  0.9111 -0.6465 -0.9988
 8987TIP3   OH251155   1.911   4.042   2.503 -0.5515  0.3671  0.5931
 8987TIP3    H151156   1.915   4.121   2.557 -2.0695  0.1018  1.1484
 8987TIP3    H251157   1.819   4.035   2.477 -0.1133 -0.2868 -0.8842
 8988TIP3   OH251158   2.415   3.252   3.479  0.6026  0.3464  0.3405
 8988TIP3    H151159   2.479   3.231   3.546  0.0113 -0.8703  0.5462
 8988TIP3    H251160   2.409   3.173   3.426 -1.7035 -0.0839  1.1301
 8989TIP3   OH251161   1.587   4.857   3.023 -0.0504  0.0295 -0.4349
 8989TIP3    H151162   1.643   4.781   3.037 -1.2892 -1.1308 -1.4872
 8989TIP3    H251163   1.499   4.821   3.015 -0.6198  1.5258 -1.3828
 8990TIP3   OH251164   1.955   6.420   2.112  0.1584 -0.9531  0.1604
 8990TIP3    H151165   1.958   6.434   2.017  0.5104 -1.3410  0.1137
 8990TIP3    H251166   1.866   6.444   2.136  0.3344  0.0395 -0.1274
 8991TIP3   OH251167   1.124   1.797   2.422 -0.3480 -0.1887  0.0119
 8991TIP3    H151168   1.107   1.801   2.328  4.0766 -1.5615 -1.1303
 8991TIP3    H251169   1.087   1.713   2.449 -0.7882 -0.2649 -0.7864
 8992TIP3   OH251170   0.936   3.243   1.131  0.1426 -0.3102  0.4330
 8992TIP3    H151171   0.941   3.305   1.058  1.5666 -2.0433 -1.0363
 8992TIP3    H251172   0.971   3.291   1.206 -0.9808  1.3848 -0.0651
 8993TIP3   OH251173   6.210   2.573   2.932 -0.0507 -0.0559  0.3620
 8993TIP3    H151174   6.196   2.658   2.890 -0.8475  1.5877  3.6326
 8993TIP3    H251175   6.280   2.588   2.996 -1.3199 -1.3473  2.1737
 8994TIP3   OH251176   2.436   5.794   3.952  0.0916  0.3399  0.4074
 8994TIP3    H151177   2.458   5.878   3.993 -0.7016  1.3691 -1.1609
 8994TIP3    H251178   2.513   5.773   3.898 -0.0997  0.5776  0.0358
 8995TIP3   OH251179   3.225   1.059   2.032  0.4693 -0.2002  0.2015
 8995TIP3    H151180   3.180   1.023   2.109  0.0793  1.0112  0.5547
 8995TIP3    H251181   3.293   1.116   2.069 -1.1354  2.1834 -0.2804
 8996TIP3   OH251182   5.232   2.443   3.745  0.1001 -0.0322  0.3101
 8996TIP3    H151183   5.315   2.483   3.768  0.5170 -0.0588 -1.0384
 8996TIP3    H251184   5.256   2.364   3.696 -0.7195 -0.6394  0.8523
 8997TIP3   OH251185   2.364   6.531   1.146  0.1963  0.2003 -0.9356
 8997TIP3    H151186   2.440   6.571   1.103 -0.1901 -1.0466 -2.9101
 8997TIP3    H251187   2.289   6.557   1.093 -0.2375 -1.8278 -1.4159
 8998TIP3   OH251188   6.303   5.597   0.891  0.2489  0.0223  0.7347
 8998TIP3    H151189   6.269   5.519   0.847  0.1540  0.6599 -0.3595
 8998TIP3    H251190   6.358   5.640   0.826  0.5409  0.7197  1.4192
 8999TIP3   OH251191   1.958   5.083   1.717  0.4512  0.1213 -0.0089
 8999TIP3    H151192   2.028   5.129   1.763 -1.6617  0.3177  3.2845
 8999TIP3    H251193   1.927   5.146   1.651  1.1322  1.3373  0.7991
 9000TIP3   OH251194   0.676   2.163   3.311  0.3467 -0.4673  0.0351
 9000TIP3    H151195   0.771   2.172   3.301  0.2268 -0.5641 -1.5442
 9000TIP3    H251196   0.648   2.121   3.229 -1.2783  1.3022 -0.3886
 9001TIP3   OH251197   3.604   4.550   2.561 -0.3663  0.2469 -0.1591
 9001TIP3    H151198   3.548   4.609   2.512 -0.6492 -0.1485 -0.3186
 9001TIP3    H251199   3.581   4.566   2.653  0.7231  1.5537 -0.0779
 9002TIP3   OH251200   5.174   3.002   2.154 -0.2122 -0.0110 -0.3420
 9002TIP3    H151201   5.199   3.092   2.132 -0.5033  0.1441 -0.0555
 9002TIP3    H251202   5.183   2.954   2.072 -0.6744  0.4170 -0.6524
 9003TIP3   OH251203   5.554   5.037   1.328 -0.4463  0.5076  0.4966
 9003TIP3    H151204   5.518   4.953   1.354  2.4687 -1.5543 -1.5530
 9003TIP3    H251205   5.615   5.060   1.398 -0.2744  0.2572  0.4289
 9004TIP3   OH251206   0.613   3.032   3.838  0.8907  0.3887  0.3934
 9004TIP3    H151207   0.576   2.969   3.776 -0.0558  0.2253  1.1074
 9004TIP3    H251208   0.611   2.987   3.923  0.6442  1.2010  0.8298
 9005TIP3   OH251209   3.543   1.608   0.436  0.5027 -0.4455  0.4995
 9005TIP3    H151210   3.579   1.675   0.377 -0.5171  0.2082  0.5986
 9005TIP3    H251211   3.530   1.655   0.519 -0.8508 -0.5796  0.3764
 9006TIP3   OH251212   1.011   4.488   0.808 -0.8024 -0.3299  0.4760
 9006TIP3    H151213   0.942   4.490   0.874 -0.7193 -0.2104  0.5575
 9006TIP3    H251214   0.987   4.557   0.747  1.2440  2.3347  2.4800
 9007TIP3   OH251215   4.421   1.421   0.777 -0.6661 -0.3636  0.1413
 9007TIP3    H151216   4.497   1.468   0.742 -2.4530  1.6299 -1.3373
 9007TIP3    H251217   4.453   1.333   0.794  1.4638 -0.2297 -2.4597
 9008TIP3   OH251218   6.698   6.351   2.569 -0.2198 -0.4185  0.6597
 9008TIP3    H151219   6.665   6.294   2.501  1.8099 -2.2460  1.0748
 9008TIP3    H251220   6.620   6.390   2.609 -1.5808 -1.5867 -0.7562
 9009TIP3   OH251221   2.345   0.928   3.376  0.0707 -0.2512  0.0941
 9009TIP3    H151222   2.435   0.913   3.347  0.1414  0.9314 -0.3940
 9009TIP3    H251223   2.295   0.856   3.338  0.7259 -0.6352 -0.0591
 9010TIP3   OH251224   0.205   0.679   1.043  0.0061  0.2063 -0.3021
 9010TIP3    H151225   0.201   0.597   1.094 -0.4535  1.6168  2.0810
 9010TIP3    H251226   0.154   0.661   0.965  0.5710 -2.0284 -0.2421
 9011TIP3   OH251227   6.496   5.813   2.697 -0.2168  1.3099 -0.1097
 9011TIP3    H151228   6.501   5.788   2.789  0.0552  1.4040 -0.1001
 9011TIP3    H251229   6.536   5.739   2.650 -3.1240 -0.2417 -0.4050
 9012TIP3   OH251230   5.143   3.049   2.908  0.4777  0.0159  0.4382
 9012TIP3    H151231   5.099   2.980   2.858  1.1967 -0.5400  0.5593
 9012TIP3    H251232   5.218   3.074   2.853  0.7887 -0.0039  0.8493
 9013TIP3   OH251233   5.692   1.982   3.033  0.6336  0.1365 -0.0313
 9013TIP3    H151234   5.750   2.052   3.003  0.4821 -0.0512 -0.7859
 9013TIP3    H251235   5.637   1.962   2.957 -1.8974  1.7506  1.2522
 9014TIP3   OH251236   3.219   0.814   2.453  0.1760  0.1550  0.0619
 9014TIP3    H151237   3.256   0.733   2.417  1.1569  0.1612  1.0138
 9014TIP3    H251238   3.294   0.873   2.463 -0.4740  1.0802 -0.3048
 9015TIP3   OH251239   5.563   1.642   2.178  0.3048 -0.0251 -0.2515
 9015TIP3    H151240   5.563   1.654   2.273 -3.1032  1.1524 -0.2734
 9015TIP3    H251241   5.534   1.552   2.165  1.9035 -0.5826 -0.2551
 9016TIP3   OH251242   0.259   4.676   1.148  0.2413 -0.4151  0.0951
 9016TIP3    H151243   0.349   4.647   1.162 -0.4217 -2.7227  0.1445
 9016TIP3    H251244   0.238   4.728   1.226  1.1722 -0.8351  0.6431
 9017TIP3   OH251245   3.039   3.158   0.848  0.3428 -0.0534  0.5411
 9017TIP3    H151246   2.981   3.224   0.886 -0.0326  1.2474 -2.0970
 9017TIP3    H251247   2.982   3.085   0.826  0.0077  0.4189 -0.2164
 9018TIP3   OH251248   5.299   4.183   0.434 -0.5528 -0.0316 -0.2187
 9018TIP3    H151249   5.234   4.246   0.465  0.3981  0.9977 -0.2193
 9018TIP3    H251250   5.349   4.231   0.368 -1.2662 -1.5513 -1.9423
 9019TIP3   OH251251   1.285   0.036   2.039 -0.1600  0.0395 -0.5584
 9019TIP3    H151252   1.280   0.112   2.096 -1.4133  0.1474 -0.7931
 9019TIP3    H251253   1.258  -0.037   2.095 -0.0650 -0.0612 -0.6446
 9020TIP3   OH251254   5.332   5.329   3.294 -0.0682 -0.3566  0.0348
 9020TIP3    H151255   5.389   5.253   3.284  0.1642 -0.0758 -0.9063
 9020TIP3    H251256   5.384   5.402   3.261 -1.2954 -0.2480 -1.8477
 9021TIP3   OH251257   3.845   3.410   2.794 -0.0588  0.8397  0.1674
 9021TIP3    H151258   3.786   3.401   2.869 -0.2387 -0.5490 -0.1161
 9021TIP3    H251259   3.788   3.436   2.722 -0.3813 -0.5937 -0.1285
 9022TIP3   OH251260   3.829   1.956   3.633  0.0859  0.2801 -0.5581
 9022TIP3    H151261   3.831   2.031   3.693 -1.3797  0.2133 -0.3820
 9022TIP3    H251262   3.741   1.920   3.642  0.7586 -1.4943 -0.6341
 9023TIP3   OH251263   4.719   5.095   2.781  0.1669 -0.4444  0.1949
 9023TIP3    H151264   4.702   5.001   2.773  0.5991 -0.4909 -0.1568
 9023TIP3    H251265   4.685   5.133   2.700  1.4549 -0.5012 -0.3873
 9024TIP3   OH251266   3.545   4.205   3.512  0.4902 -0.2271  0.2569
 9024TIP3    H151267   3.623   4.207   3.568 -0.3241  0.6610  1.4224
 9024TIP3    H251268   3.514   4.115   3.515  1.2382 -0.4926  0.1078
 9025TIP3   OH251269   4.518   1.071   0.665  1.0768  0.2831 -0.0452
 9025TIP3    H151270   4.557   1.031   0.588  2.2134 -0.0508  0.6821
 9025TIP3    H251271   4.424   1.056   0.655  1.2156  0.2461 -1.3534
 9026TIP3   OH251272   2.043   5.502   3.440  0.8243  0.6733 -0.3247
 9026TIP3    H151273   1.987   5.459   3.375 -1.0523  2.6166 -0.0908
 9026TIP3    H251274   2.050   5.438   3.511 -1.2288  0.3760 -0.3236
 9027TIP3   OH251275   5.766   2.880   3.640 -0.0617 -0.2149  0.2582
 9027TIP3    H151276   5.837   2.898   3.701 -0.6446  2.3470  0.3040
 9027TIP3    H251277   5.809   2.857   3.558  0.8138  0.0082  0.6479
 9028TIP3   OH251278   1.590   0.051   1.256  0.0486 -0.9730 -0.2942
 9028TIP3    H151279   1.592  -0.044   1.245  1.3098 -1.1173  0.8744
 9028TIP3    H251280   1.513   0.067   1.311  1.3173 -1.6457  1.7902
 9029TIP3   OH251281   4.277   3.258   1.314  0.5703  0.8152  0.3979
 9029TIP3    H151282   4.307   3.206   1.389  0.3418 -0.4135 -0.3282
 9029TIP3    H251283   4.331   3.336   1.316  0.4662  0.8848  1.9314
 9030TIP3   OH251284   1.835   1.516   0.687  0.2849  0.7326  0.3633
 9030TIP3    H151285   1.876   1.430   0.686 -1.2980 -0.0996 -1.6952
 9030TIP3    H251286   1.880   1.564   0.756  2.0271 -1.3381  0.7626
 9031TIP3   OH251287   2.003   0.106   2.623  0.0941 -0.1137  0.2937
 9031TIP3    H151288   1.987   0.038   2.558  2.8063 -1.4407  0.8790
 9031TIP3    H251289   2.018   0.185   2.572  0.7519 -0.8153 -0.6225
 9032TIP3   OH251290   4.002   0.193   2.519 -0.4080  0.1738  0.4319
 9032TIP3    H151291   3.969   0.184   2.608  2.6900 -0.3848  1.6311
 9032TIP3    H251292   4.025   0.104   2.492 -0.1671  0.4882 -0.4515
 9033TIP3   OH251293   6.029   4.312   0.509  0.1504 -0.3208 -0.6233
 9033TIP3    H151294   6.042   4.362   0.590  3.3381 -1.5976 -0.1594
 9033TIP3    H251295   6.082   4.358   0.444 -1.7808  0.2602 -1.8664
 9034TIP3   OH251296   0.520   3.083   1.214 -0.1180 -0.6863  0.2036
 9034TIP3    H151297   0.611   3.056   1.201  0.6060  2.5121 -3.0827
 9034TIP3    H251298   0.523   3.146   1.285  0.5791  0.4762 -0.8157
 9035TIP3   OH251299   0.391   3.325   2.027  0.3228  0.0321 -0.3279
 9035TIP3    H151300   0.301   3.322   1.994  0.3983 -0.4472 -0.4894
 9035TIP3    H251301   0.439   3.264   1.972  0.7443  0.2587 -0.2172
 9036TIP3   OH251302   0.685   1.670   2.752  0.2441 -0.0230 -0.0730
 9036TIP3    H151303   0.598   1.695   2.781  0.2782  0.7086 -0.5902
 9036TIP3    H251304   0.744   1.731   2.796  0.2494  1.5671 -2.1413
 9037TIP3   OH251305   2.628   4.605   2.018  0.3628 -0.1940 -0.2451
 9037TIP3    H151306   2.692   4.625   1.950  1.2428 -0.1231  0.5778
 9037TIP3    H251307   2.543   4.618   1.976  0.8679  2.1367 -0.6704
 9038TIP3   OH251308   2.116   3.407   1.850  0.0842 -0.0978 -0.1347
 9038TIP3    H151309   2.051   3.370   1.910  1.7973  0.2115  2.0047
 9038TIP3    H251310   2.196   3.359   1.868  1.3137  1.7992 -0.2644
 9039TIP3   OH251311   4.515   2.190   3.246  0.3273  0.1114  0.1502
 9039TIP3    H151312   4.573   2.205   3.321 -0.6725  1.6158  0.6976
 9039TIP3    H251313   4.501   2.278   3.210 -1.2923 -0.2496 -0.1708
 9040TIP3   OH251314   0.006   3.628   3.438  0.2526  0.1543 -0.1095
 9040TIP3    H151315  -0.042   3.643   3.356  0.1108  1.5383  0.2047
 9040TIP3    H251316  -0.021   3.540   3.465 -0.4204  0.0432 -1.0627
 9041TIP3   OH251317   2.567   2.325   1.506 -0.7430  0.3665  0.0596
 9041TIP3    H151318   2.544   2.265   1.435  0.7102  2.8332 -2.7141
 9041TIP3    H251319   2.496   2.389   1.508 -0.4622  0.6712  0.3860
 9042TIP3   OH251320   6.076   1.004   2.832 -0.0266  0.6669  0.1495
 9042TIP3    H151321   6.079   1.060   2.754 -1.4402 -0.7614 -1.0030
 9042TIP3    H251322   6.138   0.933   2.813 -0.4313  0.2747  0.2725
 9043TIP3   OH251323   1.327   3.489   1.188 -0.5726  0.1040  0.3756
 9043TIP3    H151324   1.326   3.557   1.255 -0.8997  0.9645 -0.4794
 9043TIP3    H251325   1.418   3.486   1.157 -0.8337  1.2048 -0.5945
 9044TIP3   OH251326   1.102   0.539   2.206  0.2883  0.1088 -0.3908
 9044TIP3    H151327   1.155   0.499   2.275 -2.1188  0.5098  1.8301
 9044TIP3    H251328   1.016   0.497   2.214 -0.5263  1.3553 -2.0767
 9045TIP3   OH251329   5.754   1.672   2.997 -0.4831  0.2369 -0.3752
 9045TIP3    H151330   5.722   1.761   3.015 -2.1287 -0.2956 -0.4730
 9045TIP3    H251331   5.691   1.615   3.040  0.9025 -0.9009  0.2195
 9046TIP3   OH251332   2.504   5.170   1.723  0.3491 -0.4552 -0.6954
 9046TIP3    H151333   2.467   5.102   1.666  1.3646 -1.8665  0.2871
 9046TIP3    H251334   2.578   5.205   1.673 -0.0472 -0.1956 -1.1137
 9047TIP3   OH251335   4.523   5.821   1.330 -0.0422  0.5630 -0.2125
 9047TIP3    H151336   4.468   5.831   1.407 -1.7552  0.9254 -1.4145
 9047TIP3    H251337   4.533   5.910   1.296 -0.8659  0.2308 -1.4031
 9048TIP3   OH251338   0.059   3.978   4.646 -0.5883 -0.4618 -0.1649
 9048TIP3    H151339   0.111   4.016   4.716 -1.3659  0.1207  0.1165
 9048TIP3    H251340   0.123   3.935   4.589  0.0037 -1.5470  1.2392
 9049TIP3   OH251341   3.319   2.605   2.198 -0.4459 -0.1759  0.0861
 9049TIP3    H151342   3.380   2.532   2.197 -0.9777 -0.6281 -0.0689
 9049TIP3    H251343   3.298   2.620   2.105  2.1686  2.3425 -0.2250
 9050TIP3   OH251344   6.578   4.512   3.266  0.0991  0.1441  0.3117
 9050TIP3    H151345   6.579   4.505   3.170 -0.0584  1.1444  0.2269
 9050TIP3    H251346   6.571   4.421   3.297 -0.9267 -0.1093 -0.6305
 9051TIP3   OH251347   1.845   2.218   2.552  0.0251  0.2968  0.5394
 9051TIP3    H151348   1.839   2.298   2.604 -0.8096  0.5279  0.1147
 9051TIP3    H251349   1.785   2.157   2.596  1.1695 -0.3396  1.2582
 9052TIP3   OH251350   3.998   5.411   1.323  0.3171  0.4785 -0.2924
 9052TIP3    H151351   3.907   5.407   1.351  0.6640  0.9752  0.9626
 9052TIP3    H251352   4.049   5.388   1.401  1.3121  1.6410 -0.5635
 9053TIP3   OH251353   2.112   5.107   1.053 -0.3013  0.1257 -0.9498
 9053TIP3    H151354   2.205   5.115   1.033  0.8568  0.7833  3.5595
 9053TIP3    H251355   2.081   5.197   1.065 -1.0029 -0.1431 -0.6629
 9054TIP3   OH251356   4.477   3.015   2.694  0.3331 -0.1991  0.5117
 9054TIP3    H151357   4.437   3.102   2.690  0.5907 -0.0570  0.9212
 9054TIP3    H251358   4.514   3.002   2.606  0.9302  0.4185  0.6643
 9055TIP3   OH251359   4.152   0.304   0.459 -0.0579  0.1030 -0.2001
 9055TIP3    H151360   4.243   0.302   0.429  0.0132 -0.4598  0.0389
 9055TIP3    H251361   4.108   0.237   0.408 -0.9063  1.9308 -2.0203
 9056TIP3   OH251362   3.718   6.124   1.820  0.2637  0.4853 -0.1602
 9056TIP3    H151363   3.769   6.141   1.899 -0.6738 -0.9128  0.8185
 9056TIP3    H251364   3.777   6.143   1.748  2.1169 -0.8607  0.9030
 9057TIP3   OH251365   5.625   1.850   3.756 -0.0502  0.0024  0.3707
 9057TIP3    H151366   5.719   1.845   3.743  0.2327  1.4077  1.5995
 9057TIP3    H251367   5.607   1.787   3.825  0.0794  0.1457  0.5355
 9058TIP3   OH251368   1.593   1.708   2.196 -0.1016  0.3921 -0.4515
 9058TIP3    H151369   1.647   1.784   2.217 -0.0314  0.0171  0.8097
 9058TIP3    H251370   1.541   1.736   2.121  1.4213  0.9533 -1.3422
 9059TIP3   OH251371   5.576   0.539   2.231 -0.8010 -0.5613  0.2249
 9059TIP3    H151372   5.560   0.509   2.141 -1.9038 -0.4390  0.3695
 9059TIP3    H251373   5.633   0.615   2.222 -0.9034 -0.5532 -0.3706
 9060TIP3   OH251374   1.201   3.647   4.815  0.3373 -0.2862  0.2003
 9060TIP3    H151375   1.292   3.656   4.787 -0.1815 -0.1221 -1.6296
 9060TIP3    H251376   1.170   3.569   4.770 -0.5004 -0.1702  0.5619
 9061TIP3   OH251377   0.091   3.377   5.001 -0.4118 -0.1962  0.4575
 9061TIP3    H151378   0.110   3.408   5.090  1.6626 -1.8729  0.6672
 9061TIP3    H251379   0.029   3.305   5.014 -1.5058  0.6906  0.3492
 9062TIP3   OH251380   1.620   6.620   3.726  0.4471 -0.0464 -0.6209
 9062TIP3    H151381   1.604   6.580   3.811  0.7640 -0.4370 -0.7399
 9062TIP3    H251382   1.676   6.696   3.745  0.5185 -0.1345 -0.4787
 9063TIP3   OH251383   0.948   1.018   1.601 -0.3996 -0.0397 -0.2607
 9063TIP3    H151384   0.891   0.964   1.545 -0.6490 -0.4489  0.3769
 9063TIP3    H251385   1.032   1.020   1.555 -1.1917  1.4272 -1.7464
 9064TIP3   OH251386   3.617   2.783   2.232 -0.7200 -0.0248  0.6074
 9064TIP3    H151387   3.636   2.853   2.169  1.4620  0.6724  1.9616
 9064TIP3    H251388   3.521   2.779   2.234 -0.8963  0.2939 -2.3065
 9065TIP3   OH251389   0.793   3.974   2.073 -0.0953  0.6317 -0.3695
 9065TIP3    H151390   0.713   3.984   2.022 -0.6876  1.1242  0.6397
 9065TIP3    H251391   0.781   3.894   2.123  0.2670  0.4242 -0.6105
 9066TIP3   OH251392   6.451   3.164   3.019 -0.4319  0.2195 -0.4543
 9066TIP3    H151393   6.455   3.095   2.953 -0.8152  2.7987 -3.4257
 9066TIP3    H251394   6.360   3.164   3.049 -0.9134  0.5512 -1.8364
 9067TIP3   OH251395   6.532   0.144   1.089  0.2332 -0.0694 -0.1775
 9067TIP3    H151396   6.545   0.050   1.102  0.7664  0.1287  0.7831
 9067TIP3    H251397   6.574   0.185   1.164  1.9501  1.0523 -1.6592
 9068TIP3   OH251398   3.849   1.763   2.794 -0.0255 -0.2695  0.3529
 9068TIP3    H151399   3.931   1.808   2.770 -0.2558  0.3602  0.7288
 9068TIP3    H251400   3.781   1.829   2.782 -0.4299 -0.6527  0.5011
 9069TIP3   OH251401   4.852   3.966   1.883  0.0261  0.0424 -0.5820
 9069TIP3    H151402   4.790   3.970   1.811  0.5104  0.3245 -0.9920
 9069TIP3    H251403   4.876   3.874   1.889 -1.4638 -0.3211  0.4932
 9070TIP3   OH251404   5.847   4.054   1.859 -0.2051  0.2318  0.0142
 9070TIP3    H151405   5.857   4.006   1.777 -0.0681 -0.4556  0.4278
 9070TIP3    H251406   5.864   4.145   1.836 -1.7685  0.2859 -1.0563
 9071TIP3   OH251407   5.171   3.416   2.153 -0.6636 -0.1980 -0.1684
 9071TIP3    H151408   5.251   3.374   2.123 -0.5399 -0.4738  0.5425
 9071TIP3    H251409   5.107   3.346   2.158 -0.7303 -0.1196  0.0584
 9072TIP3   OH251410   1.859   6.508   4.092 -0.1539 -0.2650  0.0966
 9072TIP3    H151411   1.949   6.534   4.112  0.1893 -1.8044  0.6847
 9072TIP3    H251412   1.868   6.442   4.023 -0.8799  0.0003 -0.2601
 9073TIP3   OH251413   4.005   4.233   2.101 -0.5556 -0.4129 -0.5324
 9073TIP3    H151414   4.095   4.265   2.089 -0.8145  0.5987  0.0748
 9073TIP3    H251415   3.951   4.294   2.050 -0.9917 -0.3528 -0.0043
 9074TIP3   OH251416   0.316   3.417   0.353  0.0490 -0.0748  1.1097
 9074TIP3    H151417   0.390   3.478   0.363 -0.6831  0.5627  3.2171
 9074TIP3    H251418   0.329   3.352   0.422 -0.5631 -0.8377  0.5230
 9075TIP3   OH251419   4.523   3.970   2.965  0.1824  0.6658 -0.8731
 9075TIP3    H151420   4.483   3.938   2.885 -0.0808 -0.6072 -0.2666
 9075TIP3    H251421   4.453   4.014   3.012 -0.1917 -0.3297 -0.4585
 9076TIP3   OH251422   2.038   2.415   3.536 -0.1909 -0.4427  0.2694
 9076TIP3    H151423   1.986   2.351   3.585 -1.2228  0.4148  0.3340
 9076TIP3    H251424   2.078   2.470   3.604 -1.3925  0.5680  0.1980
 9077TIP3   OH251425   1.839   6.662   3.171  0.2471  0.0180 -0.2582
 9077TIP3    H151426   1.823   6.754   3.150  0.6779  0.2584  0.4328
 9077TIP3    H251427   1.768   6.615   3.127 -0.5065  0.7646  0.1248
 9078TIP3   OH251428   0.316   3.954   3.183  0.7852 -0.7296 -0.4259
 9078TIP3    H151429   0.263   3.969   3.105  0.1461 -0.1780  0.1010
 9078TIP3    H251430   0.376   4.029   3.186  0.2937 -0.3431  0.0169
 9079TIP3   OH251431   5.201   5.640   3.157 -0.2785  0.3913  0.3715
 9079TIP3    H151432   5.223   5.697   3.230  1.2846 -0.6785  0.7661
 9079TIP3    H251433   5.142   5.575   3.194 -0.7448  0.7626  0.2971
 9080TIP3   OH251434   3.686   2.410   1.990 -0.3675  0.6484  1.0421
 9080TIP3    H151435   3.598   2.406   1.952  0.1988 -3.2165 -0.3255
 9080TIP3    H251436   3.739   2.455   1.925 -0.7598  0.2030  0.4041
 9081TIP3   OH251437   0.055   0.089   1.587 -0.4877 -0.0418  0.0899
 9081TIP3    H151438   0.107   0.152   1.636 -1.4592 -0.8220  2.2401
 9081TIP3    H251439   0.112   0.013   1.575 -0.1819  0.2290 -0.1890
 9082TIP3   OH251440   1.956   5.686   2.880 -0.4555 -0.6970  0.1792
 9082TIP3    H151441   1.927   5.738   2.955  1.0663 -0.0234  0.3350
 9082TIP3    H251442   2.036   5.642   2.910  0.0164 -0.6419 -0.9392
 9083TIP3   OH251443   2.769   3.779   1.973  0.0853 -0.6138  0.1599
 9083TIP3    H151444   2.758   3.752   2.064  0.0135 -0.2234  0.2698
 9083TIP3    H251445   2.844   3.728   1.942  0.1772 -0.6716  0.4669
 9084TIP3   OH251446   4.748   5.730   2.969  0.0277 -0.0887  0.3791
 9084TIP3    H151447   4.723   5.661   2.908 -1.3243 -0.3246  1.1547
 9084TIP3    H251448   4.839   5.749   2.948  0.1626 -1.5016 -0.4223
 9085TIP3   OH251449   3.374   0.768   0.585 -0.8190 -0.2440  0.5141
 9085TIP3    H151450   3.345   0.693   0.532 -0.9863  0.2735 -0.1405
 9085TIP3    H251451   3.350   0.844   0.533 -1.5649  0.3085  1.6192
 9086TIP3   OH251452   6.307   4.136   0.831 -0.0729 -0.0806  0.4649
 9086TIP3    H151453   6.375   4.093   0.781 -1.1808 -1.2426 -0.0924
 9086TIP3    H251454   6.318   4.103   0.920 -0.4061 -0.9229  0.2056
 9087TIP3   OH251455   3.679   2.980   1.757 -0.4180 -0.2193  0.0840
 9087TIP3    H151456   3.646   3.051   1.702 -1.2068 -0.3104  0.4181
 9087TIP3    H251457   3.624   2.904   1.733  0.5019 -0.7581 -0.3709
 9088TIP3   OH251458   5.488   6.264   2.680 -0.1210  0.6957  0.3567
 9088TIP3    H151459   5.513   6.356   2.679  0.6477  0.4934  0.6185
 9088TIP3    H251460   5.560   6.219   2.724 -0.2927 -0.0922 -0.1383
 9089TIP3   OH251461   2.761   2.619   1.776 -0.2362  0.1521  0.7368
 9089TIP3    H151462   2.801   2.556   1.715  1.1324  0.7205  1.0296
 9089TIP3    H251463   2.725   2.564   1.846  0.7033 -0.3333  0.8536
 9090TIP3   OH251464   4.213   3.966   1.067  0.1592 -0.5106 -0.0603
 9090TIP3    H151465   4.198   3.950   1.160 -0.9022 -2.4592 -0.5182
 9090TIP3    H251466   4.148   4.032   1.043  1.1130  0.7733  0.7623
 9091TIP3   OH251467   6.065   3.418   2.143 -0.1442  0.3531  0.2338
 9091TIP3    H151468   6.060   3.508   2.110  2.3040  0.5857  0.3065
 9091TIP3    H251469   6.059   3.427   2.239 -0.3183  0.3882  0.2198
 9092TIP3   OH251470   6.548   3.545   0.811  0.3867  0.0533 -0.1986
 9092TIP3    H151471   6.531   3.469   0.866  0.0596  0.0056 -0.3654
 9092TIP3    H251472   6.573   3.509   0.726 -1.2408  0.1187 -0.7360
 9093TIP3   OH251473   2.231   4.540   2.703  0.2599  0.5403  0.3482
 9093TIP3    H151474   2.319   4.555   2.737  0.3784 -1.6666  1.1263
 9093TIP3    H251475   2.177   4.529   2.781 -0.4300  0.3716 -0.1475
 9094TIP3   OH251476   1.225   2.267   0.745 -0.3574 -0.5741  0.2290
 9094TIP3    H151477   1.133   2.272   0.771 -0.6177  0.4175 -0.7623
 9094TIP3    H251478   1.223   2.239   0.654  0.1919  1.1783 -0.3708
 9095TIP3   OH251479   0.431   0.276   2.842  0.3747  0.8550  0.2916
 9095TIP3    H151480   0.346   0.236   2.826  0.9933 -0.8400  1.0213
 9095TIP3    H251481   0.410   0.363   2.877 -1.0289  0.8743 -0.5209
 9096TIP3   OH251482   1.396   3.662   1.387 -0.2537  0.3705  0.1201
 9096TIP3    H151483   1.366   3.752   1.375 -2.0504  0.0194  1.4693
 9096TIP3    H251484   1.455   3.666   1.462  0.2968  0.5277 -0.3152
 9097TIP3   OH251485   1.238   6.062   2.451 -0.1527  0.1500  0.4348
 9097TIP3    H151486   1.244   5.974   2.415  0.1052 -0.0260  0.8986
 9097TIP3    H251487   1.233   6.049   2.546  1.7131  0.6875  0.6357
 9098TIP3   OH251488   1.981   3.612   3.820 -0.0044  0.2835  0.5230
 9098TIP3    H151489   2.017   3.556   3.889 -1.3356 -0.3254  0.7614
 9098TIP3    H251490   1.890   3.583   3.811  0.0069  0.6799 -1.1597
 9099TIP3   OH251491   6.268   0.834   1.444  0.4413 -0.2158 -0.0266
 9099TIP3    H151492   6.206   0.767   1.473  0.1267  0.2148  0.3024
 9099TIP3    H251493   6.342   0.784   1.410 -0.4119 -0.7636 -1.1973
 9100TIP3   OH251494   0.296   3.993   1.871 -0.3907  0.2612 -0.4144
 9100TIP3    H151495   0.220   3.988   1.813 -0.1087 -2.7294 -0.6732
 9100TIP3    H251496   0.258   3.997   1.959 -0.8643 -0.6781 -0.5634
 9101TIP3   OH251497   5.438   2.619   3.124 -0.4758 -0.1115  0.3156
 9101TIP3    H151498   5.465   2.538   3.081 -1.3790 -0.3406  0.1578
 9101TIP3    H251499   5.357   2.645   3.078 -0.1131  0.9622  0.2553
 9102TIP3   OH251500   4.939   0.425   1.493 -0.0404 -0.1877 -0.7032
 9102TIP3    H151501   4.906   0.470   1.415 -2.8289  0.9900  1.0261
 9102TIP3    H251502   4.889   0.462   1.566  0.2507 -3.3719  1.3273
 9103TIP3   OH251503   4.698   5.832   2.271  0.3808 -0.1791 -0.1050
 9103TIP3    H151504   4.732   5.910   2.228 -2.9054  2.1957  1.1654
 9103TIP3    H251505   4.736   5.835   2.359  0.7719 -0.4108 -0.2637
 9104TIP3   OH251506   3.069   1.369   3.666  0.0918  0.1674 -0.0044
 9104TIP3    H151507   3.102   1.458   3.678  0.4480 -0.1107  1.1286
 9104TIP3    H251508   2.994   1.363   3.724  0.4825 -0.4842  0.4440
 9105TIP3   OH251509   2.879   4.436   2.129  0.0902 -0.0434 -0.6666
 9105TIP3    H151510   2.815   4.507   2.121 -0.9620 -1.1266 -2.5481
 9105TIP3    H251511   2.827   4.362   2.162  1.0236 -0.1635  0.5923
 9106TIP3   OH251512   5.027   5.949   3.774 -0.2205  0.2284  0.3057
 9106TIP3    H151513   5.032   5.867   3.824 -2.1397  0.6320  1.2470
 9106TIP3    H251514   4.939   5.982   3.792 -0.4043  1.2172 -2.0955
 9107TIP3   OH251515   2.001   3.025   2.641  0.6436  0.1948  0.1323
 9107TIP3    H151516   2.071   3.027   2.576  1.1593  1.0520  0.6952
 9107TIP3    H251517   2.033   3.080   2.712 -0.3728  0.1520  0.6384
 9108TIP3   OH251518   1.482   1.263   1.838 -0.1375 -0.2271  0.1486
 9108TIP3    H151519   1.538   1.193   1.869 -0.2687 -0.5418 -0.3149
 9108TIP3    H251520   1.478   1.251   1.743  0.6207  0.9894 -0.0535
 9109TIP3   OH251521   5.571   6.549   3.025  0.3653 -0.1382  0.1836
 9109TIP3    H151522   5.589   6.639   3.052  1.4215 -0.5204  0.8374
 9109TIP3    H251523   5.537   6.557   2.936 -1.4661  1.0346  0.9351
 9110TIP3   OH251524   3.164   4.329   2.717 -0.3183 -0.1460  0.3425
 9110TIP3    H151525   3.136   4.273   2.790  0.4214  0.7112  1.3151
 9110TIP3    H251526   3.197   4.408   2.759  1.4266 -0.1939 -0.8424
 9111TIP3   OH251527   1.908   3.944   3.906 -0.5178  0.1611  0.0290
 9111TIP3    H151528   1.915   3.892   3.826 -1.4697 -1.1975  0.7939
 9111TIP3    H251529   1.927   4.033   3.878  1.7470 -0.6322 -1.2245
 9112TIP3   OH251530   4.493   6.313   1.508  0.1510  0.2238  0.2864
 9112TIP3    H151531   4.414   6.261   1.490  0.5683  0.1111 -1.3404
 9112TIP3    H251532   4.558   6.249   1.535  0.4994 -0.0659 -1.1665
 9113TIP3   OH251533   2.580   3.507   3.558 -0.3680 -1.3817 -0.6515
 9113TIP3    H151534   2.640   3.474   3.492  1.3882  0.4429 -0.0960
 9113TIP3    H251535   2.502   3.532   3.510  0.6887 -0.5237 -1.9995
 9114TIP3   OH251536   1.697   0.114   0.831  0.7602  0.3776  0.1852
 9114TIP3    H151537   1.668   0.154   0.912  0.8104 -0.8377  0.8318
 9114TIP3    H251538   1.637   0.041   0.817 -0.2417  1.4945 -1.7345
 9115TIP3   OH251539   3.660   0.392   1.307  0.1863 -0.2960  0.1534
 9115TIP3    H151540   3.671   0.480   1.270 -2.1308 -0.4818 -1.0958
 9115TIP3    H251541   3.749   0.356   1.308  0.9252  1.3498 -1.0830
 9116TIP3   OH251542   3.374   2.190   3.005 -0.7914 -0.7598  0.6974
 9116TIP3    H151543   3.370   2.186   2.910 -0.0225  1.8245  0.4832
 9116TIP3    H251544   3.313   2.260   3.029 -0.9312 -1.3220  2.1299
 9117TIP3   OH251545   2.251   2.648   2.137  0.8257 -0.2522  1.0316
 9117TIP3    H151546   2.171   2.604   2.107  1.0216  0.5533 -0.8271
 9117TIP3    H251547   2.310   2.576   2.160  0.8344 -1.0403 -1.1361
 9118TIP3   OH251548   1.296   4.368   2.602  0.6416 -0.3713  0.2264
 9118TIP3    H151549   1.233   4.398   2.537 -0.2215 -1.0960  0.6957
 9118TIP3    H251550   1.370   4.428   2.594 -0.4098  0.9746  0.1565
 9119TIP3   OH251551   2.513   4.831   2.291  0.3437 -0.4669 -0.2659
 9119TIP3    H151552   2.539   4.885   2.216  0.6473  0.4397  0.4639
 9119TIP3    H251553   2.439   4.878   2.330 -0.5325 -1.5087 -0.6287
 9120TIP3   OH251554   4.383   1.307   1.831  0.5210 -0.1571 -0.8210
 9120TIP3    H151555   4.331   1.276   1.757  0.1763  1.9263 -1.5276
 9120TIP3    H251556   4.416   1.227   1.872 -1.6363 -1.4985 -1.4990
 9121TIP3   OH251557   6.677   3.114   3.166 -0.5256 -0.5226 -0.6520
 9121TIP3    H151558   6.724   3.074   3.093  0.8517  1.8934 -1.2054
 9121TIP3    H251559   6.592   3.138   3.128 -0.0500  0.1613 -1.3273
 9122TIP3   OH251560   2.716   5.621   2.813  0.2156  0.7729  0.6981
 9122TIP3    H151561   2.633   5.613   2.765  0.4908 -1.0276  0.4467
 9122TIP3    H251562   2.780   5.646   2.747  0.2077  0.3849  0.5458
 9123TIP3   OH251563   5.684   4.432   4.557  0.1717 -0.0860  0.8428
 9123TIP3    H151564   5.657   4.342   4.575 -0.4818 -0.2394 -0.7475
 9123TIP3    H251565   5.625   4.461   4.487  1.1061  1.1903  0.5582
 9124TIP3   OH251566   1.880   1.267   2.832 -0.2114  0.2070 -0.5625
 9124TIP3    H151567   1.815   1.319   2.881  0.2723  0.0529  0.2617
 9124TIP3    H251568   1.947   1.247   2.896 -0.4876 -1.6234 -0.8059
 9125TIP3   OH251569   3.265   5.645   0.860  0.2325 -1.0140  0.1725
 9125TIP3    H151570   3.341   5.592   0.838  0.4799 -0.1307 -1.2482
 9125TIP3    H251571   3.191   5.586   0.849  0.6344 -1.6057  0.5829
 9126TIP3   OH251572   5.040   2.375   0.563 -0.0857  0.2704  0.3869
 9126TIP3    H151573   5.090   2.421   0.631 -1.1440  0.9009  0.7529
 9126TIP3    H251574   5.046   2.432   0.487  0.0366  0.1805  0.3292
 9127TIP3   OH251575   2.057   1.276   1.800  0.5853 -0.1140  0.1435
 9127TIP3    H151576   2.096   1.236   1.722 -0.0544  0.0606 -0.2723
 9127TIP3    H251577   1.970   1.304   1.772  0.0749 -0.6879  1.1224
 9128TIP3   OH251578   3.025   2.563   3.467 -0.0153  0.1898  0.0488
 9128TIP3    H151579   3.020   2.572   3.562  0.0875  2.5883 -0.1184
 9128TIP3    H251580   2.938   2.530   3.441 -0.2944  0.2555  0.8872
 9129TIP3   OH251581   3.014   4.261   1.354 -0.3236  0.1651 -0.2365
 9129TIP3    H151582   3.067   4.316   1.297 -1.7810  1.2823 -0.5783
 9129TIP3    H251583   2.946   4.225   1.297 -1.6814  1.1428  0.7047
 9130TIP3   OH251584   5.563   3.052   2.048  0.3904  0.9979 -0.0909
 9130TIP3    H151585   5.606   3.087   2.126  3.0205 -1.5334 -0.2020
 9130TIP3    H251586   5.636   3.021   1.994 -1.5217 -1.5759 -1.3740
 9131TIP3   OH251587   1.001   1.071   2.201  0.1327 -0.5329  0.4430
 9131TIP3    H151588   1.018   1.123   2.280 -1.5757 -2.0407  1.8924
 9131TIP3    H251589   0.947   1.128   2.146  0.5442  0.1949  0.7773
 9132TIP3   OH251590   3.591   4.111   1.665  0.3964  0.1387 -0.2262
 9132TIP3    H151591   3.664   4.053   1.643 -0.5735 -0.8636 -0.8974
 9132TIP3    H251592   3.593   4.178   1.597  0.2151 -0.3381 -0.7071
 9133TIP3   OH251593   1.871   2.793   2.687  0.7832  0.4581  0.1330
 9133TIP3    H151594   1.869   2.885   2.659  3.0142  0.0015 -1.9072
 9133TIP3    H251595   1.944   2.789   2.749  1.4275 -0.1064 -0.6447
 9134TIP3   OH251596   3.007   2.185   2.415 -0.0389 -0.6468 -0.3093
 9134TIP3    H151597   3.068   2.232   2.472  1.3464 -1.5442 -1.0024
 9134TIP3    H251598   2.987   2.105   2.463 -0.7944 -0.3051 -0.0348
 9135TIP3   OH251599   1.155   1.173   3.644 -0.3456  0.1899 -0.1931
 9135TIP3    H151600   1.192   1.255   3.609 -1.2618  0.5134 -0.4125
 9135TIP3    H251601   1.093   1.202   3.711 -1.2508 -0.2953 -0.8140
 9136TIP3   OH251602   1.986   6.191   1.059  0.2052  0.2093 -0.3740
 9136TIP3    H151603   1.924   6.150   1.120 -1.9308 -0.4426 -2.7702
 9136TIP3    H251604   2.046   6.120   1.035 -0.0775 -0.0332 -0.3749
 9137TIP3   OH251605   6.513   2.502   0.815  0.6000  0.4427  0.2079
 9137TIP3    H151606   6.489   2.576   0.760 -0.0586  0.4090  0.4380
 9137TIP3    H251607   6.442   2.496   0.879 -0.0819 -1.2224 -0.6282
 9138TIP3   OH251608   2.259   2.095   1.732 -0.2082 -0.5461  0.3639
 9138TIP3    H151609   2.301   2.050   1.659 -1.5618  0.3584 -1.0249
 9138TIP3    H251610   2.169   2.063   1.732 -0.9752  1.4600 -0.1295
 9139TIP3   OH251611   6.360   2.569   1.913  0.4912  0.0034  0.1832
 9139TIP3    H151612   6.401   2.590   1.997  0.1563  0.3703  0.2573
 9139TIP3    H251613   6.330   2.479   1.923  0.7032 -0.0488  0.3585
 9140TIP3   OH251614   4.012   4.757   1.769 -0.2878  0.6670 -0.1798
 9140TIP3    H151615   3.919   4.778   1.762 -0.6255 -0.9648 -1.2995
 9140TIP3    H251616   4.021   4.674   1.721  1.8237  1.0130 -0.4567
 9141TIP3   OH251617   1.713   5.454   2.494 -0.1150 -0.3773  0.2612
 9141TIP3    H151618   1.686   5.525   2.436  0.6194 -0.5993 -0.3802
 9141TIP3    H251619   1.673   5.474   2.578 -1.0385  0.0570 -0.2741
 9142TIP3   OH251620   5.256   4.863   2.695  0.2621  0.3955 -0.2518
 9142TIP3    H151621   5.336   4.900   2.658  0.7099  1.3665  1.5452
 9142TIP3    H251622   5.192   4.934   2.691 -0.0882  0.0734 -0.4110
 9143TIP3   OH251623   3.901   1.503   1.565  0.1581 -0.0913 -0.2329
 9143TIP3    H151624   3.883   1.437   1.498  0.0271  0.7522 -1.0533
 9143TIP3    H251625   3.818   1.513   1.612  0.5937 -1.6175  0.9425
 9144TIP3   OH251626   1.731   2.847   3.143 -0.0521  0.1466  0.2762
 9144TIP3    H151627   1.736   2.784   3.071  1.4279  0.8168 -0.2320
 9144TIP3    H251628   1.714   2.931   3.101 -0.8768  0.2832  0.8608
 9145TIP3   OH251629   0.148   5.741   2.827  0.5719 -0.0010  0.7548
 9145TIP3    H151630   0.144   5.656   2.870  1.5388 -1.9646 -2.6072
 9145TIP3    H251631   0.222   5.786   2.868  2.6287 -2.5134  0.0749
 9146TIP3   OH251632   4.339   4.865   2.878 -0.5038 -0.0365  0.2691
 9146TIP3    H151633   4.326   4.860   2.783  2.1955 -0.3229 -0.1714
 9146TIP3    H251634   4.347   4.958   2.897  0.0080 -0.0287  0.0278
 9147TIP3   OH251635   0.832   0.675   0.877 -0.9060  0.4601 -0.1004
 9147TIP3    H151636   0.833   0.610   0.947  0.6329 -0.2293 -0.7245
 9147TIP3    H251637   0.806   0.626   0.799  0.8937  0.3989 -0.7068
 9148TIP3   OH251638   5.299   0.483   0.980  0.1650  0.2991 -0.2767
 9148TIP3    H151639   5.331   0.571   0.959 -1.9259  0.9052 -1.1099
 9148TIP3    H251640   5.311   0.476   1.075  1.2113  1.0899 -0.3255
 9149TIP3   OH251641   4.536   4.783   3.045 -0.1420 -0.1910  0.6752
 9149TIP3    H151642   4.498   4.811   2.962 -0.9901 -0.1571  1.0607
 9149TIP3    H251643   4.461   4.779   3.105  0.2772 -1.3223  1.1428
 9150TIP3   OH251644   1.859   0.944   2.738 -0.8156  0.1810 -0.3239
 9150TIP3    H151645   1.886   0.998   2.663 -0.1855  0.7133  0.2787
 9150TIP3    H251646   1.921   0.965   2.807 -1.9191  0.3555  0.6447
 9151TIP3   OH251647   5.023   1.905   3.396 -0.0991  0.4648  0.5372
 9151TIP3    H151648   4.931   1.917   3.419 -0.1830  1.3670 -0.2595
 9151TIP3    H251649   5.069   1.971   3.447 -0.0471  0.9487 -0.1259
 9152TIP3   OH251650   5.489   1.540   0.826  0.4716 -0.2909 -0.0752
 9152TIP3    H151651   5.489   1.558   0.920  3.1863  0.2123 -0.1006
 9152TIP3    H251652   5.398   1.516   0.807 -0.4694  0.8880  2.4033
 9153TIP3   OH251653   4.078   0.014   3.821 -0.4653  0.3234 -0.0414
 9153TIP3    H151654   3.982   0.013   3.823 -0.4800  0.9197 -0.3893
 9153TIP3    H251655   4.103  -0.070   3.860 -1.1165  0.4509  0.6783
 9154TIP3   OH251656   1.808   4.921   1.558 -0.2396  0.4695 -0.3822
 9154TIP3    H151657   1.869   4.971   1.612 -0.7066  1.7198 -0.9539
 9154TIP3    H251658   1.750   4.878   1.620 -0.6399  1.7108  0.1252
 9155TIP3   OH251659   6.202   4.519   1.294  0.4584  0.1043 -0.4237
 9155TIP3    H151660   6.207   4.492   1.386 -2.6214 -1.6538 -0.6404
 9155TIP3    H251661   6.292   4.542   1.271  1.7101 -1.4140  2.4396
 9156TIP3   OH251662   3.059   2.256   3.828  0.1484  0.5121  0.3324
 9156TIP3    H151663   3.063   2.350   3.810  0.1089  0.5621  0.5730
 9156TIP3    H251664   3.149   2.225   3.819  0.4692  0.8880  1.8830
 9157TIP3   OH251665   0.420   0.169   0.562  0.2144 -0.2395 -0.4350
 9157TIP3    H151666   0.479   0.097   0.538  0.0022 -0.5873  0.0570
 9157TIP3    H251667   0.332   0.132   0.556  0.0300  0.3302 -1.3320
 9158TIP3   OH251668   1.614   4.857   1.750  0.5372  0.0981 -0.2214
 9158TIP3    H151669   1.561   4.778   1.757  1.4024 -0.3891  1.2048
 9158TIP3    H251670   1.561   4.925   1.791  0.0081  0.1647 -0.9921
 9159TIP3   OH251671   6.622   1.982   3.934  0.8281  0.3231  0.1323
 9159TIP3    H151672   6.561   1.977   4.007  1.5954 -2.2664  0.7105
 9159TIP3    H251673   6.628   1.892   3.901  2.1580  1.0166 -1.7358
 9160TIP3   OH251674   6.534   2.659   1.711 -0.3521 -0.5956 -0.5919
 9160TIP3    H151675   6.576   2.612   1.784 -0.6477  0.6408  0.3973
 9160TIP3    H251676   6.442   2.667   1.737 -0.2003  1.0214 -0.4610
 9161TIP3   OH251677   6.490   6.309   3.121 -0.0294 -0.2403 -0.0449
 9161TIP3    H151678   6.526   6.330   3.207  1.5403  0.6955 -0.8932
 9161TIP3    H251679   6.442   6.388   3.094  0.7112  0.0287 -0.6234
 9162TIP3   OH251680   0.201   1.235   1.682  0.2072  0.2185 -0.0935
 9162TIP3    H151681   0.253   1.221   1.761  0.1555 -0.6029 -0.1982
 9162TIP3    H251682   0.145   1.310   1.703 -0.1597 -0.3013  0.8280
 9163TIP3   OH251683   1.478   4.905   4.554 -0.0799 -0.9677 -0.3622
 9163TIP3    H151684   1.511   4.852   4.627 -0.4554 -1.8068 -0.7801
 9163TIP3    H251685   1.550   4.905   4.490  0.3107 -0.0956  0.0687
 9164TIP3   OH251686   0.906   1.750   4.048  0.0700 -0.2032 -0.6652
 9164TIP3    H151687   0.984   1.799   4.021  0.2547 -0.3757 -0.4516
 9164TIP3    H251688   0.833   1.808   4.027  0.2150 -0.2657 -1.4002
 9165TIP3   OH251689   2.863   1.966   0.763 -0.0220 -0.5011 -0.1943
 9165TIP3    H151690   2.947   1.992   0.725 -0.1737 -0.0328 -0.2170
 9165TIP3    H251691   2.804   2.039   0.742 -0.7596 -1.3625 -1.2766
 9166TIP3   OH251692   4.817   6.621   1.996 -0.0821  0.0429 -0.1225
 9166TIP3    H151693   4.878   6.548   2.008  1.2596  1.3436  1.5727
 9166TIP3    H251694   4.864   6.682   1.938 -1.8282 -1.0292 -2.8697
 9167TIP3   OH251695   3.079   4.293   1.630  0.8445 -0.2336 -0.2889
 9167TIP3    H151696   2.984   4.292   1.644  0.7273  2.7743 -0.3591
 9167TIP3    H251697   3.090   4.331   1.542  2.1285 -0.8068 -0.3961
 9168TIP3   OH251698   4.004   6.000   1.677  0.6343  0.4595 -0.1866
 9168TIP3    H151699   4.055   6.066   1.724  3.8837 -0.6714 -1.7951
 9168TIP3    H251700   3.998   6.033   1.588 -2.3356  0.9275  0.0923
 9169TIP3   OH251701   3.101   1.439   3.033  0.4694 -0.1999  0.2596
 9169TIP3    H151702   3.092   1.502   2.962 -0.3064  0.0571  0.5743
 9169TIP3    H251703   3.128   1.491   3.109  1.3126 -0.4761  0.1604
 9170TIP3   OH251704   0.951   6.606   2.517  0.5505 -0.1567 -0.5050
 9170TIP3    H151705   1.029   6.661   2.505 -0.8922  1.9439 -0.7634
 9170TIP3    H251706   0.914   6.633   2.600 -0.6874 -0.0922 -1.0527
 9171TIP3   OH251707   6.405   2.907   4.761 -0.1746 -0.1678 -0.1673
 9171TIP3    H151708   6.475   2.930   4.822 -0.2268 -0.6564  0.0861
 9171TIP3    H251709   6.328   2.950   4.796 -0.0567  0.1401 -0.2878
 9172TIP3   OH251710   1.523   6.589   2.772  0.0520 -0.3150  0.2620
 9172TIP3    H151711   1.452   6.544   2.817  1.0096 -1.6433  0.5070
 9172TIP3    H251712   1.553   6.528   2.705 -0.0672  0.8728 -0.9227
 9173TIP3   OH251713   1.173   3.597   4.515 -0.0445  0.0210  0.1635
 9173TIP3    H151714   1.266   3.607   4.495  0.2302 -1.6353  0.4440
 9173TIP3    H251715   1.129   3.661   4.460  1.2067  0.3173 -0.5232
 9174TIP3   OH251716   6.233   4.376   2.382  0.3972 -0.6480  0.6791
 9174TIP3    H151717   6.241   4.416   2.469 -1.5388 -2.0258  1.5660
 9174TIP3    H251718   6.215   4.450   2.324 -1.8764  0.0290  2.0807
 9175TIP3   OH251719   6.352   6.566   2.488 -0.5230  0.5032 -0.0153
 9175TIP3    H151720   6.377   6.572   2.395  1.3495  0.7131  0.4611
 9175TIP3    H251721   6.257   6.557   2.486 -0.3872 -1.8752 -2.0647
 9176TIP3   OH251722   4.190   1.633   2.803  0.0542 -0.3962  0.0910
 9176TIP3    H151723   4.110   1.580   2.802  1.0394 -1.9746  0.6760
 9176TIP3    H251724   4.199   1.662   2.894 -0.0206  0.0683 -0.0461
 9177TIP3   OH251725   5.596   3.513   1.838  0.0651  0.4987 -0.6844
 9177TIP3    H151726   5.670   3.497   1.779  1.0575  1.0218  0.3746
 9177TIP3    H251727   5.614   3.599   1.876 -0.0476 -0.2098  1.0582
 9178TIP3   OH251728   1.548   3.241   4.276 -0.2238 -0.2825  0.0195
 9178TIP3    H151729   1.545   3.199   4.190 -0.5774 -0.0538 -0.0833
 9178TIP3    H251730   1.553   3.334   4.257  1.7183 -0.3023  0.2391
 9179TIP3   OH251731   3.266   0.576   3.890  0.1655  0.3668 -0.2928
 9179TIP3    H151732   3.278   0.654   3.943 -0.2305  1.2487 -1.4434
 9179TIP3    H251733   3.171   0.570   3.876  0.1036 -0.8011  0.4514
 9180TIP3   OH251734   0.355   0.559   3.913 -0.0696 -0.4880  0.0665
 9180TIP3    H151735   0.286   0.621   3.892 -0.5891 -0.7009  1.0832
 9180TIP3    H251736   0.310   0.475   3.921  0.7438 -1.1918 -2.1407
 9181TIP3   OH251737   6.026   3.663   1.672 -0.0911  0.0355  0.3711
 9181TIP3    H151738   5.999   3.736   1.618 -0.6568 -0.9702 -0.7528
 9181TIP3    H251739   6.073   3.703   1.745  0.9269  1.4230 -0.9881
 9182TIP3   OH251740   3.291   0.996   0.427 -0.0207 -0.0522 -0.1920
 9182TIP3    H151741   3.253   1.029   0.345 -1.0166  0.4377  0.4449
 9182TIP3    H251742   3.298   1.073   0.483  4.2071  0.4068 -1.0250
 9183TIP3   OH251743   3.170   4.864   3.075  0.0471  0.4567 -0.7455
 9183TIP3    H151744   3.137   4.805   3.143 -0.8756  2.0199  0.2299
 9183TIP3    H251745   3.136   4.950   3.099  0.5567  1.2497 -2.6380
 9184TIP3   OH251746   4.673   6.514   0.546  0.0544 -0.3048 -0.2741
 9184TIP3    H151747   4.715   6.553   0.469  1.1829  0.0716  0.5039
 9184TIP3    H251748   4.746   6.486   0.601 -0.7293 -0.0424  0.9293
 9185TIP3   OH251749   1.543   0.707   1.940  0.0924  0.0446 -0.0873
 9185TIP3    H151750   1.474   0.651   1.906 -0.9506  1.6159 -0.6911
 9185TIP3    H251751   1.536   0.699   2.035 -0.0542 -0.7962 -0.1617
 9186TIP3   OH251752   1.419   6.687   1.471  0.4827  0.3087  0.4970
 9186TIP3    H151753   1.437   6.693   1.565 -0.4175 -0.1005  0.7050
 9186TIP3    H251754   1.412   6.593   1.454 -1.2923  0.4294  0.4129
 9187TIP3   OH251755   2.166   5.963   1.020  0.3262 -0.2600 -0.5370
 9187TIP3    H151756   2.253   5.925   1.010 -0.1263 -1.0477 -1.7379
 9187TIP3    H251757   2.145   5.949   1.113  1.4857  0.0033 -0.2140
 9188TIP3   OH251758   3.936   5.158   3.617 -0.5224 -0.3292 -0.3621
 9188TIP3    H151759   4.025   5.182   3.644  1.3645 -4.9103 -1.5205
 9188TIP3    H251760   3.889   5.142   3.699  0.5945 -0.4316  0.2797
 9189TIP3   OH251761   1.684   4.814   4.359 -0.0819 -0.1934  0.1856
 9189TIP3    H151762   1.692   4.747   4.426 -0.5521 -0.9220 -0.4697
 9189TIP3    H251763   1.773   4.825   4.325 -0.0353 -0.6374  0.1571
 9190TIP3   OH251764   6.373   2.935   2.859 -0.5057 -0.4538 -0.1027
 9190TIP3    H151765   6.285   2.905   2.837 -0.5670 -1.5671  1.4773
 9190TIP3    H251766   6.426   2.917   2.781 -1.1629 -2.0714 -0.1918
 9191TIP3   OH251767   2.322   0.383   3.302 -0.2296  0.0770 -0.1341
 9191TIP3    H151768   2.371   0.336   3.369 -0.7059 -0.1005  0.0927
 9191TIP3    H251769   2.230   0.361   3.319 -0.4161  0.6656 -0.3477
 9192TIP3   OH251770   4.987   2.045   1.176 -0.4532  0.0930 -0.4807
 9192TIP3    H151771   5.034   1.962   1.179 -0.5043  0.0054 -1.7157
 9192TIP3    H251772   5.018   2.088   1.096 -1.2091  0.7839 -0.4188
 9193TIP3   OH251773   6.128   3.107   2.604  0.3344 -0.1470  0.1966
 9193TIP3    H151774   6.077   3.081   2.682 -0.8747  1.6878  0.0681
 9193TIP3    H251775   6.216   3.123   2.638  0.7937 -2.8085  0.5256
 9194TIP3   OH251776   1.316   0.032   2.389 -0.2042  0.1914  0.3755
 9194TIP3    H151777   1.283   0.054   2.476 -1.6002 -0.9711  0.1820
 9194TIP3    H251778   1.239   0.035   2.333  0.2068 -1.5108 -0.3295
 9195TIP3   OH251779   3.578   2.535   1.572  0.0167 -0.1828  0.2037
 9195TIP3    H151780   3.530   2.515   1.491  2.6211 -0.0917 -1.4779
 9195TIP3    H251781   3.537   2.615   1.604 -0.6642  0.1665 -1.4217
 9196TIP3   OH251782   3.855   3.878   3.813 -0.3020 -0.0061 -0.7216
 9196TIP3    H151783   3.819   3.795   3.780 -1.6856  0.7497 -1.2029
 9196TIP3    H251784   3.813   3.890   3.898 -2.0491  1.3495 -1.6931
 9197TIP3   OH251785   3.934   5.892   0.999  0.1912  0.1787  0.4059
 9197TIP3    H151786   3.876   5.954   0.954 -0.1864  0.4533  1.2548
 9197TIP3    H251787   4.021   5.932   0.994 -0.0883  0.9066  1.1595
 9198TIP3   OH251788   1.467   3.992   5.134 -0.4095  0.4264 -0.2570
 9198TIP3    H151789   1.475   3.984   5.229  0.7147 -0.7332 -0.4134
 9198TIP3    H251790   1.446   3.903   5.104 -0.8496  0.7988 -1.0812
 9199TIP3   OH251791   1.692   1.644   1.573 -0.4783  0.1905  0.1132
 9199TIP3    H151792   1.759   1.698   1.616  1.7295 -3.1038  1.2015
 9199TIP3    H251793   1.613   1.657   1.626  0.9353 -0.2631  2.4665
 9200TIP3   OH251794   4.928   5.543   2.801 -0.3953  0.9158  0.1421
 9200TIP3    H151795   4.847   5.506   2.767 -1.4191  2.0078  1.2813
 9200TIP3    H251796   4.995   5.519   2.737 -1.4483 -0.7409 -0.3891
 9201TIP3   OH251797   4.849   4.317   3.492  0.0595  0.4908  0.2747
 9201TIP3    H151798   4.824   4.399   3.450  1.0574 -0.3510 -2.1534
 9201TIP3    H251799   4.767   4.266   3.495 -0.3138  1.0998  0.6888
 9202TIP3   OH251800   4.495   3.538   2.484  0.4190  0.4366  0.1170
 9202TIP3    H151801   4.496   3.633   2.498  0.7477  0.5670 -0.7294
 9202TIP3    H251802   4.565   3.505   2.540 -0.3310  0.5846  1.1459
 9203TIP3   OH251803   0.180   0.887   2.873  1.0072 -0.0718 -0.2696
 9203TIP3    H151804   0.148   0.945   2.804  0.5351 -0.5038 -0.4173
 9203TIP3    H251805   0.268   0.920   2.893  0.8495  0.5241 -0.5389
 9204TIP3   OH251806   4.948   2.449   2.060 -0.3717  0.0585 -0.2370
 9204TIP3    H151807   4.997   2.531   2.071  0.7384 -0.6950  0.6102
 9204TIP3    H251808   4.859   2.478   2.037 -0.1266  1.5139  0.5086
 9205TIP3   OH251809   2.721   0.519   1.155  0.2312  0.1083 -0.5649
 9205TIP3    H151810   2.650   0.553   1.209  0.4076  1.3590 -1.0820
 9205TIP3    H251811   2.727   0.426   1.178 -0.6130  0.3066  0.5251
 9206TIP3   OH251812   6.546   6.325   1.858 -1.0218 -0.6894  0.4615
 9206TIP3    H151813   6.524   6.417   1.839  1.9382  0.0866  0.2224
 9206TIP3    H251814   6.490   6.275   1.798  0.0600  1.1977 -2.3642
 9207TIP3   OH251815   4.231   4.364   4.363  0.5786 -0.2889  0.5277
 9207TIP3    H151816   4.307   4.412   4.329 -0.0216 -0.5596 -1.3170
 9207TIP3    H251817   4.166   4.431   4.380  0.9784 -0.1228  1.4877
 9208TIP3   OH251818   1.745   3.588   1.727  0.6053  0.7487 -0.0682
 9208TIP3    H151819   1.824   3.641   1.740  0.7315  0.4763  0.2940
 9208TIP3    H251820   1.710   3.576   1.816  1.4548 -1.1059  0.0551
 9209TIP3   OH251821   6.470   1.485   2.089  1.0234  0.0943  0.0108
 9209TIP3    H151822   6.396   1.522   2.040  2.6927  1.1453 -1.8997
 9209TIP3    H251823   6.505   1.560   2.139  0.5370 -0.5101  1.2937
 9210TIP3   OH251824   6.341   3.066   3.958 -0.2314 -0.1313 -0.0738
 9210TIP3    H151825   6.390   3.102   3.884  3.4285 -0.0637  2.1092
 9210TIP3    H251826   6.310   2.981   3.927  1.1620 -0.0936 -1.7261
 9211TIP3   OH251827   2.097   4.398   3.787  0.4568 -0.3077  0.2417
 9211TIP3    H151828   2.083   4.460   3.716  0.7996 -1.1443 -0.5782
 9211TIP3    H251829   2.188   4.414   3.815  0.7995 -0.9345 -0.4796
 9212TIP3   OH251830   5.713   2.327   1.701 -0.0780  0.7893 -0.1140
 9212TIP3    H151831   5.627   2.296   1.672 -0.1026  0.4296  0.3330
 9212TIP3    H251832   5.774   2.293   1.635 -0.4652  2.6728 -1.5347
 9213TIP3   OH251833   3.826   1.312   2.136  0.0947 -0.0827  0.1276
 9213TIP3    H151834   3.817   1.247   2.067 -0.4218 -0.2166  0.3149
 9213TIP3    H251835   3.906   1.360   2.114 -0.6294  0.5885 -1.1562
 9214TIP3   OH251836   1.230   3.334   4.434  0.2944 -0.1317  0.2020
 9214TIP3    H151837   1.267   3.250   4.408  0.5903  0.4989 -1.5339
 9214TIP3    H251838   1.292   3.399   4.401  0.1184  0.7844  1.6005
 9215TIP3   OH251839   0.466   4.498   3.943 -0.2952  0.3374 -0.3294
 9215TIP3    H151840   0.404   4.541   4.002  1.1844 -0.5853  2.0486
 9215TIP3    H251841   0.515   4.570   3.903 -2.7264  1.0690 -2.1895
 9216TIP3   OH251842   0.108   1.551   3.822  0.3128  0.1837 -0.3851
 9216TIP3    H151843   0.188   1.515   3.861 -0.7594 -0.3877  1.4089
 9216TIP3    H251844   0.073   1.610   3.889  0.3638  2.1846 -2.0354
 9217TIP3   OH251845   2.738   1.730   0.806 -0.4229  0.3993 -0.2772
 9217TIP3    H151846   2.781   1.815   0.811  1.2171 -0.4228  0.0846
 9217TIP3    H251847   2.666   1.736   0.870  0.2151  1.1999  0.3920
 9218TIP3   OH251848   1.290   5.603   1.605  0.0062  0.1971 -0.5557
 9218TIP3    H151849   1.215   5.652   1.572  1.0169  1.2084 -1.4394
 9218TIP3    H251850   1.258   5.561   1.685 -1.2628  1.2755 -0.4620
 9219TIP3   OH251851   3.479   1.082   2.212 -0.0775  0.4426 -0.3270
 9219TIP3    H151852   3.480   1.003   2.158  0.1406 -0.1997  0.5819
 9219TIP3    H251853   3.415   1.062   2.281 -0.9655  1.5676 -0.7947
 9220TIP3   OH251854   0.113   2.301   1.750 -0.0704  0.2342 -0.1539
 9220TIP3    H151855   0.199   2.320   1.786 -0.6381 -0.9718  2.0765
 9220TIP3    H251856   0.103   2.361   1.677  3.2115 -0.5717 -1.4351
 9221TIP3   OH251857   3.741   1.807   1.692  0.0151  0.0127 -0.0602
 9221TIP3    H151858   3.793   1.835   1.768  0.6124 -0.6471 -0.2175
 9221TIP3    H251859   3.745   1.712   1.693 -0.0096 -0.0060 -0.8943
 9222TIP3   OH251860   4.679   1.663   3.414 -0.6948 -0.1852 -0.3595
 9222TIP3    H151861   4.735   1.685   3.489 -2.2792  0.2024  0.7636
 9222TIP3    H251862   4.726   1.593   3.369  1.3891  1.0934 -0.3247
 9223TIP3   OH251863   2.447   5.887   3.325 -0.4400  0.3686 -0.1051
 9223TIP3    H151864   2.492   5.934   3.256  2.0219 -0.8703  0.5551
 9223TIP3    H251865   2.470   5.933   3.406  0.7240 -0.9461  0.3687
 9224TIP3   OH251866   3.355   3.343   2.175 -0.0475  0.3056  0.3463
 9224TIP3    H151867   3.325   3.424   2.134  0.3635 -0.9745 -2.8127
 9224TIP3    H251868   3.449   3.357   2.187  0.0034  0.3731 -0.0866
 9225TIP3   OH251869   5.310   0.451   1.263 -0.2381  0.5213  0.5464
 9225TIP3    H151870   5.375   0.417   1.325  1.3659  2.7611  0.2152
 9225TIP3    H251871   5.263   0.518   1.311 -1.6071 -0.3321  0.4395
 9226TIP3   OH251872   3.364   6.589   1.025  0.2628  0.8922  0.2964
 9226TIP3    H151873   3.382   6.657   1.090 -2.9739  0.9510  1.2731
 9226TIP3    H251874   3.294   6.625   0.971 -0.6412 -1.1573  0.0258
 9227TIP3   OH251875   0.868   3.953   2.732  0.1435  0.9549 -0.1071
 9227TIP3    H151876   0.861   3.925   2.641 -0.5972  1.2341 -0.1376
 9227TIP3    H251877   0.780   3.944   2.768  0.1745  1.9524  0.2603
 9228TIP3   OH251878   1.126   5.344   3.666  0.5285  0.8261  0.0456
 9228TIP3    H151879   1.079   5.406   3.722  0.4151 -0.3109  1.2463
 9228TIP3    H251880   1.080   5.349   3.582 -0.5673  1.1184  0.6345
 9229TIP3   OH251881   2.749   0.830   2.464 -0.1749  0.0497  0.3182
 9229TIP3    H151882   2.759   0.900   2.529  1.2695 -0.0395  0.2249
 9229TIP3    H251883   2.751   0.876   2.380  0.2108 -0.0476  0.2739
 9230TIP3   OH251884   3.993   4.917   2.360  0.1912  0.4682  0.7403
 9230TIP3    H151885   4.061   4.891   2.298 -0.3766 -0.2348  0.3942
 9230TIP3    H251886   4.041   4.946   2.438  0.9649  2.6981 -0.4825
 9231TIP3   OH251887   2.665   6.658   2.807 -0.3652  0.3478  0.1618
 9231TIP3    H151888   2.600   6.589   2.822 -0.4043  0.1074 -1.0116
 9231TIP3    H251889   2.623   6.716   2.742  1.0499 -0.4945 -1.5892
 9232TIP3   OH251890   3.157   1.585   2.053 -0.0362 -0.0637 -0.3570
 9232TIP3    H151891   3.155   1.552   1.963  0.7518 -1.5369  0.1370
 9232TIP3    H251892   3.242   1.557   2.087 -0.3643  0.3859  0.8969
 9233TIP3   OH251893   0.487   3.535   2.143 -0.1251  0.4910  0.3336
 9233TIP3    H151894   0.478   3.440   2.133 -1.5716  0.4484  1.5807
 9233TIP3    H251895   0.505   3.567   2.054  1.5641 -1.0359  0.0855
 9234TIP3   OH251896   3.085   4.196   3.495  0.2322  0.2843  0.5792
 9234TIP3    H151897   3.000   4.160   3.469 -0.0487  2.2940 -1.6648
 9234TIP3    H251898   3.143   4.174   3.422  1.0220  0.9842  0.9881
 9235TIP3   OH251899   6.522   5.358   3.759 -0.6194 -0.3195  1.0728
 9235TIP3    H151900   6.459   5.430   3.764  0.1352  0.4079  0.3777
 9235TIP3    H251901   6.494   5.297   3.828 -1.4461  0.4852  1.4741
 9236TIP3   OH251902   0.511   1.059   3.109  0.6748 -0.3291  0.3102
 9236TIP3    H151903   0.427   1.067   3.154 -1.0216 -0.5955 -2.5129
 9236TIP3    H251904   0.576   1.087   3.173 -1.2753 -2.2114  3.4005
 9237TIP3   OH251905   2.147   5.080   3.817  0.2690  0.0372 -0.2261
 9237TIP3    H151906   2.212   5.150   3.818 -1.5387  1.7793  0.1162
 9237TIP3    H251907   2.113   5.076   3.906 -1.2030  0.2580 -0.7440
 9238TIP3   OH251908   3.173   5.260   2.014 -0.2282 -0.0428 -0.4474
 9238TIP3    H151909   3.237   5.195   1.987 -0.5606  0.5755 -3.0269
 9238TIP3    H251910   3.095   5.239   1.963 -0.3432  2.3285 -1.3871
 9239TIP3   OH251911   0.765   5.686   1.550  0.1639 -0.2806 -0.5076
 9239TIP3    H151912   0.676   5.661   1.575  0.5021 -1.8073 -0.7361
 9239TIP3    H251913   0.759   5.699   1.455  0.1813 -0.3067 -0.5119
 9240TIP3   OH251914   2.378   2.523   1.474 -0.2187  0.2643  0.6771
 9240TIP3    H151915   2.356   2.497   1.384  0.0773 -0.1097  0.7036
 9240TIP3    H251916   2.336   2.607   1.486 -2.1158 -0.6721  0.9404
 9241TIP3   OH251917   0.717   6.045   0.660  0.3094 -0.2799  0.6044
 9241TIP3    H151918   0.779   5.982   0.698 -0.7571 -1.7915 -0.0704
 9241TIP3    H251919   0.640   5.993   0.637  0.6733  0.5759 -3.2354
 9242TIP3   OH251920   5.900   3.971   3.276  0.1428 -0.0952 -0.1350
 9242TIP3    H151921   5.960   3.896   3.273  0.1729 -0.0376 -2.2657
 9242TIP3    H251922   5.945   4.040   3.228 -0.6225  0.7516  0.3303
 9243TIP3   OH251923   4.132   3.277   3.560  0.2582  0.5106  0.5248
 9243TIP3    H151924   4.208   3.248   3.510  0.1484 -0.5624  0.9625
 9243TIP3    H251925   4.158   3.268   3.652  0.0288  1.2996  0.6756
 9244TIP3   OH251926   0.446   0.676   0.666 -0.0196  0.5827 -0.1276
 9244TIP3    H151927   0.494   0.593   0.672 -0.2346  0.5330  1.1761
 9244TIP3    H251928   0.445   0.696   0.573  2.3844  0.4887 -0.2337
 9245TIP3   OH251929   0.310   0.134   1.441 -0.4609  0.3763 -0.5383
 9245TIP3    H151930   0.327   0.217   1.486 -0.7256  0.6563 -0.9412
 9245TIP3    H251931   0.363   0.140   1.361 -0.1913 -0.0057 -0.3891
 9246TIP3   OH251932   5.203   5.312   3.030  0.1076 -0.0900  0.0294
 9246TIP3    H151933   5.280   5.356   3.068 -0.7217  0.7793  0.7618
 9246TIP3    H251934   5.169   5.258   3.101 -0.6444  0.4658  0.1064
 9247TIP3   OH251935   2.294   3.813   2.769 -0.0571  0.5108 -0.3043
 9247TIP3    H151936   2.379   3.855   2.755  0.4181 -0.6749 -1.1065
 9247TIP3    H251937   2.307   3.758   2.846 -0.5012  1.3278  0.3724
 9248TIP3   OH251938   4.322   1.401   2.231  0.1025 -0.2765  0.4693
 9248TIP3    H151939   4.250   1.463   2.225  0.4988  0.0910 -0.6099
 9248TIP3    H251940   4.285   1.317   2.205  0.0084 -0.1256  0.1126
 9249TIP3   OH251941   6.702   4.383   3.529  0.5863  0.0689  0.4003
 9249TIP3    H151942   6.761   4.411   3.599  1.6408 -1.1567  0.0337
 9249TIP3    H251943   6.690   4.289   3.543 -2.5617  0.5149  1.3813
 9250TIP3   OH251944   2.718   5.258   1.568 -0.4254  0.0026 -0.0789
 9250TIP3    H151945   2.775   5.182   1.580 -1.4906 -0.7141  0.7072
 9250TIP3    H251946   2.729   5.282   1.476 -2.1664 -2.9204 -1.1890
 9251TIP3   OH251947   4.555   1.949   0.904  0.3873 -0.2821 -0.2593
 9251TIP3    H151948   4.492   1.881   0.880 -0.2144 -0.1001  0.7498
 9251TIP3    H251949   4.529   2.025   0.852 -0.4354 -0.1162  0.3689
 9252TIP3   OH251950   1.880   5.183   2.806 -0.6754 -0.0920 -0.4374
 9252TIP3    H151951   1.803   5.165   2.752  0.1397 -0.8635 -1.3994
 9252TIP3    H251952   1.917   5.263   2.769 -1.4406  0.7543  0.5543
 9253TIP3   OH251953   0.355   2.987   2.026 -0.6620 -0.2566  0.1708
 9253TIP3    H151954   0.431   3.042   2.005 -0.1531 -1.0261 -0.0781
 9253TIP3    H251955   0.389   2.898   2.019 -0.7669 -0.6199  3.0821
 9254TIP3   OH251956   0.809   0.914   1.171 -0.0025  0.3848 -0.1966
 9254TIP3    H151957   0.758   0.987   1.206  1.0019  1.7518 -1.4417
 9254TIP3    H251958   0.838   0.944   1.085  4.3193  0.4476  1.0499
 9255TIP3   OH251959   2.371   6.535   1.438  0.3524  0.1690 -0.1489
 9255TIP3    H151960   2.310   6.594   1.482  0.3206  0.5148 -0.6548
 9255TIP3    H251961   2.391   6.578   1.355  0.3002 -0.5470 -0.5394
 9256TIP3   OH251962   2.308   0.490   2.308  0.4014 -0.2512  0.1347
 9256TIP3    H151963   2.278   0.576   2.338 -0.8598 -1.5087  2.8810
 9256TIP3    H251964   2.288   0.488   2.215 -1.3222  1.7364  0.3938
 9257TIP3   OH251965   2.746   5.541   2.512 -0.4225 -0.3029  0.5237
 9257TIP3    H151966   2.723   5.599   2.440 -0.7146 -0.1883  0.7087
 9257TIP3    H251967   2.663   5.521   2.555 -0.2222 -0.1850  0.9721
 9258TIP3   OH251968   0.864   1.953   2.441 -0.2547 -0.3653 -0.3881
 9258TIP3    H151969   0.957   1.964   2.420 -0.4827  0.4050 -1.0455
 9258TIP3    H251970   0.842   2.028   2.496 -1.1344  1.0811 -2.5546
 9259TIP3   OH251971   2.150   3.327   0.950  0.3153 -0.1417  0.2783
 9259TIP3    H151972   2.131   3.273   0.874  2.7933 -0.0693 -0.4727
 9259TIP3    H251973   2.135   3.417   0.920 -1.1038 -0.2227  0.6768
 9260TIP3   OH251974   5.967   4.383   2.638 -0.2360 -0.0808  0.0190
 9260TIP3    H151975   6.056   4.416   2.626 -0.2233 -0.0164  0.2900
 9260TIP3    H251976   5.937   4.363   2.550  0.4815 -1.2298  0.0165
 9261TIP3   OH251977   5.520   4.370   0.429 -0.1376  0.1028 -0.3074
 9261TIP3    H151978   5.552   4.368   0.519 -0.1001  1.8250 -0.2598
 9261TIP3    H251979   5.595   4.343   0.376  0.3286  0.6512  0.0626
 9262TIP3   OH251980   4.089   6.448   3.001  0.2360  0.6462 -0.4016
 9262TIP3    H151981   4.072   6.441   3.095  0.2488 -2.3645 -0.5208
 9262TIP3    H251982   4.184   6.464   2.996  0.6413 -1.2719  0.1571
 9263TIP3   OH251983   6.057   3.145   0.572  0.9150  0.3665  0.6616
 9263TIP3    H151984   6.067   3.131   0.666  1.9473 -0.3642  0.4580
 9263TIP3    H251985   6.138   3.113   0.533  0.6882  1.0458 -0.4530
 9264TIP3   OH251986   0.933   6.267   2.878 -0.4478 -0.2084 -0.4977
 9264TIP3    H151987   0.881   6.318   2.816 -0.6953  0.8077  0.5295
 9264TIP3    H251988   1.023   6.282   2.851 -0.5919 -0.8070 -1.3822
 9265TIP3   OH251989   3.519   1.650   1.231  0.0423  0.0226  0.1883
 9265TIP3    H151990   3.492   1.706   1.305 -0.9175  1.1480 -0.9616
 9265TIP3    H251991   3.613   1.664   1.224 -0.2249  1.8169 -0.2791
 9266TIP3   OH251992   2.827   5.958   2.945  0.2535 -0.6326  0.1481
 9266TIP3    H151993   2.904   5.927   2.992 -0.0909 -1.5786  0.1026
 9266TIP3    H251994   2.754   5.936   3.001  0.0294  0.6621  0.3959
 9267TIP3   OH251995   3.443   2.507   1.330  0.3163 -0.5603  0.1048
 9267TIP3    H151996   3.414   2.587   1.285 -0.0260 -0.8364 -0.1822
 9267TIP3    H251997   3.513   2.472   1.274  0.2427 -0.6298  0.0547
 9268TIP3   OH251998   2.614   3.061   2.714  0.3556  0.0173 -0.3531
 9268TIP3    H151999   2.651   3.062   2.626  1.2594 -1.1457 -0.0152
 9268TIP3    H252000   2.619   3.152   2.743 -1.2500  0.7012 -1.9814
 9269TIP3   OH252001   5.793   1.358   0.405  0.2185  0.2424  0.1290
 9269TIP3    H152002   5.714   1.316   0.440  0.3826  1.2277  1.8130
 9269TIP3    H252003   5.852   1.286   0.385 -0.4703 -0.4389  0.4895
 9270TIP3   OH252004   6.377   0.958   2.567  0.2857  0.3882  0.3668
 9270TIP3    H152005   6.321   0.945   2.643 -0.5061 -0.3550 -0.3175
 9270TIP3    H252006   6.454   0.904   2.584 -0.3710 -0.6235  0.1721
 9271TIP3   OH252007   1.000   2.503   0.730 -0.2125 -0.3322  0.0934
 9271TIP3    H152008   0.989   2.450   0.809  1.0444 -1.6599 -0.5921
 9271TIP3    H252009   1.075   2.559   0.749 -0.0198 -0.5280 -0.0844
 9272TIP3   OH252010   6.462   2.605   1.317  0.8025  0.3914  0.0538
 9272TIP3    H152011   6.521   2.532   1.335  1.7398  1.0214 -0.4091
 9272TIP3    H252012   6.517   2.670   1.273  0.6224  2.4523  2.6623
 9273TIP3   OH252013   1.324   1.587   3.001  0.4987 -0.4117 -0.0887
 9273TIP3    H152014   1.348   1.554   2.915 -1.3609  1.3075 -1.3621
 9273TIP3    H252015   1.287   1.674   2.984  0.5915  0.2157  2.5105
 9274TIP3   OH252016   3.690   6.646   1.962 -0.0740 -0.6525 -0.2976
 9274TIP3    H152017   3.710   6.569   2.016 -1.3202 -0.6303  0.2486
 9274TIP3    H252018   3.638   6.702   2.020  1.5978  1.0575 -0.3930
 9275TIP3   OH252019   1.632   4.742   4.099 -0.3877  0.0482  0.1858
 9275TIP3    H152020   1.619   4.780   4.186  1.1510  0.5948  0.2133
 9275TIP3    H252021   1.588   4.804   4.040 -0.3623  0.3479  0.4745
 9276TIP3   OH252022   3.765   2.938   0.581 -0.4949  0.0821 -0.5137
 9276TIP3    H152023   3.722   2.958   0.498  0.8823  0.9709 -1.0406
 9276TIP3    H252024   3.712   2.983   0.647 -1.2998 -0.2061 -0.9522
 9277TIP3   OH252025   2.675   1.939   1.750 -0.0063  0.0974 -0.1518
 9277TIP3    H152026   2.696   1.979   1.665  0.5826 -0.7149 -0.3984
 9277TIP3    H252027   2.703   2.004   1.815  0.6861  0.2060 -0.5490
 9278TIP3   OH252028   3.402   0.663   1.235 -0.3300  0.1400  0.1612
 9278TIP3    H152029   3.464   0.632   1.168  0.0905  1.2474  0.0234
 9278TIP3    H252030   3.343   0.589   1.249 -0.0481 -0.3204 -0.9930
 9279TIP3   OH252031   0.636   3.622   3.342 -0.2453 -0.2393 -0.0727
 9279TIP3    H152032   0.552   3.632   3.297  0.2492  0.5825 -0.8311
 9279TIP3    H252033   0.687   3.699   3.317  1.1520 -1.2721 -0.5510
 9280TIP3   OH252034   1.408   2.738   2.945  0.1305  0.4296 -0.5944
 9280TIP3    H152035   1.448   2.824   2.941 -1.7022  1.3601 -0.0113
 9280TIP3    H252036   1.392   2.715   2.854 -0.1651  1.0990 -0.7164
 9281TIP3   OH252037   1.431   0.716   2.215 -0.3515  0.0796 -0.1228
 9281TIP3    H152038   1.346   0.752   2.189 -0.1431  1.6918  1.2703
 9281TIP3    H252039   1.412   0.627   2.243 -1.3824  0.0379 -0.9020
 9282TIP3   OH252040   5.027   3.849   3.544  0.4753  0.8678 -0.1454
 9282TIP3    H152041   5.006   3.756   3.556  1.5947  0.6043 -0.1001
 9282TIP3    H252042   4.988   3.872   3.460  0.6986  0.1870 -0.4404
 9283TIP3   OH252043   4.206   3.309   3.827  0.1885 -0.5209  0.7860
 9283TIP3    H152044   4.255   3.256   3.889 -0.5139 -0.2642  1.5843
 9283TIP3    H252045   4.262   3.384   3.809 -0.0104 -0.1016  1.8834
 9284TIP3   OH252046   0.423   5.692   2.068 -0.4615 -0.1455  0.0671
 9284TIP3    H152047   0.339   5.652   2.091  0.0259 -0.7815  0.7933
 9284TIP3    H252048   0.488   5.640   2.116  0.2916  0.7929  0.0822
 9285TIP3   OH252049   5.294   1.855   3.315  0.4773  0.1512  0.0524
 9285TIP3    H152050   5.201   1.876   3.326  0.4913  0.3792 -0.2456
 9285TIP3    H252051   5.336   1.887   3.394  0.2901 -0.0376  0.2312
 9286TIP3   OH252052   0.217   4.484   0.731  0.8422 -0.3884 -0.5530
 9286TIP3    H152053   0.143   4.432   0.763 -0.7787  0.0972 -3.2690
 9286TIP3    H252054   0.258   4.429   0.665  0.8912  0.6357 -1.3897
 9287TIP3   OH252055   4.256   0.758   2.218  0.1286 -0.1124  0.2501
 9287TIP3    H152056   4.189   0.769   2.151  0.2524  2.0261  0.4326
 9287TIP3    H252057   4.207   0.747   2.299  0.0008  0.6595  0.2762
 9288TIP3   OH252058   5.110   2.767   3.282  0.7136 -0.1255 -0.0776
 9288TIP3    H152059   5.109   2.857   3.314 -3.0888  0.1636 -0.5950
 9288TIP3    H252060   5.139   2.774   3.191  0.2539  0.6114 -0.1709
 9289TIP3   OH252061   1.367   2.510   3.796  0.1506 -0.2850 -0.1783
 9289TIP3    H152062   1.359   2.477   3.706  0.2155  0.2126 -0.3726
 9289TIP3    H252063   1.285   2.485   3.839 -0.5837  0.8687 -0.8472
 9290TIP3   OH252064   1.468   2.918   5.061 -0.3970 -0.5456 -0.0502
 9290TIP3    H152065   1.416   2.944   4.985 -1.6351 -3.1281 -0.1853
 9290TIP3    H252066   1.404   2.900   5.129  0.6614  0.9448  1.4274
 9291TIP3   OH252067   3.674   5.611   1.664  0.8553  0.1979 -0.4093
 9291TIP3    H152068   3.677   5.631   1.570  0.7942  0.5397 -0.3363
 9291TIP3    H252069   3.721   5.682   1.706  1.8219 -0.4999 -0.2625
 9292TIP3   OH252070   4.070   2.966   4.146 -0.4363 -0.3084  0.2466
 9292TIP3    H152071   3.997   3.007   4.100 -0.1186 -0.0586 -0.0452
 9292TIP3    H252072   4.107   3.037   4.200  0.2114 -0.1565 -0.3769
 9293TIP3   OH252073   4.673   2.207   3.456  0.7182 -0.0085  0.0406
 9293TIP3    H152074   4.599   2.248   3.502  1.8687  1.4151  0.6822
 9293TIP3    H252075   4.714   2.279   3.408  1.5609 -0.8330 -0.4996
 9294TIP3   OH252076   5.386   1.290   2.764  0.3089  0.0591  0.2013
 9294TIP3    H152077   5.464   1.304   2.710  0.8390 -0.0862  0.9074
 9294TIP3    H252078   5.316   1.335   2.717  1.0195  1.0667  0.0547
 9295TIP3   OH252079   6.447   1.297   1.111 -0.6809  0.3352  0.3927
 9295TIP3    H152080   6.471   1.225   1.169  1.0606  1.6535  1.3834
 9295TIP3    H252081   6.364   1.330   1.145 -0.2155  0.3981  1.4801
 9296TIP3   OH252082   1.315   3.929   0.637  0.4125 -0.3429 -0.2249
 9296TIP3    H152083   1.380   3.991   0.669  0.8439 -0.8664 -0.0668
 9296TIP3    H252084   1.357   3.843   0.647 -0.2007 -0.6648 -0.3673
 9297TIP3   OH252085   3.823   3.159   1.389  0.3557 -0.0963 -0.3736
 9297TIP3    H152086   3.806   3.243   1.432 -0.8282 -0.6385  0.2720
 9297TIP3    H252087   3.913   3.138   1.413 -0.0761 -0.0956  1.4051
 9298TIP3   OH252088   2.003   0.619   0.655 -0.0268  0.0516 -0.1455
 9298TIP3    H152089   2.060   0.553   0.617 -2.2346 -0.0960 -3.5550
 9298TIP3    H252090   1.919   0.575   0.668 -0.5090  1.2489  1.0768
 9299TIP3   OH252091   3.246   5.441   1.443 -0.0715  0.2281  0.0722
 9299TIP3    H152092   3.283   5.464   1.528 -0.4134 -0.7650  0.5124
 9299TIP3    H252093   3.313   5.465   1.380  1.2001 -1.2023  0.8162
 9300TIP3   OH252094   0.725   4.505   3.728 -0.4566 -0.3398  0.4382
 9300TIP3    H152095   0.681   4.587   3.750  0.4198 -0.0602  1.2526
 9300TIP3    H252096   0.816   4.518   3.757  0.3339 -0.6622 -1.6848
 9301TIP3   OH252097   1.278   0.980   3.023  0.4006 -0.5755  0.2184
 9301TIP3    H152098   1.262   1.027   2.941  1.1006  1.4741  1.1878
 9301TIP3    H252099   1.323   0.900   2.996  1.7313  0.6186 -1.3260
 9302TIP3   OH252100   6.152   0.913   3.569 -0.4441 -0.5197  0.9736
 9302TIP3    H152101   6.076   0.961   3.603 -0.4020 -0.5037  1.0445
 9302TIP3    H252102   6.114   0.833   3.530 -0.6342  0.0961 -0.1595
 9303TIP3   OH252103   2.587   3.282   1.073  0.2227 -0.2520  0.5986
 9303TIP3    H152104   2.565   3.368   1.109  1.8430  0.3927  0.1569
 9303TIP3    H252105   2.506   3.252   1.031 -0.2615  1.2423  0.4017
 9304TIP3   OH252106   0.023   1.345   2.053 -0.6197 -0.0727  0.2085
 9304TIP3    H152107  -0.017   1.339   2.140 -0.9465  1.9100  0.2421
 9304TIP3    H252108  -0.052   1.344   1.993 -0.4738 -0.0894  0.0282
 9305TIP3   OH252109   2.712   4.455   3.282  0.1433 -0.0586  0.1818
 9305TIP3    H152110   2.697   4.532   3.228  1.4869  0.0264 -0.1097
 9305TIP3    H252111   2.806   4.457   3.300 -0.0105 -0.9760  1.1686
 9306TIP3   OH252112   2.149   5.247   1.452 -0.2896  0.6239  0.0565
 9306TIP3    H152113   2.191   5.302   1.518 -0.8204  0.2327  0.7283
 9306TIP3    H252114   2.056   5.250   1.474 -0.2647 -1.0652  0.5173
 9307TIP3   OH252115   0.334   5.262   2.044 -0.5099 -0.3162 -0.1695
 9307TIP3    H152116   0.280   5.286   2.120 -2.7326 -1.0968 -1.4211
 9307TIP3    H252117   0.271   5.232   1.979  1.6032 -3.2960 -1.0254
 9308TIP3   OH252118   1.208   4.834   1.766  0.2634  0.1037 -0.1150
 9308TIP3    H152119   1.132   4.776   1.761  0.3317  0.0631 -0.7878
 9308TIP3    H252120   1.283   4.775   1.773  0.1609  0.1548  1.9691
 9309TIP3   OH252121   3.629   1.868   2.139 -0.0075  0.4665 -0.3766
 9309TIP3    H152122   3.558   1.864   2.203  0.0846  1.0097 -0.2345
 9309TIP3    H252123   3.627   1.783   2.095 -0.2541  0.1967  0.1503
 9310TIP3   OH252124   2.458   2.008   0.861 -0.0476  0.0735 -0.1149
 9310TIP3    H152125   2.508   1.996   0.781 -0.8622 -0.2942 -0.5898
 9310TIP3    H252126   2.411   1.925   0.872  0.8381 -0.2634  1.3093
 9311TIP3   OH252127   1.100   6.165   2.046 -0.3000  0.3312  0.1180
 9311TIP3    H152128   1.063   6.223   2.113  0.0420  0.7048 -0.0152
 9311TIP3    H252129   1.024   6.133   1.997 -0.4713  0.8748  0.0254
 9312TIP3   OH252130   0.747   3.624   3.011  0.0572 -0.0119 -0.7920
 9312TIP3    H152131   0.673   3.639   2.952 -1.5949  0.1082  1.2094
 9312TIP3    H252132   0.707   3.610   3.097  2.2293 -2.5179 -0.0622
 9313TIP3   OH252133   0.808   4.851   0.454  0.4148 -0.2374  0.4154
 9313TIP3    H152134   0.806   4.938   0.494 -1.4512 -0.4219  0.7986
 9313TIP3    H252135   0.717   4.834   0.428  0.7439 -2.0525  0.3111
 9314TIP3   OH252136   4.703   2.492   1.960  0.4218  0.7058 -0.0993
 9314TIP3    H152137   4.710   2.465   1.868  0.2944  2.0880 -0.5510
 9314TIP3    H252138   4.608   2.491   1.977  0.4932 -0.2588  0.2490
 9315TIP3   OH252139   3.421   0.027   0.577  0.1774 -0.6479  0.0016
 9315TIP3    H152140   3.403  -0.017   0.660  1.2436 -1.7420 -0.3130
 9315TIP3    H252141   3.516   0.019   0.565  0.3313  1.2769 -0.3585
 9316TIP3   OH252142   0.072   5.285   3.784 -0.2981  0.8886 -0.3879
 9316TIP3    H152143   0.072   5.275   3.879 -0.6261  3.0497 -0.1206
 9316TIP3    H252144  -0.009   5.332   3.764 -0.4386  0.1056 -1.7968
 9317TIP3   OH252145   2.096   4.273   1.962 -0.1478 -0.5511 -0.2140
 9317TIP3    H152146   2.083   4.329   1.886 -1.3092  0.3424  0.6064
 9317TIP3    H252147   2.120   4.333   2.032  2.0603 -1.4736 -0.0920
 9318TIP3   OH252148   5.706   1.666   3.439 -0.0316  0.6106 -1.0287
 9318TIP3    H152149   5.675   1.577   3.419 -1.9981  0.9343  0.3082
 9318TIP3    H252150   5.792   1.653   3.479 -1.2651 -0.9782  1.3990
 9319TIP3   OH252151   1.839   6.446   1.027  0.0302 -0.4397 -0.2470
 9319TIP3    H152152   1.861   6.355   1.006 -0.0473 -0.2044 -1.4274
 9319TIP3    H252153   1.857   6.494   0.946 -0.0709  0.5760  0.3166
 9320TIP3   OH252154   0.771   1.568   1.621 -0.6124  0.1626  0.4150
 9320TIP3    H152155   0.804   1.478   1.622  0.2852  0.4756  1.4444
 9320TIP3    H252156   0.677   1.559   1.607 -0.5293 -0.9402  0.4537
 9321TIP3   OH252157   4.098   3.332   3.160  0.7361  0.2697  0.0320
 9321TIP3    H152158   4.185   3.328   3.201  1.2767 -0.2851 -1.1242
 9321TIP3    H252159   4.115   3.321   3.067 -0.5144  0.9894 -0.3017
 9322TIP3   OH252160   1.251   3.162   2.629 -0.0984 -0.0854 -0.5374
 9322TIP3    H152161   1.247   3.110   2.549  1.8355 -1.0811 -0.0434
 9322TIP3    H252162   1.180   3.226   2.620 -2.0866 -2.2900 -1.5215
 9323TIP3   OH252163   0.176   4.125   0.699  0.2168  0.1433  0.2937
 9323TIP3    H152164   0.226   4.107   0.779  0.4126 -1.1149 -0.0797
 9323TIP3    H252165   0.087   4.140   0.730  0.1557 -0.9684  0.7332
 9324TIP3   OH252166   3.605   3.551   0.774  0.6103 -0.0401 -0.5137
 9324TIP3    H152167   3.532   3.489   0.776  0.6815 -0.1653 -1.4425
 9324TIP3    H252168   3.633   3.558   0.865  0.1701 -0.8580 -0.3088
 9325TIP3   OH252169   3.821   4.818   2.655  0.1806  0.4431 -0.1190
 9325TIP3    H152170   3.783   4.802   2.741 -1.1316 -0.6152 -0.8499
 9325TIP3    H252171   3.883   4.746   2.642  1.4025  1.3649  0.4816
 9326TIP3   OH252172   5.650   3.302   0.748 -0.0228  0.3533  0.1208
 9326TIP3    H152173   5.626   3.210   0.737 -0.3781  0.3652  0.7424
 9326TIP3    H252174   5.733   3.311   0.700 -1.4108  0.4200 -2.4441
 9327TIP3   OH252175   4.692   0.691   0.535 -0.2861 -0.2081  0.0839
 9327TIP3    H152176   4.780   0.719   0.562 -0.7395  2.3109 -0.8182
 9327TIP3    H252177   4.708   0.621   0.471  1.0597  0.3235 -0.1919
 9328TIP3   OH252178   4.161   5.656   1.297  0.2794  0.4604 -0.0684
 9328TIP3    H152179   4.168   5.580   1.355  1.8408  0.8353  0.2810
 9328TIP3    H252180   4.247   5.662   1.256  0.1260  1.9666 -0.2060
 9329TIP3   OH252181   1.931   0.268   3.269 -0.0738 -0.5635 -0.2330
 9329TIP3    H152182   1.918   0.337   3.203  0.4262 -0.9916 -0.7846
 9329TIP3    H252183   1.872   0.293   3.341  1.2279  1.3225  0.2720
 9330TIP3   OH252184   2.285   2.661   2.748  0.6515 -0.3813  0.1902
 9330TIP3    H152185   2.282   2.663   2.653 -1.8712  1.8552  0.2039
 9330TIP3    H252186   2.358   2.719   2.771 -0.3228  1.1412 -0.4214
 9331TIP3   OH252187   1.852   0.729   3.012  0.0501 -0.4064  0.7157
 9331TIP3    H152188   1.781   0.702   2.954  1.4639 -0.4518 -1.0840
 9331TIP3    H252189   1.930   0.724   2.958  1.2577  0.9714  2.2373
 9332TIP3   OH252190   5.000   4.679   2.416 -0.4421 -0.1911  0.4476
 9332TIP3    H152191   5.014   4.592   2.453  0.5586 -0.1841  0.1160
 9332TIP3    H252192   5.007   4.738   2.491  0.2000 -0.2982  0.4830
 9333TIP3   OH252193   5.883   2.865   2.203  0.5278 -0.4612  0.2038
 9333TIP3    H152194   5.972   2.889   2.229  1.0539 -1.7950 -0.2671
 9333TIP3    H252195   5.896   2.802   2.132 -0.7823 -1.3111  0.6970
 9334TIP3   OH252196   5.267   6.228   1.425  0.2325  0.6143  0.1202
 9334TIP3    H152197   5.277   6.297   1.491 -0.3717  0.7950  0.0319
 9334TIP3    H252198   5.297   6.148   1.469 -0.1554  0.7318  0.6155
 9335TIP3   OH252199   6.669   2.412   1.215  0.0020  0.7677 -0.3151
 9335TIP3    H152200   6.752   2.367   1.199 -0.8092 -0.7104 -0.5438
 9335TIP3    H252201   6.677   2.496   1.169  1.7381  1.1016  0.5259
 9336TIP3   OH252202   3.094   5.239   3.719  0.3081 -0.6324 -0.1604
 9336TIP3    H152203   3.166   5.301   3.727 -1.5124  1.8006 -1.1128
 9336TIP3    H252204   3.018   5.285   3.755 -1.0014 -2.6582 -0.1337
 9337TIP3   OH252205   3.968   3.039   2.208 -0.1130 -0.5215  0.7921
 9337TIP3    H152206   3.878   3.033   2.240 -1.1848 -0.1331 -1.9267
 9337TIP3    H252207   3.964   3.011   2.117  2.0369  2.0138 -0.2264
 9338TIP3   OH252208   0.463   2.009   1.908 -0.2872  0.3434  0.5591
 9338TIP3    H152209   0.552   2.040   1.893 -0.5477  0.3044 -1.3026
 9338TIP3    H252210   0.421   2.013   1.822 -0.9520 -3.1267  0.5657
 9339TIP3   OH252211   2.279   5.357   1.669  0.1565  0.1105  0.2780
 9339TIP3    H152212   2.361   5.310   1.686  0.8651  1.6559  1.2717
 9339TIP3    H252213   2.296   5.447   1.696 -2.5506  0.0650  2.6256
 9340TIP3   OH252214   3.820   0.684   1.482 -0.5457 -0.5559  0.0519
 9340TIP3    H152215   3.778   0.599   1.491  0.6162 -1.3451 -1.5007
 9340TIP3    H252216   3.882   0.673   1.410 -0.4570  1.6433 -0.2944
 9341TIP3   OH252217   0.423   5.980   3.685 -0.0239  0.7833 -0.6147
 9341TIP3    H152218   0.467   6.062   3.703 -1.4599  1.2824  0.9217
 9341TIP3    H252219   0.341   6.005   3.642 -1.4248  0.3807  1.6832
 9342TIP3   OH252220   1.685   3.513   2.181  0.1013 -0.2119  0.2050
 9342TIP3    H152221   1.772   3.553   2.182 -0.4550  1.0893 -0.6577
 9342TIP3    H252222   1.664   3.498   2.273  1.2173 -0.5332  0.4267
 9343TIP3   OH252223   6.355   0.086   1.958  0.0675 -0.0460 -0.6578
 9343TIP3    H152224   6.301   0.142   1.902 -0.7552  0.2572  0.4086
 9343TIP3    H252225   6.434   0.138   1.975  0.8884 -0.6229 -2.4917
 9344TIP3   OH252226   2.305   5.461   1.270  0.0339  0.0861 -0.3911
 9344TIP3    H152227   2.317   5.370   1.298  0.5225 -0.2261 -1.5043
 9344TIP3    H252228   2.378   5.509   1.311  0.0641 -0.1262 -0.1967
 9345TIP3   OH252229   6.585   0.275   3.828  0.3032  0.4115  0.2036
 9345TIP3    H152230   6.583   0.351   3.887 -0.3804  1.1106 -0.7048
 9345TIP3    H252231   6.642   0.212   3.873 -0.4811  0.7695  1.8058
 9346TIP3   OH252232   0.032   0.623   2.813 -0.6257  0.2261  0.0611
 9346TIP3    H152233   0.064   0.536   2.791  1.0050  0.5559  1.0139
 9346TIP3    H252234   0.108   0.670   2.847 -1.7166  1.6577  0.6685
 9347TIP3   OH252235   2.142   6.279   2.941  0.3401 -0.2050 -0.1121
 9347TIP3    H152236   2.096   6.337   3.001 -0.7262 -1.2932  0.1743
 9347TIP3    H252237   2.194   6.337   2.886 -0.5308  0.9952  0.2920
 9348TIP3   OH252238   2.388   5.618   1.841  0.1165 -0.0028  0.4434
 9348TIP3    H152239   2.294   5.633   1.829 -0.4524 -3.5401 -0.4541
 9348TIP3    H252240   2.405   5.642   1.932 -1.1110  2.7196  0.0540
 9349TIP3   OH252241   0.171   0.362   1.777 -0.7176 -0.7437  0.1841
 9349TIP3    H152242   0.154   0.444   1.731  1.3849 -1.1035 -1.3922
 9349TIP3    H252243   0.159   0.383   1.869 -0.8489  1.1618 -0.2322
 9350TIP3   OH252244   3.230   1.810   3.704  0.6035 -0.2843  0.6069
 9350TIP3    H152245   3.218   1.728   3.751  0.8726 -1.2981 -1.0022
 9350TIP3    H252246   3.280   1.866   3.764  0.2054 -1.1906  1.8157
 9351TIP3   OH252247   6.183   5.276   2.799  0.4543 -0.0446  0.1298
 9351TIP3    H152248   6.278   5.279   2.812  0.4547 -0.7310  0.3466
 9351TIP3    H252249   6.157   5.192   2.836 -0.2468  0.1578  0.1047
 9352TIP3   OH252250   3.953   1.614   2.374 -0.0136 -1.1167  0.5943
 9352TIP3    H152251   3.892   1.578   2.309  1.8395 -1.5101 -1.0586
 9352TIP3    H252252   3.979   1.538   2.426  1.1622 -1.5462 -0.5570
 9353TIP3   OH252253   2.918   0.008   2.459 -0.2998 -0.0903  0.6016
 9353TIP3    H152254   3.013  -0.001   2.446 -0.3121  1.6552 -1.2157
 9353TIP3    H252255   2.909   0.069   2.532 -0.0195 -0.1681  0.7036
 9354TIP3   OH252256   5.811   5.263   2.956 -0.0693 -0.3720  0.7196
 9354TIP3    H152257   5.881   5.290   3.015  1.2128 -0.2138 -0.8218
 9354TIP3    H252258   5.801   5.336   2.895 -0.3991 -1.0899 -0.1032
 9355TIP3   OH252259   4.540   0.384   3.509  0.0330 -0.5226  0.1161
 9355TIP3    H152260   4.507   0.310   3.560  1.0700 -1.0717  0.0082
 9355TIP3    H252261   4.473   0.451   3.520  0.2838 -0.5406  2.3910
 9356TIP3   OH252262   5.420   6.280   0.945 -0.3109 -0.1947  0.1436
 9356TIP3    H152263   5.336   6.325   0.953 -1.8459 -2.7085 -0.6476
 9356TIP3    H252264   5.456   6.282   1.034 -0.8617  1.4807  0.3641
 9357TIP3   OH252265   0.835   3.041   2.442 -0.1458 -0.2048  0.4614
 9357TIP3    H152266   0.788   2.969   2.484  0.1522  0.3870  1.8618
 9357TIP3    H252267   0.782   3.118   2.461  0.8717  0.3275  1.2552
 9358TIP3   OH252268   4.746   5.516   1.962 -0.8831 -0.5534 -0.0326
 9358TIP3    H152269   4.704   5.434   1.937  1.2736 -1.1798 -1.9363
 9358TIP3    H252270   4.834   5.510   1.925  0.1174  1.6557  1.7953
 9359TIP3   OH252271   0.294   4.497   1.390 -0.1009  0.3360  0.0448
 9359TIP3    H152272   0.290   4.492   1.485 -0.4520  0.2000  0.0225
 9359TIP3    H252273   0.210   4.463   1.360 -0.2004  0.8639 -0.2981
 9360TIP3   OH252274   3.559   0.632   0.979  0.5642 -0.4400 -0.0851
 9360TIP3    H152275   3.605   0.589   0.906  1.2799 -0.7632  0.5475
 9360TIP3    H252276   3.514   0.705   0.938  2.5057  0.5398 -0.6041
 9361TIP3   OH252277   6.523   5.591   1.089  0.2291  0.6890  0.5237
 9361TIP3    H152278   6.493   5.612   1.178  0.1918  0.3901  0.5833
 9361TIP3    H252279   6.533   5.676   1.047  0.3289  0.8381  0.8417
 9362TIP3   OH252280   0.444   2.737   0.674 -0.3242 -0.0857  0.5018
 9362TIP3    H152281   0.434   2.810   0.613 -0.9290 -0.0657  0.6220
 9362TIP3    H252282   0.401   2.766   0.754 -1.0143 -0.7594  0.3925
 9363TIP3   OH252283   4.728   3.921   2.510  0.3027  0.3971  0.2239
 9363TIP3    H152284   4.800   3.919   2.446  1.0371 -2.2593  1.0091
 9363TIP3    H252285   4.769   3.897   2.593 -1.1712  0.8115  1.1126
 9364TIP3   OH252286   6.325   0.199   0.692 -0.4230 -0.2344 -0.8461
 9364TIP3    H152287   6.372   0.145   0.629  3.7875 -0.7904  2.3653
 9364TIP3    H252288   6.386   0.269   0.716 -2.6312  1.2471  1.0276
 9365TIP3   OH252289   2.607   4.292   3.893  0.2037 -0.2957 -0.6747
 9365TIP3    H152290   2.626   4.380   3.926  0.7419 -0.7921  0.3787
 9365TIP3    H252291   2.687   4.267   3.846  0.0501 -0.2373 -0.9748
 9366TIP3   OH252292   6.215   3.368   0.802  0.4811 -0.1533  0.0553
 9366TIP3    H152293   6.159   3.290   0.796  1.4506 -0.8087 -0.9789
 9366TIP3    H252294   6.218   3.389   0.895  0.5138 -1.6044  0.4079
 9367TIP3   OH252295   1.033   0.439   2.644  0.7702 -0.2075  0.1438
 9367TIP3    H152296   1.063   0.528   2.626  0.6124 -0.1590  0.1215
 9367TIP3    H252297   1.066   0.419   2.732 -1.1674  0.7381  1.1429
 9368TIP3   OH252298   3.618   3.223   1.953 -0.1740 -0.4264  0.4717
 9368TIP3    H152299   3.625   3.319   1.955 -0.9111 -0.2957 -1.4600
 9368TIP3    H252300   3.619   3.201   1.860  1.8310 -2.4737  0.8965
 9369TIP3   OH252301   6.631   1.334   1.386  0.0080  0.2178 -0.1645
 9369TIP3    H152302   6.603   1.418   1.350 -0.3557  0.1031 -0.1543
 9369TIP3    H252303   6.673   1.289   1.312  1.4533  0.9508  0.1670
 9370TIP3   OH252304   6.285   0.599   3.341 -0.3497  0.1781  0.2263
 9370TIP3    H152305   6.325   0.684   3.357 -1.8968  0.8877  0.4828
 9370TIP3    H252306   6.259   0.567   3.427  0.6069 -0.7840  0.1855
 9371TIP3   OH252307   4.241   1.837   1.288  0.2293 -0.5039  0.2851
 9371TIP3    H152308   4.178   1.908   1.285  1.2275  0.5609  2.4709
 9371TIP3    H252309   4.324   1.878   1.263  0.6205 -1.1327  0.5246
 9372TIP3   OH252310   2.925   6.005   1.628 -0.3179 -0.5038  0.2174
 9372TIP3    H152311   2.859   5.943   1.659 -1.7740  0.1810 -1.3585
 9372TIP3    H252312   2.899   6.089   1.666 -1.0466 -0.0233 -1.2595
 9373TIP3   OH252313   6.037   3.642   2.854  0.1379 -0.2667  0.1247
 9373TIP3    H152314   5.997   3.595   2.927  0.3073 -0.6462 -0.0212
 9373TIP3    H252315   6.070   3.573   2.797  1.5763  0.0468  0.5473
 9374TIP3   OH252316   3.496   2.368   2.218 -0.0969  0.1767  0.7841
 9374TIP3    H152317   3.479   2.275   2.201 -0.7440  0.1758  1.4017
 9374TIP3    H252318   3.545   2.397   2.141 -2.5583  0.0844 -0.9411
 9375TIP3   OH252319   4.915   6.545   1.097  0.4551  0.2003 -0.1163
 9375TIP3    H152320   4.952   6.578   1.179  0.1192 -1.6243  0.8395
 9375TIP3    H252321   4.900   6.452   1.114 -0.9630  0.0719 -1.7808
 9376TIP3   OH252322   0.533   3.660   1.112  0.1038 -0.2608 -0.3173
 9376TIP3    H152323   0.566   3.578   1.147  1.7108 -0.0027 -1.1133
 9376TIP3    H252324   0.604   3.723   1.128  0.0862  0.3070 -2.2125
 9377TIP3   OH252325   5.243   5.871   1.279  0.0231 -0.4730  0.3319
 9377TIP3    H152326   5.335   5.863   1.254  0.3371 -0.7596  1.4906
 9377TIP3    H252327   5.245   5.896   1.371 -1.0678  0.1206  0.2146
 9378TIP3   OH252328   4.277   3.424   1.962 -0.0068  0.0027  0.2805
 9378TIP3    H152329   4.207   3.488   1.970  0.3942  0.5985 -0.7201
 9378TIP3    H252330   4.293   3.394   2.051 -1.7054 -0.3557  0.5122
 9379TIP3   OH252331   3.315   0.249   1.889 -0.5051 -0.3028  0.1902
 9379TIP3    H152332   3.270   0.202   1.959  2.3620 -3.0254  0.4153
 9379TIP3    H252333   3.270   0.222   1.809 -0.2050 -1.8550  0.5147
 9380TIP3   OH252334   5.854   0.208   2.377 -0.1644  1.1525 -0.1145
 9380TIP3    H152335   5.827   0.249   2.459 -0.2731  1.8877 -0.5064
 9380TIP3    H252336   5.783   0.149   2.354 -1.1863  2.5850 -0.8039
 9381TIP3   OH252337   1.763   2.264   0.502  0.2873  0.0578 -0.0168
 9381TIP3    H152338   1.724   2.351   0.504  0.0824 -0.0422  0.9905
 9381TIP3    H252339   1.693   2.207   0.469  0.1175  0.1293  0.2193
 9382TIP3   OH252340   3.118   1.876   0.630  0.0807  0.1329  0.1716
 9382TIP3    H152341   3.105   1.838   0.718  2.0378  0.5984  0.7206
 9382TIP3    H252342   3.125   1.800   0.573 -0.2094 -0.2080  0.5777
 9383TIP3   OH252343   6.447   5.743   0.712  0.2294 -0.2710  0.1449
 9383TIP3    H152344   6.527   5.706   0.673 -0.6737 -1.0221 -1.0549
 9383TIP3    H252345   6.422   5.813   0.652  0.6886  0.8629  1.2282
 9384TIP3   OH252346   0.957   2.251   1.929 -0.0830  0.0036 -0.6880
 9384TIP3    H152347   0.898   2.327   1.933  0.6528  0.5336  0.9778
 9384TIP3    H252348   0.899   2.175   1.933 -0.6917  0.4731  3.6981
 9385TIP3   OH252349   3.593   1.190   3.461  0.3920 -0.8538  0.0439
 9385TIP3    H152350   3.633   1.256   3.517  3.8940 -1.6738 -1.2657
 9385TIP3    H252351   3.574   1.117   3.520  1.6090 -0.7353  0.6016
 9386TIP3   OH252352   1.350   2.913   3.156 -0.2484 -0.0610  0.0289
 9386TIP3    H152353   1.349   2.996   3.109 -2.0490 -0.0141  0.0868
 9386TIP3    H252354   1.379   2.849   3.091 -2.6342  0.0087 -1.2086
 9387TIP3   OH252355   5.029   4.035   2.688 -0.0075 -0.1902 -0.4301
 9387TIP3    H152356   5.115   3.997   2.672 -0.3362 -1.8136  1.3678
 9387TIP3    H252357   4.972   3.960   2.706 -1.4690  0.9461 -0.1153
 9388TIP3   OH252358   4.829   1.657   1.079  0.0597  0.3061 -0.2792
 9388TIP3    H152359   4.812   1.563   1.076  0.5502  0.0933  1.9020
 9388TIP3    H252360   4.749   1.695   1.114 -0.0096  0.6625 -0.8167
 9389TIP3   OH252361   2.797   6.650   1.557  0.2435  0.5468  1.1081
 9389TIP3    H152362   2.836   6.563   1.554 -0.9382 -0.0340  1.6748
 9389TIP3    H252363   2.870   6.709   1.574  0.8898 -0.4768  2.0197
 9390TIP3   OH252364   1.189   3.018   1.394  0.6665  0.0284 -0.4422
 9390TIP3    H152365   1.182   3.113   1.391  1.1872  0.1328  0.8406
 9390TIP3    H252366   1.220   2.993   1.307  1.7978  1.1524 -0.3903
 9391TIP3   OH252367   1.446   0.661   1.561 -0.2875 -0.1695  0.5283
 9391TIP3    H152368   1.382   0.635   1.495 -0.1257  0.6727  0.0161
 9391TIP3    H252369   1.394   0.697   1.633 -0.4348 -0.3968  0.5350
 9392TIP3   OH252370   4.839   4.012   4.580 -0.0411  0.0467 -0.1170
 9392TIP3    H152371   4.776   4.064   4.531 -0.3508  1.0044  1.2253
 9392TIP3    H252372   4.921   4.022   4.532 -0.3778  0.7836 -0.5603
 9393TIP3   OH252373   4.805   3.238   2.833 -0.0250 -0.2414  0.0253
 9393TIP3    H152374   4.785   3.189   2.913  1.5425  0.1768  0.7056
 9393TIP3    H252375   4.787   3.176   2.762 -3.2862 -0.0202  0.5120
 9394TIP3   OH252376   2.644   1.580   3.323 -1.0082  0.0250 -0.2661
 9394TIP3    H152377   2.724   1.530   3.305 -1.5587 -1.1265  0.3970
 9394TIP3    H252378   2.579   1.543   3.263 -1.1261  0.7810 -0.6151
 9395TIP3   OH252379   0.848   2.167   1.336 -0.0617 -0.2057 -0.1980
 9395TIP3    H152380   0.789   2.142   1.265  2.4154  1.2335 -2.9569
 9395TIP3    H252381   0.893   2.086   1.360  0.2599 -0.4311 -1.4974
 9396TIP3   OH252382   6.409   6.613   2.178  0.1277  0.3509 -0.0267
 9396TIP3    H152383   6.382   6.678   2.113 -0.0623 -0.7386 -1.0858
 9396TIP3    H252384   6.454   6.546   2.126  2.1213  0.5893  1.2903
 9397TIP3   OH252385   6.454   3.720   1.371  0.5839  0.4776  0.3348
 9397TIP3    H152386   6.440   3.638   1.324  0.4086  0.2357  0.7998
 9397TIP3    H252387   6.386   3.722   1.438  1.6293  0.1460  1.4623
 9398TIP3   OH252388   1.447   4.149   1.673 -0.0281 -0.4926 -0.3798
 9398TIP3    H152389   1.411   4.213   1.734  0.1297 -1.5525  0.8705
 9398TIP3    H252390   1.377   4.133   1.610 -0.8220 -0.6407  0.5256
 9399TIP3   OH252391   1.076   4.342   3.680 -0.1556 -0.0949 -0.0591
 9399TIP3    H152392   1.019   4.383   3.745 -1.3082  0.0118 -1.1055
 9399TIP3    H252393   1.132   4.284   3.732 -0.7722  0.2771  1.0727
 9400TIP3   OH252394   0.314   5.306   4.071  0.2075  0.3052  0.6367
 9400TIP3    H152395   0.373   5.232   4.056 -0.9641 -0.7039  0.7807
 9400TIP3    H252396   0.358   5.381   4.031  1.0104 -0.6487 -0.3336
 9401TIP3   OH252397   5.073   0.647   2.335 -0.2315  0.0895 -0.6256
 9401TIP3    H152398   5.134   0.575   2.351 -3.0110 -2.0436  1.4032
 9401TIP3    H252399   5.040   0.632   2.247  0.5783  0.0259 -0.9245
 9402TIP3   OH252400   0.162   5.055   2.161 -0.2397 -0.0140 -0.2328
 9402TIP3    H152401   0.147   4.997   2.087 -1.2366  0.4189 -0.3828
 9402TIP3    H252402   0.249   5.032   2.192  0.3237 -0.0072 -1.7216
 9403TIP3   OH252403   1.789   2.008   2.965 -0.3586  0.4529  0.8838
 9403TIP3    H152404   1.773   2.000   2.871 -1.8989  1.7707  0.9805
 9403TIP3    H252405   1.841   2.088   2.974  0.3110 -0.0045  1.1167
 9404TIP3   OH252406   5.054   0.724   1.583  0.0304  0.5312  0.1891
 9404TIP3    H152407   5.033   0.659   1.651  1.5536  1.0846  1.2516
 9404TIP3    H252408   5.148   0.712   1.567  0.0457  1.5579 -0.5990
 9405TIP3   OH252409   5.300   5.625   2.709  0.2544 -0.0172  0.1981
 9405TIP3    H152410   5.386   5.607   2.747 -0.2014  1.9833  2.3978
 9405TIP3    H252411   5.256   5.540   2.710  2.1021 -1.0533 -0.8416
 9406TIP3   OH252412   0.597   1.967   3.134 -0.3673  0.3589  0.0160
 9406TIP3    H152413   0.538   1.892   3.124  1.2514 -0.9990  0.1023
 9406TIP3    H252414   0.678   1.929   3.169  1.4498  1.7041 -2.3986
 9407TIP3   OH252415   2.088   5.587   1.375 -0.3747 -0.6732 -0.0152
 9407TIP3    H152416   2.164   5.545   1.335  0.3845 -1.2550  1.9450
 9407TIP3    H252417   2.030   5.606   1.301  1.8414  0.2172 -1.6480
 9408TIP3   OH252418   0.603   4.535   2.152 -0.2008 -0.1838 -0.3393
 9408TIP3    H152419   0.666   4.593   2.196  1.5858 -0.7705 -2.0066
 9408TIP3    H252420   0.587   4.465   2.216  0.5434  0.1824  0.2734
 9409TIP3   OH252421   5.838   0.893   2.944  0.0302 -0.6913 -0.9950
 9409TIP3    H152422   5.928   0.914   2.922  0.5847 -0.7722  0.9951
 9409TIP3    H252423   5.838   0.799   2.960  0.6231 -0.1980  2.9254
 9410TIP3   OH252424   5.425   0.151   2.911 -0.2456  0.4971 -0.3682
 9410TIP3    H152425   5.388   0.189   2.991 -1.1959  0.4706 -0.7798
 9410TIP3    H252426   5.519   0.145   2.928 -0.2558  1.7851  0.2191
 9411TIP3   OH252427   0.595   2.928   0.513 -0.0761 -0.1142  0.3145
 9411TIP3    H152428   0.668   2.965   0.562 -0.2155 -0.3524  0.7104
 9411TIP3    H252429   0.636   2.878   0.443  0.3511 -3.0504  2.4255
 9412TIP3   OH252430   4.475   6.561   3.211 -0.3857 -0.0462  0.1464
 9412TIP3    H152431   4.566   6.532   3.205  0.2150  1.5552  0.7957
 9412TIP3    H252432   4.447   6.533   3.299 -0.6830 -0.9239 -0.2178
 9413TIP3   OH252433   5.084   6.663   1.287  0.0648  0.5991  0.8941
 9413TIP3    H152434   4.999   6.707   1.294 -0.6443 -0.6430  0.4704
 9413TIP3    H252435   5.148   6.731   1.304 -0.9861  1.8075  0.1717
 9414TIP3   OH252436   2.433   0.696   3.200 -0.3027 -0.1561  0.5285
 9414TIP3    H152437   2.385   0.710   3.118 -2.0046  0.0179  1.4983
 9414TIP3    H252438   2.404   0.609   3.229  0.6577 -0.4186  0.7143
 9415TIP3   OH252439   1.695   4.924   1.317 -0.2199  0.9854 -0.5894
 9415TIP3    H152440   1.646   4.843   1.332 -0.6091  1.1527 -0.9331
 9415TIP3    H252441   1.727   4.950   1.403  0.4005  0.1549 -0.5615
 9416TIP3   OH252442   4.305   5.634   0.757 -0.6138 -0.0969 -0.3406
 9416TIP3    H152443   4.395   5.603   0.755 -0.1860  1.1577 -1.0317
 9416TIP3    H252444   4.303   5.707   0.696 -1.5825  1.2976  1.2851
 9417TIP3   OH252445   5.868   0.542   2.343 -0.5296  0.7959  0.7254
 9417TIP3    H152446   5.909   0.489   2.411 -2.2191 -1.6448 -0.0219
 9417TIP3    H252447   5.882   0.493   2.262  0.1934  2.9220 -0.5432
 9418TIP3   OH252448   4.158   3.170   2.617 -0.5697  0.1904 -0.4986
 9418TIP3    H152449   4.119   3.188   2.703  1.6386 -1.0799  0.8758
 9418TIP3    H252450   4.156   3.075   2.608  2.1767  0.0240 -0.2609
 9419TIP3   OH252451   3.299   4.524   3.546  0.6161 -0.2270  0.6487
 9419TIP3    H152452   3.261   4.464   3.610  1.4792 -0.2872  1.1133
 9419TIP3    H252453   3.370   4.568   3.593  0.8924  0.1439 -0.1009
 9420TIP3   OH252454   0.754   3.388   2.770 -0.2398 -0.2510  0.1385
 9420TIP3    H152455   0.660   3.403   2.786 -0.4428  0.2706 -1.3520
 9420TIP3    H252456   0.786   3.473   2.740  0.4315 -0.7450 -0.5685
 9421TIP3   OH252457   1.231   1.000   1.528 -0.0681 -0.1570  0.3686
 9421TIP3    H152458   1.323   1.023   1.544 -0.2135  0.4594  0.3742
 9421TIP3    H252459   1.206   1.055   1.454 -0.4018 -0.4089  0.2920
 9422TIP3   OH252460   5.335   4.205   3.644  0.5286 -0.1044  0.1819
 9422TIP3    H152461   5.410   4.192   3.585  0.8523  1.1313  0.2985
 9422TIP3    H252462   5.366   4.266   3.710 -1.0370  1.7965 -0.7097
 9423TIP3   OH252463   1.670   0.634   3.736  0.0888  0.2272 -0.3968
 9423TIP3    H152464   1.578   0.663   3.738  0.5498  1.7491 -0.1291
 9423TIP3    H252465   1.670   0.552   3.785 -1.0790  0.3619 -0.1410
 9424TIP3   OH252466   4.925   0.209   2.980  0.3117  0.4036  0.1921
 9424TIP3    H152467   4.864   0.272   2.941 -0.0535 -0.7127 -1.1107
 9424TIP3    H252468   4.964   0.164   2.905  0.7540 -0.7578  1.0841
 9425TIP3   OH252469   4.644   6.518   1.354 -0.2325  0.0303  0.1852
 9425TIP3    H152470   4.618   6.467   1.431 -0.6254 -0.8640 -0.5298
 9425TIP3    H252471   4.633   6.459   1.280 -0.4781  1.0878 -0.6536
 9426TIP3   OH252472   2.716   3.114   2.230  0.0514  0.0382  0.2860
 9426TIP3    H152473   2.690   3.199   2.194 -1.0308 -1.1532 -1.9336
 9426TIP3    H252474   2.795   3.090   2.181 -0.8083 -1.1143 -0.5946
 9427TIP3   OH252475   0.280   3.618   3.497 -0.1029  0.3820 -0.0974
 9427TIP3    H152476   0.196   3.626   3.451  0.2112  0.9180 -0.5924
 9427TIP3    H252477   0.291   3.524   3.511 -0.8324  0.3116  0.0631
 9428TIP3   OH252478   3.492   6.395   0.561  0.2665  0.1397  0.3679
 9428TIP3    H152479   3.446   6.352   0.490  1.5886  0.0198 -0.4636
 9428TIP3    H252480   3.425   6.416   0.625 -1.5000  2.8002 -2.1016
 9429TIP3   OH252481   4.757   0.915   0.893  0.3952 -0.1661 -0.3972
 9429TIP3    H152482   4.765   0.843   0.956  1.1688  1.2119  1.1498
 9429TIP3    H252483   4.820   0.894   0.824  0.9100 -0.7712  0.2433
 9430TIP3   OH252484   5.098   1.803   2.980  0.7019  0.6123 -0.0337
 9430TIP3    H152485   5.041   1.871   2.943  1.7665  1.8388  0.5207
 9430TIP3    H252486   5.051   1.772   3.057  0.5351  1.2416  0.1232
 9431TIP3   OH252487   2.897   3.943   2.848  0.5283 -0.2999 -0.2343
 9431TIP3    H152488   2.870   3.851   2.847 -1.0152  0.1127 -1.1850
 9431TIP3    H252489   2.824   3.989   2.807  1.5160  1.2935 -0.2794
 9432TIP3   OH252490   2.270   0.353   2.791 -0.3731  0.1692 -0.0444
 9432TIP3    H152491   2.280   0.263   2.823 -0.6635  0.4235  0.7788
 9432TIP3    H252492   2.193   0.386   2.838  0.4462  1.2475  0.5755
 9433TIP3   OH252493   0.849   0.725   2.225 -0.0847  0.4961  0.0281
 9433TIP3    H152494   0.871   0.643   2.181  0.7639 -0.2606  1.7771
 9433TIP3    H252495   0.754   0.725   2.230 -0.2395  0.7938 -2.0880
 9434TIP3   OH252496   6.338   5.331   3.214 -0.0452 -0.1666 -0.1038
 9434TIP3    H152497   6.395   5.294   3.282 -1.4287 -0.6368  0.8471
 9434TIP3    H252498   6.298   5.254   3.173  0.2620  0.1434 -0.9901
 9435TIP3   OH252499   0.378   6.054   1.922 -0.9546  0.0298 -0.5346
 9435TIP3    H152500   0.368   6.138   1.877 -1.4509 -0.7542 -1.9096
 9435TIP3    H252501   0.412   6.078   2.009  0.3684  1.5459 -1.4223
 9436TIP3   OH252502   4.130   2.746   1.023  0.1927 -0.2294 -0.6865
 9436TIP3    H152503   4.174   2.777   1.103  1.1260  2.0397 -1.9679
 9436TIP3    H252504   4.037   2.751   1.044  0.3800 -2.5581  1.1900
 9437TIP3   OH252505   5.948   3.066   3.946 -0.1204  0.1750  0.0012
 9437TIP3    H152506   5.865   3.093   3.907 -0.1047 -0.9056 -0.8331
 9437TIP3    H252507   5.928   2.985   3.992  0.5675 -0.4321 -0.7193
 9438TIP3   OH252508   2.411   5.081   2.804 -0.4993 -0.3291  0.1515
 9438TIP3    H152509   2.423   5.084   2.709  0.5360 -0.6494  0.2619
 9438TIP3    H252510   2.316   5.089   2.816 -0.6547 -0.3901 -0.9128
 9439TIP3   OH252511   0.388   0.795   1.261 -0.4631  0.5447 -0.5090
 9439TIP3    H152512   0.322   0.782   1.194 -0.2481 -0.1935 -0.5860
 9439TIP3    H252513   0.467   0.754   1.225 -0.2760  0.3829  0.0740
 9440TIP3   OH252514   4.186   1.703   0.581 -0.2733 -0.4688 -0.0619
 9440TIP3    H152515   4.174   1.699   0.676 -0.7484  1.7686  0.0367
 9440TIP3    H252516   4.097   1.706   0.546 -0.0962 -0.3140 -0.5063
 9441TIP3   OH252517   6.256   4.495   1.742 -0.8309  0.3573 -0.3169
 9441TIP3    H152518   6.318   4.485   1.814  0.4137 -0.6342 -1.4735
 9441TIP3    H252519   6.218   4.582   1.754 -1.2427 -0.0876  1.9599
 9442TIP3   OH252520   2.073   2.885   1.992  0.0512  0.2305  0.1219
 9442TIP3    H152521   2.153   2.837   1.968 -0.0978 -1.5923  2.8599
 9442TIP3    H252522   2.099   2.940   2.066 -1.0025  0.3545  0.4123
 9443TIP3   OH252523   2.333   1.686   3.033  0.4940  0.6860 -0.0255
 9443TIP3    H152524   2.249   1.723   3.060  0.4286 -1.2947  3.0036
 9443TIP3    H252525   2.396   1.756   3.048 -0.3785  1.6547 -0.7383
 9444TIP3   OH252526   0.477   3.959   2.224 -0.0519 -0.2898 -0.3004
 9444TIP3    H152527   0.431   3.878   2.203 -0.4266 -0.1935  0.1416
 9444TIP3    H252528   0.407   4.023   2.239  0.2008 -0.3492  1.2186
 9445TIP3   OH252529   6.219   4.881   2.066  1.0773  0.1659 -0.2334
 9445TIP3    H152530   6.308   4.892   2.099  1.8521 -3.3122 -0.7054
 9445TIP3    H252531   6.178   4.821   2.128 -1.5544  2.7980  0.7930
 9446TIP3   OH252532   2.731   4.678   2.802  0.3090  0.8127  0.2746
 9446TIP3    H152533   2.821   4.645   2.793 -0.3331 -0.6803 -1.0480
 9446TIP3    H252534   2.731   4.761   2.754  0.6867  0.2057 -0.8042
 9447TIP3   OH252535   1.527   4.487   1.556 -0.5273 -0.7307  0.2823
 9447TIP3    H152536   1.620   4.473   1.574 -1.1685 -1.9914  3.3050
 9447TIP3    H252537   1.497   4.403   1.519 -0.6355 -0.6260  0.1324
 9448TIP3   OH252538   5.611   2.680   1.634 -0.0731  0.1687 -0.3956
 9448TIP3    H152539   5.593   2.761   1.587  3.8168  1.8391  0.6719
 9448TIP3    H252540   5.646   2.621   1.568 -0.7996  0.1026 -0.7399
 9449TIP3   OH252541   2.100   3.758   2.076  0.6921  0.4652 -0.0088
 9449TIP3    H152542   2.097   3.677   2.127 -1.1813  0.6483  0.2593
 9449TIP3    H252543   2.050   3.821   2.129  1.1127  1.4652 -0.7734
 9450TIP3   OH252544   5.849   6.344   1.211  0.0845 -0.0107 -0.4465
 9450TIP3    H152545   5.830   6.437   1.200 -1.0987 -0.3302 -1.1501
 9450TIP3    H252546   5.789   6.299   1.152  1.9309 -1.1446 -1.5686
 9451TIP3   OH252547   3.991   2.372   0.327 -0.4056  0.6748  0.3301
 9451TIP3    H152548   3.978   2.328   0.243  1.6194 -1.4582  1.0051
 9451TIP3    H252549   3.912   2.351   0.377 -0.4792 -0.3226 -0.1724
 9452TIP3   OH252550   4.789   3.217   2.099 -0.0075  0.0141  0.2570
 9452TIP3    H152551   4.732   3.293   2.110  1.5247  0.9687  2.2235
 9452TIP3    H252552   4.746   3.148   2.149 -0.4307  0.1302  0.0627
 9453TIP3   OH252553   5.893   0.502   2.041 -0.5263 -0.3324  0.3027
 9453TIP3    H152554   5.854   0.520   1.956 -0.3694 -2.1864 -0.2071
 9453TIP3    H252555   5.959   0.570   2.053 -0.6327  0.0235 -1.0136
 9454TIP3   OH252556   1.067   3.618   1.997 -0.0196 -0.8133 -0.1972
 9454TIP3    H152557   1.074   3.627   2.092  2.8893  0.9146 -0.4704
 9454TIP3    H252558   1.104   3.532   1.977  1.3343 -0.3363  0.1378
 9455TIP3   OH252559   3.045   2.672   1.597 -0.1101 -0.0596  0.0951
 9455TIP3    H152560   3.021   2.619   1.672  0.1487  0.0540  0.2617
 9455TIP3    H252561   3.110   2.620   1.550  1.3672  0.7669  1.1403
 9456TIP3   OH252562   2.342   6.013   2.779 -0.0950 -0.3117  0.0499
 9456TIP3    H152563   2.258   6.018   2.733  0.2386  0.8109 -0.4706
 9456TIP3    H252564   2.328   5.947   2.847 -1.7879  0.7159  0.7565
 9457TIP3   OH252565   5.831   2.194   1.913 -0.0236  0.2594  0.7614
 9457TIP3    H152566   5.792   2.255   1.851 -0.0146  0.5125  1.0015
 9457TIP3    H252567   5.759   2.165   1.968 -0.3032 -1.0775 -0.2668
 9458TIP3   OH252568   1.269   4.337   4.053 -0.1720  0.2509  0.4499
 9458TIP3    H152569   1.181   4.300   4.064 -0.4489  0.8814  0.4202
 9458TIP3    H252570   1.312   4.322   4.137 -0.4541  0.3150  0.6071
 9459TIP3   OH252571   2.385   1.608   3.809  0.3547  1.0810 -0.1064
 9459TIP3    H152572   2.414   1.527   3.851 -1.6927  1.0038  1.3150
 9459TIP3    H252573   2.428   1.607   3.723 -0.3281 -1.9957 -0.5536
 9460TIP3   OH252574   3.530   6.102   2.556  0.3947  0.2588 -0.6399
 9460TIP3    H152575   3.479   6.128   2.633 -0.0534  0.7682 -1.0942
 9460TIP3    H252576   3.463   6.082   2.489  0.7536 -1.0594 -0.6253
 9461TIP3   OH252577   4.503   5.339   1.351  0.4081  0.1933  0.0320
 9461TIP3    H152578   4.434   5.380   1.404  0.9528  2.0925 -0.6433
 9461TIP3    H252579   4.487   5.245   1.359 -1.0239  0.5195  1.5275
 9462TIP3   OH252580   1.571   4.907   3.878  0.5624  0.4981  0.4141
 9462TIP3    H152581   1.635   4.978   3.878  0.0364  0.9864  0.0721
 9462TIP3    H252582   1.497   4.942   3.828  0.2924 -0.2929  0.2424
 9463TIP3   OH252583   0.476   0.210   3.812  0.1435  0.1365 -0.3029
 9463TIP3    H152584   0.460   0.173   3.725  0.0629  1.1716 -0.7439
 9463TIP3    H252585   0.402   0.269   3.827  0.0180 -0.2408  0.5902
 9464TIP3   OH252586   5.063   1.676   1.626 -0.5056 -0.7912 -0.2603
 9464TIP3    H152587   5.077   1.764   1.661  2.2987 -1.3653  0.3392
 9464TIP3    H252588   5.029   1.690   1.538 -0.6742  0.8657  0.0412
 9465TIP3   OH252589   1.144   5.226   1.528  0.4840  0.3280  0.0857
 9465TIP3    H152590   1.120   5.312   1.563  1.4627  0.0585  1.5145
 9465TIP3    H252591   1.104   5.164   1.588 -2.8805 -0.4192 -2.6144
 9466TIP3   OH252592   3.270   5.342   1.052  0.0727  0.3486 -0.4655
 9466TIP3    H152593   3.206   5.409   1.076 -1.8375 -0.6915 -2.3498
 9466TIP3    H252594   3.349   5.392   1.031 -0.8570  1.9001 -0.4569
 9467TIP3   OH252595   4.673   0.247   1.964  0.4635 -0.5533 -0.2795
 9467TIP3    H152596   4.588   0.203   1.963  0.3164 -0.2686 -0.5865
 9467TIP3    H252597   4.723   0.204   1.894  0.1450  0.0965 -0.9188
 9468TIP3   OH252598   6.613   5.088   2.041  0.3819 -0.5614  0.3326
 9468TIP3    H152599   6.669   5.130   2.106  0.1967  0.9314 -0.4366
 9468TIP3    H252600   6.671   5.029   1.993  0.5266 -1.6682  1.7954
 9469TIP3   OH252601   5.786   6.619   1.081  0.4914  0.0541 -0.2122
 9469TIP3    H152602   5.713   6.629   1.020  1.0997  0.2863 -0.9086
 9469TIP3    H252603   5.830   6.704   1.080  0.7226 -0.0575  0.2692
 9470TIP3   OH252604   2.207   5.377   3.119 -0.8493 -0.3455 -0.6562
 9470TIP3    H152605   2.147   5.318   3.163  0.3799 -1.4922 -0.4529
 9470TIP3    H252606   2.161   5.461   3.115 -1.8949 -0.8326  0.7236
 9471TIP3   OH252607   0.957   4.416   1.367  0.1547 -0.6311  0.9538
 9471TIP3    H152608   0.893   4.348   1.348 -0.3465  0.2382 -0.7286
 9471TIP3    H252609   1.041   4.377   1.344 -0.2203 -0.4091 -0.9984
 9472TIP3   OH252610   2.167   0.690   2.401 -0.4551  0.1937  0.3842
 9472TIP3    H152611   2.132   0.758   2.459 -0.1922  0.7683 -0.1189
 9472TIP3    H252612   2.090   0.654   2.358 -0.4900  1.1582 -0.3982
 9473TIP3   OH252613   0.799   3.724   2.185 -0.1488  0.0781  0.1721
 9473TIP3    H152614   0.749   3.649   2.153  0.2556 -0.4635  0.7814
 9473TIP3    H252615   0.879   3.685   2.221 -0.2698  0.7242  1.1688
 9474TIP3   OH252616   6.311   4.128   3.782  0.3578  0.4560 -0.0806
 9474TIP3    H152617   6.365   4.101   3.856 -0.9735 -2.0337  0.1054
 9474TIP3    H252618   6.317   4.056   3.719 -1.2439  0.9355 -0.8566
 9475TIP3   OH252619   0.146   1.341   3.029  0.4799 -0.0385 -0.2277
 9475TIP3    H152620   0.118   1.420   2.983  0.8664  0.9631  1.1812
 9475TIP3    H252621   0.241   1.339   3.019  0.3557 -1.0840 -1.3896
 9476TIP3   OH252622   2.350   2.813   1.927  0.0231 -0.0035 -0.3750
 9476TIP3    H152623   2.387   2.891   1.970 -3.2198  2.4119 -1.6188
 9476TIP3    H252624   2.351   2.746   1.996  0.1301  2.0272  1.7347
 9477TIP3   OH252625   6.635   1.166   2.914  0.3229 -0.4915  0.1997
 9477TIP3    H152626   6.566   1.209   2.964 -1.5391 -1.3328 -1.4993
 9477TIP3    H252627   6.715   1.212   2.938 -0.4998 -0.5635  3.5380
 9478TIP3   OH252628   1.202   4.089   3.509  0.2467  0.2853 -0.2374
 9478TIP3    H152629   1.180   4.114   3.599  0.9826  0.4351 -0.0994
 9478TIP3    H252630   1.159   4.156   3.455  0.1810  0.4502  0.0177
 9479TIP3   OH252631   1.194   4.069   2.215  0.0260  0.8143 -0.4968
 9479TIP3    H152632   1.165   4.156   2.187 -2.2747  0.2594 -0.0453
 9479TIP3    H252633   1.159   4.010   2.148 -0.2496  0.0515  0.3042
 9480TIP3   OH252634   1.597   3.058   2.687  0.0419 -0.3808  0.6629
 9480TIP3    H152635   1.571   3.135   2.636 -0.6317 -0.6055  0.6512
 9480TIP3    H252636   1.591   2.985   2.625 -2.3407 -0.9045  1.4194
 9481TIP3   OH252637   3.738   6.561   3.852 -0.3234  0.2181  0.0037
 9481TIP3    H152638   3.734   6.469   3.826 -0.1622  0.5532 -1.2945
 9481TIP3    H252639   3.660   6.600   3.813  1.0033  1.1668 -1.8448
 9482TIP3   OH252640   0.382   5.845   2.918 -0.4288  0.1842 -0.4598
 9482TIP3    H152641   0.428   5.892   2.987 -0.0660  0.2186 -0.7199
 9482TIP3    H252642   0.374   5.909   2.847  1.3261 -0.5422 -1.3645
 9483TIP3   OH252643   3.450   3.633   2.685 -0.8485  0.0547  0.5803
 9483TIP3    H152644   3.489   3.634   2.773  1.9497 -1.3429 -0.5325
 9483TIP3    H252645   3.439   3.726   2.663  0.5890  0.4777  1.5212
 9484TIP3   OH252646   0.195   2.450   4.161  0.4773 -0.1919 -0.4302
 9484TIP3    H152647   0.263   2.450   4.228 -0.0879  0.0931  0.1510
 9484TIP3    H252648   0.141   2.527   4.181 -1.2845 -1.5713  0.4297
 9485TIP3   OH252649   5.034   5.812   2.956 -0.4866  0.0744 -0.0281
 9485TIP3    H152650   5.078   5.757   3.021  0.7488 -0.5454 -1.3503
 9485TIP3    H252651   5.086   5.892   2.952 -0.8378  0.3136  0.0558
 9486TIP3   OH252652   2.539   5.817   2.648  0.3152  0.2548 -0.8854
 9486TIP3    H152653   2.483   5.890   2.674 -0.4131 -0.2876 -0.9061
 9486TIP3    H252654   2.480   5.757   2.601  1.1257  0.1610 -1.8187
 9487TIP3   OH252655   6.040   4.327   1.722  0.4467 -0.0420 -0.4179
 9487TIP3    H152656   5.966   4.364   1.675  1.1417  0.2217 -1.3491
 9487TIP3    H252657   6.103   4.398   1.728 -0.7693  0.9400  3.7355
 9488TIP3   OH252658   1.043   2.158   2.345 -0.5547  0.3029  0.1256
 9488TIP3    H152659   1.105   2.101   2.391 -0.4397  0.5417  0.2648
 9488TIP3    H252660   1.098   2.211   2.286 -0.6550  0.3211  0.0474
 9489TIP3   OH252661   4.038   1.022   3.798 -0.1141  0.1211 -0.4651
 9489TIP3    H152662   3.947   0.992   3.795 -0.1666  0.2728 -0.4042
 9489TIP3    H252663   4.076   0.978   3.873 -0.7388  1.7197  0.8619
 9490TIP3   OH252664   4.843   5.379   0.744 -0.0836 -0.0308 -0.0811
 9490TIP3    H152665   4.913   5.323   0.711  1.4101  1.5373  0.3459
 9490TIP3    H252666   4.853   5.461   0.696 -2.2395 -0.0393 -0.6904
 9491TIP3   OH252667   1.157   2.225   1.217 -0.1224 -0.3423 -0.1055
 9491TIP3    H152668   1.075   2.249   1.175 -0.0021  0.5094  0.1182
 9491TIP3    H252669   1.141   2.237   1.310  0.7166  1.4406 -0.1412
 9492TIP3   OH252670   3.682   1.535   1.742 -0.2457 -0.3485  0.5049
 9492TIP3    H152671   3.673   1.531   1.837 -0.7370  1.7486  0.6109
 9492TIP3    H252672   3.600   1.575   1.712  0.6103  0.6763 -0.5912
 9493TIP3   OH252673   1.138   3.470   3.224  0.3995 -0.7930 -0.3299
 9493TIP3    H152674   1.165   3.544   3.169  1.8923 -0.3447  0.9135
 9493TIP3    H252675   1.123   3.510   3.310 -3.5180 -1.1802 -0.6623
 9494TIP3   OH252676   0.333   0.976   3.328 -0.0306  0.4651 -0.0329
 9494TIP3    H152677   0.409   0.982   3.386  1.4459  0.3809 -1.8704
 9494TIP3    H252678   0.262   0.945   3.384  1.6892 -1.0246  1.4301
 9495TIP3   OH252679   1.159   5.763   2.433  0.3758  0.5284 -0.3719
 9495TIP3    H152680   1.092   5.830   2.417  0.0305  0.2419 -0.1434
 9495TIP3    H252681   1.131   5.720   2.514  1.3053  0.9790  0.1985
 9496TIP3   OH252682   2.052   3.496   2.238  0.2254 -0.6987 -0.1270
 9496TIP3    H152683   2.038   3.422   2.296 -0.8073 -0.6054 -0.2451
 9496TIP3    H252684   2.004   3.568   2.277 -0.9134 -0.7615 -1.3272
 9497TIP3   OH252685   0.357   6.660   1.790 -0.6193 -0.7069  0.0173
 9497TIP3    H152686   0.416   6.585   1.794 -0.0834 -0.3529 -0.9096
 9497TIP3    H252687   0.415   6.736   1.785 -1.1548 -0.2047  1.1928
 9498TIP3   OH252688   2.450   1.702   2.425  0.1327  0.3932 -0.0512
 9498TIP3    H152689   2.457   1.717   2.330 -1.1673 -0.5101 -0.3127
 9498TIP3    H252690   2.415   1.613   2.433  1.0644  0.1209  1.3111
 9499TIP3   OH252691   1.772   4.674   1.949  0.1596  0.3583 -0.0169
 9499TIP3    H152692   1.824   4.605   1.908 -1.2111 -1.1877  0.7028
 9499TIP3    H252693   1.736   4.724   1.875  0.2944 -0.3981 -0.6066
 9500TIP3   OH252694   4.680   5.592   2.581  0.3209 -0.3031  0.0044
 9500TIP3    H152695   4.735   5.515   2.593 -0.2268 -0.6958  0.0205
 9500TIP3    H252696   4.611   5.563   2.522  0.2871  0.2645 -0.2400
 9501TIP3   OH252697   0.102   1.217   0.480  0.1213 -0.3469  0.5458
 9501TIP3    H152698   0.116   1.123   0.490 -0.5325 -0.4418  0.6092
 9501TIP3    H252699   0.063   1.245   0.563  0.9740  0.1170  0.8061
 9502TIP3   OH252700   6.209   4.699   0.620 -0.3366 -0.4284 -0.3628
 9502TIP3    H152701   6.226   4.756   0.545 -0.8975 -1.1431 -1.0692
 9502TIP3    H252702   6.295   4.685   0.660 -0.3375  1.8032  0.5375
 9503TIP3   OH252703   5.714   1.870   0.469 -0.0348 -0.2034  0.3173
 9503TIP3    H152704   5.698   1.777   0.486 -1.7448 -0.0635 -0.3165
 9503TIP3    H252705   5.717   1.877   0.373 -2.5233  0.7304  0.2414
 9504TIP3   OH252706   6.423   4.330   2.706 -0.1294 -0.3639 -0.4352
 9504TIP3    H152707   6.377   4.399   2.659 -0.2375  0.3568  0.6832
 9504TIP3    H252708   6.510   4.366   2.724 -0.4672 -0.1544  0.9029
 9505TIP3   OH252709   5.219   4.460   0.541 -0.2385 -0.3089  0.3717
 9505TIP3    H152710   5.185   4.533   0.591  0.8023 -1.3445  2.7423
 9505TIP3    H252711   5.303   4.492   0.506  0.5438 -0.5312  1.9707
 9506TIP3   OH252712   0.087   1.953   1.585 -0.2370  0.1523  0.1821
 9506TIP3    H152713   0.009   1.922   1.630 -0.0056 -2.9184 -1.3001
 9506TIP3    H252714   0.055   1.987   1.502 -0.0685 -0.7974 -0.2840
 9507TIP3   OH252715   5.616   3.893   1.920 -0.4577  0.5192  0.0014
 9507TIP3    H152716   5.695   3.946   1.906  0.0685 -0.4968 -1.1057
 9507TIP3    H252717   5.648   3.815   1.966 -0.8623  0.2435 -0.1818
 9508TIP3   OH252718   2.752   6.519   3.861 -0.1611  0.0398 -0.3217
 9508TIP3    H152719   2.812   6.448   3.837  0.4307 -0.4437  2.3167
 9508TIP3    H252720   2.682   6.475   3.910 -0.4149  1.1300  0.3260
 9509TIP3   OH252721   3.918   1.900   1.021 -0.4640 -0.1418  0.0399
 9509TIP3    H152722   3.893   1.886   0.930 -1.4385  2.3955 -0.1571
 9509TIP3    H252723   4.005   1.941   1.017 -0.7684  0.5332  0.2008
 9510TIP3   OH252724   0.173   3.521   2.001 -0.1473 -0.3082  0.2681
 9510TIP3    H152725   0.143   3.610   1.983  0.7929 -0.0944 -0.3325
 9510TIP3    H252726   0.096   3.466   1.986 -1.3688  0.5832  2.7895
 9511TIP3   OH252727   1.619   3.691   2.565  0.3463 -0.2508 -0.4828
 9511TIP3    H152728   1.712   3.710   2.576 -0.3623  2.5747  1.5357
 9511TIP3    H252729   1.576   3.776   2.563 -2.1030 -1.3212 -3.6590
 9512TIP3   OH252730   0.111   4.619   2.843 -0.9147  0.2305  0.2095
 9512TIP3    H152731   0.124   4.532   2.805  0.8026  1.4760 -2.3896
 9512TIP3    H252732   0.047   4.661   2.785 -0.3592  1.2916  0.3442
 9513TIP3   OH252733   0.380   3.687   3.223  0.3574  0.0165 -0.1868
 9513TIP3    H152734   0.369   3.781   3.210 -1.0724  0.1469  1.4825
 9513TIP3    H252735   0.343   3.671   3.310  1.7602 -1.8942  0.1251
 9514TIP3   OH252736   2.813   5.264   3.949  0.3131  0.7592  0.1138
 9514TIP3    H152737   2.801   5.173   3.974 -1.8974  0.7580 -0.7408
 9514TIP3    H252738   2.904   5.284   3.974  0.4395 -1.2568  1.4982
 9515TIP3   OH252739   3.291   3.648   4.592  0.7278  0.2059  0.2980
 9515TIP3    H152740   3.244   3.694   4.661  0.6139  0.7051 -0.1098
 9515TIP3    H252741   3.236   3.657   4.514  0.6562 -0.7005  0.2289
 9516TIP3   OH252742   2.958   2.007   1.838  0.0990 -1.1584  0.1581
 9516TIP3    H152743   2.909   1.987   1.917 -0.5737  0.0746  0.0714
 9516TIP3    H252744   2.944   1.931   1.781 -1.4163 -0.9980  0.2889
 9517TIP3   OH252745   4.248   3.780   2.944  0.3087 -0.1958  0.2212
 9517TIP3    H152746   4.333   3.752   2.911  1.0436  0.5956  1.3358
 9517TIP3    H252747   4.268   3.819   3.030 -1.1219  0.3635  0.3279
 9518TIP3   OH252748   1.378   1.920   1.603  0.0802 -0.1776 -0.1018
 9518TIP3    H152749   1.376   1.958   1.515  0.4757 -0.7491 -0.3670
 9518TIP3    H252750   1.380   1.826   1.588  0.2170 -0.2783  0.5229
 9519TIP3   OH252751   0.934   6.052   1.860  0.1238  0.3016 -0.2386
 9519TIP3    H152752   0.911   6.142   1.837  0.0364  0.0128 -1.3469
 9519TIP3    H252753   0.857   6.001   1.838  0.6346 -0.2204 -0.8413
 9520TIP3   OH252754   2.558   3.718   0.956 -0.0775  1.0850 -0.4262
 9520TIP3    H152755   2.483   3.775   0.940 -0.5241  0.6755  0.1912
 9520TIP3    H252756   2.521   3.638   0.992  0.4781  0.0988 -1.9795
 9521TIP3   OH252757   3.552   4.193   2.283 -0.3261 -0.3100 -0.2423
 9521TIP3    H152758   3.588   4.158   2.364  0.5366  2.0131  0.4458
 9521TIP3    H252759   3.465   4.153   2.275 -0.8351  0.1311  2.3506
 9522TIP3   OH252760   6.555   5.836   0.934  0.4676  0.4994 -0.4647
 9522TIP3    H152761   6.522   5.794   0.855 -0.2531  0.2327 -0.0282
 9522TIP3    H252762   6.482   5.889   0.966 -0.2861 -1.5885  1.5674
 9523TIP3   OH252763   4.702   3.423   2.655  0.1878  0.0801  0.0504
 9523TIP3    H152764   4.779   3.448   2.605 -0.0234  1.3457  0.3281
 9523TIP3    H252765   4.736   3.366   2.724  0.6177 -0.8176 -0.8780
 9524TIP3   OH252766   4.117   1.233   3.438  0.5883  0.2482  0.1149
 9524TIP3    H152767   4.161   1.149   3.436  0.9198  0.4174 -1.6518
 9524TIP3    H252768   4.027   1.213   3.463  1.1260 -0.3616  1.6394
 9525TIP3   OH252769   1.102   4.362   1.708 -0.8668  0.3946 -0.3338
 9525TIP3    H152770   1.027   4.421   1.698 -1.1849 -0.0272 -0.4673
 9525TIP3    H252771   1.149   4.396   1.784 -0.0667  1.8716 -1.4423
 9526TIP3   OH252772   1.822   2.693   1.020 -0.2520  0.2231  0.4444
 9526TIP3    H152773   1.785   2.779   1.042 -0.3766  0.6255 -1.1725
 9526TIP3    H252774   1.756   2.653   0.963 -0.0097 -0.7837  0.8619
 9527TIP3   OH252775   2.675   6.660   2.294 -0.5020 -0.2745  0.2205
 9527TIP3    H152776   2.638   6.669   2.382  0.1176  0.8183  0.3876
 9527TIP3    H252777   2.757   6.612   2.308  0.0888  0.7552  0.3899
 9528TIP3   OH252778   2.871   4.927   3.351  0.3037 -0.0011 -0.2383
 9528TIP3    H152779   2.923   4.863   3.303 -1.4062 -0.0703 -2.0960
 9528TIP3    H252780   2.877   5.007   3.299 -1.4687 -0.0369 -0.5648
 9529TIP3   OH252781   1.683   3.233   1.123  0.2529  0.2029  0.5592
 9529TIP3    H152782   1.619   3.198   1.185  0.3374 -1.1813 -0.1113
 9529TIP3    H252783   1.765   3.234   1.171  0.7502 -2.7735 -0.0770
 9530TIP3   OH252784   0.537   1.196   2.247 -0.0280 -0.0461  1.3667
 9530TIP3    H152785   0.586   1.211   2.166 -0.7547 -2.9818  0.2259
 9530TIP3    H252786   0.596   1.145   2.302 -0.8920 -1.5421  0.9658
 9531TIP3   OH252787   3.071   6.263   0.429 -0.1485 -0.0200 -0.5882
 9531TIP3    H152788   2.987   6.219   0.442 -0.1410  0.5979  2.3949
 9531TIP3    H252789   3.071   6.334   0.493  3.4773 -1.3405  1.2162
 9532TIP3   OH252790   3.138   0.023   0.889  0.3418  0.2181 -0.3685
 9532TIP3    H152791   3.073   0.021   0.960  1.4361 -0.7700  0.6481
 9532TIP3    H252792   3.087   0.007   0.810 -0.6427 -0.7595  0.4209
 9533TIP3   OH252793   2.168   3.766   3.477  0.7432 -0.0390  0.1257
 9533TIP3    H152794   2.229   3.710   3.429  1.4907  0.2450  0.7194
 9533TIP3    H252795   2.118   3.811   3.408  1.3200 -0.1468 -0.3754
 9534TIP3   OH252796   1.357   6.372   1.443  0.4040 -0.2340 -0.6620
 9534TIP3    H152797   1.332   6.303   1.381  0.4728 -1.3433  0.5052
 9534TIP3    H252798   1.276   6.395   1.487  0.7785 -1.3984  0.7154
 9535TIP3   OH252799   3.251   0.599   3.220  0.0464 -0.4424 -0.0103
 9535TIP3    H152800   3.319   0.607   3.287  0.0578  0.3906 -0.1192
 9535TIP3    H252801   3.288   0.537   3.157  0.2776 -0.7800  0.4416
 9536TIP3   OH252802   2.717   1.405   1.505 -0.3458 -0.1441 -0.0791
 9536TIP3    H152803   2.709   1.336   1.572 -0.4850 -0.4966 -0.4583
 9536TIP3    H252804   2.665   1.477   1.539 -0.2577 -0.2487  0.2881
 9537TIP3   OH252805   3.134   2.441   1.745  0.7042 -0.1622  0.2915
 9537TIP3    H152806   3.129   2.408   1.655 -0.6961 -0.8717  0.6057
 9537TIP3    H252807   3.159   2.366   1.798  0.6217  0.0405  0.6217
 9538TIP3   OH252808   1.910   3.523   2.813  0.0365 -0.0490  0.3103
 9538TIP3    H152809   1.866   3.607   2.827  0.1810  0.1699 -0.4977
 9538TIP3    H252810   1.841   3.458   2.822 -0.3196  0.2454 -0.2237
 9539TIP3   OH252811   2.252   4.487   2.425  0.2061 -0.4040 -0.0652
 9539TIP3    H152812   2.260   4.501   2.519 -2.1044 -1.5701  0.3778
 9539TIP3    H252813   2.286   4.399   2.410  0.7874 -0.1316 -0.3718
 9540TIP3   OH252814   0.983   6.403   1.139 -0.0635  0.2239  0.4694
 9540TIP3    H152815   0.936   6.420   1.058  0.2211 -0.4670  0.1482
 9540TIP3    H252816   1.027   6.485   1.160 -2.1863  1.1987  1.3112
 9541TIP3   OH252817   1.584   3.735   1.573  0.2337 -0.2667 -0.3248
 9541TIP3    H152818   1.630   3.795   1.513  0.4251  2.1307  2.0592
 9541TIP3    H252819   1.654   3.684   1.614  0.6081  1.4989  1.3319
 9542TIP3   OH252820   6.496   2.311   2.292 -1.0703  0.4873 -0.0425
 9542TIP3    H152821   6.526   2.244   2.231 -0.3380 -0.7995  1.6521
 9542TIP3    H252822   6.410   2.281   2.321 -1.0277  0.6067  0.2173
 9543TIP3   OH252823   0.354   4.404   1.136 -0.0167 -0.3668 -0.4073
 9543TIP3    H152824   0.275   4.449   1.165  0.4133  0.9394 -1.1701
 9543TIP3    H252825   0.399   4.467   1.080  0.1426 -2.0720 -2.3358
 9544TIP3   OH252826   3.064   5.093   2.451  0.0416  0.1856 -0.3164
 9544TIP3    H152827   3.073   5.165   2.388 -0.8446  0.0817 -0.5773
 9544TIP3    H252828   2.980   5.110   2.494 -0.8337 -1.4076 -1.3134
 9545TIP3   OH252829   6.138   4.088   2.448  0.6534  0.1418 -0.0561
 9545TIP3    H152830   6.163   4.159   2.389  1.0669 -2.1800 -2.8825
 9545TIP3    H252831   6.043   4.091   2.451  0.5437 -0.3070 -1.7869
 9546TIP3   OH252832   5.489   5.186   1.716  0.1475  0.4607  0.2218
 9546TIP3    H152833   5.412   5.190   1.659  0.6828  0.1093 -0.5429
 9546TIP3    H252834   5.534   5.106   1.690  1.7988  1.6198 -0.6837
 9547TIP3   OH252835   1.263   4.580   0.835  0.1091 -0.1568  0.0779
 9547TIP3    H152836   1.177   4.545   0.811  0.3088 -0.8154  0.3031
 9547TIP3    H252837   1.256   4.674   0.817 -0.0458 -0.4763 -1.6436
 9548TIP3   OH252838   1.860   5.992   3.744  0.3429 -0.3129  0.1931
 9548TIP3    H152839   1.814   5.928   3.690 -0.3884 -1.4305  2.0555
 9548TIP3    H252840   1.819   6.076   3.723 -0.3336 -0.8136 -0.5300
 9549TIP3   OH252841   5.437   1.356   2.140 -0.3488  0.1232  0.0492
 9549TIP3    H152842   5.356   1.344   2.090 -0.0024 -2.0565 -0.0981
 9549TIP3    H252843   5.424   1.305   2.220  0.5499  0.4593  0.4195
 9550TIP3   OH252844   4.177   1.327   0.923 -0.0028 -0.1422  0.2622
 9550TIP3    H152845   4.134   1.352   0.841  1.4441 -0.9870 -0.8033
 9550TIP3    H252846   4.257   1.379   0.926 -0.0416 -0.1084  1.1646
 9551TIP3   OH252847   2.210   4.958   4.233 -0.1225 -0.3292 -0.4817
 9551TIP3    H152848   2.244   4.960   4.322  0.8852 -1.4714 -0.8071
 9551TIP3    H252849   2.285   4.983   4.178  0.5504 -3.6624 -1.2834
 9552TIP3   OH252850   3.379   4.019   2.134  0.0023  0.3846 -0.5711
 9552TIP3    H152851   3.427   3.938   2.115 -0.9031 -0.8622  2.0058
 9552TIP3    H252852   3.287   3.992   2.140 -0.1747  1.2300  1.7382
 9553TIP3   OH252853   4.678   1.182   0.849 -0.9382  0.3189  0.0471
 9553TIP3    H152854   4.706   1.093   0.868 -0.6574  0.5304  0.6699
 9553TIP3    H252855   4.604   1.173   0.788 -1.3137 -0.3546  0.5983
 9554TIP3   OH252856   0.593   2.569   2.147 -0.6153 -0.1796 -0.4392
 9554TIP3    H152857   0.667   2.610   2.190 -0.8937  0.8455 -0.9029
 9554TIP3    H252858   0.586   2.615   2.063 -0.6586 -1.4877 -1.1757
 9555TIP3   OH252859   6.424   6.671   0.864 -0.0676 -0.0151 -0.1132
 9555TIP3    H152860   6.409   6.752   0.813 -0.8790 -0.2386 -0.2488
 9555TIP3    H252861   6.350   6.667   0.924  0.0478 -0.5867 -0.0071
 9556TIP3   OH252862   3.772   2.155   2.033 -0.1306  0.1616 -0.2458
 9556TIP3    H152863   3.749   2.248   2.031 -0.8252  0.1533  2.6267
 9556TIP3    H252864   3.690   2.111   2.055  0.8300 -0.7262  1.8631
 9557TIP3   OH252865   0.562   5.177   0.944 -0.2747 -0.0614 -0.2211
 9557TIP3    H152866   0.483   5.126   0.926  0.0187 -0.6672  0.1562
 9557TIP3    H252867   0.588   5.151   1.032  0.0006  0.5940 -0.1048
 9558TIP3   OH252868   5.131   0.094   2.445  0.1617  0.2689  0.8562
 9558TIP3    H152869   5.038   0.086   2.463 -0.6277  1.2478 -2.1661
 9558TIP3    H252870   5.140   0.180   2.402  2.0983 -0.5708 -0.5867
 9559TIP3   OH252871   4.629   6.392   1.938  0.2786  0.1121  0.0756
 9559TIP3    H152872   4.535   6.391   1.952 -0.0970 -0.2660 -2.1840
 9559TIP3    H252873   4.644   6.457   1.870  1.5442 -0.4045 -0.1884
 9560TIP3   OH252874   2.601   6.483   3.133 -0.1209  0.4985 -0.0814
 9560TIP3    H152875   2.603   6.411   3.069  0.0483  1.4953 -1.2496
 9560TIP3    H252876   2.668   6.460   3.197  2.2849  1.1459 -2.2118
 9561TIP3   OH252877   1.135   4.492   3.187  0.2178  0.0821  0.1005
 9561TIP3    H152878   1.148   4.416   3.244 -2.0014 -0.1038  0.4638
 9561TIP3    H252879   1.089   4.456   3.111  0.9402  0.7468 -0.6604
 9562TIP3   OH252880   0.349   0.172   0.911 -0.3317  0.2275 -0.0754
 9562TIP3    H152881   0.346   0.087   0.868  1.2075  0.3029 -0.3939
 9562TIP3    H252882   0.273   0.219   0.877 -0.0899 -0.3173 -1.4392
 9563TIP3   OH252883   5.570   2.322   2.592  0.5334  0.1451 -0.1580
 9563TIP3    H152884   5.519   2.380   2.535  0.1205  0.3966  0.4581
 9563TIP3    H252885   5.572   2.238   2.545 -0.3556  0.1675 -0.2556
 9564TIP3   OH252886   1.574   1.484   2.378 -0.2823 -0.0518 -0.6364
 9564TIP3    H152887   1.648   1.513   2.432 -0.1575 -1.1140 -0.2025
 9564TIP3    H252888   1.590   1.523   2.293  0.0627  0.8373 -0.1748
 9565TIP3   OH252889   5.665   4.473   1.032  0.6342  0.1866  0.4834
 9565TIP3    H152890   5.645   4.539   0.965 -1.6273  0.8465  1.6963
 9565TIP3    H252891   5.689   4.524   1.110 -2.0191 -0.2545  1.7144
 9566TIP3   OH252892   2.190   2.534   0.652 -0.3053  0.3962  0.2240
 9566TIP3    H152893   2.207   2.455   0.703 -1.2874  1.1576  1.7958
 9566TIP3    H252894   2.109   2.515   0.605  0.3255 -0.1142 -0.6815
 9567TIP3   OH252895   3.366   0.783   1.900  0.4182  0.0055  0.3377
 9567TIP3    H152896   3.365   0.690   1.878  0.9351  0.1399 -0.2963
 9567TIP3    H252897   3.396   0.787   1.990  1.8359 -0.3700 -0.0932
 9568TIP3   OH252898   2.005   4.333   0.744  0.7050 -0.5136  0.1702
 9568TIP3    H152899   2.064   4.327   0.819 -0.1265  0.0984  0.8910
 9568TIP3    H252900   1.922   4.364   0.781  0.5422  0.7099 -1.1281
 9569TIP3   OH252901   0.979   3.266   3.329  0.3671 -0.0011 -0.4229
 9569TIP3    H152902   1.044   3.326   3.292  1.6758 -0.0269  1.6404
 9569TIP3    H252903   0.898   3.317   3.333  1.1587  1.2666  0.1809
 9570TIP3   OH252904   1.398   0.296   2.570 -0.0199 -0.3552 -0.3036
 9570TIP3    H152905   1.468   0.246   2.613  0.0670 -1.4292 -1.6128
 9570TIP3    H252906   1.373   0.362   2.634  0.7950 -1.2446  0.9829
 9571TIP3   OH252907   3.297   3.584   2.348 -0.3914 -0.0482 -0.0666
 9571TIP3    H152908   3.300   3.662   2.404 -1.8090  0.3314 -0.4738
 9571TIP3    H252909   3.374   3.534   2.373  0.9764  1.8232 -0.2972
 9572TIP3   OH252910   6.696   3.501   0.539  0.2824  0.6372  0.0469
 9572TIP3    H152911   6.773   3.477   0.488  0.3560 -1.1049  0.9208
 9572TIP3    H252912   6.651   3.419   0.555 -0.4906  1.3222  1.5907
 9573TIP3   OH252913   5.617   3.765   0.880  0.2387  0.2747  0.2488
 9573TIP3    H152914   5.699   3.803   0.912 -0.4179  3.3453 -1.3334
 9573TIP3    H252915   5.645   3.703   0.811  1.2794  2.1591 -1.1279
 9574TIP3   OH252916   2.240   1.968   2.460  0.9104  0.2999  0.3184
 9574TIP3    H152917   2.282   1.897   2.509 -1.9831 -1.8982 -0.0714
 9574TIP3    H252918   2.255   1.945   2.368 -0.1841  0.0396  0.1878
 9575TIP3   OH252919   4.091   6.676   0.937  0.0779  0.2915 -0.2095
 9575TIP3    H152920   4.082   6.698   0.845 -0.7764  0.9339  0.0076
 9575TIP3    H252921   4.125   6.756   0.977 -0.4736  0.3444  0.1728
 9576TIP3   OH252922   5.449   3.487   0.609 -0.2665  0.5554  0.0485
 9576TIP3    H152923   5.492   3.429   0.672  0.9519 -2.0167 -2.8996
 9576TIP3    H252924   5.517   3.549   0.583 -0.1385  0.2561 -0.3206
 9577TIP3   OH252925   4.302   4.623   2.238 -0.0820 -0.3494 -0.6612
 9577TIP3    H152926   4.374   4.589   2.292  0.6109 -0.6516 -1.7340
 9577TIP3    H252927   4.339   4.699   2.194 -1.0977  0.7929  0.3822
 9578TIP3   OH252928   1.373   2.512   0.760 -0.0081  0.4120 -0.1680
 9578TIP3    H152929   1.335   2.426   0.774 -0.0465  0.5247  0.4579
 9578TIP3    H252930   1.388   2.547   0.848  1.3113  0.4733 -0.3859
 9579TIP3   OH252931   0.306   6.260   1.752  0.0973  0.2461 -0.3599
 9579TIP3    H152932   0.231   6.313   1.778 -0.0854 -0.5979  0.9082
 9579TIP3    H252933   0.294   6.246   1.658 -1.2129  0.3020 -0.2111
 9580TIP3   OH252934   1.111   3.939   0.896  0.8579 -0.2011  0.4440
 9580TIP3    H152935   1.183   3.909   0.839  1.1270 -0.5293  0.9453
 9580TIP3    H252936   1.099   3.867   0.958  1.1425  0.4907  1.3264
 9581TIP3   OH252937   1.815   3.978   4.160  0.3174 -0.0468  0.0345
 9581TIP3    H152938   1.859   3.971   4.074 -0.4885 -1.3566 -0.2922
 9581TIP3    H252939   1.880   3.944   4.222  1.5531  2.4173  0.2296
 9582TIP3   OH252940   1.948   4.845   1.179 -0.2203 -0.1448 -0.3422
 9582TIP3    H152941   1.982   4.934   1.186  3.3929 -1.1873 -2.2770
 9582TIP3    H252942   2.025   4.789   1.192 -1.6964 -2.8868 -2.4105
 9583TIP3   OH252943   1.212   3.209   1.025  0.0558 -0.1006  0.5323
 9583TIP3    H152944   1.249   3.295   1.042  1.3782 -0.7632  1.2047
 9583TIP3    H252945   1.125   3.212   1.065 -0.1516  1.0928  0.0311
 9584TIP3   OH252946   1.494   3.332   2.650 -0.0688  0.8910  0.1867
 9584TIP3    H152947   1.482   3.409   2.706  1.2756  0.3917  1.2119
 9584TIP3    H252948   1.417   3.278   2.669 -0.3931  1.4173  0.4080
 9585TIP3   OH252949   0.619   2.110   3.869  0.5993 -0.2888 -0.1279
 9585TIP3    H152950   0.535   2.107   3.915  1.1223 -1.0474  0.8290
 9585TIP3    H252951   0.620   2.195   3.827 -1.5026 -1.0160 -1.8412
 9586TIP3   OH252952   3.938   4.176   3.426 -0.5062 -0.3590 -0.2019
 9586TIP3    H152953   4.007   4.243   3.424 -0.4421 -0.4261 -0.2488
 9586TIP3    H252954   3.941   4.137   3.338 -2.1442  1.1936 -1.0116
 9587TIP3   OH252955   2.468   0.543   2.953  0.1343 -0.2171 -0.3862
 9587TIP3    H152956   2.532   0.576   2.889  0.8872 -2.1812 -0.7011
 9587TIP3    H252957   2.494   0.452   2.968 -0.4437 -0.0150  2.2050
 9588TIP3   OH252958   6.685   2.894   3.570 -0.2974 -0.4244  0.6648
 9588TIP3    H152959   6.731   2.914   3.489 -1.2987  1.7248  0.5705
 9588TIP3    H252960   6.629   2.819   3.548  0.0636 -0.4055 -0.3762
 9589TIP3   OH252961   5.897   5.822   3.474  0.1599 -0.0133 -0.0656
 9589TIP3    H152962   5.841   5.816   3.551  1.2118 -1.2805  0.6302
 9589TIP3    H252963   5.922   5.732   3.454  1.9834  0.4975 -0.3101
 9590TIP3   OH252964   0.917   1.811   2.866 -0.3889  0.2041 -0.0009
 9590TIP3    H152965   0.998   1.860   2.872 -0.4216  0.1830  0.6220
 9590TIP3    H252966   0.940   1.722   2.894 -1.1129  0.7451  2.6078
 9591TIP3   OH252967   0.151   4.568   2.218  0.1610 -0.6749  0.4041
 9591TIP3    H152968   0.146   4.486   2.170  1.0390  0.2697 -1.4184
 9591TIP3    H252969   0.062   4.604   2.214  0.4854 -0.0148 -1.6917
 9592TIP3   OH252970   5.240   4.040   0.862  0.0345 -0.2419  0.4159
 9592TIP3    H152971   5.205   4.117   0.906  0.7391  1.1775 -1.3676
 9592TIP3    H252972   5.293   4.075   0.791 -0.4500 -2.3790 -1.1177
 9593TIP3   OH252973   0.349   5.365   3.383 -0.9296 -0.0798  0.0728
 9593TIP3    H152974   0.401   5.330   3.311 -1.4973 -0.2129 -0.2814
 9593TIP3    H252975   0.400   5.346   3.462  0.0422  0.7140 -0.3436
 9594TIP3   OH252976   5.877   3.789   2.255  0.2084 -0.6068 -0.2831
 9594TIP3    H152977   5.907   3.848   2.186  1.3756 -0.4794  0.3015
 9594TIP3    H252978   5.943   3.798   2.324  0.4962 -2.7231 -0.2406
 9595TIP3   OH252979   5.964   6.141   0.829  0.1011 -0.0481 -0.2317
 9595TIP3    H152980   5.908   6.078   0.783 -0.9794 -0.7001  1.8660
 9595TIP3    H252981   5.921   6.225   0.814 -0.8183 -0.3902  0.3934
 9596TIP3   OH252982   3.294   0.166   1.608  0.3719  0.6642  0.0816
 9596TIP3    H152983   3.320   0.166   1.516 -1.0469  1.8480 -0.3552
 9596TIP3    H252984   3.201   0.140   1.608 -0.0881  2.1651  1.0062
 9597TIP3   OH252985   6.437   2.653   4.069  0.0217 -0.5326  1.0650
 9597TIP3    H152986   6.361   2.698   4.108 -0.5417  0.8061 -1.3447
 9597TIP3    H252987   6.400   2.572   4.033 -0.0296 -0.4255  0.8771
 9598TIP3   OH252988   0.913   1.281   3.444 -0.3894  0.1480  0.6129
 9598TIP3    H152989   0.853   1.347   3.410  0.4251  0.1659 -0.8676
 9598TIP3    H252990   0.856   1.213   3.479 -1.2801  0.4009 -0.2920
 9599TIP3   OH252991   3.234   4.204   0.931 -0.5356 -0.0143 -0.5743
 9599TIP3    H152992   3.141   4.181   0.929 -1.3275  2.5398  0.8293
 9599TIP3    H252993   3.238   4.289   0.886  0.7565  0.7457  0.8619
 9600TIP3   OH252994   3.672   6.633   0.439 -0.1403 -0.1968  0.1972
 9600TIP3    H152995   3.647   6.542   0.422  1.5699 -0.6199 -0.2658
 9600TIP3    H252996   3.754   6.627   0.489  0.2319  1.0702 -0.1965
 9601TIP3   OH252997   1.483   1.788   3.334  0.8491 -0.2957 -0.0115
 9601TIP3    H152998   1.481   1.704   3.379  2.3190  0.1596  0.9679
 9601TIP3    H252999   1.548   1.776   3.264  1.7744  0.2761  0.7232
 9602TIP3   OH253000   4.255   4.316   2.211 -0.2086 -0.1136 -0.4032
 9602TIP3    H153001   4.250   4.411   2.218 -0.0409 -0.2216  3.3807
 9602TIP3    H253002   4.349   4.297   2.206 -0.1296 -0.1108  0.8930
 9603TIP3   OH253003   3.872   2.626   2.160  0.2977  0.5045 -0.0630
 9603TIP3    H153004   3.863   2.641   2.254 -0.8860 -1.6020  0.2257
 9603TIP3    H253005   3.787   2.650   2.124  0.6105  0.9015 -0.5407
 9604TIP3   OH253006   5.339   1.033   2.659 -1.1384 -0.2227  0.5201
 9604TIP3    H153007   5.368   1.055   2.571  1.8817 -1.0673  1.1970
 9604TIP3    H253008   5.352   1.113   2.710 -2.0319 -0.0004  0.4180
 9605TIP3   OH253009   0.479   5.598   2.605 -0.7897 -0.5752  0.6662
 9605TIP3    H153010   0.386   5.597   2.582 -1.4692 -0.4746  3.1756
 9605TIP3    H253011   0.514   5.672   2.555 -1.6932 -1.4740 -1.4299
 9606TIP3   OH253012   2.358   1.524   0.696 -0.1522  0.1580 -0.2670
 9606TIP3    H153013   2.351   1.594   0.631 -1.0026  0.4036  0.0647
 9606TIP3    H253014   2.331   1.445   0.649 -3.3290  0.7105  0.3394
 9607TIP3   OH253015   5.815   2.930   4.212 -0.0486  0.9042 -0.3500
 9607TIP3    H153016   5.785   3.004   4.265  0.3681  0.9664 -0.1933
 9607TIP3    H253017   5.896   2.902   4.255  0.3886  1.0711 -1.0467
 9608TIP3   OH253018   2.708   4.327   4.419  0.2786  0.0952  0.3869
 9608TIP3    H153019   2.703   4.315   4.514 -0.0497  1.8588  0.6455
 9608TIP3    H253020   2.627   4.288   4.385 -0.5495  1.1310  1.0831
 9609TIP3   OH253021   4.502   3.517   1.003 -0.5292 -0.2650  0.5300
 9609TIP3    H153022   4.534   3.464   0.930 -1.2270 -1.6404  1.1810
 9609TIP3    H253023   4.503   3.457   1.078  1.7849  1.5689  2.0835
 9610TIP3   OH253024   1.292   2.512   3.198 -0.3210  0.0263  0.3402
 9610TIP3    H153025   1.313   2.442   3.136  2.1021  1.4912 -0.6505
 9610TIP3    H253026   1.310   2.593   3.150 -0.9991  1.3053  2.1130
 9611TIP3   OH253027   1.261   3.874   1.251 -0.1612  0.7047 -0.2697
 9611TIP3    H153028   1.259   3.950   1.193  0.1146  0.0551 -1.1532
 9611TIP3    H253029   1.171   3.868   1.285 -0.6385  0.4534 -1.5003
 9612TIP3   OH253030   5.165   5.149   0.854 -0.6888 -0.1303 -0.4044
 9612TIP3    H153031   5.150   5.173   0.946  2.2921 -0.2584  0.1937
 9612TIP3    H253032   5.210   5.065   0.858  2.6778  1.4589 -1.7177
 9613TIP3   OH253033   1.388   4.952   1.368 -0.0336 -0.6973  0.4277
 9613TIP3    H153034   1.447   4.889   1.410  1.2574 -0.1062 -0.4191
 9613TIP3    H253035   1.385   5.026   1.430 -0.2880 -0.9295  0.6960
 9614TIP3   OH253036   6.015   5.751   3.168  0.3788  0.1466 -0.1854
 9614TIP3    H153037   6.026   5.709   3.254  0.8169  1.1461  0.2634
 9614TIP3    H253038   6.104   5.771   3.141  0.3996 -1.6758 -1.6872
 9615TIP3   OH253039   5.272   2.555   4.418  0.1686  0.1660 -0.0874
 9615TIP3    H153040   5.342   2.490   4.406 -0.8796 -0.9815 -0.1740
 9615TIP3    H253041   5.319   2.638   4.428  1.5287 -0.4885 -0.6598
 9616TIP3   OH253042   1.806   4.491   1.579 -0.0205  0.9398 -0.0643
 9616TIP3    H153043   1.830   4.551   1.509  1.1414  1.7477  0.9710
 9616TIP3    H253044   1.871   4.507   1.647  0.8414 -2.0984 -0.0552
 9617TIP3   OH253045   2.055   2.801   1.011 -0.6229  0.0740 -0.4778
 9617TIP3    H153046   2.049   2.840   1.099 -1.4048 -1.7976  0.3548
 9617TIP3    H253047   1.968   2.763   0.996 -0.5175  0.4277 -2.1159
 9618TIP3   OH253048   5.326   1.368   2.504  0.4341 -0.5992  0.1677
 9618TIP3    H153049   5.318   1.293   2.445 -0.2687  0.4012 -1.0589
 9618TIP3    H253050   5.251   1.423   2.483  1.5472  1.0095  0.2297
 9619TIP3   OH253051   1.706   1.916   0.542  0.0907 -0.1522  0.2823
 9619TIP3    H153052   1.645   1.973   0.496 -0.4589 -1.3151 -0.4818
 9619TIP3    H253053   1.673   1.911   0.631  0.8601  1.6962  0.7044
 9620TIP3   OH253054   5.704   0.582   3.598 -0.0369 -0.2398  0.1928
 9620TIP3    H153055   5.785   0.548   3.561 -0.7953 -1.4795 -0.3873
 9620TIP3    H253056   5.635   0.524   3.565 -1.0063 -0.0895  1.7941
 9621TIP3   OH253057   1.992   1.195   1.171  0.5010 -0.5438 -0.0267
 9621TIP3    H153058   2.014   1.266   1.111  2.3750 -2.3641 -1.6639
 9621TIP3    H253059   1.994   1.235   1.257  3.4514  1.0454 -0.7043
 9622TIP3   OH253060   3.831   3.093   3.673 -0.3792  0.1102  0.5591
 9622TIP3    H153061   3.873   3.013   3.643 -0.6487 -0.8383  2.5414
 9622TIP3    H253062   3.816   3.145   3.593  1.7165 -0.8554 -0.5125
 9623TIP3   OH253063   1.627   3.048   4.745 -0.4485 -0.0723 -0.3283
 9623TIP3    H153064   1.551   3.082   4.698 -0.3266  0.3841 -0.1934
 9623TIP3    H253065   1.590   2.991   4.813 -0.7036  0.6877  0.1841
 9624TIP3   OH253066   2.118   1.235   3.044 -0.3195  0.2366 -0.3165
 9624TIP3    H153067   2.208   1.257   3.024 -0.4082  0.5751 -0.3393
 9624TIP3    H253068   2.080   1.315   3.079 -0.2709 -0.2343  0.8742
 9625TIP3   OH253069   0.295   0.981   0.716  0.0730  0.0325 -0.5655
 9625TIP3    H153070   0.303   0.938   0.802 -0.9005  1.5843  0.3653
 9625TIP3    H253071   0.296   1.074   0.737 -1.3254  0.4369 -2.1149
 9626TIP3   OH253072   2.796   4.249   0.569 -0.3163  0.5794 -0.4405
 9626TIP3    H153073   2.859   4.301   0.517  0.3310  0.9697  0.6865
 9626TIP3    H253074   2.772   4.307   0.641  0.2760 -0.6003  0.7535
 9627TIP3   OH253075   6.175   4.371   0.902 -0.2282 -0.0462 -0.8989
 9627TIP3    H153076   6.216   4.298   0.855  2.1202  0.8020 -0.3501
 9627TIP3    H253077   6.118   4.412   0.838 -3.2152 -3.4234 -0.6913
 9628TIP3   OH253078   2.535   6.684   2.540  0.3590  0.0688 -0.0005
 9628TIP3    H153079   2.445   6.685   2.506  0.4493 -0.8326 -0.2792
 9628TIP3    H253080   2.539   6.760   2.598 -0.6525 -0.0199  0.2005
 9629TIP3   OH253081   4.322   6.276   2.639  0.0777  0.1432  0.2326
 9629TIP3    H153082   4.400   6.241   2.684  0.0568  0.9070  0.8809
 9629TIP3    H253083   4.348   6.283   2.547  0.0054 -1.7898  0.0223
 9630TIP3   OH253084   3.280   5.664   2.055 -0.2427 -0.3403  0.2091
 9630TIP3    H153085   3.287   5.730   1.986  0.4789 -1.5638 -0.9535
 9630TIP3    H253086   3.276   5.714   2.136 -0.2331  1.1334 -0.6595
 9631TIP3   OH253087   5.286   6.418   2.278 -0.0581  0.3108 -0.1123
 9631TIP3    H153088   5.277   6.386   2.368  3.8945 -3.8600 -0.7889
 9631TIP3    H253089   5.324   6.505   2.286  1.2889 -0.4197  2.3645
 9632TIP3   OH253090   1.051   0.042   2.292 -0.2449  0.1909 -0.0271
 9632TIP3    H153091   0.996   0.096   2.234  0.8959 -0.3641 -1.7082
 9632TIP3    H253092   1.001  -0.039   2.303 -0.5658  0.3810 -0.0600
 9633TIP3   OH253093   4.317   1.094   2.555 -0.0038  0.4426  0.3141
 9633TIP3    H153094   4.233   1.055   2.533  0.1953 -0.1822  0.6568
 9633TIP3    H253095   4.297   1.158   2.623 -0.0077 -0.7456  1.4571
 9634TIP3   OH253096   6.614   1.065   0.905  0.2391 -0.0033 -0.1282
 9634TIP3    H153097   6.633   1.109   0.988  0.1377 -0.5286  0.1788
 9634TIP3    H253098   6.528   1.099   0.880  0.1220 -0.0867  0.1521
 9635TIP3   OH253099   0.267   3.888   4.471 -0.4304 -0.0442  0.1121
 9635TIP3    H153100   0.246   3.795   4.481 -0.4459 -0.1407 -0.7821
 9635TIP3    H253101   0.328   3.891   4.398  1.5442  0.3938  1.6900
 9636TIP3   OH253102   2.637   2.269   2.010 -0.2499 -0.4762  0.2187
 9636TIP3    H153103   2.615   2.238   1.922 -0.4410 -0.6769  0.3369
 9636TIP3    H253104   2.717   2.320   1.998 -0.3431 -0.3999 -0.0918
 9637TIP3   OH253105   3.280   3.497   3.962 -0.2964  0.7395 -0.7755
 9637TIP3    H153106   3.304   3.580   4.004  1.2950 -0.9762  2.0730
 9637TIP3    H253107   3.189   3.482   3.988  0.4697  0.0098  1.8225
 9638TIP3   OH253108   0.581   0.675   1.557  0.3301 -0.2734 -0.4144
 9638TIP3    H153109   0.549   0.636   1.476 -1.8993  0.6268 -0.0582
 9638TIP3    H253110   0.640   0.610   1.594  0.8054 -1.0276 -2.3521
 9639TIP3   OH253111   1.632   1.433   1.007  0.1767 -0.3264 -0.1273
 9639TIP3    H153112   1.583   1.447   0.926 -2.4215  0.0883  1.3691
 9639TIP3    H253113   1.619   1.340   1.026 -0.2883 -0.1685  0.3835
 9640TIP3   OH253114   6.632   3.180   3.597 -0.2632  0.1500 -0.6469
 9640TIP3    H153115   6.654   3.088   3.605 -1.0392  0.1225  1.7876
 9640TIP3    H253116   6.688   3.212   3.525  0.2006 -2.1043 -1.3582
 9641TIP3   OH253117   0.155   2.633   0.603  0.1744  0.1457 -0.2109
 9641TIP3    H153118   0.160   2.561   0.541  0.1915  0.2380 -0.3180
 9641TIP3    H253119   0.149   2.711   0.548 -1.4469  0.1281 -0.1011
 9642TIP3   OH253120   1.483   1.533   3.654  0.1489 -0.3555  0.0471
 9642TIP3    H153121   1.521   1.455   3.615  0.1741 -0.5628  0.4810
 9642TIP3    H253122   1.488   1.517   3.748  0.4423  0.3018  0.1476
 9643TIP3   OH253123   3.398   6.417   2.430  0.3230 -0.0060  0.7212
 9643TIP3    H153124   3.361   6.398   2.516 -0.7748 -0.3142  0.1994
 9643TIP3    H253125   3.470   6.354   2.420  0.1913 -0.2415  1.2348
 9644TIP3   OH253126   5.660   1.909   2.777 -0.5458 -0.3855  0.3515
 9644TIP3    H153127   5.599   1.961   2.724  0.0772  0.8760  0.8300
 9644TIP3    H253128   5.737   1.901   2.722 -1.2812 -2.4376 -0.4696
 9645TIP3   OH253129   3.029   5.998   3.471 -0.6576 -0.4032 -0.0095
 9645TIP3    H153130   2.957   6.004   3.409  0.1293 -0.1300 -0.9218
 9645TIP3    H253131   3.014   6.069   3.533 -2.0788 -1.3750  0.8305
 9646TIP3   OH253132   4.265   4.036   2.801  0.2864  0.6171  0.0245
 9646TIP3    H153133   4.272   3.942   2.821 -0.7425  0.4883 -0.1860
 9646TIP3    H253134   4.270   4.040   2.705  1.4085  0.8903  0.0764
 9647TIP3   OH253135   6.628   4.697   2.169 -0.2239 -0.5424 -0.5322
 9647TIP3    H153136   6.586   4.723   2.087  1.1201  0.5072 -0.9205
 9647TIP3    H253137   6.572   4.628   2.204 -0.4753 -1.4656 -2.6447
 9648TIP3   OH253138   1.827   2.239   3.225  0.5589  0.0593  0.1786
 9648TIP3    H153139   1.903   2.255   3.169  0.6948  3.2658  1.0739
 9648TIP3    H253140   1.863   2.239   3.314 -0.1719 -1.0953  0.4958
 9649TIP3   OH253141   3.403   0.021   1.273 -0.3500  0.1270  0.1181
 9649TIP3    H153142   3.497   0.013   1.291 -0.4340  0.0562  0.5582
 9649TIP3    H253143   3.391   0.113   1.250 -0.5560  0.8310  2.6508
 9650TIP3   OH253144   4.583   4.443   1.576  0.5364  0.0122 -0.3785
 9650TIP3    H153145   4.604   4.381   1.647 -1.9401 -0.7474 -0.2230
 9650TIP3    H253146   4.588   4.529   1.617  0.0895 -0.3585  0.4849
 9651TIP3   OH253147   2.264   0.764   1.630  0.5555 -0.0101 -0.0965
 9651TIP3    H153148   2.178   0.735   1.599  0.5493  0.0240 -0.1119
 9651TIP3    H253149   2.314   0.777   1.549  0.1660  1.2318 -0.1601
 9652TIP3   OH253150   1.806   2.842   1.563 -0.1417  0.1074  0.6991
 9652TIP3    H153151   1.879   2.875   1.614  0.8544  0.7267 -1.0288
 9652TIP3    H253152   1.758   2.920   1.536 -0.2727 -0.1421  0.1819
 9653TIP3   OH253153   4.889   2.872   1.989 -0.0091  0.1953 -0.1306
 9653TIP3    H153154   4.796   2.870   1.967  0.4677  0.5196 -2.3906
 9653TIP3    H253155   4.919   2.958   1.958  1.2986 -0.4236 -0.6396
 9654TIP3   OH253156   2.361   3.194   1.894 -0.3212  0.2074  0.2957
 9654TIP3    H153157   2.444   3.155   1.924 -0.5374 -0.8922 -0.4878
 9654TIP3    H253158   2.340   3.259   1.961  2.5481  2.4938 -0.7721
 9655TIP3   OH253159   2.524   6.116   1.266  0.3359 -0.2722  0.4205
 9655TIP3    H153160   2.606   6.148   1.228 -0.5238  1.5256  0.0040
 9655TIP3    H253161   2.521   6.156   1.353 -0.3667  0.1311  0.2135
 9656TIP3   OH253162   2.077   3.151   2.873 -0.2980 -0.3391 -0.2700
 9656TIP3    H153163   2.115   3.239   2.860 -0.8396  0.1970  1.5495
 9656TIP3    H253164   2.042   3.153   2.962 -2.0727 -1.7698 -0.8833
 9657TIP3   OH253165   2.563   4.404   2.577 -0.1711  0.5165 -0.3862
 9657TIP3    H153166   2.584   4.400   2.670 -0.9829  0.0174 -0.2093
 9657TIP3    H253167   2.533   4.494   2.563 -0.2261  0.5400 -0.1191
 9658TIP3   OH253168   5.015   0.895   2.710  0.4058  0.3102 -0.3511
 9658TIP3    H153169   5.107   0.874   2.725  0.7306  0.9179 -1.4222
 9658TIP3    H253170   4.983   0.822   2.656  0.3914  0.3627 -0.4128
 9659TIP3   OH253171   5.043   4.954   0.594 -0.2122  0.1593 -0.3263
 9659TIP3    H153172   5.003   4.909   0.520 -0.4267 -2.4234  1.2181
 9659TIP3    H253173   5.087   4.885   0.643  0.6046  1.8876  1.5302
 9660TIP3   OH253174   4.648   2.049   3.049 -0.0720 -0.4431  0.4017
 9660TIP3    H153175   4.590   2.082   3.118  0.8485  0.0514  0.9607
 9660TIP3    H253176   4.641   1.954   3.055 -3.3834 -0.5077 -1.7501
 9661TIP3   OH253177   2.456   0.169   3.681  0.9684  0.4432 -0.1020
 9661TIP3    H153178   2.405   0.130   3.752  2.8148 -0.8466  0.5876
 9661TIP3    H253179   2.517   0.228   3.725  1.8507 -0.0521 -0.6179
 9662TIP3   OH253180   1.123   0.041   3.503  0.3226  0.0434  0.2103
 9662TIP3    H153181   1.129  -0.014   3.580 -0.3596  0.8103  0.8281
 9662TIP3    H253182   1.034   0.028   3.471  0.0676  0.9690  0.5148
 9663TIP3   OH253183   0.035   2.383   2.449 -0.2320 -0.0159 -0.1700
 9663TIP3    H153184   0.112   2.387   2.393  0.1807 -2.4943  0.0984
 9663TIP3    H253185  -0.026   2.326   2.402 -0.5774 -0.7105  1.0814
 9664TIP3   OH253186   1.893   6.664   1.555 -0.3580 -0.4693 -0.5800
 9664TIP3    H153187   1.835   6.592   1.579 -0.0176 -0.6282 -0.2107
 9664TIP3    H253188   1.841   6.720   1.498 -0.4104 -1.3770 -1.4479
 9665TIP3   OH253189   2.117   6.140   0.648 -0.3197 -0.4618  0.8169
 9665TIP3    H153190   2.201   6.094   0.655  1.1564  1.7841 -0.6241
 9665TIP3    H253191   2.056   6.088   0.700  1.8900 -2.3370  1.6949
 9666TIP3   OH253192   2.721   1.063   2.639 -0.4173 -0.6838  0.0388
 9666TIP3    H153193   2.759   1.117   2.709  0.9019 -2.4925  0.8217
 9666TIP3    H253194   2.635   1.038   2.672 -0.0286 -1.0618  0.8018
 9667TIP3   OH253195   2.018   2.771   3.317 -0.3031  0.2898 -0.1946
 9667TIP3    H153196   1.940   2.823   3.296 -0.4368 -0.5440 -1.9653
 9667TIP3    H253197   1.991   2.680   3.303  0.5497 -0.1184  0.7094
 9668TIP3   OH253198   3.881   0.322   2.301 -0.0811  0.1729  0.0838
 9668TIP3    H153199   3.950   0.383   2.275 -0.3997 -0.2269 -1.8496
 9668TIP3    H253200   3.916   0.278   2.378  1.8073  0.0446 -0.7850
 9669TIP3   OH253201   3.794   2.139   0.861  0.6671 -0.2912 -0.7521
 9669TIP3    H153202   3.774   2.215   0.806  2.1517  1.4479  0.9498
 9669TIP3    H253203   3.858   2.172   0.924 -1.5738 -1.9153  2.6212
 9670TIP3   OH253204   2.005   0.167   1.729  0.4422  0.2671  0.4738
 9670TIP3    H153205   1.998   0.081   1.687  2.2552 -0.4371  1.4915
 9670TIP3    H253206   1.990   0.150   1.822 -1.0314  1.4008  0.4871
 9671TIP3   OH253207   6.507   1.584   1.622  0.1222  0.5063  0.7258
 9671TIP3    H153208   6.554   1.501   1.610 -1.0958 -0.1259  0.1497
 9671TIP3    H253209   6.415   1.559   1.632 -0.0434  1.6392  2.7828
 9672TIP3   OH253210   6.241   6.361   1.998 -0.3235  0.2357  0.1627
 9672TIP3    H153211   6.295   6.322   2.067  0.2353 -0.1932 -0.5134
 9672TIP3    H253212   6.295   6.358   1.920 -0.9511  0.7354 -0.2970
 9673TIP3   OH253213   5.712   3.113   3.829 -0.3313 -0.3631 -0.1390
 9673TIP3    H153214   5.674   3.094   3.743 -0.4881  1.9869 -0.6612
 9673TIP3    H253215   5.645   3.163   3.875  0.0738 -0.8654  1.0440
 9674TIP3   OH253216   1.923   5.466   2.699 -0.0576 -0.3513 -0.1618
 9674TIP3    H153217   1.906   5.543   2.754  1.6532  0.9274 -1.3226
 9674TIP3    H253218   1.857   5.471   2.630 -0.9970 -0.8925  0.6681
 9675TIP3   OH253219   5.567   1.851   3.245 -0.1456  0.4022 -0.2776
 9675TIP3    H153220   5.611   1.922   3.198  0.0765  0.0299 -0.6294
 9675TIP3    H253221   5.480   1.846   3.205  0.7593 -1.3535 -2.1647
 9676TIP3   OH253222   5.766   5.422   3.467 -0.2786  0.0080  0.3291
 9676TIP3    H153223   5.739   5.361   3.399  0.3729 -0.5928  0.5994
 9676TIP3    H253224   5.686   5.438   3.518 -0.4084 -0.8184  0.4024
 9677TIP3   OH253225   6.152   3.852   1.854  0.5288  0.2990 -0.8700
 9677TIP3    H153226   6.177   3.822   1.942  1.0234 -1.2326 -1.4949
 9677TIP3    H253227   6.155   3.948   1.859  1.8532  0.2248  0.4146
 9678TIP3   OH253228   4.992   1.017   3.228 -0.2547 -0.1682  0.1496
 9678TIP3    H153229   4.967   1.066   3.149  1.2742  0.0865 -0.2228
 9678TIP3    H253230   4.987   1.081   3.299 -1.7443 -0.4259  0.3117
 9679TIP3   OH253231   6.661   5.715   1.359  0.4291 -0.7019 -0.4419
 9679TIP3    H153232   6.569   5.693   1.352 -0.1158  0.0820  2.6728
 9679TIP3    H253233   6.677   5.778   1.288 -2.5356  2.2116  1.2217
 9680TIP3   OH253234   4.613   1.533   2.572  0.3619 -0.1168 -0.2793
 9680TIP3    H153235   4.687   1.591   2.559  0.2174  0.6617  1.9621
 9680TIP3    H253236   4.618   1.506   2.664 -2.4080  0.4039  0.1328
 9681TIP3   OH253237   6.447   6.093   2.744  0.3016 -0.1387 -0.3164
 9681TIP3    H153238   6.457   6.188   2.736 -0.8311  0.1452  1.2742
 9681TIP3    H253239   6.487   6.071   2.828 -0.1030 -0.9506 -0.3224
 9682TIP3   OH253240   5.870   5.495   2.791 -0.1035 -0.1301  0.4834
 9682TIP3    H153241   5.865   5.503   2.695  0.8833 -0.2115  0.4151
 9682TIP3    H253242   5.925   5.569   2.818 -0.5455  0.0140  1.0209
 9683TIP3   OH253243   1.370   1.633   1.582 -0.6870 -0.3181  0.3929
 9683TIP3    H153244   1.389   1.593   1.667 -0.0086 -0.4608  0.1794
 9683TIP3    H253245   1.299   1.580   1.546 -1.9946  0.5966  1.4708
 9684TIP3   OH253246   0.807   2.401   3.025 -0.0293 -0.9620  0.1444
 9684TIP3    H153247   0.858   2.444   3.094  1.0718 -0.7429 -0.7843
 9684TIP3    H253248   0.862   2.408   2.947 -1.7005 -0.2580 -1.0240
 9685TIP3   OH253249   3.416   6.450   1.639  0.4336 -0.2649 -0.1568
 9685TIP3    H153250   3.391   6.456   1.547  0.2070 -0.0099 -0.0791
 9685TIP3    H253251   3.511   6.466   1.640  0.4689 -0.4592 -0.3649
 9686TIP3   OH253252   1.835   1.369   1.665  0.0581 -0.7782 -0.5065
 9686TIP3    H153253   1.797   1.451   1.635 -0.0642 -0.5129  0.3655
 9686TIP3    H253254   1.836   1.313   1.587  1.5081  0.5361 -1.4810
 9687TIP3   OH253255   2.167   4.463   2.138  0.1590  0.4031  0.2655
 9687TIP3    H153256   2.209   4.502   2.061  0.2979  0.7235  0.5032
 9687TIP3    H253257   2.212   4.502   2.212  0.7109 -0.6357  0.5069
 9688TIP3   OH253258   0.755   0.469   1.658  0.6179 -0.2202 -0.4079
 9688TIP3    H153259   0.845   0.500   1.666  0.8824 -1.0479 -0.0230
 9688TIP3    H253260   0.740   0.420   1.738 -0.6899  1.1365  0.2041
 9689TIP3   OH253261   1.386   5.693   2.607  0.1340 -0.1763  0.2904
 9689TIP3    H153262   1.431   5.726   2.529 -0.3591 -1.1138 -0.4250
 9689TIP3    H253263   1.304   5.743   2.610 -0.6240 -1.2794 -0.8035
 9690TIP3   OH253264   5.613   1.284   2.597  0.0495 -0.2407 -0.8110
 9690TIP3    H153265   5.688   1.331   2.561 -0.1495 -0.0782 -1.0137
 9690TIP3    H253266   5.570   1.245   2.520  0.8115 -1.6366 -0.5558
 9691TIP3   OH253267   3.806   5.610   0.584 -0.0563  0.6965 -0.3523
 9691TIP3    H153268   3.780   5.553   0.511 -0.9200  1.8624 -0.9995
 9691TIP3    H253269   3.791   5.558   0.662 -2.1291  0.4695 -0.8469
 9692TIP3   OH253270   4.597   3.885   3.261  0.0212 -0.2750 -0.2718
 9692TIP3    H153271   4.550   3.928   3.190  2.0450  1.4026 -0.7195
 9692TIP3    H253272   4.546   3.907   3.339 -0.9545 -0.1291 -0.9251
 9693TIP3   OH253273   5.554   2.205   1.457  0.0175  0.4781 -0.0461
 9693TIP3    H153274   5.474   2.193   1.407 -0.4926 -0.9960  1.0504
 9693TIP3    H253275   5.620   2.155   1.409 -0.7491 -2.0179  1.2884
 9694TIP3   OH253276   4.140   3.353   2.402 -0.5542  0.3560 -0.1571
 9694TIP3    H153277   4.208   3.421   2.402 -0.5455  0.3455  0.1647
 9694TIP3    H253278   4.159   3.299   2.478  0.3046 -0.8834 -1.2076
 9695TIP3   OH253279   5.072   1.552   2.454 -0.1795  0.2801  0.7481
 9695TIP3    H153280   4.982   1.530   2.479  0.1298 -1.3032  0.5246
 9695TIP3    H253281   5.110   1.588   2.534 -0.9923  0.9832  0.8436
 9696TIP3   OH253282   1.778   4.172   3.014 -0.4036  0.3945  0.0960
 9696TIP3    H153283   1.824   4.121   3.081 -1.6637  0.0157  0.7051
 9696TIP3    H253284   1.778   4.115   2.937  0.2823  0.4733  0.0288
 9697TIP3   OH253285   5.424   2.288   1.738  0.4129  0.2812  1.0125
 9697TIP3    H153286   5.435   2.213   1.678  0.5207 -0.2861  1.7311
 9697TIP3    H253287   5.380   2.354   1.685  0.3187 -0.2903  0.3580
 9698TIP3   OH253288   6.539   1.700   2.282  0.4337 -0.2529  0.0109
 9698TIP3    H153289   6.509   1.688   2.372  0.3276  0.1241  0.0266
 9698TIP3    H253290   6.565   1.792   2.277  0.4117 -0.2630 -0.3545
 9699TIP3   OH253291   5.115   1.059   0.937 -0.2087  0.1978 -0.2170
 9699TIP3    H153292   5.100   0.973   0.976 -2.8216  0.4200 -0.5184
 9699TIP3    H253293   5.044   1.068   0.873  1.7251  1.4024 -2.3183
 9700TIP3   OH253294   1.564   2.247   1.426 -0.2120  0.3292  0.1246
 9700TIP3    H153295   1.606   2.195   1.356 -1.1785 -0.8337  0.3679
 9700TIP3    H253296   1.586   2.337   1.405 -0.7932  0.0539 -1.9430
 9701TIP3   OH253297   2.274   0.415   2.035  0.1971 -0.3615 -0.4299
 9701TIP3    H153298   2.348   0.418   1.974  0.0096  1.0490 -0.6190
 9701TIP3    H253299   2.248   0.323   2.036  0.7450 -0.5619 -1.8383
 9702TIP3   OH253300   4.399   3.160   3.507 -0.0926 -0.2036  0.0039
 9702TIP3    H153301   4.479   3.131   3.465  0.6282  0.4304  0.9083
 9702TIP3    H253302   4.428   3.206   3.586 -1.2653  1.1017 -0.2794
 9703TIP3   OH253303   6.677   4.154   4.913  0.4049  0.2638 -0.5707
 9703TIP3    H153304   6.758   4.135   4.865  0.0162  0.0857 -1.1643
 9703TIP3    H253305   6.607   4.125   4.855 -0.1190  1.1163 -0.3870
 9704TIP3   OH253306   6.056   2.724   0.735 -0.9361 -0.1069  0.4924
 9704TIP3    H153307   6.053   2.636   0.771 -1.3200 -0.4019 -0.2573
 9704TIP3    H253308   6.062   2.712   0.640 -0.6872  0.6680  0.4010
 9705TIP3   OH253309   4.983   2.054   2.237 -0.0290 -0.3986 -0.2702
 9705TIP3    H153310   5.030   1.995   2.179  1.8668 -0.7710  1.5026
 9705TIP3    H253311   5.020   2.141   2.219  1.2835 -0.6553  0.9506
 9706TIP3   OH253312   3.252   5.363   2.708 -0.0749  0.0252 -0.7529
 9706TIP3    H153313   3.284   5.363   2.618 -1.2542  0.0385 -1.1889
 9706TIP3    H253314   3.159   5.383   2.700 -0.1014  0.4893  0.5070
 9707TIP3   OH253315   2.054   2.173   2.112  0.0547  0.2765  0.1850
 9707TIP3    H153316   2.059   2.184   2.207 -2.0194 -1.4984  0.5880
 9707TIP3    H253317   1.963   2.194   2.090  0.4854  0.5877 -1.4165
 9708TIP3   OH253318   0.093   0.457   2.016 -0.0670  0.3824 -0.3875
 9708TIP3    H153319   0.047   0.511   2.081  0.9452  0.1052  0.5985
 9708TIP3    H253320   0.181   0.447   2.052  0.7109  0.6978 -2.1054
 9709TIP3   OH253321   2.718   0.321   2.885 -0.3402 -0.6985  0.1017
 9709TIP3    H153322   2.782   0.373   2.934  0.7706 -0.4238 -1.5407
 9709TIP3    H253323   2.670   0.273   2.952  0.0026  0.8703  1.5373
 9710TIP3   OH253324   2.831   4.878   1.931 -0.0054 -0.0766  0.1893
 9710TIP3    H153325   2.818   4.789   1.901  0.1085 -0.4568  1.2261
 9710TIP3    H253326   2.892   4.917   1.867 -0.0819 -0.7235 -0.2807
 9711TIP3   OH253327   4.300   4.023   3.151  0.3962  0.2011  0.0564
 9711TIP3    H153328   4.298   4.028   3.247 -0.0865 -0.5178  0.0875
 9711TIP3    H253329   4.246   4.097   3.123 -1.2487 -0.8221  0.3922
 9712TIP3   OH253330   3.243   1.978   1.254 -0.0484  0.2443 -0.3089
 9712TIP3    H153331   3.200   2.059   1.282  0.7245  0.0334  1.6313
 9712TIP3    H253332   3.174   1.913   1.253 -0.1834  0.3507  0.8230
 9713TIP3   OH253333   5.454   6.582   0.360 -0.4053 -0.2597  0.4930
 9713TIP3    H153334   5.410   6.662   0.331 -1.2081 -1.6647 -2.5194
 9713TIP3    H253335   5.383   6.525   0.388  0.1660 -0.0062  2.6212
 9714TIP3   OH253336   1.521   0.484   0.939 -0.1474 -0.4818  0.2843
 9714TIP3    H153337   1.593   0.461   0.997 -0.3827  1.1961  1.3102
 9714TIP3    H253338   1.443   0.448   0.982 -0.2057 -0.1082  0.4944
 9715TIP3   OH253339   2.977   6.578   2.185 -0.3593 -0.4598 -0.4603
 9715TIP3    H153340   2.944   6.492   2.211 -2.8280 -0.0946 -2.0029
 9715TIP3    H253341   2.973   6.631   2.265  0.5977 -1.5749  0.3512
 9716TIP3   OH253342   2.185   3.982   1.500 -0.4815  0.1402 -1.1494
 9716TIP3    H153343   2.176   3.969   1.595  2.7750  0.2630 -0.7061
 9716TIP3    H253344   2.116   4.045   1.478  0.3073  2.2133  1.6912
 9717TIP3   OH253345   1.596   2.132   3.105  0.4838 -0.2826 -0.3387
 9717TIP3    H153346   1.664   2.156   3.168  1.8115 -0.3106 -1.7105
 9717TIP3    H253347   1.642   2.085   3.036 -1.2183 -1.9368 -0.4444
 9718TIP3   OH253348   4.853   1.922   1.635 -0.0134 -0.4804 -0.4842
 9718TIP3    H153349   4.896   1.991   1.584  0.3413 -0.4908 -0.1982
 9718TIP3    H253350   4.878   1.940   1.725 -3.0446  1.3692  0.1300
 9719TIP3   OH253351   6.375   2.178   3.048 -0.4982 -0.1107  0.5254
 9719TIP3    H153352   6.292   2.163   3.002 -0.4088  1.0008 -0.0319
 9719TIP3    H253353   6.420   2.245   2.995  0.1657  0.2646  1.5368
 9720TIP3   OH253354   0.178   5.756   0.644 -0.0411 -0.2917  0.2451
 9720TIP3    H153355   0.148   5.841   0.678  0.4859 -0.3156  0.7843
 9720TIP3    H253356   0.264   5.744   0.683  1.1205  0.2059 -1.9789
 9721TIP3   OH253357   0.417   4.810   3.436  0.7611  0.4197  0.3815
 9721TIP3    H153358   0.441   4.870   3.506 -0.2863 -1.3585  2.3731
 9721TIP3    H253359   0.488   4.746   3.433  1.5567  1.3217 -1.2861
 9722TIP3   OH253360   6.176   4.508   3.028 -0.0013 -0.4539  1.0595
 9722TIP3    H153361   6.082   4.515   3.008  0.1676 -0.6985  0.0959
 9722TIP3    H253362   6.217   4.574   2.973  0.3027  0.4333  2.3180
 9723TIP3   OH253363   6.471   3.041   4.213  0.0377  0.1895 -0.2029
 9723TIP3    H153364   6.403   2.994   4.261  1.1395 -0.5632  0.6612
 9723TIP3    H253365   6.441   3.039   4.122 -0.8534 -0.5435  0.0905
 9724TIP3   OH253366   1.381   3.900   2.619  0.4637  0.1682  0.4106
 9724TIP3    H153367   1.368   3.835   2.687 -0.6926 -2.6976 -2.2919
 9724TIP3    H253368   1.304   3.957   2.624  1.8685  2.0332  3.3139
 9725TIP3   OH253369   3.943   4.402   0.720 -0.0190 -0.0890 -0.8343
 9725TIP3    H153370   4.018   4.348   0.693 -0.8729 -1.9512  0.2715
 9725TIP3    H253371   3.916   4.448   0.640  1.4234 -0.4867 -1.5761
 9726TIP3   OH253372   0.727   0.062   1.289 -0.1790  0.0982 -0.3058
 9726TIP3    H153373   0.737  -0.031   1.307 -0.7082  0.1249  0.1418
 9726TIP3    H253374   0.699   0.100   1.372  0.0956  0.6693 -0.4662
 9727TIP3   OH253375   0.826   1.749   0.692  0.4558 -0.0249 -0.0927
 9727TIP3    H153376   0.920   1.730   0.689  0.2993 -0.7999 -0.5333
 9727TIP3    H253377   0.820   1.844   0.699  1.3221 -0.0721  3.2041
 9728TIP3   OH253378   5.869   0.962   1.015 -0.0480 -0.4757 -0.2234
 9728TIP3    H153379   5.918   1.020   0.957 -0.3024 -0.3040 -0.2680
 9728TIP3    H253380   5.936   0.908   1.057  0.3588  0.9809  1.0862
 9729TIP3   OH253381   3.255   5.787   1.100 -0.2959  0.4180  0.1800
 9729TIP3    H153382   3.341   5.824   1.118  0.3931 -1.5994  1.3805
 9729TIP3    H253383   3.266   5.738   1.019  0.2235 -1.2756  1.2257
 9730TIP3   OH253384   4.539   3.356   0.777 -0.1893  0.2150 -0.1984
 9730TIP3    H153385   4.447   3.381   0.779 -0.5877 -1.1995  0.3582
 9730TIP3    H253386   4.538   3.261   0.781  1.2883  0.1425 -0.8434
 9731TIP3   OH253387   3.806   2.639   3.528  0.3219  0.1592  0.0371
 9731TIP3    H153388   3.722   2.645   3.482  0.8034 -0.7973 -0.9775
 9731TIP3    H253389   3.824   2.546   3.535  2.0527  0.3550 -1.1541
 9732TIP3   OH253390   3.652   6.643   1.325 -0.2613 -0.0533  0.4710
 9732TIP3    H153391   3.691   6.669   1.408  0.1425 -1.5936  0.7944
 9732TIP3    H253392   3.726   6.619   1.270 -0.6387 -3.3303  1.1979
 9733TIP3   OH253393   5.020   3.349   3.745 -0.2268  0.0249 -0.5146
 9733TIP3    H153394   5.112   3.372   3.733  0.2177 -1.3624  0.0321
 9733TIP3    H253395   4.997   3.386   3.831  0.0743 -0.3457 -0.2702
 9734TIP3   OH253396   1.372   2.908   4.095  0.3655  0.1597  0.2454
 9734TIP3    H153397   1.335   2.880   4.011 -1.3018  1.1115  0.6225
 9734TIP3    H253398   1.467   2.906   4.081  0.1235  0.9206 -1.8685
 9735TIP3   OH253399   2.747   5.345   1.930  0.3380  0.1402  0.3536
 9735TIP3    H153400   2.813   5.378   1.992 -0.2176  0.3793  0.8261
 9735TIP3    H253401   2.666   5.344   1.980  0.1072 -0.8102 -0.0176
 9736TIP3   OH253402   6.043   4.072   3.900  0.2847  0.2097  0.4884
 9736TIP3    H153403   6.097   4.060   3.978  0.5634  0.2050  0.2984
 9736TIP3    H253404   6.106   4.090   3.830  0.0165  0.6299  0.3451
 9737TIP3   OH253405   3.846   3.388   3.755 -0.5601 -0.0404  0.1799
 9737TIP3    H153406   3.895   3.325   3.702  1.8465  1.1564  0.8313
 9737TIP3    H253407   3.849   3.352   3.843  2.5544  1.7468  0.9548
 9738TIP3   OH253408   0.040   5.755   1.953 -0.1956 -0.4005  0.1066
 9738TIP3    H153409  -0.024   5.820   1.925 -0.8867 -0.8573  0.6015
 9738TIP3    H253410  -0.010   5.691   2.003  0.8645 -0.0859  1.6288
 9739TIP3   OH253411   2.160   5.508   2.118 -1.0573 -0.0464 -0.4069
 9739TIP3    H153412   2.082   5.532   2.069 -1.8899 -1.2656  0.2695
 9739TIP3    H253413   2.132   5.508   2.210 -0.8426 -2.3659 -0.2747
 9740TIP3   OH253414   2.101   4.482   1.361  0.1477  0.2366  0.0484
 9740TIP3    H153415   2.028   4.465   1.301 -1.4410  0.6164  1.7533
 9740TIP3    H253416   2.108   4.577   1.363  1.2016  0.1852 -0.6438
 9741TIP3   OH253417   0.260   1.459   1.170  0.6209 -0.2995 -0.0577
 9741TIP3    H153418   0.276   1.477   1.077  0.5833 -2.2331 -0.4780
 9741TIP3    H253419   0.282   1.541   1.214  3.2205 -0.1051 -1.4967
 9742TIP3   OH253420   3.648   4.044   0.929  0.2081  0.2968 -0.0313
 9742TIP3    H153421   3.692   3.964   0.959  0.6256 -0.1976 -1.8577
 9742TIP3    H253422   3.559   4.035   0.962  0.1215 -1.1620 -0.5786
 9743TIP3   OH253423   2.922   0.292   0.625  0.4862  0.1429 -0.5227
 9743TIP3    H153424   2.965   0.361   0.677  0.3482 -0.5241  0.5019
 9743TIP3    H253425   2.888   0.338   0.549  2.0269  0.8890 -0.8040
 9744TIP3   OH253426   2.543   1.704   3.571 -0.4328  0.6185 -0.4783
 9744TIP3    H153427   2.576   1.656   3.495 -0.3349 -0.1557  0.0455
 9744TIP3    H253428   2.493   1.777   3.534  0.4378  0.8199 -1.2828
 9745TIP3   OH253429   0.858   1.621   3.268 -0.0582  0.1295 -0.0801
 9745TIP3    H153430   0.824   1.571   3.342  0.2318  0.7954  0.5176
 9745TIP3    H253431   0.817   1.707   3.276 -0.8833 -0.1218 -1.3436
 9746TIP3   OH253432   0.923   5.163   3.202 -0.3158 -0.1537  0.4456
 9746TIP3    H153433   1.007   5.152   3.248 -0.7837  0.5710  1.4942
 9746TIP3    H253434   0.948   5.175   3.110  0.8088  1.2145  0.8948
 9747TIP3   OH253435   0.900   3.523   0.872 -0.3234  0.8098 -0.0353
 9747TIP3    H153436   0.804   3.525   0.864 -0.3122 -1.7536 -2.0136
 9747TIP3    H253437   0.930   3.480   0.792  2.5846  2.0776  0.2453
 9748TIP3   OH253438   6.520   0.394   2.879  0.1835  0.0373 -0.0595
 9748TIP3    H153439   6.610   0.426   2.874 -0.4962  2.3548  1.1375
 9748TIP3    H253440   6.473   0.446   2.814 -0.1750 -1.8611 -1.4075
 9749TIP3   OH253441   3.779   6.539   0.873 -0.1371  0.4113 -0.5105
 9749TIP3    H153442   3.770   6.444   0.865  1.8557  0.1855 -0.7039
 9749TIP3    H253443   3.807   6.568   0.786 -1.4913  1.2986 -0.6649
 9750TIP3   OH253444   1.412   2.968   1.596 -0.6669 -0.7314  0.4646
 9750TIP3    H153445   1.453   3.037   1.543 -0.0387 -1.4983 -0.0752
 9750TIP3    H253446   1.321   2.996   1.607 -0.1895  0.6697  1.0936
 9751TIP3   OH253447   5.079   1.018   2.469 -0.3269  0.2024  0.2627
 9751TIP3    H153448   5.062   0.989   2.559  0.6359 -1.4184 -0.0341
 9751TIP3    H253449   5.163   1.064   2.475 -1.2383  1.9194  0.5066
 9752TIP3   OH253450   3.755   3.632   3.738  0.4046 -0.3414 -0.3618
 9752TIP3    H153451   3.798   3.546   3.736  0.2949 -0.3784 -1.7331
 9752TIP3    H253452   3.703   3.630   3.819  2.9730 -0.2682  1.4133
 9753TIP3   OH253453   2.623   4.955   3.217  0.0608 -0.0695 -0.6137
 9753TIP3    H153454   2.697   4.916   3.265  0.7147  0.0742 -1.4775
 9753TIP3    H253455   2.553   4.962   3.282  1.6348  2.2804  0.9824
 9754TIP3   OH253456   2.252   5.395   2.572  0.3511  0.1112 -0.1421
 9754TIP3    H153457   2.275   5.322   2.514 -0.5135  0.0646 -0.4320
 9754TIP3    H253458   2.167   5.425   2.540  0.1213  0.4421  0.7690
 9755TIP3   OH253459   6.121   2.046   2.597 -0.4684 -0.6307 -0.2496
 9755TIP3    H153460   6.091   2.135   2.582  1.3705  0.1411  0.4077
 9755TIP3    H253461   6.135   2.011   2.509 -0.8855 -0.1565 -0.5088
 9756TIP3   OH253462   5.870   0.725   3.240 -0.4263 -0.4035 -0.5436
 9756TIP3    H153463   5.781   0.758   3.246 -0.5400 -1.0032  1.7333
 9756TIP3    H253464   5.871   0.673   3.159 -1.7686  0.5682 -1.2178
 9757TIP3   OH253465   5.139   4.801   2.209  0.4707 -0.7184  0.4960
 9757TIP3    H153466   5.098   4.746   2.277 -0.1572  1.1051  1.6657
 9757TIP3    H253467   5.149   4.742   2.134 -2.4191 -1.8428  0.8390
 9758TIP3   OH253468   6.155   3.486   2.624  0.2168  0.2121 -0.6003
 9758TIP3    H153469   6.195   3.411   2.668 -0.5711  0.8808  1.3413
 9758TIP3    H253470   6.093   3.448   2.562 -0.2135 -0.7398  0.4026
 9759TIP3   OH253471   2.284   3.405   2.099 -0.4722  0.0205 -0.7015
 9759TIP3    H153472   2.196   3.422   2.132 -0.1366  0.5607 -0.0515
 9759TIP3    H253473   2.315   3.491   2.070  0.2416  0.0388  0.0909
 9760TIP3   OH253474   0.357   1.989   1.658  0.0527  0.5222 -0.0468
 9760TIP3    H153475   0.269   2.004   1.624  0.5105  0.7944 -1.1409
 9760TIP3    H253476   0.380   1.901   1.627  0.0064  0.2647  0.6195
 9761TIP3   OH253477   4.132   6.447   2.717  0.7652 -0.2893 -0.0376
 9761TIP3    H153478   4.196   6.376   2.706 -0.5023 -1.5842  0.5688
 9761TIP3    H253479   4.106   6.441   2.809 -0.6222 -0.1622 -0.4000
 9762TIP3   OH253480   1.448   3.122   4.520  0.3438  0.2411  0.0123
 9762TIP3    H153481   1.449   3.180   4.444  0.0405 -0.1232 -0.2727
 9762TIP3    H253482   1.511   3.053   4.497 -0.4678 -0.4008 -0.3348
 9763TIP3   OH253483   5.214   0.369   2.024  0.4925  0.1939  0.8061
 9763TIP3    H153484   5.146   0.404   1.967  0.9307  0.0035  0.1538
 9763TIP3    H253485   5.295   0.409   1.993  0.5838  1.1436  2.1715
 9764TIP3   OH253486   0.979   1.553   2.532 -0.5528  0.0910  0.0891
 9764TIP3    H153487   0.965   1.479   2.472  0.5491  0.4534 -0.6393
 9764TIP3    H253488   1.018   1.513   2.610  0.0644 -0.1003 -0.3125
 9765TIP3   OH253489   2.930   4.222   2.564 -0.3029 -0.6761  0.3344
 9765TIP3    H153490   3.011   4.260   2.597 -1.8554  0.2559  3.5180
 9765TIP3    H253491   2.888   4.293   2.515  0.4286 -0.9266 -0.6758
 9766TIP3   OH253492   0.188   0.943   0.461 -0.0083  0.0798 -0.0737
 9766TIP3    H153493   0.186   0.848   0.460 -1.5385  0.0928 -0.0863
 9766TIP3    H253494   0.239   0.965   0.539 -1.9656 -0.7798  1.5390
 9767TIP3   OH253495   0.821   2.462   0.501  0.2583  0.2376 -0.0011
 9767TIP3    H153496   0.887   2.460   0.570  0.0494 -0.1966  0.1948
 9767TIP3    H253497   0.847   2.534   0.444  1.3698 -0.4546 -0.3916
 9768TIP3   OH253498   2.853   2.359   2.673 -0.4701 -0.2083  0.7064
 9768TIP3    H153499   2.851   2.321   2.761  1.7107  0.2844  1.0225
 9768TIP3    H253500   2.767   2.338   2.636 -1.5717 -0.1833  3.0398
 9769TIP3   OH253501   6.345   3.342   1.406  0.3764  0.1678 -0.6234
 9769TIP3    H153502   6.413   3.275   1.408  0.3687  0.1704  0.1280
 9769TIP3    H253503   6.335   3.368   1.498 -0.4038  0.4056 -0.7728
 9770TIP3   OH253504   5.681   0.351   2.683  0.1237 -0.2409  0.0524
 9770TIP3    H153505   5.649   0.432   2.723 -0.5478 -1.7513  2.8479
 9770TIP3    H253506   5.772   0.369   2.661  0.6777  0.6189  2.7414
 9771TIP3   OH253507   5.044   4.179   1.765  0.3090  0.2730 -0.2583
 9771TIP3    H153508   4.970   4.120   1.783 -0.0973  0.6559 -0.6390
 9771TIP3    H253509   5.113   4.150   1.825 -0.2271  0.0591  0.2659
 9772TIP3   OH253510   3.693   2.983   3.130  0.3056 -0.0503  0.0901
 9772TIP3    H153511   3.652   3.047   3.073 -0.7595  0.4811  1.3939
 9772TIP3    H253512   3.762   3.031   3.176  2.1541 -0.8152 -1.7080
 9773TIP3   OH253513   1.342   5.455   3.355 -0.3400  0.2250 -0.8354
 9773TIP3    H153514   1.272   5.519   3.369  1.1171  1.8413 -0.5697
 9773TIP3    H253515   1.388   5.452   3.439 -0.5827 -1.4923 -0.7247
 9774TIP3   OH253516   0.069   3.881   2.342 -0.6185  0.1881 -0.0208
 9774TIP3    H153517   0.128   3.952   2.367  0.9478 -1.1511  0.2635
 9774TIP3    H253518   0.028   3.911   2.261 -0.6627  1.7735  0.5649
 9775TIP3   OH253519   5.764   0.469   1.524 -0.0649 -0.0499  0.3422
 9775TIP3    H153520   5.736   0.432   1.608  0.1574  0.1426  0.5004
 9775TIP3    H253521   5.774   0.393   1.467 -2.1828 -0.0529 -0.1062
 9776TIP3   OH253522   4.630   2.911   1.929 -0.0237 -0.3925  0.0983
 9776TIP3    H153523   4.547   2.922   1.976  0.3327 -0.9750  0.8699
 9776TIP3    H253524   4.619   2.964   1.850 -1.3219 -0.8377 -0.0495
 9777TIP3   OH253525   4.371   4.920   1.039  0.6852 -0.2095 -0.2507
 9777TIP3    H153526   4.450   4.953   1.082  0.0523  1.0010  0.0404
 9777TIP3    H253527   4.343   4.846   1.093 -0.4291  1.6336  1.8838
 9778TIP3   OH253528   0.269   1.793   1.970 -0.4017  0.3020 -0.5203
 9778TIP3    H153529   0.253   1.813   2.062  0.5735 -1.2193  0.0178
 9778TIP3    H253530   0.328   1.862   1.940 -2.0007  1.7353 -0.4904
 9779TIP3   OH253531   4.543   0.240   3.111  0.0030 -0.0057  0.3232
 9779TIP3    H153532   4.591   0.270   3.034 -0.3343 -1.4765 -0.5090
 9779TIP3    H253533   4.451   0.250   3.088 -0.1207  1.0052  1.1668
 9780TIP3   OH253534   5.746   3.731   3.029  0.2828  0.1398 -0.2523
 9780TIP3    H153535   5.743   3.796   3.100  0.8098 -0.4524  0.3307
 9780TIP3    H253536   5.778   3.651   3.071 -1.0788 -0.7287 -0.7886
 9781TIP3   OH253537   1.556   3.175   3.523 -0.1236  0.3652 -0.3893
 9781TIP3    H153538   1.518   3.090   3.499 -0.3997 -0.0475  1.3694
 9781TIP3    H253539   1.520   3.193   3.610  0.6696  1.8497 -0.3471
 9782TIP3   OH253540   4.362   5.995   1.795  0.0732  0.2436 -0.3438
 9782TIP3    H153541   4.420   6.019   1.868  0.7579  1.4515 -1.2514
 9782TIP3    H253542   4.304   5.928   1.832  1.8372 -0.8025  0.6846
 9783TIP3   OH253543   5.418   0.269   2.642  0.1331  0.5039 -0.2386
 9783TIP3    H153544   5.387   0.208   2.710 -1.4934 -1.0095 -2.2222
 9783TIP3    H253545   5.510   0.285   2.665 -0.6742  1.1910  3.0624
 9784TIP3   OH253546   3.330   5.788   2.289 -0.0762 -0.2510  0.3867
 9784TIP3    H153547   3.388   5.735   2.344 -0.9517  0.1300  1.7109
 9784TIP3    H253548   3.350   5.878   2.313 -0.0239 -0.0542 -0.3898
 9785TIP3   OH253549   4.100   2.511   4.263  0.1864 -0.6843 -0.3768
 9785TIP3    H153550   4.017   2.465   4.246  0.4315 -1.4608  0.4432
 9785TIP3    H253551   4.165   2.461   4.214  0.2514 -0.3679 -0.6172
 9786TIP3   OH253552   0.371   1.033   2.113  0.2902 -0.0874 -0.3304
 9786TIP3    H153553   0.435   1.047   2.183  0.6499 -0.8646 -0.4923
 9786TIP3    H253554   0.307   0.971   2.150 -0.1938  0.4322 -0.2810
 9787TIP3   OH253555   4.879   0.834   1.409  0.3578  0.3067  0.0727
 9787TIP3    H153556   4.796   0.805   1.447  1.0962 -1.2408  0.5615
 9787TIP3    H253557   4.947   0.793   1.464  1.4488 -0.1912 -1.5737
 9788TIP3   OH253558   3.538   4.758   3.328  0.1036 -0.2574  0.0298
 9788TIP3    H153559   3.553   4.754   3.422  0.8751  2.3886  0.1204
 9788TIP3    H253560   3.622   4.736   3.289  0.1722 -0.0029  0.0288
 9789TIP3   OH253561   3.836   3.305   2.345  0.6942  0.2255 -0.0255
 9789TIP3    H153562   3.886   3.267   2.417  0.2439 -0.3369 -0.0017
 9789TIP3    H253563   3.901   3.328   2.279  1.1925  1.4114  0.8455
 9790TIP3   OH253564   5.555   2.923   3.203  0.2415  0.2419 -0.5092
 9790TIP3    H153565   5.529   2.833   3.185  3.0596 -0.6390 -0.6567
 9790TIP3    H253566   5.508   2.946   3.284 -0.7207 -1.2428 -0.6041
 9791TIP3   OH253567   0.716   3.499   3.974  0.0024 -0.1387  0.8207
 9791TIP3    H153568   0.716   3.594   3.959  1.1424 -0.5778 -3.1457
 9791TIP3    H253569   0.635   3.482   4.021 -1.7376  2.5107 -0.9527
 9792TIP3   OH253570   5.459   2.482   2.836 -0.3264  0.3914  0.2841
 9792TIP3    H153571   5.478   2.428   2.759  1.5865  2.7321 -1.0766
 9792TIP3    H253572   5.490   2.431   2.910 -1.9801 -1.8415 -0.4758
 9793TIP3   OH253573   0.024   5.021   2.689 -0.3080 -0.7133 -0.3929
 9793TIP3    H153574  -0.006   4.950   2.745 -0.0223 -1.0811 -0.7045
 9793TIP3    H253575   0.009   4.990   2.600 -1.4184  0.1423 -0.5420
 9794TIP3   OH253576   4.569   2.449   1.138 -0.1106  0.4214  0.5732
 9794TIP3    H153577   4.647   2.413   1.096 -0.6815 -1.0551  0.7099
 9794TIP3    H253578   4.546   2.525   1.085  0.5099 -0.0603 -0.4182
 9795TIP3   OH253579   6.300   1.924   2.335 -0.3835 -0.2749 -0.1819
 9795TIP3    H153580   6.309   2.018   2.323  0.7183 -0.4903 -1.2152
 9795TIP3    H253581   6.217   1.902   2.293 -0.1200  0.0847 -0.9128
 9796TIP3   OH253582   4.702   6.149   0.662  0.4872 -0.0041 -0.7844
 9796TIP3    H153583   4.718   6.055   0.665  0.6885  0.0154 -1.1672
 9796TIP3    H253584   4.753   6.180   0.587 -0.4757  0.2396 -1.3514
 9797TIP3   OH253585   1.405   1.876   2.720 -0.3981 -0.1349 -0.2232
 9797TIP3    H153586   1.449   1.857   2.637 -1.3376  1.9857 -1.2556
 9797TIP3    H253587   1.316   1.843   2.709 -0.0136 -1.5926  0.7108
 9798TIP3   OH253588   3.570   1.840   1.419 -0.4155 -0.0873 -0.2365
 9798TIP3    H153589   3.650   1.813   1.374 -0.1508  1.4099 -0.7322
 9798TIP3    H253590   3.556   1.930   1.390 -1.5615  0.1145  0.8668
 9799TIP3   OH253591   1.610   4.391   3.053 -0.2925 -0.1146  0.0893
 9799TIP3    H153592   1.624   4.423   2.964  1.3096 -0.4399  0.1872
 9799TIP3    H253593   1.679   4.327   3.067 -0.4622 -0.0191  1.5903
 9800TIP3   OH253594   4.274   4.575   3.213  0.4718 -0.3160 -0.3347
 9800TIP3    H153595   4.241   4.588   3.125 -0.1344 -0.2043 -0.0938
 9800TIP3    H253596   4.242   4.650   3.263  1.9778  0.3702 -0.3295
 9801TIP3   OH253597   4.349   1.863   2.572  0.3383  0.0127 -0.1610
 9801TIP3    H153598   4.265   1.849   2.528  0.6180  1.5993 -1.2927
 9801TIP3    H253599   4.338   1.947   2.618  0.6460 -0.7667  1.4188
 9802TIP3   OH253600   1.012   4.958   1.613 -0.4243  0.2370 -0.1205
 9802TIP3    H153601   1.050   4.922   1.534 -0.1827 -0.0442  0.1211
 9802TIP3    H253602   1.080   4.949   1.679 -0.6967  0.2758  0.1707
 9803TIP3   OH253603   6.578   1.724   0.911  0.3208  0.1272 -0.3625
 9803TIP3    H153604   6.551   1.633   0.925 -1.6835  0.2107 -2.8599
 9803TIP3    H253605   6.527   1.773   0.974 -1.3316 -0.2504 -1.3268
 9804TIP3   OH253606   4.528   3.227   3.732  0.0507 -0.3383 -0.2518
 9804TIP3    H153607   4.491   3.198   3.816 -0.2210 -0.7827 -0.5215
 9804TIP3    H253608   4.599   3.287   3.757  1.3402 -2.0266  0.3696
 9805TIP3   OH253609   3.022   6.418   0.645  0.2613 -0.8104 -0.4044
 9805TIP3    H153610   2.927   6.419   0.657  0.4472  0.0082  1.2447
 9805TIP3    H253611   3.047   6.510   0.644  1.2934 -1.0078  1.8755
 9806TIP3   OH253612   3.314   1.354   1.663  0.4535 -0.3625  0.2720
 9806TIP3    H153613   3.277   1.418   1.724 -0.4006  0.1768 -0.7831
 9806TIP3    H253614   3.368   1.405   1.603  0.9259 -0.8300  0.2873
 9807TIP3   OH253615   0.845   4.959   2.596  0.3615  0.3546  0.2296
 9807TIP3    H153616   0.891   4.890   2.549 -0.9264 -0.6666  0.4109
 9807TIP3    H253617   0.808   4.915   2.672 -1.0198  1.0856  0.0128
 9808TIP3   OH253618   0.561   3.963   4.298 -0.1587 -1.2940 -0.3620
 9808TIP3    H153619   0.513   3.882   4.280  1.1008 -1.4197 -3.7932
 9808TIP3    H253620   0.509   4.032   4.255  1.2484 -1.0510 -1.7466
 9809TIP3   OH253621   0.630   2.993   2.727  0.7250  0.0920  0.2765
 9809TIP3    H153622   0.653   2.909   2.767  1.2225  0.2189  0.2703
 9809TIP3    H253623   0.688   3.056   2.770  0.9778  0.2939 -0.3391
 9810TIP3   OH253624   3.685   5.666   1.382 -0.0955  0.0353  0.0582
 9810TIP3    H153625   3.754   5.699   1.325 -0.4164 -0.5981 -0.7203
 9810TIP3    H253626   3.679   5.572   1.361  0.2519 -0.3722  1.6390
 9811TIP3   OH253627   5.768   5.111   2.663 -0.2181 -0.5320  0.3316
 9811TIP3    H153628   5.778   5.121   2.568 -0.3668 -0.7507  0.2919
 9811TIP3    H253629   5.816   5.185   2.700 -1.0350  0.1561  0.0561
 9812TIP3   OH253630   3.017   1.096   1.735  0.0419 -0.7408 -0.0203
 9812TIP3    H153631   2.937   1.052   1.706 -0.3111 -0.0851 -0.0639
 9812TIP3    H253632   3.039   1.155   1.663  0.0233 -0.2195  0.3930
 9813TIP3   OH253633   2.556   3.574   2.679  0.4060  0.3102 -0.2748
 9813TIP3    H153634   2.646   3.556   2.650  0.9328  2.3894 -0.1036
 9813TIP3    H253635   2.507   3.588   2.597  0.5207  0.3385 -0.3392
 9814TIP3   OH253636   1.036   3.973   1.381 -0.3527 -0.1091  0.5764
 9814TIP3    H153637   0.973   3.932   1.440 -1.9750  2.6377  0.9167
 9814TIP3    H253638   0.998   4.059   1.360  2.1450  0.7064 -1.1684
 9815TIP3   OH253639   1.884   3.725   2.310  0.1433  0.1411 -0.0838
 9815TIP3    H153640   1.848   3.806   2.274 -0.3116 -0.1808 -0.3648
 9815TIP3    H253641   1.871   3.733   2.405 -1.7457 -0.4569 -0.2541
 9816TIP3   OH253642   4.439   0.958   3.468  0.5416  0.1016  0.2734
 9816TIP3    H153643   4.470   0.899   3.537 -0.4037  1.0918  1.5957
 9816TIP3    H253644   4.346   0.969   3.486  0.6898  1.9679  0.0444
 9817TIP3   OH253645   3.199   4.562   2.038  0.3655 -0.0709  0.3412
 9817TIP3    H153646   3.288   4.550   2.004  0.6324  3.0313 -0.4316
 9817TIP3    H253647   3.143   4.514   1.977  1.3866 -0.8228 -0.0338
 9818TIP3   OH253648   5.921   4.466   2.376  0.2322  0.0246  0.1304
 9818TIP3    H153649   5.981   4.513   2.318  1.3069  0.0742  1.2345
 9818TIP3    H253650   5.846   4.444   2.321  0.4236  1.6094 -0.8252
 9819TIP3   OH253651   1.610   2.504   3.947  0.4180  0.1885  0.3131
 9819TIP3    H153652   1.516   2.516   3.932  0.5222 -0.9547 -1.5378
 9819TIP3    H253653   1.631   2.568   4.016 -1.3226  1.8458 -0.5900
 9820TIP3   OH253654   0.327   3.541   2.982 -0.2920  0.0553  1.1439
 9820TIP3    H153655   0.358   3.601   3.051 -1.2791 -1.1517  2.7144
 9820TIP3    H253656   0.297   3.463   3.030 -1.9765 -0.4368 -0.5792
 9821TIP3   OH253657   6.566   0.798   2.672  0.1595 -0.3808  0.4061
 9821TIP3    H153658   6.617   0.878   2.685  0.7698 -0.3780 -1.5795
 9821TIP3    H253659   6.626   0.728   2.694  0.3527 -0.3217  0.0853
 9822TIP3   OH253660   2.429   4.712   1.704 -0.5015 -0.2653 -0.1817
 9822TIP3    H153661   2.372   4.784   1.728  0.0879  0.6070 -1.3002
 9822TIP3    H253662   2.474   4.742   1.625  3.1295  0.0314  1.7548
 9823TIP3   OH253663   5.794   4.028   2.445 -0.1170 -0.5304  0.4374
 9823TIP3    H153664   5.840   4.019   2.529  0.3617 -1.4548  0.0909
 9823TIP3    H253665   5.794   3.939   2.409  0.4801  0.0135 -0.9478
 9824TIP3   OH253666   5.168   1.547   1.011 -0.1630 -0.6717  0.2623
 9824TIP3    H153667   5.149   1.453   1.018  0.3282 -0.7246  0.9540
 9824TIP3    H253668   5.249   1.558   1.060 -0.0317  0.0603 -0.1180
 9825TIP3   OH253669   2.305   3.605   2.943 -0.1585  0.1420 -0.3419
 9825TIP3    H153670   2.400   3.605   2.937 -0.1597  0.2530 -0.3561
 9825TIP3    H253671   2.284   3.678   3.001 -0.1037 -1.3685  1.6996
 9826TIP3   OH253672   5.860   1.898   3.318  0.0800 -0.2302 -0.0981
 9826TIP3    H153673   5.917   1.883   3.242 -1.4500  1.4641 -1.6787
 9826TIP3    H253674   5.785   1.840   3.304  0.2510 -0.6591  0.6899
 9827TIP3   OH253675   2.490   2.697   3.298  0.6343 -0.3687  0.2103
 9827TIP3    H153676   2.518   2.785   3.326 -0.6278 -0.4061  1.7308
 9827TIP3    H253677   2.418   2.713   3.238  1.7042 -0.3536 -1.1193
 9828TIP3   OH253678   6.219   0.353   2.948  0.1993 -0.5744 -0.3402
 9828TIP3    H153679   6.219   0.349   3.044  1.0121 -0.0269 -0.3107
 9828TIP3    H253680   6.310   0.368   2.924 -0.4764  3.9356 -0.9673
 9829TIP3   OH253681   1.904   1.292   3.231 -0.4034  0.0802  0.2018
 9829TIP3    H153682   1.899   1.311   3.325 -0.5959 -1.0495  0.4357
 9829TIP3    H253683   1.914   1.197   3.227 -1.4951 -0.0005 -0.9505
 9830TIP3   OH253684   4.714   2.898   0.794 -0.7526  0.2765 -0.1424
 9830TIP3    H153685   4.740   2.816   0.836 -0.6328  0.5154  0.2543
 9830TIP3    H253686   4.760   2.898   0.710  0.3443  0.5825  0.4422
 9831TIP3   OH253687   0.593   2.893   2.256  0.3727 -0.4517  0.5293
 9831TIP3    H153688   0.625   2.846   2.180 -0.3558  0.9559 -0.7049
 9831TIP3    H253689   0.633   2.980   2.249 -0.6982  0.1063  1.0325
 9832TIP3   OH253690   3.030   3.204   3.753 -0.6866  0.1022 -0.2226
 9832TIP3    H153691   2.991   3.214   3.840 -0.7570 -0.3522 -0.2026
 9832TIP3    H253692   3.098   3.138   3.764 -1.7720 -1.1537 -0.8531
 9833TIP3   OH253693   2.635   3.325   1.881 -0.0660  0.4971  0.0942
 9833TIP3    H153694   2.656   3.249   1.826  0.0099  1.0954 -0.7200
 9833TIP3    H253695   2.585   3.383   1.824  0.2205  1.2385  0.5823
 9834TIP3   OH253696   1.375   2.129   1.073 -0.6066  0.0046  0.0067
 9834TIP3    H153697   1.306   2.164   1.130  0.4075  0.8397  0.7444
 9834TIP3    H253698   1.457   2.159   1.112  0.2291 -1.5614 -0.4573
 9835TIP3   OH253699   1.845   5.923   3.384 -0.6881 -0.1088 -0.2059
 9835TIP3    H153700   1.823   6.012   3.412 -1.7851 -0.5519  0.4087
 9835TIP3    H253701   1.794   5.866   3.442  0.4913 -1.1676 -0.1518
 9836TIP3   OH253702   2.596   1.823   2.607  0.0800 -0.1574 -0.1943
 9836TIP3    H153703   2.656   1.874   2.552  1.6002 -1.4087  0.2303
 9836TIP3    H253704   2.532   1.786   2.546  1.4500 -1.1344 -1.1085
 9837TIP3   OH253705   3.897   3.706   1.489 -0.4243  0.4843  0.3144
 9837TIP3    H153706   3.850   3.641   1.437 -0.6673  0.7168  0.2366
 9837TIP3    H253707   3.988   3.676   1.489 -0.3722  0.6121 -0.4654
 9838TIP3   OH253708   6.156   4.555   4.134 -0.2891 -0.3837  0.0067
 9838TIP3    H153709   6.098   4.631   4.136 -0.3345 -0.3664 -1.1574
 9838TIP3    H253710   6.124   4.502   4.061  0.6512 -0.7788 -0.1449
 9839TIP3   OH253711   1.894   2.547   2.339 -0.1131  0.5366 -0.1192
 9839TIP3    H153712   1.931   2.569   2.425  0.2413 -0.1675 -0.0763
 9839TIP3    H253713   1.821   2.488   2.359  1.3889 -1.5272 -0.3528
 9840TIP3   OH253714   6.521   3.801   0.946 -0.0304  0.1835  0.7930
 9840TIP3    H153715   6.610   3.832   0.965  1.0432 -2.5449  0.7085
 9840TIP3    H253716   6.534   3.712   0.913 -2.8584 -0.5919  1.5438
 9841TIP3   OH253717   2.710   3.315   2.817 -0.2653  0.9595 -0.0643
 9841TIP3    H153718   2.650   3.383   2.787 -2.0927 -0.1683  0.8107
 9841TIP3    H253719   2.736   3.343   2.905  0.6560  1.5236 -0.5013
 9842TIP3   OH253720   0.067   3.413   5.561 -0.4532 -0.4338 -0.0238
 9842TIP3    H153721   0.095   3.415   5.652 -1.5752  0.7055  0.3295
 9842TIP3    H253722   0.028   3.500   5.546  0.8262 -0.1293 -1.9450
 9843TIP3   OH253723   3.287   1.041   1.436  0.3200 -0.0655 -0.0702
 9843TIP3    H153724   3.267   1.015   1.526  0.4553  0.0228 -0.0146
 9843TIP3    H253725   3.235   1.120   1.422  0.7975  0.2944  0.1506
 9844TIP3   OH253726   2.789   4.995   3.978  0.2676  0.5233  0.2396
 9844TIP3    H153727   2.867   4.961   4.021  0.7511 -1.2570 -1.8970
 9844TIP3    H253728   2.722   4.928   3.995 -0.0886  0.7922 -0.1049
 9845TIP3   OH253729   4.898   5.293   3.840 -0.2160  0.3377 -0.0975
 9845TIP3    H153730   4.986   5.300   3.804 -0.1197  0.4830  0.1650
 9845TIP3    H253731   4.849   5.365   3.800  0.2568  1.3640  1.1068
 9846TIP3   OH253732   0.514   5.434   2.160 -0.2905 -0.5809 -0.8554
 9846TIP3    H153733   0.457   5.383   2.101  0.5124  0.0751 -2.2546
 9846TIP3    H253734   0.463   5.442   2.241 -0.7892 -2.8855 -0.8532
 9847TIP3   OH253735   6.180   1.861   1.268  0.2714  0.4567  0.3319
 9847TIP3    H153736   6.262   1.828   1.305 -0.0784  0.8375  1.4820
 9847TIP3    H253737   6.126   1.883   1.344  0.3771  3.3793 -0.3001
 9848TIP3   OH253738   4.340   3.209   4.032  0.1290  0.2438  0.4392
 9848TIP3    H153739   4.280   3.192   4.104 -0.5643  1.9139  0.2924
 9848TIP3    H253740   4.426   3.188   4.067 -0.2987  0.0877  1.4281
 9849TIP3   OH253741   0.321   4.073   2.926 -0.1916  0.0375  0.6067
 9849TIP3    H153742   0.303   4.005   2.861  0.7853 -2.2286  2.5588
 9849TIP3    H253743   0.332   4.153   2.875 -1.8664 -1.1349 -1.7659
 9850TIP3   OH253744   0.681   0.757   2.556  0.1428 -0.5595 -0.3976
 9850TIP3    H153745   0.612   0.820   2.576  0.7404 -0.0352  0.0552
 9850TIP3    H253746   0.668   0.734   2.464  0.5185  0.9906 -0.8532
 9851TIP3   OH253747   6.053   1.904   2.261  0.5961 -0.2942 -0.0372
 9851TIP3    H153748   6.044   1.925   2.168 -0.4632 -2.5524 -0.5125
 9851TIP3    H253749   5.970   1.929   2.300 -0.1885 -2.2197 -0.3664
 9852TIP3   OH253750   0.879   3.190   2.920  0.3039  0.0568 -0.0127
 9852TIP3    H153751   0.836   3.244   2.853  1.9564  1.3356 -0.1064
 9852TIP3    H253752   0.808   3.164   2.978 -0.7121  1.5570 -0.5026
 9853TIP3   OH253753   4.911   0.903   1.155  0.3409 -0.0449  0.1109
 9853TIP3    H153754   4.850   0.976   1.157 -1.3574 -1.3863 -0.1952
 9853TIP3    H253755   4.912   0.870   1.245  0.4255 -0.1613  0.0673
 9854TIP3   OH253756   1.677   3.952   1.441  1.1125 -0.1409 -0.2855
 9854TIP3    H153757   1.762   3.909   1.437  0.4833 -1.4103 -0.3371
 9854TIP3    H253758   1.681   4.020   1.374  1.3314 -1.6276 -1.8444
 9855TIP3   OH253759   1.247   1.953   3.528  0.0304  0.4218 -0.2150
 9855TIP3    H153760   1.241   1.862   3.501 -1.8926  0.4509 -0.0480
 9855TIP3    H253761   1.292   1.997   3.456  1.4852 -0.7269 -0.0525
 9856TIP3   OH253762   4.496   0.861   1.048 -0.4582 -0.0252 -0.3804
 9856TIP3    H153763   4.565   0.896   0.993 -1.1755  0.3544 -1.0684
 9856TIP3    H253764   4.533   0.860   1.136  0.0805  1.1059 -0.5796
 9857TIP3   OH253765   3.855   1.079   2.783  0.1776  0.0367 -0.0970
 9857TIP3    H153766   3.828   1.127   2.705  2.9869 -0.3277 -1.4231
 9857TIP3    H253767   3.893   1.146   2.840 -1.8316  0.2950  1.0433
 9858TIP3   OH253768   2.806   1.881   3.371  0.2543 -0.7938 -0.4209
 9858TIP3    H153769   2.795   1.786   3.379  0.8171 -0.8726 -0.5850
 9858TIP3    H253770   2.726   1.917   3.411  0.7488 -1.3043  1.1307
 9859TIP3   OH253771   4.623   1.565   1.405  0.6351 -0.6800 -0.2237
 9859TIP3    H153772   4.601   1.619   1.329  1.4077 -1.6036 -1.1292
 9859TIP3    H253773   4.718   1.557   1.403  1.0085  1.5744  2.4726
 9860TIP3   OH253774   5.215   3.874   1.456  0.0505  0.1377 -0.1873
 9860TIP3    H153775   5.299   3.905   1.488 -0.8639  0.3564  2.1450
 9860TIP3    H253776   5.230   3.783   1.432  0.4581 -0.5444  2.4438
 9861TIP3   OH253777   2.163   4.252   3.018  0.1798  0.7766  0.1159
 9861TIP3    H153778   2.149   4.255   3.113 -1.9041  0.4242 -0.1389
 9861TIP3    H253779   2.141   4.162   2.993  1.4922  0.6365 -0.6151
 9862TIP3   OH253780   4.179   5.039   0.891 -0.4803  0.0240  0.0046
 9862TIP3    H153781   4.235   5.000   0.957 -0.6799 -0.2077  0.0392
 9862TIP3    H253782   4.154   5.124   0.928 -1.3920 -0.5173  0.6721
 9863TIP3   OH253783   6.423   5.337   1.009  0.0019  0.5513  0.0395
 9863TIP3    H153784   6.328   5.339   0.999 -0.0668  2.5850  0.5856
 9863TIP3    H253785   6.449   5.429   1.007  2.0154  0.0207 -0.4349
 9864TIP3   OH253786   0.681   2.819   4.898 -0.3733  0.4138  0.4400
 9864TIP3    H153787   0.766   2.864   4.899  1.2621 -2.4024  0.1276
 9864TIP3    H253788   0.663   2.806   4.805 -0.3055 -0.4312  0.5419
 9865TIP3   OH253789   6.469   2.563   2.462 -0.0215  0.0876 -0.0063
 9865TIP3    H153790   6.414   2.561   2.384  0.2046  0.2333 -0.1715
 9865TIP3    H253791   6.541   2.503   2.442  0.4324  0.6918 -0.2093
 9866TIP3   OH253792   4.681   4.651   1.737  0.6757  0.0644  0.2718
 9866TIP3    H153793   4.622   4.698   1.795  0.2982 -1.0496  0.8177
 9866TIP3    H253794   4.763   4.645   1.786 -0.0387 -2.0464  1.3093
 9867TIP3   OH253795   1.779   5.727   1.340  0.3199  0.3932  0.0528
 9867TIP3    H153796   1.688   5.754   1.331  0.9073  1.9251 -2.4137
 9867TIP3    H253797   1.805   5.757   1.427 -1.1569  1.1216  0.2677
 9868TIP3   OH253798   6.375   2.063   0.772 -0.3961 -0.5590 -0.1089
 9868TIP3    H153799   6.400   1.997   0.708 -0.2854 -0.2309 -0.4033
 9868TIP3    H253800   6.280   2.071   0.762 -0.4394 -0.8290  0.0769
 9869TIP3   OH253801   6.119   5.846   2.100 -0.4040  0.4474 -0.0498
 9869TIP3    H153802   6.119   5.767   2.153 -1.8815  0.8109  0.5412
 9869TIP3    H253803   6.102   5.815   2.011  3.1575 -0.2720 -0.6084
 9870TIP3   OH253804   1.128   3.986   2.826 -0.3319 -0.1247  0.0096
 9870TIP3    H153805   1.159   3.895   2.832  0.9835  0.3637  1.6333
 9870TIP3    H253806   1.047   3.981   2.776  0.0275 -2.1117 -0.4618
 9871TIP3   OH253807   0.368   2.348   1.926  0.0960 -0.2209  0.1773
 9871TIP3    H153808   0.392   2.340   1.833  0.9698  1.8635  0.1633
 9871TIP3    H253809   0.441   2.307   1.973 -0.0067 -0.6507 -0.0287
 9872TIP3   OH253810   0.364   1.118   2.782 -0.5678 -0.1846  0.3506
 9872TIP3    H153811   0.425   1.129   2.709  0.3367  0.2126  1.1341
 9872TIP3    H253812   0.387   1.189   2.843 -1.8967  0.0380  0.6203
 9873TIP3   OH253813   5.071   2.851   0.784  0.2860 -0.2948 -0.4345
 9873TIP3    H153814   5.044   2.943   0.776 -1.7296 -0.9042 -1.4822
 9873TIP3    H253815   5.038   2.823   0.869  1.3480  0.0686  0.1070
 9874TIP3   OH253816   3.155   1.604   0.522 -0.2515 -0.6822  0.3987
 9874TIP3    H153817   3.244   1.617   0.556  0.0481 -1.4528 -0.0897
 9874TIP3    H253818   3.143   1.509   0.520 -0.2703 -0.6618 -1.6383
 9875TIP3   OH253819   1.770   3.046   1.349 -0.8241  0.0376  0.5742
 9875TIP3    H153820   1.683   3.077   1.372 -0.8500  0.5545 -0.1962
 9875TIP3    H253821   1.822   3.126   1.339 -0.7504 -0.1704 -0.8581
 9876TIP3   OH253822   2.600   2.510   3.038 -0.5172  0.7103 -0.1796
 9876TIP3    H153823   2.639   2.567   3.104  1.7751  0.5617 -1.3104
 9876TIP3    H253824   2.527   2.467   3.084  1.0549  0.4775  2.3286
 9877TIP3   OH253825   3.580   2.044   1.852 -0.2300 -0.0952 -0.8267
 9877TIP3    H153826   3.647   2.006   1.796  0.0775 -0.2608 -0.3515
 9877TIP3    H253827   3.570   2.134   1.820  1.9630  0.7441  0.6076
 9878TIP3   OH253828   0.134   2.365   2.694  0.5629  0.5416 -0.2635
 9878TIP3    H153829   0.153   2.274   2.668  0.7390  0.6552 -0.5397
 9878TIP3    H253830   0.086   2.401   2.619  1.6321  1.0643 -0.7178
 9879TIP3   OH253831   3.468   1.664   1.617 -0.5065 -0.3924  0.0897
 9879TIP3    H153832   3.510   1.737   1.573 -0.9760  0.3249  0.8133
 9879TIP3    H253833   3.383   1.655   1.572 -0.5363 -0.3589  0.1395
 9880TIP3   OH253834   1.316   4.651   3.326 -0.4297  0.4594  0.4435
 9880TIP3    H153835   1.343   4.621   3.412 -3.5055  0.4685  1.5366
 9880TIP3    H253836   1.256   4.583   3.295 -0.9346  1.4333 -0.7970
 9881TIP3   OH253837   0.058   2.767   1.320 -0.0160  0.1697  0.1642
 9881TIP3    H153838  -0.009   2.828   1.289 -0.4641 -0.2863  0.2293
 9881TIP3    H253839   0.130   2.824   1.349 -1.2673  0.8147  2.2739
 9882TIP3   OH253840   4.188   0.952   1.178  0.1160 -0.2669  0.4009
 9882TIP3    H153841   4.251   0.895   1.134 -1.0222 -1.2249 -0.0624
 9882TIP3    H253842   4.163   1.016   1.111  0.5732  0.0884  0.5722
 9883TIP3   OH253843   0.538   6.009   3.073 -0.6890 -0.1727 -0.2695
 9883TIP3    H153844   0.516   6.018   3.165 -1.0757  1.2764 -0.4837
 9883TIP3    H253845   0.625   6.046   3.065 -1.6007  1.9680 -0.8679
 9884TIP3   OH253846   2.311   2.411   2.876  0.1115  0.1980 -0.3659
 9884TIP3    H153847   2.348   2.437   2.960  3.8807  0.4709 -1.9132
 9884TIP3    H253848   2.293   2.494   2.831 -1.5204  0.0484 -0.0669
 9885TIP3   OH253849   3.441   5.140   1.876  0.0282  0.5007 -0.1368
 9885TIP3    H153850   3.514   5.080   1.889 -0.3039  0.5542  2.3657
 9885TIP3    H253851   3.483   5.223   1.852  0.7389  0.2787  0.3068
 9886TIP3   OH253852   3.121   1.307   0.563  1.0748  0.7180  0.8287
 9886TIP3    H153853   3.205   1.262   0.572  1.6072  1.9727  2.7825
 9886TIP3    H253854   3.056   1.236   0.565  2.0269 -0.2559 -0.5730
 9887TIP3   OH253855   6.593   4.997   1.682 -0.3511  0.5280 -0.1154
 9887TIP3    H153856   6.626   5.074   1.634  0.4931  0.3843  0.2050
 9887TIP3    H253857   6.633   5.005   1.769 -1.1153  0.2861  0.2601
 9888TIP3   OH253858   3.369   4.648   3.144 -0.0708  0.0429  0.1478
 9888TIP3    H153859   3.358   4.735   3.106 -0.7979 -0.1673 -0.1460
 9888TIP3    H253860   3.428   4.661   3.218  0.5096  0.6423 -0.4018
 9889TIP3   OH253861   4.090   4.666   1.045  0.0608 -0.1316 -0.1178
 9889TIP3    H153862   4.173   4.676   1.091 -0.5532  0.5074  0.8960
 9889TIP3    H253863   4.064   4.576   1.061 -1.1274  0.5750  2.6242
 9890TIP3   OH253864   5.717   5.004   3.191  0.2028  0.0462 -0.2859
 9890TIP3    H153865   5.685   5.061   3.261  1.7588 -0.6326  1.0331
 9890TIP3    H253866   5.796   5.048   3.158  0.9523 -0.9190  0.1890
 9891TIP3   OH253867   4.773   1.949   2.721  0.3452 -0.5007  0.3445
 9891TIP3    H153868   4.760   1.983   2.633 -0.7807  0.2309  0.7757
 9891TIP3    H253869   4.688   1.909   2.744  0.4467 -0.1861  1.2995
 9892TIP3   OH253870   2.920   1.492   2.802  0.3726 -0.2215  0.0087
 9892TIP3    H153871   2.932   1.397   2.794 -1.2279 -0.4069 -0.8205
 9892TIP3    H253872   2.840   1.510   2.751  0.9914  1.6644 -0.3873
 9893TIP3   OH253873   2.780   2.251   1.153 -0.1910  0.1660 -0.0020
 9893TIP3    H153874   2.814   2.304   1.226 -0.9737  1.5551 -0.6003
 9893TIP3    H253875   2.844   2.264   1.083  0.1819 -0.5780  0.1970
 9894TIP3   OH253876   0.096   0.335   2.866 -0.1178  0.1095 -0.1314
 9894TIP3    H153877   0.124   0.275   2.797  2.7778  1.0779  0.0517
 9894TIP3    H253878   0.123   0.292   2.947  0.9898  1.1048  0.0592
 9895TIP3   OH253879   5.111   0.829   3.078  0.1454 -0.1017 -0.1907
 9895TIP3    H153880   5.199   0.824   3.113 -0.4309 -1.6584  1.1701
 9895TIP3    H253881   5.067   0.895   3.132 -0.0595 -0.7442  0.4381
 9896TIP3   OH253882   4.425   6.621   2.429  0.1039  0.0703 -0.2671
 9896TIP3    H153883   4.520   6.610   2.428  0.2562  0.4193  2.5852
 9896TIP3    H253884   4.391   6.532   2.418  0.8783 -0.4900  1.4405
 9897TIP3   OH253885   5.449   4.701   0.686  0.2932  0.2207 -0.8503
 9897TIP3    H153886   5.432   4.746   0.603 -0.8208  0.5994 -0.4359
 9897TIP3    H253887   5.364   4.698   0.730  1.2084  1.9834  1.2445
 9898TIP3   OH253888   6.073   5.086   2.239 -0.0598 -0.4107  0.1186
 9898TIP3    H153889   6.143   5.107   2.300  0.8259 -0.7551 -0.7652
 9898TIP3    H253890   6.117   5.067   2.156 -1.1957 -0.5520 -0.4791
 9899TIP3   OH253891   0.633   5.745   2.867 -0.1490  0.0323 -1.1641
 9899TIP3    H153892   0.645   5.822   2.812 -1.0287  1.0260  0.0021
 9899TIP3    H253893   0.538   5.734   2.873 -0.0576 -0.2702 -0.1317
 9900TIP3   OH253894   5.983   5.346   3.620  0.0726  0.0805  0.4212
 9900TIP3    H153895   6.016   5.279   3.560 -0.2605  0.3832 -0.1088
 9900TIP3    H253896   5.904   5.379   3.578  1.9510  3.1703 -1.0668
 9901TIP3   OH253897   0.061   2.047   1.898 -0.8081 -0.4208  0.3345
 9901TIP3    H153898   0.034   1.975   1.842  0.0802 -1.2206  0.9181
 9901TIP3    H253899   0.124   2.096   1.845 -1.6829  0.1713 -0.1991
 9902TIP3   OH253900   0.764   3.635   1.496  0.3819 -0.6841  0.6527
 9902TIP3    H153901   0.775   3.723   1.533  0.2949  0.5464 -2.0525
 9902TIP3    H253902   0.776   3.577   1.571  1.5704  1.5623  2.3414
 9903TIP3   OH253903   2.077   5.013   3.306 -0.1124  0.1392  0.0480
 9903TIP3    H153904   2.139   5.029   3.235  0.2709 -2.1871 -0.1992
 9903TIP3    H253905   1.999   4.979   3.262 -1.5509  2.7164  0.3902
 9904TIP3   OH253906   0.734   1.944   1.869  0.0389 -0.4264 -0.3122
 9904TIP3    H153907   0.786   1.981   1.941 -1.6928  2.0281 -0.1910
 9904TIP3    H253908   0.715   1.854   1.897  1.4275 -0.3243  1.1464
 9905TIP3   OH253909   5.178   3.326   3.293  0.3850 -0.3512 -0.4793
 9905TIP3    H153910   5.202   3.328   3.200 -0.3596 -3.7478 -0.8932
 9905TIP3    H253911   5.259   3.304   3.338  0.6097  0.6382 -0.3968
 9906TIP3   OH253912   1.779   0.474   0.712  0.6328  0.1615 -0.4400
 9906TIP3    H153913   1.689   0.481   0.746  0.4590 -1.1157 -0.5682
 9906TIP3    H253914   1.814   0.396   0.755  1.6157  0.5274 -0.5624
 9907TIP3   OH253915   6.595   2.103   3.206 -0.3340  0.3095 -0.1876
 9907TIP3    H153916   6.524   2.110   3.142  0.0454  1.7311 -0.4786
 9907TIP3    H253917   6.555   2.062   3.282 -1.1159 -0.1844 -0.8435
 9908TIP3   OH253918   5.926   0.737   0.634 -0.3461  0.8078  0.5631
 9908TIP3    H153919   5.942   0.746   0.728  1.0777 -0.6568  0.5073
 9908TIP3    H253920   5.897   0.646   0.623 -2.4668  1.5051 -0.2155
 9909TIP3   OH253921   0.322   1.468   3.960  0.2150 -0.4178  0.5402
 9909TIP3    H153922   0.334   1.561   3.978 -1.3149 -0.1709  0.4230
 9909TIP3    H253923   0.398   1.426   4.000  2.1230  1.0505 -1.3055
 9910TIP3   OH253924   2.754   3.765   0.777 -0.2269 -0.1104 -0.0372
 9910TIP3    H153925   2.694   3.743   0.848  1.9460 -2.4373  1.2498
 9910TIP3    H253926   2.767   3.682   0.730  1.1913  0.5591 -0.8939
 9911TIP3   OH253927   2.481   1.303   1.962 -0.0900 -0.0707 -0.0450
 9911TIP3    H153928   2.439   1.364   1.901 -1.4165 -1.2736 -0.3906
 9911TIP3    H253929   2.425   1.303   2.039  0.2094 -0.4300  0.1795
 9912TIP3   OH253930   3.755   3.576   3.448 -0.4989 -0.1338  0.5129
 9912TIP3    H153931   3.846   3.559   3.424 -0.4102 -0.1409  0.8448
 9912TIP3    H253932   3.759   3.602   3.540 -0.6585  1.4168  0.1191
 9913TIP3   OH253933   4.781   3.470   3.563  0.1240 -0.2525  0.3812
 9913TIP3    H153934   4.801   3.453   3.471  0.4316  0.1360  0.3746
 9913TIP3    H253935   4.866   3.486   3.603 -0.1198  1.0189  0.4347
 9914TIP3   OH253936   1.838   5.265   2.210  0.0428 -0.4445  0.7584
 9914TIP3    H153937   1.834   5.220   2.294 -1.3914 -2.3364 -0.2470
 9914TIP3    H253938   1.867   5.198   2.148 -0.0152  0.6084 -0.4440
 9915TIP3   OH253939   4.408   0.199   2.486 -0.0148 -0.6752  0.2132
 9915TIP3    H153940   4.423   0.130   2.422  0.0559 -1.5603  1.1586
 9915TIP3    H253941   4.490   0.203   2.536 -0.1881 -0.2234  0.4715
 9916TIP3   OH253942   5.543   2.643   4.229  0.8607 -0.2233  0.0675
 9916TIP3    H153943   5.529   2.576   4.296  1.3016  0.0026  0.3889
 9916TIP3    H253944   5.455   2.679   4.212  0.6358 -0.8045 -0.0368
 9917TIP3   OH253945   4.848   4.036   0.963  1.2958  0.0127  0.5511
 9917TIP3    H153946   4.906   4.109   0.987  0.8510  0.5824 -0.0591
 9917TIP3    H253947   4.861   4.025   0.869  0.1925  0.3572  0.3403
 9918TIP3   OH253948   5.931   5.610   1.130  0.2628 -0.3599  0.2824
 9918TIP3    H153949   5.908   5.615   1.223 -0.3574  1.9277  0.0732
 9918TIP3    H253950   6.022   5.641   1.127 -0.0093  0.4360  0.0530
 9919TIP3   OH253951   3.959   1.126   1.575  0.0991  0.0905 -0.7961
 9919TIP3    H153952   3.952   1.101   1.483 -0.5420 -0.9279 -0.4862
 9919TIP3    H253953   3.876   1.171   1.594 -0.7310 -1.6322 -0.1695
 9920TIP3   OH253954   5.098   2.571   0.398 -0.0456 -0.4335  0.0833
 9920TIP3    H153955   5.042   2.609   0.329 -0.5948  0.6649  1.0990
 9920TIP3    H253956   5.137   2.647   0.441  0.1450 -1.0920  1.0992
 9921TIP3   OH253957   3.396   0.357   2.833 -0.7771  0.3124 -0.5230
 9921TIP3    H153958   3.390   0.360   2.738 -0.1335  1.5196 -0.5479
 9921TIP3    H253959   3.487   0.378   2.852 -0.5775 -1.1420  0.3373
 9922TIP3   OH253960   1.680   3.040   4.427 -0.3387 -0.4084  0.1787
 9922TIP3    H153961   1.663   3.118   4.375 -0.6484 -0.1575  0.6599
 9922TIP3    H253962   1.735   2.985   4.370  2.1630  1.2815  0.7910
 9923TIP3   OH253963   4.813   1.684   2.402 -0.3482 -0.3286 -0.2841
 9923TIP3    H153964   4.836   1.777   2.410  0.4943 -0.5917  0.5485
 9923TIP3    H253965   4.797   1.672   2.308 -0.1221  0.5747 -0.4543
 9924TIP3   OH253966   1.530   3.168   3.996  0.8079  0.0084  0.0598
 9924TIP3    H153967   1.551   3.079   4.025  0.3275  0.3320  1.4817
 9924TIP3    H253968   1.454   3.158   3.939 -0.1758 -0.3802  1.3848
 9925TIP3   OH253969   1.648   5.370   2.948 -0.9130  0.0139 -0.1335
 9925TIP3    H153970   1.616   5.433   2.883  1.7546  2.7416  0.9469
 9925TIP3    H253971   1.685   5.299   2.896 -1.2462  0.8000 -1.4988
 9926TIP3   OH253972   6.620   6.308   0.754  0.0310 -0.3620 -0.4280
 9926TIP3    H153973   6.647   6.393   0.720  2.7635 -0.7877  0.4029
 9926TIP3    H253974   6.532   6.295   0.719 -1.5705  3.8364  1.3995
 9927TIP3   OH253975   6.261   5.472   4.097  0.1001  0.3119 -0.5788
 9927TIP3    H153976   6.319   5.411   4.052  2.0742  0.3416  1.7048
 9927TIP3    H253977   6.269   5.553   4.047 -0.3408 -0.4787 -2.0056
 9928TIP3   OH253978   2.119   5.085   2.130 -0.2929  0.9225  0.2089
 9928TIP3    H153979   2.117   5.166   2.079 -2.5289  1.2808  0.7607
 9928TIP3    H253980   2.168   5.023   2.075 -1.1864  1.7785 -1.6276
 9929TIP3   OH253981   1.221   4.723   2.476 -0.0259 -0.6184 -0.0213
 9929TIP3    H153982   1.219   4.701   2.569  0.7480 -0.9172 -0.0582
 9929TIP3    H253983   1.246   4.641   2.433 -1.1414 -0.6797 -0.5690
 9930TIP3   OH253984   2.807   3.493   2.578 -0.0858 -0.3304 -0.6717
 9930TIP3    H153985   2.832   3.416   2.629 -0.9620 -0.8115 -0.9619
 9930TIP3    H253986   2.889   3.523   2.539  0.1029 -1.7546 -1.4384
 9931TIP3   OH253987   3.293   6.272   2.653  0.1177 -0.1911  0.6435
 9931TIP3    H153988   3.220   6.218   2.623 -1.2754  2.2647 -0.6309
 9931TIP3    H253989   3.262   6.311   2.735  1.3195 -1.6212  1.8416
 9932TIP3   OH253990   5.495   5.627   1.650 -0.0712  0.2910  0.1680
 9932TIP3    H153991   5.583   5.652   1.679  0.0820  0.6128 -0.5450
 9932TIP3    H253992   5.467   5.562   1.714  0.2063  1.0377  1.0742
 9933TIP3   OH253993   3.010   0.415   2.718 -0.0137 -0.4777  0.1709
 9933TIP3    H153994   2.953   0.491   2.712  0.0007 -0.4427  0.4659
 9933TIP3    H253995   3.099   0.451   2.713  0.0170 -0.3737  1.2942
 9934TIP3   OH253996   1.894   3.871   2.922 -0.3947  0.6648 -0.1121
 9934TIP3    H153997   1.965   3.908   2.975  0.3446 -0.0060 -0.6148
 9934TIP3    H253998   1.845   3.816   2.983  1.3111 -1.2685 -0.3980
 9935TIP3   OH253999   0.890   6.468   0.877  0.2023  0.1552  0.2292
 9935TIP3    H154000   0.951   6.485   0.805 -0.9000  1.2794 -0.4806
 9935TIP3    H254001   0.837   6.395   0.846  1.9808 -1.7240  1.3949
 9936TIP3   OH254002   1.450   3.756   0.826  0.1375 -0.1903 -0.1545
 9936TIP3    H154003   1.544   3.744   0.810  1.0932  3.1814  1.9441
 9936TIP3    H254004   1.442   3.758   0.921 -1.8172  1.0613 -0.2972
 9937TIP3   OH254005   3.722   5.893   0.621 -0.5793  0.0782  0.0166
 9937TIP3    H154006   3.773   5.933   0.692  1.2746  2.3817 -2.4561
 9937TIP3    H254007   3.753   5.802   0.618  1.7158  0.8236  0.0702
 9938TIP3   OH254008   5.838   6.674   0.568  0.5212 -0.0566 -0.2045
 9938TIP3    H154009   5.801   6.628   0.492 -0.1739 -2.1953  1.3347
 9938TIP3    H254010   5.924   6.634   0.580  1.2611  1.3076 -0.6799
 9939TIP3   OH254011   4.876   5.643   1.695 -0.5051 -0.1301 -0.1381
 9939TIP3    H154012   4.953   5.668   1.747 -0.3141 -1.8729  0.4734
 9939TIP3    H254013   4.905   5.652   1.605 -0.6153  2.2652  0.0001
 9940TIP3   OH254014   4.760   5.396   1.606 -0.0492  0.1839 -0.3986
 9940TIP3    H154015   4.683   5.394   1.664 -2.5281  2.5451 -3.2727
 9940TIP3    H254016   4.811   5.471   1.637 -0.4486  0.3770 -0.1914
 9941TIP3   OH254017   0.112   5.649   1.587 -1.0723 -0.1231  0.0700
 9941TIP3    H154018   0.075   5.658   1.499 -1.2673  2.2097  0.3255
 9941TIP3    H254019   0.160   5.730   1.601 -0.3789 -0.7849  1.8486
 9942TIP3   OH254020   3.151   2.319   1.135  0.4158  0.2065 -0.3469
 9942TIP3    H154021   3.106   2.306   1.051 -0.1482 -2.7398  0.3148
 9942TIP3    H254022   3.089   2.368   1.188  0.6536  1.8444 -1.4961
 9943TIP3   OH254023   5.011   5.924   1.660  0.2195  0.5170  0.3397
 9943TIP3    H154024   5.102   5.896   1.656  0.4916  1.0987  1.8576
 9943TIP3    H254025   4.996   5.944   1.752 -2.2701 -2.2952  0.7251
 9944TIP3   OH254026   1.063   1.553   2.087  0.5748  0.4023  0.1069
 9944TIP3    H154027   1.116   1.480   2.056  0.9659 -0.2010  2.0305
 9944TIP3    H254028   0.980   1.544   2.041  0.8126 -0.9358 -0.1024
 9945TIP3   OH254029   5.152   1.948   1.708  0.1233 -0.0008 -0.0065
 9945TIP3    H154030   5.200   1.895   1.771  0.9198  2.3489  1.4886
 9945TIP3    H254031   5.084   1.991   1.760 -0.9792 -0.1152 -1.3138
 9946TIP3   OH254032   3.996   4.073   1.509 -0.1954 -0.1407 -0.0756
 9946TIP3    H154033   3.998   4.169   1.511  0.3006 -0.1605  0.3711
 9946TIP3    H254034   3.911   4.050   1.545 -0.3693  0.1312 -0.3042
 9947TIP3   OH254035   3.527   4.508   2.218 -0.1036  0.2752  0.3439
 9947TIP3    H154036   3.456   4.536   2.276  0.4174 -0.9651  1.6415
 9947TIP3    H254037   3.548   4.419   2.247  2.3817  0.8042  0.4079
 9948TIP3   OH254038   5.803   2.631   3.049 -0.1980 -0.1304  0.0400
 9948TIP3    H154039   5.766   2.633   3.137  0.0061 -0.7897  0.1504
 9948TIP3    H254040   5.838   2.542   3.040 -0.8649 -0.3125 -0.9644
 9949TIP3   OH254041   3.417   4.165   1.287  0.3492 -0.1198  0.4493
 9949TIP3    H154042   3.392   4.240   1.233 -2.6932 -1.3902 -0.0856
 9949TIP3    H254043   3.471   4.110   1.230 -0.0632  0.1442 -0.1997
 9950TIP3   OH254044   2.106   0.891   0.912  0.1650  0.4091  0.2633
 9950TIP3    H154045   2.126   0.864   0.823  0.8187 -0.0626  0.5522
 9950TIP3    H254046   2.146   0.978   0.920 -0.0831  0.5468  0.0305
 9951TIP3   OH254047   0.047   6.070   1.611  0.1482  0.7164 -0.1630
 9951TIP3    H154048   0.112   6.008   1.644  1.0725  2.1143  0.7018
 9951TIP3    H254049   0.095   6.152   1.600 -1.0036  1.2440 -1.4948
 9952TIP3   OH254050   6.362   5.488   2.958 -0.0840 -0.1139  0.0073
 9952TIP3    H154051   6.344   5.453   3.045 -0.4153 -0.9155 -0.3701
 9952TIP3    H254052   6.398   5.414   2.909  1.1022  0.5926 -0.2433
 9953TIP3   OH254053   6.176   5.045   0.983 -0.4631  0.2553  0.1788
 9953TIP3    H154054   6.096   5.077   1.024 -1.4038  0.7185 -1.9101
 9953TIP3    H254055   6.223   5.124   0.957 -0.6931 -0.0094 -1.0877
 9954TIP3   OH254056   4.066   4.390   1.113  0.0562  0.7772 -0.3087
 9954TIP3    H154057   4.024   4.304   1.115  1.3774  0.1234  0.5113
 9954TIP3    H254058   4.148   4.376   1.065 -0.2908  1.8736 -1.2859
 9955TIP3   OH254059   0.932   2.290   0.968  0.0052  0.0368  0.4571
 9955TIP3    H154060   0.898   2.203   0.951  4.0519 -2.0150  1.6128
 9955TIP3    H254061   0.878   2.323   1.041  0.0121 -2.7165  1.8312
 9956TIP3   OH254062   6.135   6.002   3.635  0.0565  0.7685  0.1377
 9956TIP3    H154063   6.188   5.927   3.663  0.3681  0.3312 -1.4967
 9956TIP3    H254064   6.046   5.968   3.631  0.1274  0.6074 -0.1351
 9957TIP3   OH254065   3.592   3.148   2.968  0.9836 -0.0010  0.4181
 9957TIP3    H154066   3.588   3.139   2.873 -1.7208 -0.3171  0.4795
 9957TIP3    H254067   3.627   3.236   2.983 -0.1329  0.7081 -0.9298
 9958TIP3   OH254068   2.515   1.590   2.115 -0.4851 -0.0782 -0.0090
 9958TIP3    H154069   2.594   1.549   2.149 -0.1604  1.8483  1.7637
 9958TIP3    H254070   2.445   1.560   2.173 -0.8442 -0.7783 -0.7944
 9959TIP3   OH254071   2.135   2.118   0.654  0.4412 -0.4148  0.0306
 9959TIP3    H154072   2.128   2.070   0.571  0.0500  0.9742 -0.7737
 9959TIP3    H254073   2.078   2.069   0.714 -0.6407 -0.4851 -1.0017
 9960TIP3   OH254074   3.250   5.925   1.963 -0.3765  0.3504  0.1606
 9960TIP3    H154075   3.342   5.941   1.942  0.9906 -2.6249  2.9990
 9960TIP3    H254076   3.202   5.974   1.896  3.1261  3.8116 -0.2510
 9961TIP3   OH254077   3.098   5.792   1.610  0.1794  0.3720  0.2428
 9961TIP3    H154078   3.102   5.763   1.519  0.8671 -2.1017  0.9803
 9961TIP3    H254079   3.045   5.872   1.608 -0.0033  0.2533 -2.2719
 9962TIP3   OH254080   4.697   2.430   2.306  0.6003 -0.1441 -0.1682
 9962TIP3    H154081   4.739   2.374   2.371 -0.3899 -0.1541  0.4946
 9962TIP3    H254082   4.684   2.373   2.230  0.7100 -0.4669  0.0530
 9963TIP3   OH254083   3.080   2.510   2.394  0.3510  0.1309 -0.0608
 9963TIP3    H154084   3.021   2.576   2.432  0.6827 -0.2758  1.2061
 9963TIP3    H254085   3.143   2.561   2.344  0.5897  0.7931  0.8857
 9964TIP3   OH254086   1.898   1.717   3.684  0.0917 -0.3284 -0.2133
 9964TIP3    H154087   1.816   1.702   3.732  0.5034 -0.8411  0.3457
 9964TIP3    H254088   1.902   1.645   3.621 -0.5691  0.4795 -1.2132
 9965TIP3   OH254089   0.556   0.535   2.040  0.0576  0.2362 -0.3110
 9965TIP3    H154090   0.545   0.621   1.999 -1.1512  0.4488  0.3931
 9965TIP3    H254091   0.602   0.554   2.122 -3.9191  0.9526  2.0260
 9966TIP3   OH254092   0.382   5.734   3.826  0.3942 -0.1455 -0.0601
 9966TIP3    H154093   0.319   5.770   3.888 -0.5700  0.3507 -1.2742
 9966TIP3    H254094   0.404   5.809   3.770  0.9454 -0.6699 -0.5475
 9967TIP3   OH254095   3.344   2.736   1.235  0.5811  0.0541 -0.0368
 9967TIP3    H154096   3.384   2.811   1.192 -0.9654  1.5118  0.9688
 9967TIP3    H254097   3.278   2.704   1.173 -1.3041  1.8479  0.9452
 9968TIP3   OH254098   4.093   6.473   1.671 -0.7951  0.5368 -0.0710
 9968TIP3    H154099   4.105   6.505   1.581 -1.6791  0.4619 -0.2242
 9968TIP3    H254100   4.045   6.542   1.715 -0.3694  0.5679  0.3507
 9969TIP3   OH254101   1.452   2.784   3.743  0.4704 -0.1047  0.5219
 9969TIP3    H154102   1.445   2.690   3.761  0.1003  0.0990  1.4951
 9969TIP3    H254103   1.368   2.808   3.704 -0.0084  0.0926  1.6267
 9970TIP3   OH254104   4.827   2.270   1.274  0.0891  0.3266  0.1029
 9970TIP3    H154105   4.853   2.186   1.235  0.7414  0.8890 -0.6928
 9970TIP3    H254106   4.820   2.330   1.200 -0.4970  0.9500  0.6524
 9971TIP3   OH254107   5.074   5.177   1.107 -0.0889 -0.0766 -0.1134
 9971TIP3    H154108   5.164   5.187   1.139  0.1910 -0.0987 -0.8877
 9971TIP3    H254109   5.035   5.114   1.168  1.1743 -2.0630 -1.2263
 9972TIP3   OH254110   5.645   1.059   1.385 -0.0395 -0.0457 -0.4318
 9972TIP3    H154111   5.634   1.113   1.307 -2.2729  1.0500  0.5618
 9972TIP3    H254112   5.672   0.974   1.352  0.1953  0.7062 -2.2893
 9973TIP3   OH254113   3.609   1.290   2.733 -0.2037 -0.4817  0.3518
 9973TIP3    H154114   3.614   1.319   2.824  1.1131  0.8077 -0.0891
 9973TIP3    H254115   3.543   1.220   2.734 -1.2875  0.4734  2.0257
 9974TIP3   OH254116   6.442   2.299   4.131 -0.5934  0.5368  0.1166
 9974TIP3    H154117   6.495   2.361   4.081 -0.4929  1.3008  1.1285
 9974TIP3    H254118   6.361   2.346   4.148 -1.5868 -0.5739 -1.2996
 9975TIP3   OH254119   3.880   1.734   0.557  0.9079  0.6560  0.2695
 9975TIP3    H154120   3.786   1.749   0.554  0.6414  0.2150  3.3497
 9975TIP3    H254121   3.917   1.821   0.576  1.0705  0.6490  0.0006
 9976TIP3   OH254122   4.334   2.120   1.595  0.8365 -0.4413  0.4486
 9976TIP3    H154123   4.399   2.132   1.525 -0.4792 -1.4570 -1.0240
 9976TIP3    H254124   4.285   2.042   1.570  0.6936 -1.2097  2.8732
 9977TIP3   OH254125   4.865   2.926   1.656  0.2158 -0.0257 -0.0578
 9977TIP3    H154126   4.920   2.868   1.709 -0.0043 -0.9624 -0.8083
 9977TIP3    H254127   4.844   2.999   1.714  2.8627  0.7736  0.0034
 9978TIP3   OH254128   1.082   2.776   1.479 -0.4715  0.2810  0.3215
 9978TIP3    H154129   1.125   2.861   1.478 -0.9965  0.5473  0.2233
 9978TIP3    H254130   0.997   2.791   1.436  0.0310 -0.6133 -1.0444
 9979TIP3   OH254131   4.261   2.185   2.128  0.4679 -0.4597 -0.0224
 9979TIP3    H154132   4.219   2.260   2.085  0.8441  0.0227  0.4468
 9979TIP3    H254133   4.188   2.126   2.147  0.0204  0.2557  0.5489
 9980TIP3   OH254134   2.653   6.216   1.739 -0.4202 -0.4542 -0.4478
 9980TIP3    H154135   2.647   6.310   1.726  0.2076 -0.6511 -2.6971
 9980TIP3    H254136   2.747   6.200   1.754 -0.7583 -0.5702  1.7767
 9981TIP3   OH254137   4.227   4.395   3.697 -0.7720 -0.1291  0.0022
 9981TIP3    H154138   4.274   4.311   3.701 -0.6374 -0.0365  0.3820
 9981TIP3    H254139   4.197   4.410   3.787 -0.4575  0.4239  0.0169
 9982TIP3   OH254140   2.477   3.310   3.026  0.3321 -0.3720  0.1096
 9982TIP3    H154141   2.421   3.323   2.949 -1.9235  1.4328  1.8991
 9982TIP3    H254142   2.429   3.248   3.081  0.3036  0.7327  1.4087
 9983TIP3   OH254143   3.138   2.342   3.074  0.6825  0.4531  0.2898
 9983TIP3    H154144   3.069   2.281   3.099  1.6405  0.2067  2.6057
 9983TIP3    H254145   3.092   2.424   3.055 -0.4436 -0.4239 -0.9056
 9984TIP3   OH254146   2.452   6.557   3.365 -0.3807  0.3791 -0.0442
 9984TIP3    H154147   2.492   6.535   3.449 -1.9903 -2.4446  0.1091
 9984TIP3    H254148   2.521   6.602   3.316  2.0920 -1.8728  1.1672
 9985TIP3   OH254149   4.906   5.439   1.073 -0.3318  0.1672  0.4810
 9985TIP3    H154150   4.874   5.372   1.133 -0.5348 -0.9844 -0.8785
 9985TIP3    H254151   4.941   5.391   0.999  1.2391  1.5181  0.2863
 9986TIP3   OH254152   5.546   2.654   3.804 -0.2126  0.2982 -0.5393
 9986TIP3    H154153   5.574   2.595   3.735 -0.5350 -0.3797 -0.1007
 9986TIP3    H254154   5.627   2.686   3.844 -0.0394 -0.4241 -0.3000
 9987TIP3   OH254155   2.090   6.401   0.644 -0.6555  0.4594 -0.1633
 9987TIP3    H154156   2.099   6.317   0.599  1.5835  1.4970 -1.8600
 9987TIP3    H254157   2.115   6.383   0.735 -1.6104 -0.9632 -0.1635
 9988TIP3   OH254158   1.528   3.292   3.296 -0.6140 -0.4355  0.2214
 9988TIP3    H154159   1.458   3.346   3.334  0.8750  2.2343 -0.5964
 9988TIP3    H254160   1.557   3.238   3.369  1.3321  3.6572  2.8899
 9989TIP3   OH254161   5.750   0.063   3.307  0.2684 -0.5290  0.2945
 9989TIP3    H154162   5.750   0.121   3.382  0.6151 -0.8913  0.5794
 9989TIP3    H254163   5.661   0.028   3.303 -0.1190  0.4922 -0.2526
 9990TIP3   OH254164   0.008   4.663   1.476 -0.1616 -0.1378  0.4944
 9990TIP3    H154165  -0.083   4.668   1.504 -0.6210 -2.7776 -0.2307
 9990TIP3    H254166   0.014   4.580   1.428  2.7531 -0.3943  1.0730
 9991TIP3   OH254167   0.853   5.043   3.648  0.0836 -0.2942 -0.4764
 9991TIP3    H154168   0.765   5.071   3.673 -0.3304 -2.0566  0.1302
 9991TIP3    H254169   0.841   4.959   3.604  1.5998 -1.7385  1.6613
 9992TIP3   OH254170   0.080   5.247   3.015 -0.4983 -0.5391 -0.0676
 9992TIP3    H154171   0.144   5.209   3.076 -1.8203 -0.4197  1.4430
 9992TIP3    H254172   0.010   5.182   3.010 -1.5276  0.5037  0.4488
 9993TIP3   OH254173   5.396   0.701   1.873 -0.3097  0.1246  0.5257
 9993TIP3    H154174   5.317   0.745   1.906 -0.8134 -0.1192 -0.3267
 9993TIP3    H254175   5.451   0.773   1.842 -1.0137  0.1889 -0.6143
 9994TIP3   OH254176   4.087   3.627   3.594 -0.2435  0.1128 -0.5354
 9994TIP3    H154177   4.167   3.657   3.552 -1.0327  0.6459 -1.7138
 9994TIP3    H254178   4.082   3.533   3.574  0.8466 -0.2695  0.8551
 9995TIP3   OH254179   1.382   6.331   3.006  0.2575  0.2158  0.0598
 9995TIP3    H154180   1.336   6.410   2.978  0.6231  0.7549  0.9269
 9995TIP3    H254181   1.400   6.283   2.925 -1.8222 -0.0258 -0.2905
 9996TIP3   OH254182   0.253   6.327   1.484 -0.2618 -0.0786  0.0097
 9996TIP3    H154183   0.296   6.328   1.398  0.0122 -0.4532  0.1346
 9996TIP3    H254184   0.236   6.418   1.504 -0.2973  0.0126 -0.4315
 9997TIP3   OH254185   0.038   2.569   3.753  0.7052 -0.0431  0.2951
 9997TIP3    H154186  -0.022   2.615   3.812 -0.8421 -0.9933 -0.4616
 9997TIP3    H254187   0.110   2.631   3.739 -0.9823  1.9163 -0.1790
 9998TIP3   OH254188   6.519   2.213   2.674  0.0806  0.4979  0.0543
 9998TIP3    H154189   6.523   2.253   2.761  1.1194  1.9630 -0.6246
 9998TIP3    H254190   6.450   2.262   2.629  1.9674  2.2808 -1.0811
 9999TIP3   OH254191   3.861   4.127   1.837  0.0421 -0.1804  0.1727
 9999TIP3    H154192   3.857   4.213   1.796 -1.3811 -0.5889 -0.5958
 9999TIP3    H254193   3.809   4.136   1.917 -0.3997 -0.4250 -0.0891
10000TIP3   OH254194   0.409   3.708   3.751 -0.0786 -0.0893 -0.0962
10000TIP3    H154195   0.365   3.664   3.678  0.2743 -2.0800  0.8480
10000TIP3    H254196   0.409   3.801   3.725 -0.3325 -0.6627 -2.4237
10001TIP3   OH254197   0.577   3.679   2.332  0.3099  0.0331  0.5448
10001TIP3    H154198   0.549   3.617   2.266 -1.2086  1.1787  0.0432
10001TIP3    H254199   0.663   3.709   2.303  0.0957 -0.2201 -0.3656
10002TIP3   OH254200   5.026   2.624   1.556  0.2920 -0.5263  0.1119
10002TIP3    H154201   5.032   2.530   1.576  2.5322 -1.0406 -2.3734
10002TIP3    H254202   5.088   2.665   1.617 -0.9138 -0.5593  1.4109
10003TIP3   OH254203   3.826   1.348   0.855 -0.5043 -0.0213  0.0228
10003TIP3    H154204   3.885   1.422   0.839 -1.7264  0.8340 -0.6365
10003TIP3    H254205   3.775   1.374   0.931 -1.3646  0.1001 -0.5840
10004TIP3   OH254206   1.786   1.360   1.949  0.3272 -0.5535  0.3467
10004TIP3    H154207   1.763   1.450   1.974  0.3209 -0.7564  1.0813
10004TIP3    H254208   1.798   1.364   1.854 -0.9915 -0.0622  0.1787
10005TIP3   OH254209   3.585   2.109   0.618 -0.3140  0.1040  0.6152
10005TIP3    H154210   3.582   2.124   0.713 -3.5982 -1.6612  0.9199
10005TIP3    H254211   3.498   2.134   0.587 -0.0732 -1.5195 -1.5444
10006TIP3   OH254212   5.766   1.268   3.643  0.0081 -0.0245 -0.1387
10006TIP3    H154213   5.762   1.357   3.679  0.0908 -0.1813  0.2684
10006TIP3    H254214   5.682   1.256   3.598 -0.8227 -0.4157  1.4440
10007TIP3   OH254215   1.596   0.861   1.371 -0.0289 -0.2308  0.1868
10007TIP3    H154216   1.588   0.956   1.367  0.3204 -0.0266  2.7432
10007TIP3    H254217   1.517   0.832   1.417  0.7805 -0.9343  1.1980
10008TIP3   OH254218   4.404   2.419   3.434  0.3056  0.2760 -0.1157
10008TIP3    H154219   4.373   2.399   3.346  0.2837  0.0176 -0.0485
10008TIP3    H254220   4.331   2.463   3.477  0.1982  0.0941 -0.1135
10009TIP3   OH254221   6.280   5.678   2.314 -0.9671  0.5552 -0.3560
10009TIP3    H154222   6.300   5.627   2.236  0.3708  0.8574 -0.2360
10009TIP3    H254223   6.238   5.617   2.374  1.1703 -0.6135  0.0407
10010TIP3   OH254224   5.232   5.670   1.564 -0.3982  0.0059 -0.2249
10010TIP3    H154225   5.323   5.663   1.537 -0.4471 -0.5789 -0.2586
10010TIP3    H254226   5.235   5.671   1.660 -0.3657 -0.2247 -0.2225
10011TIP3   OH254227   5.918   2.515   2.300 -0.3524 -0.2057  0.0361
10011TIP3    H154228   5.887   2.559   2.379 -1.3772 -1.2679  0.2571
10011TIP3    H254229   5.992   2.567   2.270 -1.2971  1.4415  0.4885
10012TIP3   OH254230   5.138   3.948   4.053  0.2726 -0.1834  0.5569
10012TIP3    H154231   5.149   4.039   4.081 -1.1532  0.6277 -1.2424
10012TIP3    H254232   5.150   3.896   4.133  3.1114  1.3755  1.2597
10013TIP3   OH254233   0.140   3.045   0.760  0.4153  0.0013  0.1070
10013TIP3    H154234   0.093   2.964   0.779 -0.3004 -0.2752 -2.4882
10013TIP3    H254235   0.233   3.019   0.761  0.1909 -0.9251 -0.8307
10014TIP3   OH254236   1.781   5.801   1.761  0.5106  0.1493 -0.1852
10014TIP3    H154237   1.835   5.843   1.828  2.0483 -2.0671  0.0518
10014TIP3    H254238   1.833   5.727   1.730 -1.3030 -0.4981 -1.9065
10015TIP3   OH254239   0.998   2.964   0.537  0.2103  0.8235 -0.0435
10015TIP3    H154240   0.919   2.979   0.588  1.3409  0.2815  1.9762
10015TIP3    H254241   1.030   3.051   0.514 -1.4884  1.0440 -1.8351
10016TIP3   OH254242   2.472   1.137   1.032  0.0194 -0.4630  0.0626
10016TIP3    H154243   2.533   1.063   1.026  0.6391 -0.0935  1.3451
10016TIP3    H254244   2.528   1.214   1.029 -0.4896 -0.0836  0.2300
10017TIP3   OH254245   6.014   6.622   1.930  0.4857  0.0207 -0.6226
10017TIP3    H154246   6.051   6.548   1.882  1.5763  0.1044  0.0649
10017TIP3    H254247   5.988   6.584   2.015  0.4209  0.2829 -0.5239
10018TIP3   OH254248   0.086   0.071   0.672  0.2250 -0.0568  0.1308
10018TIP3    H154249   0.089  -0.001   0.735  0.4459 -0.0549  0.1220
10018TIP3    H254250   0.163   0.059   0.618  1.1765  1.1237  1.1608
10019TIP3   OH254251   2.009   2.022   1.253  0.3262  0.6792  0.6367
10019TIP3    H154252   2.056   1.944   1.224 -0.5865 -0.1099  1.2100
10019TIP3    H254253   1.982   2.066   1.172  0.1294 -0.0534  0.3029
10020TIP3   OH254254   0.878   2.501   2.183 -0.2804  0.2651  0.6493
10020TIP3    H154255   0.833   2.500   2.098  0.3138 -1.1798  0.3226
10020TIP3    H254256   0.907   2.592   2.193 -1.9219  0.8863  0.1698
10021TIP3   OH254257   4.292   6.141   1.364  0.2116 -0.6959  0.4360
10021TIP3    H154258   4.216   6.088   1.389  1.8774 -2.9491  1.0990
10021TIP3    H254259   4.263   6.231   1.374 -2.3390 -1.4722  0.7121
10022TIP3   OH254260   5.265   6.405   0.443 -0.6290 -0.2069 -0.0266
10022TIP3    H154261   5.287   6.312   0.442 -2.7236 -0.7484 -0.7264
10022TIP3    H254262   5.262   6.428   0.536  2.2533 -0.1488  0.1497
10023TIP3   OH254263   6.322   1.105   1.891 -0.1332 -0.3907 -0.0930
10023TIP3    H154264   6.229   1.086   1.904 -0.0145  0.0812  1.7689
10023TIP3    H254265   6.342   1.172   1.957  0.9798  1.3399 -2.0410
10024TIP3   OH254266   1.770   2.294   3.932 -0.2612  0.7634 -0.0207
10024TIP3    H154267   1.703   2.361   3.948 -0.2265  1.3740 -2.1500
10024TIP3    H254268   1.722   2.211   3.937 -0.5336  0.9896  1.5138
10025TIP3   OH254269   3.483   1.354   3.235 -0.2342  0.5195  0.1110
10025TIP3    H154270   3.479   1.290   3.306  1.8701 -0.9001 -0.9761
10025TIP3    H254271   3.392   1.377   3.219 -1.0864 -2.1888  0.5641
10026TIP3   OH254272   4.424   5.438   2.005 -0.6048 -0.1212 -0.1478
10026TIP3    H154273   4.403   5.518   1.956 -1.3745 -0.7482 -0.8862
10026TIP3    H254274   4.490   5.465   2.069  0.3273  0.7617 -1.4381
10027TIP3   OH254275   4.494   3.095   0.857  0.1026  0.0280  0.2960
10027TIP3    H154276   4.563   3.029   0.853 -0.8020 -0.9032 -0.1646
10027TIP3    H254277   4.413   3.047   0.840 -0.7041  1.0481  1.1185
10028TIP3   OH254278   1.610   5.926   1.456 -0.0180  0.3575 -0.0558
10028TIP3    H154279   1.607   5.966   1.544 -0.9588  0.0396  0.0679
10028TIP3    H254280   1.691   5.959   1.418  0.7244  0.0160  1.1671
10029TIP3   OH254281   0.968   1.726   1.537 -0.4236 -0.2017  0.2377
10029TIP3    H154282   1.001   1.753   1.623  2.5285 -0.4429 -0.7205
10029TIP3    H254283   0.881   1.689   1.556 -0.1410  0.2968  3.0103
10030TIP3   OH254284   1.220   4.074   4.989  0.1813  0.3103  0.7094
10030TIP3    H154285   1.300   4.046   5.034  0.9687  1.3345 -0.0095
10030TIP3    H254286   1.151   4.023   5.031  1.2677 -1.0637  0.9384
10031TIP3   OH254287   0.894   0.421   1.354  0.5109  0.2995  0.0089
10031TIP3    H154288   0.817   0.398   1.407  0.9773  1.0395  1.0321
10031TIP3    H254289   0.910   0.513   1.374  0.9152  0.5088 -1.1781
10032TIP3   OH254290   0.235   4.038   0.939  0.6056  0.5633  0.2302
10032TIP3    H154291   0.217   3.950   0.972 -0.9782  0.7225 -0.1405
10032TIP3    H254292   0.149   4.081   0.937  0.8574  1.0982 -2.5387
10033TIP3   OH254293   5.366   4.091   1.213 -0.8147 -0.4664 -0.0617
10033TIP3    H154294   5.379   4.019   1.152  0.2172 -0.8565  0.5897
10033TIP3    H254295   5.392   4.055   1.298  0.7854  0.9564  0.1163
10034TIP3   OH254296   2.301   3.336   2.810 -0.2758 -0.4494 -0.3665
10034TIP3    H154297   2.278   3.429   2.819  2.1176  0.1804 -0.1331
10034TIP3    H254298   2.302   3.321   2.715 -1.8873 -0.6206 -0.3895
10035TIP3   OH254299   2.795   1.471   0.865  0.2980 -0.0779  0.3937
10035TIP3    H154300   2.790   1.567   0.858  1.4865 -0.0981 -1.4950
10035TIP3    H254301   2.704   1.443   0.869 -0.1737  1.0395 -1.3378
10036TIP3   OH254302   3.381   4.310   3.771 -0.2121 -0.2910 -0.8343
10036TIP3    H154303   3.364   4.374   3.841 -0.4315  0.0005 -1.1497
10036TIP3    H254304   3.466   4.335   3.736  0.4920 -1.2159  0.1648
10037TIP3   OH254305   2.142   4.336   0.997  0.2389  0.3791 -0.2684
10037TIP3    H154306   2.083   4.341   1.073 -0.3002 -0.1069 -0.6452
10037TIP3    H254307   2.227   4.364   1.031  0.0611 -0.0631  0.5834
10038TIP3   OH254308   0.869   3.603   2.664  0.0512 -0.2661 -0.5045
10038TIP3    H154309   0.965   3.607   2.662  0.1269 -0.0039  1.4513
10038TIP3    H254310   0.841   3.687   2.627  0.5875 -0.0813 -0.4940
10039TIP3   OH254311   4.515   6.574   3.747  0.0583 -0.3688  0.5749
10039TIP3    H154312   4.587   6.622   3.706 -0.2415  0.0313  0.5103
10039TIP3    H254313   4.545   6.483   3.749 -0.8888 -0.8866 -2.8259
10040TIP3   OH254314   4.533   3.376   1.255 -0.4503 -0.1247  0.4545
10040TIP3    H154315   4.628   3.367   1.248 -0.3738  0.9346 -0.0750
10040TIP3    H254316   4.519   3.413   1.343 -0.3494 -0.0309  0.4315
10041TIP3   OH254317   6.292   4.731   2.930  0.5730 -0.0830  0.0508
10041TIP3    H154318   6.224   4.798   2.931 -1.9628 -2.4710 -0.6251
10041TIP3    H254319   6.356   4.764   2.867 -0.8977  1.3899 -0.7590
10042TIP3   OH254320   3.997   5.481   1.013 -0.0491  0.1139  0.0316
10042TIP3    H154321   4.009   5.389   0.986 -0.2802 -0.1480  0.8161
10042TIP3    H254322   4.019   5.482   1.106  1.6830  1.2026 -0.3441
10043TIP3   OH254323   1.189   6.109   3.003 -0.1886  0.8735  0.4874
10043TIP3    H154324   1.133   6.097   3.079 -1.0708  1.6794 -0.0111
10043TIP3    H254325   1.242   6.186   3.024  0.8818  0.0071  1.0323
10044TIP3   OH254326   0.218   4.089   1.345  0.0556  0.0431  0.0874
10044TIP3    H154327   0.165   4.046   1.278  0.1303 -0.1632  0.1594
10044TIP3    H254328   0.238   4.019   1.407 -2.0733  0.7083  1.6467
10045TIP3   OH254329   6.515   6.121   1.239 -0.2638 -0.1270  0.3896
10045TIP3    H154330   6.576   6.156   1.303  0.9577 -0.8487 -0.3415
10045TIP3    H254331   6.514   6.185   1.168 -0.4301 -0.0794  0.4334
10046TIP3   OH254332   2.270   4.116   2.135 -0.3021 -0.6312  0.6493
10046TIP3    H154333   2.284   4.030   2.096 -0.1198 -0.7523  0.9836
10046TIP3    H254334   2.302   4.178   2.069  1.4147 -0.8800  1.2122
10047TIP3   OH254335   6.577   3.713   2.361  0.7819 -0.3271  0.1575
10047TIP3    H154336   6.653   3.765   2.334  1.0621 -0.7335  0.1561
10047TIP3    H254337   6.507   3.777   2.370  0.5060 -0.2200 -2.1092
10048TIP3   OH254338   3.371   6.446   1.364 -0.1716  0.2096 -0.3480
10048TIP3    H154339   3.409   6.369   1.323  1.3407 -0.2528  1.7447
10048TIP3    H254340   3.404   6.520   1.312  0.8982 -0.3901 -0.5541
10049TIP3   OH254341   1.283   5.993   2.140  0.0460  0.2210  0.3597
10049TIP3    H154342   1.234   6.068   2.107 -1.5221 -0.7737  0.2863
10049TIP3    H254343   1.217   5.923   2.146  1.2573 -0.8848  1.2793
10050TIP3   OH254344   2.350   2.766   0.726  0.2066 -0.0570  0.3064
10050TIP3    H154345   2.432   2.725   0.752 -0.4140 -0.7164  1.2493
10050TIP3    H254346   2.305   2.700   0.673  1.0703  0.9568 -1.8440
10051TIP3   OH254347   5.932   5.811   2.888 -0.6389 -0.0915 -0.0304
10051TIP3    H154348   5.955   5.818   2.980 -1.7890  3.8211  0.1352
10051TIP3    H254349   6.014   5.827   2.841 -0.3507 -0.5686  0.2976
10052TIP3   OH254350   0.869   4.461   5.649  0.1591  0.2632 -0.5136
10052TIP3    H154351   0.831   4.396   5.590  1.2437 -0.2044 -0.7148
10052TIP3    H254352   0.897   4.411   5.725  1.7871  0.3152 -1.0293
10053TIP3   OH254353   6.188   3.726   3.880  0.3228 -0.2338  0.0124
10053TIP3    H154354   6.210   3.755   3.968 -1.7828 -0.6916  0.7621
10053TIP3    H254355   6.233   3.642   3.870  1.8329  0.5539  0.0150
10054TIP3   OH254356   2.204   0.456   3.808  0.1086  0.0832  0.1954
10054TIP3    H154357   2.134   0.391   3.800 -0.4632  0.5455  1.2992
10054TIP3    H254358   2.273   0.424   3.749  0.0819 -1.8413  1.1260
10055TIP3   OH254359   1.467   4.850   5.097  0.3823  0.3788 -0.6362
10055TIP3    H154360   1.463   4.782   5.165 -0.0838  1.1432  0.1185
10055TIP3    H254361   1.550   4.834   5.052  0.7674 -0.0585  0.2013
10056TIP3   OH254362   5.280   6.523   1.153 -0.2629 -0.1089  0.0452
10056TIP3    H154363   5.281   6.576   1.073 -0.5523 -0.0501  0.0780
10056TIP3    H254364   5.195   6.543   1.193  0.1913  0.4459  0.7581
10057TIP3   OH254365   3.219   6.368   1.957  0.4593 -0.3499 -0.3477
10057TIP3    H154366   3.310   6.345   1.940  0.3315 -1.5451  0.4842
10057TIP3    H254367   3.223   6.441   2.018  0.8738  1.9694 -2.9264
10058TIP3   OH254368   1.720   5.876   2.192  0.3302  0.2053 -0.4976
10058TIP3    H154369   1.642   5.904   2.143 -0.0348 -0.1714 -0.1427
10058TIP3    H254370   1.787   5.940   2.169  0.1101  0.1512 -1.3300
10059TIP3   OH254371   3.783   2.349   1.439 -0.5101  0.2161  0.5413
10059TIP3    H154372   3.727   2.336   1.363 -0.1197  0.3237  0.2313
10059TIP3    H254373   3.748   2.427   1.482 -0.6238  0.2569  0.3728
10060TIP3   OH254374   3.567   0.248   1.733  0.0729 -0.4102  0.3709
10060TIP3    H154375   3.620   0.268   1.810 -0.2966 -0.9855  0.7887
10060TIP3    H254376   3.481   0.226   1.768 -0.2872 -0.0400 -0.2597
10061TIP3   OH254377   4.166   2.299   1.308 -0.5570 -0.2497 -0.0486
10061TIP3    H154378   4.129   2.387   1.304  1.2524  0.5592 -0.1866
10061TIP3    H254379   4.258   2.313   1.333  0.3242 -1.9172 -2.0724
10062TIP3   OH254380   4.845   0.363   0.889 -0.7847 -0.0498  0.2368
10062TIP3    H154381   4.765   0.408   0.863 -1.4686 -1.0863  0.4705
10062TIP3    H254382   4.818   0.305   0.961  0.1462 -0.4977  0.2440
10063TIP3   OH254383   1.370   3.390   3.037 -0.2942  0.4614  0.4251
10063TIP3    H154384   1.344   3.304   3.070 -0.1519  0.6104  0.9321
10063TIP3    H254385   1.292   3.424   2.995  0.2984 -0.9795 -2.1018
10064TIP3   OH254386   1.908   1.384   0.989  0.2979  0.4102  0.2707
10064TIP3    H154387   1.814   1.402   0.996 -0.0512  0.0975 -2.4241
10064TIP3    H254388   1.922   1.368   0.896  3.0552  0.4541  0.6022
10065TIP3   OH254389   6.692   6.670   2.623  0.2744 -0.1825  0.3692
10065TIP3    H154390   6.677   6.627   2.539 -2.0079  0.8902  0.1627
10065TIP3    H254391   6.605   6.698   2.652  0.9596 -0.5607  3.1371
10066TIP3   OH254392   5.581   2.189   3.356  0.7369 -0.1731  0.2604
10066TIP3    H154393   5.601   2.116   3.413  0.7170  0.0502  0.5524
10066TIP3    H254394   5.663   2.239   3.350  0.4411  0.4202  0.9945
10067TIP3   OH254395   1.323   5.345   3.061  0.1580 -0.6807 -0.0122
10067TIP3    H154396   1.235   5.382   3.073 -0.0612 -1.2043  0.0136
10067TIP3    H254397   1.358   5.336   3.150 -0.5774 -2.4119  0.1438
10068TIP3   OH254398   1.377   5.743   1.155  0.1264  0.1341  0.4204
10068TIP3    H154399   1.368   5.775   1.065 -0.8850  0.6647  0.6947
10068TIP3    H254400   1.293   5.700   1.174  0.0526  0.6567  1.3474
10069TIP3   OH254401   4.647   5.579   2.197  0.0680  0.0665  0.2323
10069TIP3    H154402   4.670   5.575   2.104 -1.6025  1.8869 -0.3262
10069TIP3    H254403   4.681   5.664   2.226  1.2581 -0.8060  1.5405
10070TIP3   OH254404   4.085   1.358   2.517 -0.0499  0.2287  0.3745
10070TIP3    H154405   4.103   1.443   2.558  1.1378  0.0444  0.2832
10070TIP3    H254406   4.169   1.334   2.477 -0.7002 -0.4322 -0.6155
10071TIP3   OH254407   1.573   0.439   2.866 -0.1790  0.1619 -0.6636
10071TIP3    H154408   1.651   0.386   2.850 -0.4405  0.4674 -3.2713
10071TIP3    H254409   1.585   0.517   2.811 -1.2547  1.3471  0.6926
10072TIP3   OH254410   2.659   6.319   2.903 -0.2620  0.1777 -0.1750
10072TIP3    H154411   2.622   6.347   2.819 -0.7651  1.0976  0.3329
10072TIP3    H254412   2.738   6.270   2.880 -0.5130  0.2271 -1.1896
10073TIP3   OH254413   2.222   1.073   2.719  0.7504  0.3679 -0.2143
10073TIP3    H154414   2.164   1.064   2.795 -0.7012  1.1475 -1.1785
10073TIP3    H254415   2.289   1.135   2.747 -0.9202  2.2557 -0.1784
10074TIP3   OH254416   4.183   2.707   1.632 -0.0957  0.3408 -0.0782
10074TIP3    H154417   4.191   2.612   1.624  0.1602  0.4810 -2.2142
10074TIP3    H254418   4.103   2.720   1.682 -1.0721 -1.0113 -1.1986
10075TIP3   OH254419   1.909   4.442   2.203 -0.6504  0.0779 -0.1544
10075TIP3    H154420   1.923   4.408   2.292 -1.3758 -0.1392 -0.1199
10075TIP3    H254421   1.997   4.445   2.165 -0.4392 -0.7196  0.2457
10076TIP3   OH254422   1.649   4.717   3.671 -0.1665  0.2090  0.0402
10076TIP3    H154423   1.732   4.686   3.707 -0.5429  0.1807  0.9073
10076TIP3    H254424   1.615   4.775   3.738 -1.4199 -0.7148  0.2378
10077TIP3   OH254425   6.495   4.303   2.423  0.1362 -0.1314  0.3170
10077TIP3    H154426   6.510   4.247   2.498 -1.2764 -1.5513 -0.4024
10077TIP3    H254427   6.400   4.320   2.424  0.1712  0.2316 -0.8600
10078TIP3   OH254428   2.898   2.891   4.311 -0.2785  0.1950 -0.0049
10078TIP3    H154429   2.914   2.930   4.225  1.5351  0.9821  0.6334
10078TIP3    H254430   2.985   2.883   4.350 -0.9739 -1.0620  1.3785
10079TIP3   OH254431   3.106   3.749   3.836 -0.0271 -0.4626  0.0935
10079TIP3    H154432   3.085   3.730   3.927 -1.5665  0.9451  0.0850
10079TIP3    H254433   3.049   3.692   3.785 -2.6554  1.9273  0.0806
10080TIP3   OH254434   5.673   3.065   2.571  0.0695 -0.6918  0.3870
10080TIP3    H154435   5.738   3.008   2.611 -0.2615 -1.7041 -0.4437
10080TIP3    H254436   5.591   3.042   2.615  0.2849  0.7109  1.5621
10081TIP3   OH254437   2.166   4.297   3.345 -0.3091 -0.2725 -0.4978
10081TIP3    H154438   2.254   4.290   3.380 -0.4696  1.1497  0.2939
10081TIP3    H254439   2.118   4.348   3.410 -2.5617 -3.4542  0.5626
10082TIP3   OH254440   4.450   4.743   1.838  0.4458 -0.9069 -0.0005
10082TIP3    H154441   4.394   4.757   1.761  2.3835  0.9332 -1.1783
10082TIP3    H254442   4.427   4.655   1.868 -2.1345 -0.7349 -1.1565
10083TIP3   OH254443   2.374   3.652   2.086 -0.3309 -0.5621 -0.0679
10083TIP3    H154444   2.294   3.696   2.055  1.0207 -0.0161 -3.1975
10083TIP3    H254445   2.398   3.699   2.165 -2.6163 -0.1933  0.4946
10084TIP3   OH254446   6.215   3.885   4.501  0.6237 -0.0277  0.1530
10084TIP3    H154447   6.162   3.907   4.424  2.1761  1.3050 -0.5942
10084TIP3    H254448   6.231   3.791   4.492  0.7043  0.0782 -1.1293
10085TIP3   OH254449   2.179   0.244   3.544 -0.6061  0.2591  0.1286
10085TIP3    H154450   2.268   0.242   3.581 -1.1094 -1.3713  1.3763
10085TIP3    H254451   2.122   0.242   3.621 -1.7898  2.6935 -0.5918
10086TIP3   OH254452   1.950   4.140   1.484 -0.0236  0.3022 -0.0265
10086TIP3    H154453   1.901   4.176   1.410  1.7709  0.8815 -0.9898
10086TIP3    H254454   1.890   4.146   1.558 -1.8047 -0.1236 -1.3822
10087TIP3   OH254455   4.096   0.024   3.199  0.1396  0.2235 -0.0151
10087TIP3    H154456   4.066  -0.067   3.203 -0.6459  0.4877  0.3156
10087TIP3    H254457   4.127   0.043   3.287  1.3678 -0.0595 -0.3642
10088TIP3   OH254458   4.803   5.640   0.610 -0.2187 -0.5013  0.0441
10088TIP3    H154459   4.722   5.623   0.659 -0.6040  0.2204 -0.3221
10088TIP3    H254460   4.833   5.725   0.643  0.3014 -0.6913  0.0605
10089TIP3   OH254461   6.648   4.232   1.098 -0.2018 -0.4901 -0.3102
10089TIP3    H154462   6.679   4.146   1.126 -1.2241 -0.5056  0.8257
10089TIP3    H254463   6.554   4.222   1.089 -0.4849  0.7848  0.9113
10090TIP3   OH254464   1.297   0.828   1.738 -0.3540  0.0322  0.1091
10090TIP3    H154465   1.227   0.775   1.776  0.7595 -1.2138  0.4958
10090TIP3    H254466   1.258   0.868   1.660 -1.6154 -0.2690  0.5681
10091TIP3   OH254467   0.875   5.643   3.003  0.0135 -0.6014  0.3604
10091TIP3    H154468   0.916   5.729   2.999  0.5799 -0.8655  0.3028
10091TIP3    H254469   0.786   5.657   2.971  0.1486 -0.0657  0.2079
10092TIP3   OH254470   5.259   3.410   4.140 -0.8502  0.1911 -0.3506
10092TIP3    H154471   5.253   3.462   4.220 -0.9459 -0.7550  0.2742
10092TIP3    H254472   5.311   3.463   4.080 -1.2516  1.1539  0.1404
10093TIP3   OH254473   2.204   6.612   0.945 -0.0449 -0.3838  0.5582
10093TIP3    H154474   2.127   6.667   0.962 -0.1595 -0.3219 -0.1168
10093TIP3    H254475   2.171   6.523   0.943 -0.2283 -0.3100 -0.3702
10094TIP3   OH254476   5.801   3.949   1.139 -0.3936 -0.6959  0.3600
10094TIP3    H154477   5.871   4.002   1.177 -1.1148 -0.3007  1.1791
10094TIP3    H254478   5.783   3.990   1.055 -0.5556  0.0215  0.7376
10095TIP3   OH254479   2.419   1.958   1.576  0.0515 -0.0702 -0.2027
10095TIP3    H154480   2.503   1.957   1.531  0.4886  0.4548  0.5967
10095TIP3    H254481   2.377   1.876   1.549  0.7480 -0.2680 -0.7219
10096TIP3   OH254482   5.619   4.176   1.273 -0.3241  0.7566  0.2737
10096TIP3    H154483   5.528   4.180   1.244 -0.1176  0.7788 -0.3989
10096TIP3    H254484   5.644   4.085   1.258  0.1170  1.0257 -0.6684
10097TIP3   OH254485   5.012   1.453   2.216 -0.6588  0.4435  0.2541
10097TIP3    H154486   5.048   1.487   2.298  0.6401  1.1789 -0.5744
10097TIP3    H254487   5.014   1.358   2.225 -1.3744  0.5276  1.4071
10098TIP3   OH254488   2.553   6.417   2.667  0.2809 -0.1530  0.1428
10098TIP3    H154489   2.577   6.504   2.635  2.2363 -0.6764  0.0125
10098TIP3    H254490   2.488   6.385   2.604  0.0129  0.9628 -0.1617
10099TIP3   OH254491   3.140   2.333   2.623 -0.0623  0.0339  0.2632
10099TIP3    H154492   3.141   2.400   2.555 -0.8311 -0.3682 -0.1539
10099TIP3    H254493   3.050   2.333   2.656 -0.0202 -0.6517  0.3960
10100TIP3   OH254494   4.989   5.648   1.448 -0.1791 -0.0553 -0.1135
10100TIP3    H154495   5.078   5.660   1.481 -0.4605  0.6867  0.4007
10100TIP3    H254496   4.997   5.581   1.380  0.6051 -0.7034  0.6125
10101TIP3   OH254497   1.065   2.384   1.690 -0.0711 -0.0165 -0.1045
10101TIP3    H154498   1.041   2.348   1.775  1.8137 -3.4240 -0.8140
10101TIP3    H254499   0.990   2.365   1.633 -0.4004  0.1258  0.2839
10102TIP3   OH254500   1.210   1.044   1.982 -0.1981  0.4820 -0.0170
10102TIP3    H154501   1.160   1.052   1.900  1.2829  0.2451 -0.9915
10102TIP3    H254502   1.199   1.129   2.025 -3.0171 -0.1904  0.8077
10103TIP3   OH254503   1.866   0.716   2.240  0.0435 -0.0010  0.1466
10103TIP3    H154504   1.897   0.628   2.218  1.0299  0.3253  0.1485
10103TIP3    H254505   1.907   0.772   2.174 -0.6342  0.4521  0.1047
10104TIP3   OH254506   5.539   5.845   2.468  0.1728 -0.1499  0.1738
10104TIP3    H154507   5.624   5.875   2.498 -0.3469  0.7565  0.7881
10104TIP3    H254508   5.558   5.767   2.415  1.4446  0.5134 -0.3841
10105TIP3   OH254509   1.990   3.649   1.817  0.4298  0.8949  0.4011
10105TIP3    H154510   2.050   3.574   1.815  0.7276  1.1453 -0.5334
10105TIP3    H254511   2.010   3.694   1.899  0.6964  0.3169  0.6610
10106TIP3   OH254512   6.020   0.779   2.631 -0.0480  0.9143 -0.0210
10106TIP3    H154513   6.106   0.748   2.601 -0.2469  0.4817 -0.1456
10106TIP3    H254514   6.017   0.753   2.723 -0.8390 -0.8398 -0.5007
10107TIP3   OH254515   0.798   6.303   1.788  0.0436 -0.4713 -0.5457
10107TIP3    H154516   0.761   6.268   1.707  1.7903 -1.6629 -0.8814
10107TIP3    H254517   0.833   6.389   1.763 -1.1046  0.0270 -0.5537
10108TIP3   OH254518   6.363   5.922   1.115  0.5694  0.2554 -0.0510
10108TIP3    H154519   6.285   5.973   1.094  0.6584  0.9791  1.2414
10108TIP3    H254520   6.425   5.986   1.150  1.6158 -0.3697 -0.6979
10109TIP3   OH254521   5.268   0.077   0.442  0.6834  0.0956  0.0894
10109TIP3    H154522   5.273   0.171   0.456  0.7179  0.0535  0.3721
10109TIP3    H254523   5.196   0.048   0.497  1.4653 -0.2196  0.9797
10110TIP3   OH254524   0.957   3.045   3.851  0.5334 -0.3649 -0.1183
10110TIP3    H154525   0.958   3.117   3.914  3.1056 -0.8553  0.5203
10110TIP3    H254526   0.932   3.086   3.768  2.1764  1.3530  0.1784
10111TIP3   OH254527   5.028   5.509   0.466 -0.7205 -0.3440 -0.3822
10111TIP3    H154528   5.029   5.415   0.483  1.0512 -0.2238  0.3260
10111TIP3    H254529   4.954   5.542   0.518 -0.7386 -1.1948  0.1550
10112TIP3   OH254530   4.562   6.026   1.995 -0.4024 -0.2835 -0.3141
10112TIP3    H154531   4.624   5.955   1.977 -1.1986 -1.2648  0.6785
10112TIP3    H254532   4.610   6.106   1.972  1.1667 -1.0256  0.2538
10113TIP3   OH254533   4.722   3.386   3.858  0.0811  0.0798  0.2115
10113TIP3    H154534   4.801   3.412   3.812 -0.0646  0.8405  0.3837
10113TIP3    H254535   4.740   3.403   3.950  0.5598 -1.9107  0.5361
10114TIP3   OH254536   5.228   1.283   1.987  0.5408  0.1474  0.3690
10114TIP3    H154537   5.216   1.220   1.917  1.6688  1.4541 -1.0767
10114TIP3    H254538   5.172   1.251   2.058  1.5731 -2.8213 -0.0050
10115TIP3   OH254539   0.055   1.460   1.770 -0.4775  0.6750  0.8595
10115TIP3    H154540   0.038   1.516   1.846  1.1521  0.8967  1.1110
10115TIP3    H254541   0.098   1.518   1.707  2.4113 -0.4425  1.6070
10116TIP3   OH254542   6.664   2.745   2.551  0.7693  0.3023 -0.3765
10116TIP3    H154543   6.700   2.739   2.463 -0.5797  0.4729 -0.9677
10116TIP3    H254544   6.584   2.691   2.547  0.5126  0.5940  0.6389
10117TIP3   OH254545   4.150   0.234   2.077  0.1884  0.0370 -0.3658
10117TIP3    H154546   4.057   0.238   2.098  0.2692  2.5677 -0.2099
10117TIP3    H254547   4.178   0.149   2.110 -2.2231 -1.2117 -1.2465
10118TIP3   OH254548   6.356   0.170   2.485 -0.1558  0.0908  0.0610
10118TIP3    H154549   6.327   0.191   2.397  2.5403  0.0136 -0.9516
10118TIP3    H254550   6.384   0.079   2.481  1.6725  0.5867  0.4417
10119TIP3   OH254551   6.597   4.026   3.836  0.3333 -0.2514  0.1491
10119TIP3    H154552   6.629   3.968   3.768  0.8764  0.7163 -0.4499
10119TIP3    H254553   6.562   3.968   3.903  0.1518 -1.2291 -0.7753
10120TIP3   OH254554   3.961   0.941   1.784 -0.0349  0.2063 -0.1374
10120TIP3    H154555   4.051   0.925   1.811 -0.1263 -1.7891 -0.8235
10120TIP3    H254556   3.968   0.997   1.707  0.6979 -0.6169 -0.6929
10121TIP3   OH254557   3.886   4.623   3.584 -0.6377  0.6260  0.2684
10121TIP3    H154558   3.804   4.583   3.555  0.9822 -3.1652  0.2160
10121TIP3    H254559   3.876   4.633   3.679 -1.1162  0.0066  0.2911
10122TIP3   OH254560   2.149   2.278   3.252  0.0878  0.2476  0.8693
10122TIP3    H154561   2.086   2.224   3.300 -0.9884 -0.6473 -1.4035
10122TIP3    H254562   2.206   2.214   3.208 -1.0475  0.8515 -1.6677
10123TIP3   OH254563   6.691   4.631   1.103  0.7312 -0.4259 -0.6632
10123TIP3    H154564   6.689   4.627   1.007 -0.1571  0.5659 -0.6910
10123TIP3    H254565   6.782   4.653   1.123  0.7484  0.1211 -1.3089
10124TIP3   OH254566   5.480   4.015   1.490  0.0018 -0.4235 -0.2096
10124TIP3    H154567   5.466   3.955   1.564 -1.7799 -0.0382 -0.1744
10124TIP3    H254568   5.558   3.982   1.446 -0.6758 -2.5285  0.0505
10125TIP3   OH254569   1.485   1.566   1.194  0.0336 -0.1303 -0.8219
10125TIP3    H154570   1.539   1.552   1.117 -0.9973  0.5278 -1.6894
10125TIP3    H254571   1.403   1.521   1.176  1.0155 -3.1844  1.4777
10126TIP3   OH254572   0.867   1.279   2.083 -0.8477 -0.2322 -0.1708
10126TIP3    H154573   0.911   1.240   2.008 -0.8067 -0.0010 -0.2677
10126TIP3    H254574   0.799   1.334   2.045  0.2190  1.1675 -0.0999
10127TIP3   OH254575   3.327   6.582   2.660  0.3142 -0.0172  0.0615
10127TIP3    H154576   3.409   6.578   2.708 -0.3175  2.5965  1.5317
10127TIP3    H254577   3.265   6.531   2.713 -0.1272  2.0210  1.6372
10128TIP3   OH254578   3.148   3.434   1.735  0.7363  0.0039 -0.6102
10128TIP3    H154579   3.228   3.487   1.728  0.4876  0.3157 -1.1410
10128TIP3    H254580   3.175   3.347   1.706  1.8196 -0.9353  2.6860
10129TIP3   OH254581   6.081   4.345   3.970 -0.3730  0.0880  0.4205
10129TIP3    H154582   6.075   4.261   4.015 -0.3828  0.5046  1.2068
10129TIP3    H254583   6.083   4.322   3.877 -0.2166 -0.7888  0.6321
10130TIP3   OH254584   0.951   1.534   0.983  0.0352 -0.9426 -0.1103
10130TIP3    H154585   0.910   1.449   0.998 -0.4889 -0.5604  0.7372
10130TIP3    H254586   0.878   1.595   0.972  0.3408 -0.2855  1.2148
10131TIP3   OH254587   2.465   0.951   2.764 -0.1788 -0.0025  0.3871
10131TIP3    H154588   2.389   0.932   2.710  0.3487  0.6773 -0.6051
10131TIP3    H254589   2.429   0.964   2.852 -0.9532 -1.9106  0.3992
10132TIP3   OH254590   1.823   6.124   1.376 -0.1036  0.5595  0.3124
10132TIP3    H154591   1.809   6.133   1.470  3.5886  1.1082  0.9635
10132TIP3    H254592   1.888   6.054   1.368 -0.8307  0.0740 -1.8971
10133TIP3   OH254593   3.971   5.973   2.719  0.0032 -0.4269  0.2055
10133TIP3    H154594   3.997   6.022   2.797 -0.3414 -1.1490  0.7902
10133TIP3    H254595   3.882   5.942   2.739 -0.5734  0.4048 -0.9805
10134TIP3   OH254596   3.547   5.274   2.423  0.3549  0.4138 -0.0636
10134TIP3    H154597   3.532   5.362   2.457  2.8731  0.0897  2.1959
10134TIP3    H254598   3.459   5.236   2.414 -1.0425  3.8437 -3.5464
10135TIP3   OH254599   3.562   6.346   1.213  0.4630  0.1147 -0.9944
10135TIP3    H154600   3.600   6.336   1.126  0.9265 -0.7910 -0.6982
10135TIP3    H254601   3.592   6.432   1.243  1.5216 -0.1873 -1.1449
10136TIP3   OH254602   5.255   5.823   3.353 -0.3739 -0.5089 -0.3669
10136TIP3    H154603   5.319   5.783   3.413  0.2022 -0.8218 -1.1746
10136TIP3    H254604   5.254   5.915   3.378  1.1141 -0.3062 -0.9627
10137TIP3   OH254605   4.671   6.399   2.594  0.0653  0.0901 -0.3044
10137TIP3    H154606   4.687   6.342   2.669  4.5200 -2.2688 -2.6425
10137TIP3    H254607   4.617   6.345   2.535  0.6652 -0.0155 -0.7611
10138TIP3   OH254608   4.353   6.206   2.978 -0.0936  0.3746  0.3635
10138TIP3    H154609   4.348   6.299   2.958 -0.0907  0.2457 -0.2621
10138TIP3    H254610   4.384   6.202   3.069  0.8246  0.9671  0.0826
10139TIP3   OH254611   2.312   5.729   2.522 -0.0719 -0.0969  0.4719
10139TIP3    H154612   2.310   5.798   2.456 -0.1240 -0.1287  0.4402
10139TIP3    H254613   2.293   5.649   2.474 -0.8856 -0.0161  0.6497
10140TIP3   OH254614   2.270   1.443   3.234 -0.0667 -0.8858  0.3462
10140TIP3    H154615   2.242   1.514   3.293 -0.6484 -0.6656 -0.1874
10140TIP3    H254616   2.205   1.444   3.163  1.6888  0.1340 -1.3262
10141TIP3   OH254617   4.478   3.965   0.723  0.3781  0.2889  0.4017
10141TIP3    H154618   4.530   3.892   0.689 -1.0982 -1.0401  0.8572
10141TIP3    H254619   4.514   4.042   0.679 -0.5827 -1.1317 -3.3196
10142TIP3   OH254620   0.397   1.753   3.089 -0.2974  0.6981  0.5658
10142TIP3    H154621   0.314   1.732   3.132  0.1463 -1.3968  0.5495
10142TIP3    H254622   0.380   1.737   2.996  0.2541 -0.3841  0.6282
10143TIP3   OH254623   4.077   5.913   0.436 -0.0741  0.3315  0.6357
10143TIP3    H154624   4.066   5.863   0.517  0.6167 -2.5008 -0.8857
10143TIP3    H254625   4.124   5.854   0.378 -0.0513  2.4674 -1.6736
10144TIP3   OH254626   1.022   0.004   1.862  0.2058 -0.6547  0.5061
10144TIP3    H154627   0.945   0.024   1.916 -1.5037 -1.2151 -1.6099
10144TIP3    H254628   1.028  -0.091   1.863  2.1063 -0.6086  2.1580
10145TIP3   OH254629   6.101   3.318   1.689  0.1153  0.8046 -0.5941
10145TIP3    H154630   6.101   3.388   1.623  0.3664  1.4310  0.0497
10145TIP3    H254631   6.164   3.348   1.755 -1.3616  1.0106  0.7734
10146TIP3   OH254632   5.109   3.284   1.225  0.1918 -0.0744 -0.0212
10146TIP3    H154633   5.145   3.312   1.308  2.4445 -1.6151 -0.3888
10146TIP3    H254634   5.143   3.347   1.161 -2.7094  1.9818  0.2906
10147TIP3   OH254635   1.910   1.940   1.495  0.3907  0.4147 -0.1173
10147TIP3    H154636   1.943   1.941   1.405  2.3833 -1.6716  0.4888
10147TIP3    H254637   1.986   1.964   1.548 -1.0792  2.9355  1.0304
10148TIP3   OH254638   1.652   4.282   2.106 -0.0439  0.1094 -0.9001
10148TIP3    H154639   1.721   4.345   2.125  0.0140 -0.1657 -0.1193
10148TIP3    H254640   1.698   4.207   2.069  0.0425  0.0575 -0.6934
10149TIP3   OH254641   0.467   0.457   1.077 -0.3046 -0.1115 -0.0945
10149TIP3    H154642   0.534   0.393   1.050 -0.1999 -1.0270  2.1274
10149TIP3    H254643   0.517   0.533   1.108 -0.3173 -0.2785  0.3447
10150TIP3   OH254644   6.477   4.522   2.274 -0.3177 -0.3408  0.2065
10150TIP3    H154645   6.456   4.568   2.355  1.0398 -1.7582  1.4393
10150TIP3    H254646   6.500   4.433   2.302  0.8191 -0.7066 -1.6566
10151TIP3   OH254647   2.522   3.775   1.619 -0.7793  0.1201  0.4384
10151TIP3    H154648   2.602   3.727   1.598 -0.6610  1.0627 -1.5238
10151TIP3    H254649   2.498   3.746   1.706  1.2634 -0.7865  0.7444
10152TIP3   OH254650   6.520   0.727   1.492 -0.3569  0.2632  0.7368
10152TIP3    H154651   6.522   0.790   1.564 -0.3447 -0.7100  1.6076
10152TIP3    H254652   6.603   0.740   1.447 -0.9030  1.7532  0.1078
10153TIP3   OH254653   1.201   1.290   2.977  0.0872  0.0609 -0.2215
10153TIP3    H154654   1.195   1.226   2.907 -0.3498 -1.6256  1.2982
10153TIP3    H254655   1.295   1.310   2.983  0.1919 -0.2217 -0.9093
10154TIP3   OH254656   6.161   3.646   2.329  0.3287  0.2547 -0.1518
10154TIP3    H154657   6.102   3.588   2.377 -0.4352  1.2868  0.1900
10154TIP3    H254658   6.192   3.708   2.396  0.3248  0.8686 -0.7102
10155TIP3   OH254659   1.798   6.238   2.875  0.1164 -0.5995 -0.2481
10155TIP3    H154660   1.883   6.198   2.894  0.4650 -0.1309 -0.7815
10155TIP3    H254661   1.816   6.332   2.870 -0.7929 -0.2784  1.5431
10156TIP3   OH254662   2.286   3.296   2.536 -0.0338 -0.1410  0.3150
10156TIP3    H154663   2.205   3.342   2.555  0.3454  0.0868  1.4443
10156TIP3    H254664   2.326   3.347   2.465 -1.6880 -1.2620 -1.5106
10157TIP3   OH254665   4.505   0.879   2.182 -0.0673  0.1135 -0.6610
10157TIP3    H154666   4.487   0.963   2.225 -0.6833 -1.5310  2.5252
10157TIP3    H254667   4.430   0.824   2.204  1.3388 -1.9784 -0.7989
10158TIP3   OH254668   0.410   6.045   2.727  0.1528 -0.7941  0.3704
10158TIP3    H154669   0.367   6.099   2.660  0.8150  1.2183  1.4695
10158TIP3    H254670   0.500   6.036   2.696  0.8504  1.3254  1.5267
10159TIP3   OH254671   2.783   0.074   3.028 -0.1028  0.2700  0.2814
10159TIP3    H154672   2.717   0.040   3.089 -0.1589 -1.3173 -0.6070
10159TIP3    H254673   2.762   0.033   2.944 -0.5264  3.0166 -1.0713
10160TIP3   OH254674   0.338   1.400   2.290  0.0333  0.4415 -0.6347
10160TIP3    H154675   0.392   1.447   2.353 -1.0720 -1.5486  1.9580
10160TIP3    H254676   0.391   1.325   2.265 -0.3027  0.1723 -0.5409
10161TIP3   OH254677   4.148   0.976   3.540 -0.0076 -0.6488  0.2164
10161TIP3    H154678   4.142   0.881   3.532 -0.3587 -0.6933  0.9480
10161TIP3    H254679   4.089   0.998   3.612  1.8677 -0.1291  1.6753
10162TIP3   OH254680   5.305   3.906   2.716 -0.3201 -0.1117 -0.0762
10162TIP3    H154681   5.372   3.912   2.647 -0.6171  0.8866 -0.3027
10162TIP3    H254682   5.332   3.972   2.780 -0.8752  0.0326  0.0103
10163TIP3   OH254683   6.516   2.032   4.210  0.4934  0.1311 -0.0461
10163TIP3    H154684   6.491   2.112   4.164  0.3858  0.4236  0.5182
10163TIP3    H254685   6.433   1.995   4.241  0.4052 -0.8845 -1.3955
10164TIP3   OH254686   0.112   3.275   2.477 -0.3977  0.2750 -0.1653
10164TIP3    H154687   0.204   3.289   2.497  0.3119 -0.4183 -2.6061
10164TIP3    H254688   0.098   3.319   2.393 -2.3074  0.3873  0.1675
10165TIP3   OH254689   5.749   5.793   1.686 -0.2739 -0.0982  0.5276
10165TIP3    H154690   5.805   5.754   1.754  1.5425  1.1005 -0.2134
10165TIP3    H254691   5.759   5.887   1.699  0.8182  0.1794 -1.9127
10166TIP3   OH254692   1.091   3.291   2.281  0.0098 -0.3906 -0.0876
10166TIP3    H154693   1.048   3.252   2.357 -0.3400 -2.3317 -1.2284
10166TIP3    H254694   1.145   3.221   2.245 -0.3856  0.2352 -2.0413
10167TIP3   OH254695   0.961   0.941   2.877  0.2768 -0.0045  0.1991
10167TIP3    H154696   0.978   1.007   2.944 -0.7791 -0.4529  0.9340
10167TIP3    H254697   0.948   0.860   2.926  1.1445 -0.6908 -0.6641
10168TIP3   OH254698   2.100   1.568   3.406 -0.0920 -0.1002  0.2737
10168TIP3    H154699   2.131   1.613   3.485 -1.3005 -1.0667  1.3549
10168TIP3    H254700   2.014   1.533   3.431  0.1311 -1.6749 -1.0038
10169TIP3   OH254701   5.060   0.016   0.629  0.2411 -0.1337 -0.1501
10169TIP3    H154702   4.991   0.082   0.628 -0.6722 -1.0237 -2.5996
10169TIP3    H254703   5.043  -0.035   0.708 -1.0330  0.5609  0.0506
10170TIP3   OH254704   4.961   6.317   3.394 -0.0823 -0.2119 -0.6354
10170TIP3    H154705   5.023   6.378   3.354  0.8596 -0.6175  0.1577
10170TIP3    H254706   4.909   6.371   3.454  1.8061 -0.3752  1.2776
10171TIP3   OH254707   1.518   5.520   1.198  0.2142  0.2515 -0.2186
10171TIP3    H154708   1.477   5.463   1.133  0.0014  0.9356 -0.6942
10171TIP3    H254709   1.469   5.602   1.193  0.4943  0.4758  0.4790
10172TIP3   OH254710   1.637   3.014   0.826  0.6260 -0.2022  0.4879
10172TIP3    H154711   1.655   2.969   0.908 -1.7130  1.5797  2.1400
10172TIP3    H254712   1.549   2.985   0.802  0.4608  0.8610 -0.2568
10173TIP3   OH254713   0.476   6.588   2.650  0.0286  0.0522 -0.1306
10173TIP3    H154714   0.504   6.676   2.675 -0.0268 -0.4652  1.9052
10173TIP3    H254715   0.555   6.544   2.620  0.4432  0.1901  0.7394
10174TIP3   OH254716   6.579   1.010   2.120 -0.0953 -0.0411 -0.0045
10174TIP3    H154717   6.530   0.947   2.173  1.0250  0.2698  1.4748
10174TIP3    H254718   6.534   1.093   2.133 -0.6542 -0.2181 -0.7138
10175TIP3   OH254719   3.498   5.121   0.876 -0.1052  0.6253 -0.6635
10175TIP3    H154720   3.478   5.031   0.850  0.7749  0.1646  0.1845
10175TIP3    H254721   3.583   5.115   0.920  0.1029  1.9166 -0.8402
10176TIP3   OH254722   4.775   2.896   2.289 -0.5047  0.2827 -0.0219
10176TIP3    H154723   4.720   2.824   2.258  1.1487 -1.0044 -0.1489
10176TIP3    H254724   4.853   2.892   2.233  0.2336  1.2603  0.9012
10177TIP3   OH254725   5.250   6.409   1.622  0.2545 -0.0277  0.5610
10177TIP3    H154726   5.237   6.423   1.716 -1.5604  2.5265  0.0695
10177TIP3    H254727   5.320   6.470   1.598  0.4752 -0.4177  0.2033
10178TIP3   OH254728   5.351   4.301   1.454 -0.1757 -0.0395 -0.2555
10178TIP3    H154729   5.369   4.210   1.478 -0.1029  0.4428  1.6619
10178TIP3    H254730   5.267   4.298   1.408 -1.9585 -0.7484  2.7818
10179TIP3   OH254731   4.805   0.497   2.553 -0.3689 -0.0695 -0.4076
10179TIP3    H154732   4.851   0.460   2.628  0.1921 -0.3257 -0.8676
10179TIP3    H254733   4.847   0.582   2.538 -0.9281  0.2856 -0.0276
10180TIP3   OH254734   2.237   3.959   2.503  0.4546  0.1325 -0.1368
10180TIP3    H154735   2.160   3.902   2.497 -0.5246  1.5480 -2.5336
10180TIP3    H254736   2.226   4.005   2.586 -1.8149  0.9037 -0.7834
10181TIP3   OH254737   2.467   5.225   1.407  0.1807 -0.3000  0.5905
10181TIP3    H154738   2.554   5.233   1.446 -0.0426 -0.5461  1.1518
10181TIP3    H254739   2.423   5.157   1.458  0.3045 -1.5475 -0.8862
10182TIP3   OH254740   2.951   2.400   1.324 -0.1153 -0.5714  0.3757
10182TIP3    H154741   3.027   2.375   1.376 -0.2252 -1.1068  0.2784
10182TIP3    H254742   2.902   2.460   1.380 -0.1065 -0.9527  0.7887
10183TIP3   OH254743   5.915   1.761   1.981 -0.2172  0.2543  0.0840
10183TIP3    H154744   5.907   1.736   1.889 -2.4741  0.7210  0.0823
10183TIP3    H254745   5.946   1.852   1.978 -0.6182  0.3874 -0.2587
10184TIP3   OH254746   1.270   3.715   3.698 -0.0664 -0.2739 -0.0849
10184TIP3    H154747   1.308   3.790   3.743  0.6607 -1.7417  1.8962
10184TIP3    H254748   1.306   3.719   3.609  0.2216  1.4846  0.0795
10185TIP3   OH254749   0.377   4.290   2.075  0.1087 -0.2461 -0.0914
10185TIP3    H154750   0.345   4.271   2.163  1.9527 -0.6391  0.5442
10185TIP3    H254751   0.313   4.351   2.038 -0.3539  0.4410  1.7632
10186TIP3   OH254752   1.042   3.697   1.039 -0.3809  0.2221  0.3418
10186TIP3    H154753   1.048   3.668   1.130 -2.0466  0.9825  0.7379
10186TIP3    H254754   1.013   3.619   0.991 -0.0063 -0.0448  0.5430
10187TIP3   OH254755   2.833   4.665   3.562 -0.1276  0.9654 -0.1117
10187TIP3    H154756   2.846   4.736   3.499  1.2365  0.5809 -0.2883
10187TIP3    H254757   2.768   4.699   3.624 -1.3428  1.4409 -1.5778
10188TIP3   OH254758   2.097   5.840   2.639 -0.5770 -0.2003  0.1981
10188TIP3    H154759   2.170   5.793   2.600 -1.3825 -1.2796 -0.0422
10188TIP3    H254760   2.067   5.783   2.710 -0.1700  0.9807  1.3889
10189TIP3   OH254761   1.486   2.195   2.078 -0.2914  0.7794  0.4429
10189TIP3    H154762   1.398   2.231   2.077 -0.7246 -0.1922  1.2720
10189TIP3    H254763   1.496   2.153   1.992 -0.4558  1.2839  0.1736
10190TIP3   OH254764   2.834   4.045   3.514 -0.4911  0.0383 -0.1333
10190TIP3    H154765   2.854   3.952   3.501 -2.1047 -0.5407  1.1971
10190TIP3    H254766   2.756   4.060   3.460  0.6045  1.0348 -1.5046
10191TIP3   OH254767   0.405   4.387   3.427  0.2656  0.3136  0.5788
10191TIP3    H154768   0.493   4.422   3.441  0.5284 -0.4416  0.8552
10191TIP3    H254769   0.354   4.462   3.395  1.0208  0.7397  0.3547
10192TIP3   OH254770   0.736   1.321   1.753  0.8821  0.1008 -0.0864
10192TIP3    H154771   0.823   1.281   1.761  1.1013  0.3026 -1.3231
10192TIP3    H254772   0.695   1.274   1.681  0.5461  1.0171 -0.5100
10193TIP3   OH254773   4.317   0.147   1.727 -0.0073  0.1336  0.0711
10193TIP3    H154774   4.337   0.096   1.806  0.4228  1.1906  0.6627
10193TIP3    H254775   4.233   0.188   1.745  0.5157  1.1130  0.3890
10194TIP3   OH254776   5.393   5.511   2.126 -0.1554 -0.0459  0.3848
10194TIP3    H154777   5.421   5.450   2.058  0.6117  1.5356 -0.7498
10194TIP3    H254778   5.299   5.493   2.136  0.3019 -2.4457  1.2117
10195TIP3   OH254779   3.131   6.689   1.327 -0.4261 -0.3225 -0.7839
10195TIP3    H154780   3.222   6.701   1.300  0.0483 -0.2813  0.7258
10195TIP3    H254781   3.133   6.614   1.387 -1.5107 -0.7697 -1.2736
10196TIP3   OH254782   0.054   1.690   1.394  0.1744  0.6082  0.3302
10196TIP3    H154783  -0.004   1.625   1.355  1.3509  0.2251 -0.8332
10196TIP3    H254784   0.053   1.763   1.332  0.4161  0.8754  0.6349
10197TIP3   OH254785   4.740   4.673   1.075 -0.2575 -0.6612  0.1867
10197TIP3    H154786   4.790   4.753   1.087 -0.2713 -0.7145  0.6246
10197TIP3    H254787   4.683   4.690   1.000  0.4434 -0.6158 -0.3429
10198TIP3   OH254788   1.064   4.123   4.150  0.4433 -0.1025  0.2730
10198TIP3    H154789   1.103   4.096   4.233 -0.4750  0.4705  0.8981
10198TIP3    H254790   1.068   4.044   4.096  3.1846  0.1010 -0.0001
10199TIP3   OH254791   6.527   5.216   1.442  0.3407 -0.3765 -0.0473
10199TIP3    H154792   6.454   5.176   1.489 -0.2612  1.2484  0.4518
10199TIP3    H254793   6.486   5.272   1.377  1.1590 -0.0120 -0.2653
10200TIP3   OH254794   4.119   0.881   1.454 -0.3256  0.7549  0.1835
10200TIP3    H154795   4.125   0.878   1.358 -2.4128 -0.5900  0.0310
10200TIP3    H254796   4.054   0.948   1.471 -0.7725  0.2251  0.5909
10201TIP3   OH254797   2.843   0.176   2.216 -0.2219 -0.3751 -0.0940
10201TIP3    H154798   2.803   0.169   2.130 -0.8761  1.5551  0.0143
10201TIP3    H254799   2.784   0.128   2.274  0.6023 -2.3192 -0.7802
10202TIP3   OH254800   4.310   5.999   0.904 -0.2478  0.8454 -0.2807
10202TIP3    H154801   4.251   5.997   0.828  1.1152  1.2992 -1.3933
10202TIP3    H254802   4.299   5.913   0.945 -0.2976  0.2073 -1.5724
10203TIP3   OH254803   1.929   4.084   3.556  0.4719  0.3872 -0.0283
10203TIP3    H154804   1.932   4.142   3.632  1.5457 -1.2853  1.3019
10203TIP3    H254805   1.966   4.001   3.588 -0.4488 -0.8530 -1.9849
10204TIP3   OH254806   2.364   3.607   3.321  0.2363  0.1466  0.3979
10204TIP3    H154807   2.338   3.519   3.292 -0.1284 -0.4942  2.5119
10204TIP3    H254808   2.432   3.633   3.258  0.1947 -1.5390 -0.4135
10205TIP3   OH254809   2.174   4.196   0.574  0.1434  0.1941  0.4108
10205TIP3    H154810   2.105   4.237   0.627 -0.0698 -0.3153  0.5422
10205TIP3    H254811   2.133   4.181   0.489  0.7803  1.8673 -0.2166
10206TIP3   OH254812   1.977   2.864   4.446 -0.0983 -0.2164  0.4839
10206TIP3    H154813   1.933   2.862   4.361  0.2458  0.8041  0.2654
10206TIP3    H254814   1.984   2.772   4.471 -1.0402 -0.4846 -0.1501
10207TIP3   OH254815   2.289   2.147   1.999 -0.5284  0.4794 -0.4522
10207TIP3    H154816   2.199   2.151   2.029 -1.0092  0.0110 -1.7548
10207TIP3    H254817   2.283   2.158   1.904  0.9644  2.5790 -0.3816
10208TIP3   OH254818   4.292   4.214   1.451  0.0217 -0.0160 -0.5183
10208TIP3    H154819   4.311   4.199   1.544  0.0796  3.0686  0.0689
10208TIP3    H254820   4.363   4.169   1.405  0.0245 -1.5504  0.8868
10209TIP3   OH254821   0.793   3.070   0.672 -0.1430 -0.1449  0.3175
10209TIP3    H154822   0.791   3.055   0.767  0.2942 -2.1504  0.0580
10209TIP3    H254823   0.785   3.165   0.663  0.4488  0.1586  2.3754
10210TIP3   OH254824   0.139   2.111   3.346  0.0922 -0.0800  0.1461
10210TIP3    H154825   0.142   2.206   3.330  0.6474 -0.3287 -1.3778
10210TIP3    H254826   0.071   2.079   3.287  2.0841 -1.0159 -1.7940
10211TIP3   OH254827   6.035   2.393   2.007 -0.1992  0.3156 -0.2475
10211TIP3    H154828   5.953   2.403   1.959 -1.6068  0.1496  1.9963
10211TIP3    H254829   6.049   2.478   2.049  2.1289  1.1630 -2.4411
10212TIP3   OH254830   2.634   5.190   3.071  0.4965  0.2858  0.0261
10212TIP3    H154831   2.625   5.123   3.139 -0.1195  1.5255  1.2119
10212TIP3    H254832   2.721   5.226   3.084  0.0847  1.0564  0.6695
10213TIP3   OH254833   4.639   3.600   3.216  0.3341  0.1243 -0.2817
10213TIP3    H154834   4.721   3.615   3.168 -0.5848 -2.5574 -2.9644
10213TIP3    H254835   4.607   3.688   3.236  2.8140  1.2849 -1.0129
10214TIP3   OH254836   2.380   1.861   2.784 -0.3646  0.6309 -0.5461
10214TIP3    H154837   2.420   1.879   2.700  0.2443  1.6015 -0.0603
10214TIP3    H254838   2.453   1.836   2.841 -0.7770 -0.0835 -0.3050
10215TIP3   OH254839   2.898   0.961   3.190 -0.1926 -0.0069  0.5597
10215TIP3    H154840   2.914   0.972   3.096 -1.4719  0.4344  0.3741
10215TIP3    H254841   2.972   0.908   3.220 -0.5262 -1.4569 -0.9817
10216TIP3   OH254842   1.748   4.139   1.259 -0.3292 -0.2753  0.6834
10216TIP3    H154843   1.668   4.116   1.212 -0.1710 -0.2463  0.3910
10216TIP3    H254844   1.818   4.123   1.195 -0.1785  0.5711  0.6301
10217TIP3   OH254845   2.407   1.906   3.439  0.4815 -0.5218 -0.3711
10217TIP3    H154846   2.358   1.950   3.508  1.1367  1.5091 -1.1156
10217TIP3    H254847   2.355   1.919   3.360  2.5657  2.7610 -1.4344
10218TIP3   OH254848   3.685   0.094   3.234  0.1946 -0.4222 -0.5051
10218TIP3    H154849   3.713   0.145   3.157  1.3402 -1.0180 -0.5068
10218TIP3    H254850   3.766   0.078   3.283 -0.4662 -0.3487  0.6600
10219TIP3   OH254851   3.158   4.842   2.316  0.0453  0.3278 -0.2806
10219TIP3    H154852   3.149   4.930   2.353 -3.9301 -0.3485  0.8851
10219TIP3    H254853   3.103   4.844   2.237 -1.3837 -1.4078  0.5940
10220TIP3   OH254854   5.745   4.266   3.323 -0.1700  0.1512 -0.2433
10220TIP3    H154855   5.678   4.304   3.267 -1.4653  0.2836  1.3295
10220TIP3    H254856   5.817   4.245   3.263 -0.5629  2.3395 -1.6033
10221TIP3   OH254857   2.537   0.188   2.720 -0.5985  0.0609 -0.0337
10221TIP3    H154858   2.600   0.251   2.753  0.2652 -0.7665 -0.0717
10221TIP3    H254859   2.481   0.238   2.660  0.4862  0.6482 -0.5773
10222TIP3   OH254860   3.108   3.559   1.464 -0.1165 -0.1809 -0.2238
10222TIP3    H154861   3.114   3.508   1.545  0.9052  0.2688  0.0036
10222TIP3    H254862   3.015   3.562   1.444 -0.3866 -0.2948  0.9444
10223TIP3   OH254863   3.431   0.361   0.643 -0.4743 -0.5381  0.2451
10223TIP3    H154864   3.351   0.333   0.688 -1.1722 -0.2579 -0.7754
10223TIP3    H254865   3.405   0.369   0.551  0.6823 -0.2429 -0.0734
10224TIP3   OH254866   0.198   0.123   1.942  0.0470 -0.4143 -1.0226
10224TIP3    H154867   0.215   0.200   1.888  0.9165  0.0555 -0.1235
10224TIP3    H254868   0.247   0.052   1.900  0.7606 -0.0409 -0.8478
10225TIP3   OH254869   5.426   5.374   1.362 -0.4321 -0.4323 -0.9632
10225TIP3    H154870   5.508   5.423   1.368 -1.2673  1.0038 -0.6398
10225TIP3    H254871   5.397   5.386   1.272  0.0574 -1.5654 -1.2899
10226TIP3   OH254872   2.843   3.768   3.582 -1.0155  0.4481 -0.2305
10226TIP3    H154873   2.865   3.701   3.647  1.0355  0.7316 -0.5534
10226TIP3    H254874   2.747   3.770   3.581 -1.1705 -2.4701 -0.2222
10227TIP3   OH254875   2.779   6.549   1.269  0.1805 -0.0026  0.3185
10227TIP3    H154876   2.706   6.573   1.211  0.5289 -1.0359 -0.5969
10227TIP3    H254877   2.779   6.616   1.337  0.1489  1.6411 -1.2302
10228TIP3   OH254878   0.160   2.561   0.874 -0.0802  0.1121 -0.1257
10228TIP3    H154879   0.099   2.487   0.874  0.5483 -0.4119  0.2437
10228TIP3    H254880   0.177   2.579   0.782  0.9689 -1.2148 -0.2259
10229TIP3   OH254881   6.403   2.688   0.628 -0.4950 -0.4195 -0.3256
10229TIP3    H154882   6.439   2.726   0.547  0.0456  3.2825  1.4188
10229TIP3    H254883   6.314   2.663   0.604  0.0049 -0.5007 -2.3299
10230TIP3   OH254884   0.762   4.292   0.627  0.1738 -0.1094  0.0321
10230TIP3    H154885   0.857   4.284   0.621  0.1970 -0.0793  0.3444
10230TIP3    H254886   0.742   4.269   0.718 -0.1524 -0.4651 -0.1260
10231TIP3   OH254887   3.550   3.049   1.397 -0.2282 -0.2533  0.1467
10231TIP3    H154888   3.481   3.102   1.436  0.5334  1.1744 -0.3668
10231TIP3    H254889   3.629   3.074   1.445  0.0958 -1.2024  0.1316
10232TIP3   OH254890   0.021   3.221   2.100 -0.0564 -0.4501  0.2471
10232TIP3    H154891   0.056   3.229   2.189  0.4880 -0.9686  0.0890
10232TIP3    H254892  -0.073   3.207   2.113 -0.7603  3.5118  0.6140
10233TIP3   OH254893   1.207   4.725   3.771 -0.7702  0.2208  0.9749
10233TIP3    H154894   1.260   4.714   3.850 -1.8494 -0.2836  1.6511
10233TIP3    H254895   1.259   4.683   3.702 -0.0679  0.1650  1.5282
10234TIP3   OH254896   6.275   6.447   1.582 -0.0399 -0.0324 -0.3862
10234TIP3    H154897   6.238   6.380   1.640 -1.5581 -0.6328 -1.9527
10234TIP3    H254898   6.201   6.504   1.562  0.9623  1.4480 -0.0412
10235TIP3   OH254899   0.933   6.137   3.754  0.4148  0.0908 -0.1019
10235TIP3    H154900   0.866   6.125   3.821  0.2869 -0.9346 -0.3975
10235TIP3    H254901   0.950   6.231   3.754  1.0425  0.0456  1.9652
10236TIP3   OH254902   6.526   4.012   3.061  0.1487  0.7357 -0.1076
10236TIP3    H154903   6.585   4.060   3.119 -0.3614  1.2080  0.0338
10236TIP3    H254904   6.487   3.945   3.117 -0.2046  1.0737  0.0609
10237TIP3   OH254905   0.041   5.038   4.279  0.1841  0.3677 -0.3513
10237TIP3    H154906   0.011   4.964   4.332  1.7448  0.9752  1.5237
10237TIP3    H254907  -0.008   5.113   4.313  2.0002  0.9541  1.0810
10238TIP3   OH254908   1.725   3.735   3.091  0.0934  0.3855  0.2955
10238TIP3    H154909   1.671   3.660   3.115  0.0645  0.2006 -0.3285
10238TIP3    H254910   1.669   3.811   3.106 -0.4735  0.1712 -0.6998
10239TIP3   OH254911   5.509   2.759   2.263  0.5661 -0.2626  0.1996
10239TIP3    H154912   5.584   2.704   2.240  0.2503 -0.6574  0.1051
10239TIP3    H254913   5.545   2.847   2.268  1.6366 -0.7399  2.8599
10240TIP3   OH254914   4.347   4.398   1.123  0.0866  0.4375  0.1353
10240TIP3    H154915   4.374   4.325   1.068 -0.4258  0.3134  0.0421
10240TIP3    H254916   4.388   4.381   1.208 -1.2110 -0.7624  0.5642
10241TIP3   OH254917   1.932   3.315   2.417 -0.0433  0.0826 -0.4763
10241TIP3    H154918   1.844   3.350   2.433 -0.4465 -0.7762 -0.7319
10241TIP3    H254919   1.917   3.223   2.395  0.8076  0.2234 -1.7436
10242TIP3   OH254920   2.532   5.678   3.020  0.1659  0.1528 -0.3744
10242TIP3    H154921   2.607   5.712   2.972  0.5849  0.1701  0.2740
10242TIP3    H254922   2.522   5.588   2.989 -0.5891  0.6651 -1.6751
10243TIP3   OH254923   5.325   1.798   0.627  0.1022 -0.3899 -0.1383
10243TIP3    H154924   5.258   1.821   0.691  1.2658 -0.2489  1.0925
10243TIP3    H254925   5.379   1.732   0.671  1.0436 -0.1647 -0.9006
10244TIP3   OH254926   6.439   5.816   2.127  0.1271  0.2142 -0.1946
10244TIP3    H154927   6.508   5.751   2.112  0.4477  0.5797 -0.3097
10244TIP3    H254928   6.389   5.782   2.201  1.4224  0.7563  0.9733
10245TIP3   OH254929   5.940   4.684   2.544 -0.4193  0.2867 -0.1868
10245TIP3    H154930   6.016   4.705   2.490 -0.2508 -0.4476 -0.2536
10245TIP3    H254931   5.892   4.619   2.493  1.2727 -2.7055  1.6895
10246TIP3   OH254932   4.920   2.518   3.719 -0.2225 -0.5234  0.2238
10246TIP3    H154933   5.011   2.499   3.744  0.0716  0.4202 -0.0809
10246TIP3    H254934   4.875   2.434   3.727  0.7977 -1.1285 -0.1306
10247TIP3   OH254935   5.935   0.479   2.621  0.2863  0.0732 -0.3581
10247TIP3    H154936   5.936   0.443   2.710 -0.8091 -1.3592 -0.8874
10247TIP3    H254937   5.970   0.568   2.631  0.4901 -0.1685  1.4465
10248TIP3   OH254938   3.865   1.321   2.948 -0.8628  0.1399  0.1539
10248TIP3    H154939   3.901   1.372   3.021 -1.5007 -0.5369  0.9736
10248TIP3    H254940   3.794   1.270   2.988  0.0960 -1.7923 -0.4957
10249TIP3   OH254941   1.787   4.468   0.865  0.1944  0.3861 -0.2348
10249TIP3    H154942   1.698   4.454   0.832  0.5540  0.5744 -1.3377
10249TIP3    H254943   1.797   4.563   0.867  0.5965  0.3634 -0.8000
10250TIP3   OH254944   0.541   1.247   1.260 -0.2939  0.4563  0.1363
10250TIP3    H154945   0.547   1.186   1.186  0.5957  0.4222  0.2283
10250TIP3    H254946   0.448   1.246   1.284 -0.9230  1.6096 -1.9564
10251TIP3   OH254947   1.972   5.996   0.839 -0.6001 -0.2625  0.1783
10251TIP3    H154948   2.043   5.985   0.903 -0.4401  0.7923  0.2108
10251TIP3    H254949   1.893   5.972   0.888 -0.3825 -0.3479  0.4959
10252TIP3   OH254950   0.982   2.573   2.618 -0.1790  0.3490  0.4358
10252TIP3    H154951   0.904   2.518   2.610  0.0755  0.0903 -0.3867
10252TIP3    H254952   0.950   2.657   2.651 -0.6002 -0.2242  1.5005
10253TIP3   OH254953   2.372   3.481   2.371 -0.0748  0.3122  0.3276
10253TIP3    H154954   2.294   3.485   2.316  1.0255 -0.1065 -1.3260
10253TIP3    H254955   2.426   3.554   2.342  0.4636  0.1832  0.9739
10254TIP3   OH254956   3.010   1.697   3.988  0.1263  0.2200 -0.5453
10254TIP3    H154957   2.957   1.625   4.022 -0.3603  0.4791 -0.7499
10254TIP3    H254958   3.073   1.655   3.929  1.7950 -0.3942  1.5600
10255TIP3   OH254959   2.489   0.173   3.406  0.1685  0.0027 -0.0114
10255TIP3    H154960   2.576   0.139   3.388  0.9390  2.0986 -0.6165
10255TIP3    H254961   2.486   0.182   3.502  0.4876 -0.4041  0.0368
10256TIP3   OH254962   3.175   3.759   0.789  0.5143  0.2979  0.2859
10256TIP3    H154963   3.242   3.826   0.780  0.0339  0.8626  0.7799
10256TIP3    H254964   3.165   3.747   0.883  0.5494 -0.4195  0.1991
10257TIP3   OH254965   3.729   4.722   1.256  0.3244 -0.1082 -0.2210
10257TIP3    H154966   3.772   4.651   1.210 -1.1292 -1.8674  1.0107
10257TIP3    H254967   3.640   4.722   1.223  0.0880  0.6193  0.3885
10258TIP3   OH254968   1.074   0.578   3.251  0.3202  0.7677 -0.3696
10258TIP3    H154969   1.165   0.565   3.222 -0.0301  0.5431 -1.4111
10258TIP3    H254970   1.073   0.547   3.342  1.5129  1.7340 -0.0015
10259TIP3   OH254971   0.052   1.228   2.356  0.1546 -0.1991 -0.0533
10259TIP3    H154972   0.058   1.323   2.344  0.5425  0.1555  2.4142
10259TIP3    H254973  -0.040   1.212   2.375  0.2581 -0.1596  0.5016
10260TIP3   OH254974   0.962   2.180   3.360 -0.3629 -0.2470 -0.3527
10260TIP3    H154975   1.050   2.217   3.369 -1.2210  1.6539  1.0415
10260TIP3    H254976   0.945   2.184   3.266 -0.4440  3.3393 -0.3529
10261TIP3   OH254977   5.883   6.132   3.023 -0.0663 -0.0004  0.2074
10261TIP3    H154978   5.968   6.157   2.986  0.4804 -0.1328  1.3235
10261TIP3    H254979   5.904   6.091   3.107 -1.2671  0.5325  0.8044
10262TIP3   OH254980   5.037   5.811   2.192 -0.0181 -0.5196 -0.2142
10262TIP3    H154981   5.114   5.856   2.225 -0.3735 -0.1029  0.0576
10262TIP3    H254982   4.965   5.873   2.205 -0.0243  0.0808 -2.6503
10263TIP3   OH254983   3.496   4.288   3.198 -0.1369  0.3507  0.1336
10263TIP3    H154984   3.406   4.313   3.216 -1.2797 -1.8573 -1.9026
10263TIP3    H254985   3.529   4.254   3.282 -1.8622 -0.5413  0.4921
10264TIP3   OH254986   3.104   6.204   0.828  0.2071  0.4670 -0.6889
10264TIP3    H154987   3.175   6.149   0.795  1.1964  2.1134 -1.4265
10264TIP3    H254988   3.056   6.230   0.750  0.6657  1.8458 -0.5341
10265TIP3   OH254989   1.734   1.189   1.268 -0.5383  0.5824 -0.2956
10265TIP3    H154990   1.655   1.179   1.215 -0.7244  2.0875 -0.3698
10265TIP3    H254991   1.806   1.190   1.204 -0.3201 -1.6892 -0.1626
10266TIP3   OH254992   2.711   5.839   1.780  0.0806  0.3956 -0.1257
10266TIP3    H154993   2.756   5.755   1.791 -0.5058  0.3957  3.2182
10266TIP3    H254994   2.636   5.818   1.724  1.0239 -0.8221 -1.0033
10267TIP3   OH254995   0.292   4.341   2.722 -0.8311 -0.4534  0.6160
10267TIP3    H154996   0.249   4.278   2.666  0.8020 -0.3332 -0.8583
10267TIP3    H254997   0.360   4.380   2.667 -1.8369  2.7312  1.3921
10268TIP3   OH254998   3.439   5.909   3.031  0.1803  0.0905  0.1830
10268TIP3    H154999   3.450   5.970   2.958 -2.2831 -0.0228 -0.3422
10268TIP3    H255000   3.408   5.828   2.991 -0.4187 -0.2272  1.2574
10269TIP3   OH255001   0.726   4.816   0.957  0.6006  0.1313 -0.6764
10269TIP3    H155002   0.648   4.814   1.013  0.2611 -0.4493 -1.1606
10269TIP3    H255003   0.785   4.876   1.001  1.0794 -1.6733  1.2718
10270TIP3   OH255004   4.192   4.461   1.382 -0.2913 -0.1910  0.0308
10270TIP3    H155005   4.152   4.445   1.297 -1.3282 -1.0797  0.6574
10270TIP3    H255006   4.232   4.377   1.406  1.2964  0.4584 -0.2172
10271TIP3   OH255007   2.893   2.392   1.964 -0.3129  0.1414 -0.6619
10271TIP3    H155008   2.910   2.366   2.055  0.7214 -1.8089 -1.3588
10271TIP3    H255009   2.980   2.397   1.924 -0.8387 -0.4732 -1.9079
10272TIP3   OH255010   4.062   6.494   2.001  0.1957  0.0718  0.2542
10272TIP3    H155011   4.011   6.516   2.080  1.8042  0.1307  1.3296
10272TIP3    H255012   4.024   6.548   1.932 -0.9838  0.3345  1.0806
10273TIP3   OH255013   2.985   2.953   2.214 -0.2071  0.1729  0.0199
10273TIP3    H155014   3.053   3.020   2.223  1.7647 -1.7650  0.0793
10273TIP3    H255015   2.968   2.949   2.120  1.6679 -1.0972 -0.3037
10274TIP3   OH255016   3.839   5.551   2.372  0.5123 -0.5016  0.0992
10274TIP3    H155017   3.787   5.520   2.298  1.2662 -0.7690 -0.3327
10274TIP3    H255018   3.854   5.473   2.426  0.9344 -0.5374 -0.0698
10275TIP3   OH255019   6.144   4.127   4.163 -0.1850  1.0722 -0.5198
10275TIP3    H155020   6.072   4.112   4.224  0.1643  1.6195  0.0392
10275TIP3    H255021   6.215   4.161   4.218 -0.1014  2.2729 -1.3358
10276TIP3   OH255022   3.605   4.337   0.543 -0.0555  0.2893  0.2776
10276TIP3    H155023   3.631   4.286   0.466  0.1587  0.3868  0.2838
10276TIP3    H255024   3.572   4.272   0.605  0.3088  0.1457  0.3232
10277TIP3   OH255025   0.355   4.984   1.258  0.3674 -0.3274  0.2742
10277TIP3    H155026   0.305   4.937   1.324  1.0308 -1.6221 -0.1143
10277TIP3    H255027   0.289   5.020   1.199 -0.1469 -2.7428 -0.7264
10278TIP3   OH255028   4.617   2.440   0.767 -0.1022  0.0985 -0.4786
10278TIP3    H155029   4.669   2.359   0.761 -0.4095 -0.0327 -1.5128
10278TIP3    H255030   4.548   2.429   0.702 -1.3217  0.3630  0.7417
10279TIP3   OH255031   2.881   1.484   3.248 -0.6163  0.1847 -0.1078
10279TIP3    H155032   2.940   1.437   3.308 -0.1626  3.4405  2.2262
10279TIP3    H255033   2.932   1.559   3.219 -2.1281  0.6414 -1.7005
10280TIP3   OH255034   2.098   6.676   2.845 -0.3166  0.0395  0.2294
10280TIP3    H155035   2.077   6.735   2.773  1.5142  2.3702  1.4816
10280TIP3    H255036   2.096   6.731   2.923  4.6761 -0.5950  1.1201
10281TIP3   OH255037   3.254   5.196   3.189  0.3539  0.1330  0.6998
10281TIP3    H155038   3.160   5.187   3.174  0.4779 -0.4328  0.2535
10281TIP3    H255039   3.260   5.220   3.282 -0.3577  2.7119  0.1706
10282TIP3   OH255040   5.344   4.608   2.776  0.4481  0.2562  0.3110
10282TIP3    H155041   5.255   4.589   2.805  0.4319 -2.7867 -1.3119
10282TIP3    H255042   5.338   4.695   2.737 -2.1497 -0.2964 -0.7542
10283TIP3   OH255043   0.710   6.568   2.407 -0.6400 -0.2281  0.3149
10283TIP3    H155044   0.665   6.653   2.408 -2.5445 -1.1402  2.5766
10283TIP3    H255045   0.797   6.587   2.443 -0.7828  0.8802  0.1048
10284TIP3   OH255046   5.002   4.023   1.334  0.0529  0.4618 -0.0980
10284TIP3    H155047   5.051   3.963   1.390 -0.4517 -0.6467 -0.7997
10284TIP3    H255048   5.032   4.003   1.245 -0.2277  1.1475 -0.3536
10285TIP3   OH255049   4.010   0.995   2.085  0.1674  0.7728  0.0174
10285TIP3    H155050   3.945   1.026   2.021 -0.0783  2.2872  0.9430
10285TIP3    H255051   4.060   0.928   2.038 -1.1605  0.5643 -1.1698
10286TIP3   OH255052   4.205   0.007   2.274 -0.1483  0.4280 -0.6654
10286TIP3    H155053   4.267   0.019   2.345 -1.0362  0.3945  0.1434
10286TIP3    H255054   4.150  -0.066   2.302 -0.5850  0.4832 -1.3402
10287TIP3   OH255055   5.752   4.032   2.958  0.5058  0.6866  0.7166
10287TIP3    H155056   5.799   4.115   2.959 -0.2126  1.1202  2.5822
10287TIP3    H255057   5.812   3.970   2.916  1.3643  1.9568  0.0170
10288TIP3   OH255058   6.055   0.175   1.888  0.3409  0.3562  0.1970
10288TIP3    H155059   6.029   0.083   1.889 -0.7446  0.6363 -0.3861
10288TIP3    H255060   6.059   0.199   1.981 -1.7929  0.3390  0.3520
10289TIP3   OH255061   2.586   6.638   2.030  0.2389  0.3196 -0.3442
10289TIP3    H155062   2.630   6.641   2.115 -1.3155 -2.3881  0.6872
10289TIP3    H255063   2.625   6.563   1.985  0.1927  0.9785 -1.5079
10290TIP3   OH255064   6.341   2.954   3.215 -0.5604 -0.2158  0.4318
10290TIP3    H155065   6.280   3.018   3.180  0.4597  0.6299  0.1545
10290TIP3    H255066   6.374   2.993   3.296 -1.4225 -1.2879  1.3275
10291TIP3   OH255067   4.011   4.873   3.987  0.0591 -0.5967 -0.0982
10291TIP3    H155068   4.092   4.903   4.030  0.6512 -1.5565 -0.5090
10291TIP3    H255069   3.951   4.947   3.996  0.4237 -0.4637  1.6463
10292TIP3   OH255070   4.101   0.059   0.666 -0.1010  0.4286  0.1372
10292TIP3    H155071   4.114   0.144   0.624 -1.5203 -0.3613 -2.0638
10292TIP3    H255072   4.177   0.007   0.640 -1.0351 -0.0983 -1.7090
10293TIP3   OH255073   2.879   4.969   3.719  0.2623 -0.7025 -0.2120
10293TIP3    H155074   2.850   4.975   3.810 -1.2709 -0.1434 -0.7031
10293TIP3    H255075   2.825   5.033   3.672 -0.8535 -2.7556 -1.9280
10294TIP3   OH255076   2.303   6.196   2.210 -0.6202 -0.1234  0.4449
10294TIP3    H155077   2.307   6.131   2.140  0.5607  1.3095 -0.8744
10294TIP3    H255078   2.378   6.175   2.266 -0.5144 -0.1720  0.2865
10295TIP3   OH255079   5.898   3.522   3.126 -0.0576 -0.1698  0.2824
10295TIP3    H155080   5.903   3.456   3.057  0.6618  0.8742 -0.7049
10295TIP3    H255081   5.972   3.503   3.184 -0.6315 -1.0154  0.7593
10296TIP3   OH255082   2.518   2.072   2.151 -0.1740 -0.0118  0.6556
10296TIP3    H155083   2.445   2.085   2.090  0.8145  1.7643 -0.2357
10296TIP3    H255084   2.588   2.127   2.116  0.7307  0.3757  2.9231
10297TIP3   OH255085   2.626   0.398   0.852  0.4905  0.3711 -0.1299
10297TIP3    H155086   2.569   0.321   0.842 -1.1102  1.2835  1.3473
10297TIP3    H255087   2.693   0.370   0.915 -0.3106  0.2704  0.7020
10298TIP3   OH255088   1.132   3.545   3.482 -0.2977 -0.8130 -0.0174
10298TIP3    H155089   1.117   3.631   3.522  1.8688 -0.8484  1.0078
10298TIP3    H255090   1.059   3.491   3.512  1.3509 -0.9495  4.4317
10299TIP3   OH255091   3.246   4.085   3.703 -0.1326 -0.2252  0.6330
10299TIP3    H155092   3.187   4.131   3.644 -1.1565 -0.6294  1.3008
10299TIP3    H255093   3.316   4.147   3.722 -1.6755  1.2442  1.8401
10300TIP3   OH255094   4.094   6.353   2.388  0.4452 -0.0219  0.3911
10300TIP3    H155095   4.084   6.437   2.433  1.1593 -1.5991  3.8763
10300TIP3    H255096   4.031   6.295   2.431 -1.1258 -1.0636 -2.9309
10301TIP3   OH255097   5.872   3.381   2.905  0.0762  0.2035  0.0065
10301TIP3    H155098   5.821   3.303   2.926 -0.9668  0.5881 -1.0201
10301TIP3    H255099   5.836   3.413   2.823  1.0790  1.2716 -0.0550
10302TIP3   OH255100   3.865   0.154   2.079 -0.4585 -0.5018 -0.2058
10302TIP3    H155101   3.802   0.088   2.106 -0.3777 -0.2559  0.6100
10302TIP3    H255102   3.854   0.225   2.142 -0.8948  0.4880 -1.3551
10303TIP3   OH255103   5.992   2.424   3.975  0.2039  0.0257  0.3109
10303TIP3    H155104   5.959   2.336   3.956 -1.6662  0.9267 -0.9605
10303TIP3    H255105   5.921   2.467   4.023  0.3778  1.3648 -0.5717
10304TIP3   OH255106   4.250   3.278   1.738 -0.0801  0.2197 -0.0221
10304TIP3    H155107   4.175   3.329   1.707 -0.0233  0.2057 -0.1867
10304TIP3    H255108   4.270   3.314   1.824 -0.2136  0.2900 -0.0205
10305TIP3   OH255109   0.413   1.554   0.625 -0.7910 -0.1685  0.5743
10305TIP3    H155110   0.419   1.498   0.547 -2.1969 -0.2603  0.5129
10305TIP3    H255111   0.331   1.528   0.666 -0.2881  0.2143  1.8431
10306TIP3   OH255112   1.289   4.862   0.778  0.1068  0.1320  0.0662
10306TIP3    H155113   1.361   4.921   0.804 -0.7559  1.4775 -0.5158
10306TIP3    H255114   1.214   4.920   0.766 -0.2108 -0.7427 -2.8343
10307TIP3   OH255115   0.313   1.838   0.911 -0.0192 -0.2064 -0.4160
10307TIP3    H155116   0.274   1.925   0.922  0.6045  0.0013  0.2816
10307TIP3    H255117   0.395   1.854   0.864 -0.6229 -0.6116 -1.6574
10308TIP3   OH255118   2.181   1.172   2.041 -0.3203  0.5188 -0.4043
10308TIP3    H155119   2.192   1.248   2.098  0.3227 -0.0278  0.2221
10308TIP3    H255120   2.114   1.198   1.978 -2.0666  0.6698  1.4177
10309TIP3   OH255121   6.582   3.385   4.669 -0.8455 -0.4598 -0.0571
10309TIP3    H155122   6.540   3.348   4.747 -1.6517 -3.3906 -1.7263
10309TIP3    H255123   6.514   3.380   4.602  1.1791 -2.6058 -2.1235
10310TIP3   OH255124   6.040   4.660   1.916  0.1313  0.4504 -0.4451
10310TIP3    H155125   6.082   4.640   1.999 -0.5028  0.4516 -0.1202
10310TIP3    H255126   5.953   4.692   1.940 -0.2935 -0.1565 -1.1281
10311TIP3   OH255127   5.553   4.278   4.024  0.1834 -0.5359 -0.1923
10311TIP3    H155128   5.529   4.310   4.111  1.4063 -2.3500  0.8887
10311TIP3    H255129   5.649   4.288   4.020  0.2164 -1.0805 -1.0724
10312TIP3   OH255130   2.621   0.923   3.375  0.2953 -0.1561 -0.4715
10312TIP3    H155131   2.638   0.894   3.465 -1.3149 -0.5788 -0.2714
10312TIP3    H255132   2.666   1.008   3.369  1.4466 -0.6849  0.3220
10313TIP3   OH255133   5.222   1.286   1.066 -0.4285  0.1268  0.2701
10313TIP3    H155134   5.176   1.217   1.019 -0.1430  0.6797 -0.8501
10313TIP3    H255135   5.213   1.262   1.159 -1.6423 -0.5884 -0.0065
10314TIP3   OH255136   0.267   3.875   0.649  0.0901 -0.0204  0.3506
10314TIP3    H155137   0.194   3.936   0.649 -1.2582 -1.5779  0.5795
10314TIP3    H255138   0.335   3.919   0.599 -1.6776  0.7004 -1.5399
10315TIP3   OH255139   1.211   2.266   1.988 -0.2923  0.1360  0.3459
10315TIP3    H155140   1.121   2.245   1.964 -0.1251  0.0353 -0.1874
10315TIP3    H255141   1.202   2.325   2.064 -0.8174  0.5098 -0.0009
10316TIP3   OH255142   0.062   4.661   2.469 -0.3014 -0.4175 -0.3569
10316TIP3    H155143   0.139   4.698   2.514  0.5354 -0.7893 -1.4412
10316TIP3    H255144   0.093   4.640   2.381 -1.7076 -0.4212 -0.8797
10317TIP3   OH255145   3.370   2.227   2.737  0.0128  0.1625  0.0810
10317TIP3    H155146   3.289   2.247   2.691  0.4530  0.7801 -0.4501
10317TIP3    H255147   3.414   2.312   2.746  0.3100 -0.0707  0.9257
10318TIP3   OH255148   4.442   4.830   2.102 -0.3332  0.0630 -0.5776
10318TIP3    H155149   4.510   4.891   2.132 -0.8309 -0.2916  1.3640
10318TIP3    H255150   4.469   4.808   2.012  1.5362  0.7544 -0.2445
10319TIP3   OH255151   0.947   3.562   4.674 -0.4568  0.0858 -0.0875
10319TIP3    H155152   0.898   3.606   4.605 -0.2942 -0.0202 -0.2727
10319TIP3    H255153   1.036   3.555   4.639 -0.1393  0.9122  0.5221
10320TIP3   OH255154   4.024   1.138   1.047 -0.2290 -0.3015  0.0846
10320TIP3    H155155   3.967   1.080   0.997 -0.1794 -0.1862 -0.1078
10320TIP3    H255156   4.054   1.203   0.983 -0.6172  0.1792  0.3901
10321TIP3   OH255157   1.369   0.423   3.318  0.5198 -0.3838 -0.1114
10321TIP3    H155158   1.288   0.376   3.300  1.0082 -0.9072 -1.0494
10321TIP3    H255159   1.434   0.381   3.262  1.3919  0.1806  0.4433
10322TIP3   OH255160   5.064   3.706   1.699  0.3913  0.2729  0.0531
10322TIP3    H155161   5.026   3.778   1.650 -1.3854 -0.5557  0.1180
10322TIP3    H255162   5.007   3.631   1.680  1.4821 -0.8297  0.9146
10323TIP3   OH255163   4.835   5.822   2.523  0.5807 -0.1368 -0.0681
10323TIP3    H155164   4.916   5.845   2.570  0.1626  0.4095  0.3906
10323TIP3    H255165   4.813   5.735   2.555  0.3264  0.2131  0.7110
10324TIP3   OH255166   0.731   3.281   2.520 -0.3248  0.2559 -0.1133
10324TIP3    H155167   0.718   3.324   2.604 -1.9244  1.0739 -0.7224
10324TIP3    H255168   0.661   3.316   2.464 -0.5816 -1.7843 -1.1921
10325TIP3   OH255169   2.896   2.912   3.570 -0.0006  0.1757 -0.1501
10325TIP3    H155170   2.934   2.873   3.649 -0.0521  0.6412  0.1045
10325TIP3    H255171   2.948   2.877   3.498 -0.4236 -0.8549  0.0199
10326TIP3   OH255172   0.375   4.704   2.155  0.6584 -0.7009 -0.1586
10326TIP3    H155173   0.459   4.659   2.166  0.2760 -1.3876  0.0392
10326TIP3    H255174   0.310   4.641   2.188  0.1532  0.2274  0.6749
10327TIP3   OH255175   1.206   3.858   1.663  0.3147  0.5487  0.0272
10327TIP3    H155176   1.262   3.851   1.740  0.3890  1.5430  0.0768
10327TIP3    H255177   1.218   3.948   1.632  0.1659  0.2173 -1.0567
10328TIP3   OH255178   0.400   6.514   2.128  0.0592 -0.1259 -0.2812
10328TIP3    H155179   0.458   6.494   2.201  0.0124 -0.1638 -0.2538
10328TIP3    H255180   0.446   6.481   2.051  0.0299 -0.2440 -0.2484
10329TIP3   OH255181   5.903   4.527   1.386  0.0817 -0.7650  0.1145
10329TIP3    H155182   5.964   4.556   1.453 -0.8705  0.6664  0.4256
10329TIP3    H255183   5.954   4.527   1.305  0.5262  0.3718  0.3741
10330TIP3   OH255184   4.278   4.096   2.507 -0.0897 -0.1996  0.1745
10330TIP3    H155185   4.372   4.087   2.520 -0.0073  0.6084  0.1570
10330TIP3    H255186   4.260   4.044   2.429  0.6758  1.2399 -1.0097
10331TIP3   OH255187   1.932   4.031   3.180 -0.1986  0.3688 -0.0190
10331TIP3    H155188   2.027   4.033   3.195 -0.1600 -0.1290 -0.1923
10331TIP3    H255189   1.902   3.950   3.221 -0.5686  0.5732  0.1230
10332TIP3   OH255190   1.359   4.633   3.992  0.5024  0.6312  0.2450
10332TIP3    H155191   1.335   4.545   4.021  0.4750  0.5912  0.1033
10332TIP3    H255192   1.345   4.689   4.069 -2.3127  1.0320 -0.4313
10333TIP3   OH255193   4.851   6.286   1.178  0.1113 -0.6256  0.1997
10333TIP3    H155194   4.936   6.257   1.210  0.0760  0.8092  1.7402
10333TIP3    H255195   4.788   6.230   1.223  0.1965 -2.0547 -1.3487
10334TIP3   OH255196   4.760   5.305   3.433  0.0711 -1.0135  0.7571
10334TIP3    H155197   4.820   5.333   3.502  1.5912 -2.0191 -0.0997
10334TIP3    H255198   4.759   5.378   3.372 -1.2249 -0.1487  1.7632
10335TIP3   OH255199   4.238   5.173   1.673 -0.6774  0.5216 -0.1172
10335TIP3    H155200   4.279   5.161   1.758  0.0821  0.7728 -0.4470
10335TIP3    H255201   4.148   5.143   1.686 -1.8233  4.1290  1.8822
10336TIP3   OH255202   0.730   2.018   2.888 -0.4076 -0.7839  0.0361
10336TIP3    H155203   0.682   1.994   2.967  0.3176 -2.8829 -0.1105
10336TIP3    H255204   0.806   1.960   2.887  1.3773  1.4045 -0.5313
10337TIP3   OH255205   3.164   5.515   3.465 -0.1379 -0.7052  0.2040
10337TIP3    H155206   3.246   5.466   3.454  0.2807 -0.5418  2.2776
10337TIP3    H255207   3.097   5.447   3.473 -0.1873 -0.8446 -1.1315
10338TIP3   OH255208   1.737   4.018   2.759  0.0391 -0.1075 -0.4962
10338TIP3    H155209   1.807   3.965   2.798 -0.9052 -0.0022  1.4887
10338TIP3    H255210   1.711   3.970   2.681  1.0794 -1.0980 -0.2585
10339TIP3   OH255211   2.919   5.331   2.890 -0.3281 -0.9128 -0.0245
10339TIP3    H155212   2.913   5.393   2.963 -2.6387 -0.1735 -0.7566
10339TIP3    H255213   2.949   5.249   2.930 -0.1768 -0.1506  1.4913
10340TIP3   OH255214   1.738   6.147   1.912  0.2428  0.1532 -0.3033
10340TIP3    H155215   1.761   6.204   1.985 -1.2197  0.7993 -0.3185
10340TIP3    H255216   1.674   6.086   1.948 -0.6976  0.6538 -1.0939
10341TIP3   OH255217   5.117   4.276   1.330  0.1749 -0.1024 -0.0241
10341TIP3    H155218   5.047   4.341   1.328  1.0603  1.4545  4.8259
10341TIP3    H255219   5.075   4.196   1.363  0.4009  0.6763  2.3634
10342TIP3   OH255220   0.653   2.821   1.972  0.3176 -0.5773 -0.0527
10342TIP3    H155221   0.620   2.904   1.937  0.5934 -0.5477 -0.2469
10342TIP3    H255222   0.730   2.801   1.919  1.0602 -0.2542  0.8612
10343TIP3   OH255223   5.849   0.827   1.590 -0.0844 -0.3415  0.2115
10343TIP3    H155224   5.902   0.856   1.516  1.3405 -1.0078  0.9484
10343TIP3    H255225   5.869   0.734   1.600 -0.4396 -0.3235  1.2699
10344TIP3   OH255226   1.362   0.001   3.767  0.5244  0.1775  0.1006
10344TIP3    H155227   1.416  -0.058   3.818  0.7567 -0.2605 -0.6383
10344TIP3    H255228   1.285  -0.051   3.742  0.5055  0.3267 -0.1590
10345TIP3   OH255229   6.661   3.644   1.201  0.6121 -0.2072  0.5159
10345TIP3    H155230   6.575   3.617   1.170  1.3023 -3.2642  0.9470
10345TIP3    H255231   6.646   3.671   1.292 -0.0849  0.8174  0.1209
10346TIP3   OH255232   0.792   6.248   2.578 -0.0192 -0.3764 -0.0364
10346TIP3    H155233   0.772   6.209   2.492 -0.5420  2.5283 -1.3753
10346TIP3    H255234   0.734   6.203   2.639  0.1771 -2.3523 -1.2234
10347TIP3   OH255235   4.735   1.202   2.121 -0.1659 -0.1231 -0.3672
10347TIP3    H155236   4.767   1.132   2.178 -1.0415 -0.8379 -0.7301
10347TIP3    H255237   4.680   1.256   2.178 -3.1149 -2.2421 -0.9732
10348TIP3   OH255238   5.224   2.557   2.630  1.0691  0.3480 -0.7281
10348TIP3    H155239   5.314   2.533   2.609  0.7797 -0.1999 -1.3650
10348TIP3    H255240   5.176   2.549   2.547  0.0821 -1.0517 -0.0754
10349TIP3   OH255241   5.387   6.116   3.066  0.2206  0.5199 -0.2657
10349TIP3    H155242   5.379   6.096   2.973  0.4235 -2.3457  0.2501
10349TIP3    H255243   5.481   6.128   3.080  0.8042 -3.1846  0.1508
10350TIP3   OH255244   5.881   0.997   0.499 -0.0338 -0.1283  0.2156
10350TIP3    H155245   5.886   0.960   0.411 -1.8662 -2.0281  0.8256
10350TIP3    H255246   5.891   0.922   0.558  0.7214  1.0311  1.6540
10351TIP3   OH255247   6.667   1.401   2.659  0.0327 -0.6034  0.1283
10351TIP3    H155248   6.738   1.415   2.595 -0.4371  0.6523 -0.1510
10351TIP3    H255249   6.624   1.487   2.665 -0.3905 -0.9047  1.5941
10352TIP3   OH255250   6.188   0.706   0.494  0.6287 -0.1676  0.2664
10352TIP3    H155251   6.240   0.785   0.511  1.0197  0.1846 -2.2291
10352TIP3    H255252   6.099   0.729   0.521  0.6319  1.3423 -0.8784
10353TIP3   OH255253   6.451   4.935   2.223 -0.1875 -0.0007 -0.4749
10353TIP3    H155254   6.493   4.987   2.154  1.2683  0.2841  0.5648
10353TIP3    H255255   6.518   4.870   2.247 -1.1852 -0.9838 -0.2671
10354TIP3   OH255256   3.875   3.873   3.219  0.1223 -0.2813 -0.0166
10354TIP3    H155257   3.901   3.963   3.205  0.8532 -0.5308 -0.2638
10354TIP3    H255258   3.915   3.849   3.303  0.9074 -0.7408 -0.5161
10355TIP3   OH255259   6.611   2.437   3.491  0.4418 -0.1820 -0.0902
10355TIP3    H155260   6.663   2.406   3.565  2.7859 -0.8388 -1.9187
10355TIP3    H255261   6.646   2.391   3.415 -2.5477 -0.3156 -1.5594
10356TIP3   OH255262   4.904   3.342   3.319 -0.0333 -0.0022  0.3423
10356TIP3    H155263   4.885   3.322   3.227  0.6628  0.4727  0.0847
10356TIP3    H255264   5.000   3.350   3.322 -0.1651  1.9995  0.6843
10357TIP3   OH255265   6.616   1.702   3.296  0.1561  0.4377 -0.0141
10357TIP3    H155266   6.548   1.767   3.316  0.1013  0.1741  0.6990
10357TIP3    H255267   6.658   1.685   3.381 -0.3764 -1.0732 -0.0221
10358TIP3   OH255268   2.821   5.851   2.681  0.0327  0.3313  0.0044
10358TIP3    H155269   2.727   5.834   2.689  0.4769 -1.5255  2.1305
10358TIP3    H255270   2.840   5.914   2.750  0.2337  1.3985 -1.0013
10359TIP3   OH255271   4.952   4.745   0.461 -0.2180  0.1676  0.3884
10359TIP3    H155272   5.009   4.715   0.532 -0.6642 -1.0408  0.2440
10359TIP3    H255273   4.909   4.666   0.429 -1.7847  1.0149  0.3057
10360TIP3   OH255274   4.500   4.314   3.031 -0.0316 -0.5657 -0.7252
10360TIP3    H155275   4.483   4.291   2.939  2.3213 -1.5558 -0.9822
10360TIP3    H255276   4.595   4.308   3.040 -0.1315  0.3440  1.5901
10361TIP3   OH255277   4.116   1.770   0.856  0.3293 -0.1866 -0.5646
10361TIP3    H155278   4.191   1.759   0.915 -0.5190 -0.7309  0.4451
10361TIP3    H255279   4.089   1.862   0.869  0.5491 -0.1181 -0.5948
10362TIP3   OH255280   3.754   1.978   2.380 -0.1727  0.3908  0.1085
10362TIP3    H155281   3.725   1.946   2.295 -0.6010 -0.4212  0.5407
10362TIP3    H255282   3.838   2.021   2.363 -0.9059  1.4810 -0.9358
10363TIP3   OH255283   4.473   3.957   3.518 -0.4136 -0.0105  0.0788
10363TIP3    H155284   4.527   4.029   3.552 -1.3420  0.9719 -0.4443
10363TIP3    H255285   4.386   3.996   3.508 -1.3569 -1.6794  1.3296
10364TIP3   OH255286   0.407   1.234   0.821 -0.9831  0.2213 -0.4229
10364TIP3    H155287   0.421   1.315   0.869 -2.2146  0.4442 -0.3941
10364TIP3    H255288   0.462   1.242   0.743 -0.7527  0.8834 -0.2010
10365TIP3   OH255289   0.142   0.950   1.804  0.1226  0.2215 -0.1742
10365TIP3    H155290   0.201   1.015   1.841 -1.5102 -0.3553  3.9443
10365TIP3    H255291   0.055   0.980   1.828 -0.9796 -1.3783 -1.9004
10366TIP3   OH255292   1.546   3.198   2.283 -0.3373  0.3958 -0.3181
10366TIP3    H155293   1.628   3.191   2.330 -0.6522 -0.5727  0.0991
10366TIP3    H255294   1.561   3.154   2.199 -0.9162 -1.2891  0.4319
10367TIP3   OH255295   0.496   5.815   2.458 -0.0530 -0.2802 -0.1208
10367TIP3    H155296   0.466   5.906   2.455  1.2735  0.1842 -0.5226
10367TIP3    H255297   0.435   5.767   2.402 -1.7489  0.0271  1.4067
10368TIP3   OH255298   0.010   3.733   1.500  0.2859  0.5945 -0.1225
10368TIP3    H155299  -0.066   3.780   1.466 -0.8070 -0.1892  1.1198
10368TIP3    H255300   0.078   3.747   1.434 -1.3853  0.0279 -2.1041
10369TIP3   OH255301   4.724   0.215   1.521 -0.0268  0.0649  0.0854
10369TIP3    H155302   4.635   0.180   1.520 -0.3492  0.8202 -1.5895
10369TIP3    H255303   4.713   0.309   1.508  0.9180  0.5679  2.3991
10370TIP3   OH255304   3.686   4.987   1.451 -0.1634 -0.1692  0.1296
10370TIP3    H155305   3.608   4.947   1.412 -0.5300 -0.1173  0.7954
10370TIP3    H255306   3.740   5.012   1.376  0.2604 -2.2209 -0.3201
10371TIP3   OH255307   5.342   0.526   2.377  0.0883  0.6046 -0.5265
10371TIP3    H155308   5.388   0.555   2.299 -0.6464 -0.1816 -1.2741
10371TIP3    H255309   5.299   0.445   2.351 -0.6163  0.6106  0.5403
10372TIP3   OH255310   0.809   4.312   1.987  0.1932 -0.1216 -0.2455
10372TIP3    H155311   0.815   4.407   1.984  1.0250 -0.0938  1.0956
10372TIP3    H255312   0.718   4.292   1.968  0.0093  0.9402 -0.5174
10373TIP3   OH255313   4.245   2.464   0.980 -0.7550  0.0060 -0.2055
10373TIP3    H155314   4.205   2.541   1.020 -1.0236 -0.2450  0.0121
10373TIP3    H255315   4.281   2.496   0.897  0.2702  0.6458  0.4684
10374TIP3   OH255316   4.076   3.049   1.473 -0.5116  0.3120 -0.7892
10374TIP3    H155317   4.164   3.046   1.510 -0.4681  0.9846 -0.8358
10374TIP3    H255318   4.078   2.984   1.403 -0.4925 -0.7314  0.1362
10375TIP3   OH255319   2.371   3.301   0.729  0.6242  0.0670 -0.6214
10375TIP3    H155320   2.336   3.310   0.818  0.4078  0.2028 -0.7194
10375TIP3    H255321   2.429   3.224   0.733  0.6476  0.0998 -0.3534
10376TIP3   OH255322   3.290   6.509   2.191 -0.1579  0.2744  0.3891
10376TIP3    H155323   3.218   6.573   2.196  0.0153  0.4410  0.8582
10376TIP3    H255324   3.297   6.475   2.281 -0.7183 -0.9316 -0.0019
10377TIP3   OH255325   2.874   0.192   2.680 -0.3651  0.8718  0.2965
10377TIP3    H155326   2.915   0.277   2.695 -1.6222  1.3804  1.0157
10377TIP3    H255327   2.782   0.213   2.666 -0.6678 -0.3737  0.3490
10378TIP3   OH255328   4.716   6.069   1.297  0.3058  0.3501  0.1934
10378TIP3    H155329   4.677   6.075   1.384  0.7023  0.6367  0.3531
10378TIP3    H255330   4.642   6.049   1.239  0.0768 -0.0682  0.6228
10379TIP3   OH255331   5.310   4.905   1.766 -0.7212  0.2498  0.3877
10379TIP3    H155332   5.361   4.880   1.689 -2.6660 -0.3057 -0.7921
10379TIP3    H255333   5.357   4.866   1.840 -0.3609 -1.7160 -0.8156
10380TIP3   OH255334   5.583   1.981   1.779 -0.0214 -0.3978 -0.2528
10380TIP3    H155335   5.569   1.924   1.855  2.9350 -0.8696  0.0200
10380TIP3    H255336   5.589   2.069   1.816 -1.8148 -0.1747 -0.3775
10381TIP3   OH255337   1.614   4.991   0.791 -0.7670 -0.4054  0.1397
10381TIP3    H155338   1.708   5.001   0.806 -0.7545  2.3019 -1.2061
10381TIP3    H255339   1.573   5.060   0.842 -1.5478  1.6736 -2.9818
10382TIP3   OH255340   3.128   2.865   2.537 -0.4911  0.3713  0.5021
10382TIP3    H155341   3.171   2.786   2.571 -0.1407  0.3329 -0.0214
10382TIP3    H255342   3.067   2.832   2.471  0.5987  0.6273 -0.6635
10383TIP3   OH255343   2.862   3.481   0.821 -0.2470  0.3238 -0.1158
10383TIP3    H155344   2.848   3.401   0.871  0.4498  1.0591  1.3263
10383TIP3    H255345   2.911   3.453   0.743  1.6006 -0.4298  1.2455
10384TIP3   OH255346   2.674   1.248   3.398 -0.2173 -0.3167  0.5095
10384TIP3    H155347   2.705   1.247   3.489 -0.3507 -1.1066  0.5525
10384TIP3    H255348   2.729   1.313   3.354  0.7971 -0.9475  0.8242
10385TIP3   OH255349   1.320   3.017   0.697  0.5393  0.0651  0.5457
10385TIP3    H155350   1.286   3.024   0.608  2.1822  0.4013 -0.0835
10385TIP3    H255351   1.335   3.107   0.724 -1.8925  0.1173  1.9994
10386TIP3   OH255352   0.207   6.680   2.278  0.1288 -0.2695 -0.6846
10386TIP3    H155353   0.280   6.644   2.227 -0.5168 -1.1113 -1.0258
10386TIP3    H255354   0.225   6.652   2.368 -0.0164 -0.8783 -0.8415
10387TIP3   OH255355   6.152   3.154   2.067  0.6303  0.3512 -0.0739
10387TIP3    H155356   6.112   3.241   2.068 -0.2415 -0.0503  0.7157
10387TIP3    H255357   6.149   3.127   1.975 -0.5940  0.4789 -0.0794
10388TIP3   OH255358   3.737   0.069   1.570  0.2411  0.1735  0.2852
10388TIP3    H155359   3.811   0.129   1.571 -0.7857  1.4772  0.1394
10388TIP3    H255360   3.665   0.117   1.612 -0.6845 -0.8369 -0.0768
10389TIP3   OH255361   2.480   2.865   1.682  0.4498  0.2623 -0.2550
10389TIP3    H155362   2.427   2.845   1.760  1.1237 -0.1103  0.1114
10389TIP3    H255363   2.430   2.932   1.637  1.4798  2.7916  2.0833
10390TIP3   OH255364   6.432   4.656   1.225  0.0433  0.2116  0.1355
10390TIP3    H155365   6.412   4.741   1.185  1.0468  1.2751  1.7968
10390TIP3    H255366   6.508   4.625   1.176  0.9329  1.2478  0.8095
10391TIP3   OH255367   5.266   4.561   1.225 -0.0803 -0.4564  0.6338
10391TIP3    H155368   5.199   4.590   1.163  0.5390  0.3019  0.3016
10391TIP3    H255369   5.231   4.480   1.262 -1.1665 -0.0863  0.4545
10392TIP3   OH255370   2.974   2.952   1.136  0.1117  0.0788  0.3671
10392TIP3    H155371   2.925   2.970   1.056 -0.3361  0.5414  0.7399
10392TIP3    H255372   2.908   2.923   1.199  0.3958  0.1340  0.6998
10393TIP3   OH255373   5.727   1.359   0.878  0.1608  0.7075  0.2807
10393TIP3    H155374   5.763   1.391   0.961 -1.0243  1.4204  0.5386
10393TIP3    H255375   5.677   1.433   0.843  0.7307  0.4549 -1.1370
10394TIP3   OH255376   0.323   0.652   2.624  0.0389  0.4707  0.3821
10394TIP3    H155377   0.264   0.577   2.613 -0.4343  0.8609  0.2439
10394TIP3    H255378   0.275   0.726   2.588  0.6813  0.7657  0.1120
10395TIP3   OH255379   3.621   3.611   3.990  0.2491  0.0304 -0.1975
10395TIP3    H155380   3.649   3.698   4.021  2.4595 -0.4738 -0.5910
10395TIP3    H255381   3.631   3.554   4.066  0.9051 -0.2645 -0.4931
10396TIP3   OH255382   0.990   3.250   4.083  0.5917  0.5565 -0.1487
10396TIP3    H155383   1.066   3.192   4.076  0.8240  0.2963  3.1315
10396TIP3    H255384   1.014   3.312   4.153 -2.4041  0.1017  1.4206
10397TIP3   OH255385   3.068   3.021   3.115 -0.1111  0.7280 -0.0411
10397TIP3    H155386   3.145   2.982   3.075 -0.3261 -1.7415  1.7226
10397TIP3    H255387   3.102   3.096   3.165  1.4788 -1.1339  1.8637
10398TIP3   OH255388   2.612   1.798   3.809  0.4844 -0.7257 -0.2451
10398TIP3    H155389   2.553   1.764   3.876 -0.7536  0.2256 -0.7967
10398TIP3    H255390   2.586   1.754   3.729  0.6533 -0.4420 -0.4607
10399TIP3   OH255391   1.195   4.410   2.325  0.2454 -0.6374  0.0482
10399TIP3    H155392   1.266   4.365   2.281  2.0083  0.0249  2.0705
10399TIP3    H255393   1.154   4.463   2.257  1.0978 -1.6885 -1.3302
10400TIP3   OH255394   0.944   2.156   3.095  0.1600  0.1386  0.0434
10400TIP3    H155395   0.991   2.106   3.028 -2.3477 -1.6089 -0.5703
10400TIP3    H255396   0.885   2.212   3.046 -1.0129 -0.4352  0.7537
10401TIP3   OH255397   4.128   5.016   2.568  0.2669  0.3589 -0.3982
10401TIP3    H155398   4.156   5.104   2.592  0.0994 -0.4998  3.7286
10401TIP3    H255399   4.192   4.958   2.610 -2.1564 -1.4551  1.1139
10402TIP3   OH255400   5.227   3.919   3.783 -0.0054  0.3217 -0.0359
10402TIP3    H155401   5.238   3.825   3.773 -2.3318  0.0747 -1.0044
10402TIP3    H255402   5.197   3.931   3.873  0.7800  0.2117  0.2470
10403TIP3   OH255403   0.186   2.801   3.741  0.1493 -0.1858 -0.0926
10403TIP3    H155404   0.108   2.818   3.687 -0.7748 -1.4147  0.7907
10403TIP3    H255405   0.171   2.851   3.821 -0.9577 -2.2767  1.0953
10404TIP3   OH255406   3.258   2.974   1.983 -0.0051  0.3093  0.3208
10404TIP3    H155407   3.187   3.029   2.018  0.8212  0.9541  1.0158
10404TIP3    H255408   3.314   2.957   2.059  1.0615  0.5465 -0.4089
10405TIP3   OH255409   3.937   3.988   2.207 -0.3446 -0.3986  0.5440
10405TIP3    H155410   3.952   4.083   2.215  1.0904 -0.4485 -0.9697
10405TIP3    H255411   3.881   3.978   2.131  1.6058 -0.8478 -0.9112
10406TIP3   OH255412   0.048   3.074   1.645 -1.2575 -0.5715  0.0568
10406TIP3    H155413   0.030   2.987   1.680  0.4456 -0.8130  0.4136
10406TIP3    H255414   0.083   3.123   1.719 -0.6920 -0.0872 -0.5213
10407TIP3   OH255415   5.809   2.842   0.754  0.5306 -0.4320  0.1754
10407TIP3    H155416   5.879   2.779   0.773  0.6531 -0.2910  0.1924
10407TIP3    H255417   5.804   2.897   0.832  1.7826  0.8528 -0.6076
10408TIP3   OH255418   3.203   4.487   2.932 -0.4993  0.2164  0.0541
10408TIP3    H155419   3.265   4.507   3.002 -0.8180  1.2982  0.0588
10408TIP3    H255420   3.202   4.567   2.878 -0.8199 -0.3203 -0.7525
10409TIP3   OH255421   0.393   2.719   1.851  0.2822 -0.0334 -0.2902
10409TIP3    H155422   0.347   2.680   1.776  1.0606  0.3652 -1.0024
10409TIP3    H255423   0.462   2.771   1.811 -0.1981  1.3800  0.6720
10410TIP3   OH255424   2.586   5.660   2.285  0.1962  0.3475  0.6254
10410TIP3    H155425   2.541   5.715   2.221  0.3560 -0.6818 -0.3974
10410TIP3    H255426   2.528   5.660   2.361 -1.9216 -1.4501 -0.8607
10411TIP3   OH255427   4.890   2.551   2.564  0.3390 -0.6883 -0.0545
10411TIP3    H155428   4.898   2.462   2.598 -1.9090 -0.4012  1.5023
10411TIP3    H255429   4.796   2.569   2.569  0.8727  2.2635  1.0258
10412TIP3   OH255430   3.720   2.439   0.991 -0.7954 -0.1961 -0.2882
10412TIP3    H155431   3.641   2.413   1.039 -1.6904  3.4545  0.5098
10412TIP3    H255432   3.792   2.394   1.036 -2.0711 -0.6278  1.3971
10413TIP3   OH255433   4.079   5.987   0.726 -0.4916 -0.3934  0.6045
10413TIP3    H155434   3.995   6.017   0.763 -1.0977 -2.0874  0.7319
10413TIP3    H255435   4.087   6.033   0.643 -0.8790  0.7987  1.2067
10414TIP3   OH255436   1.577   2.862   2.112  0.7099  0.2174 -0.1799
10414TIP3    H155437   1.618   2.842   2.195 -0.0380 -0.0641  0.1326
10414TIP3    H255438   1.645   2.847   2.046  1.4458  0.8831  0.4052
10415TIP3   OH255439   5.568   5.108   2.887  0.5202  0.4971  0.0098
10415TIP3    H155440   5.520   5.038   2.931  3.0669 -2.5202 -1.6032
10415TIP3    H255441   5.625   5.145   2.956  0.6632 -0.4883  0.4287
10416TIP3   OH255442   4.520   1.070   2.361  0.3178 -0.1970 -0.0398
10416TIP3    H155443   4.438   1.081   2.408  0.0693  0.1253 -0.5433
10416TIP3    H255444   4.553   1.159   2.347  0.0383 -0.2409 -1.0780
10417TIP3   OH255445   5.512   5.058   1.994 -0.0787 -0.2949  0.6825
10417TIP3    H155446   5.502   4.963   1.981 -0.4855 -0.3148  1.0802
10417TIP3    H255447   5.470   5.097   1.918 -1.7988 -0.4137  1.5061
10418TIP3   OH255448   3.600   0.966   1.822 -0.1319  0.3531 -0.2973
10418TIP3    H155449   3.648   0.944   1.742 -0.7017  2.7079 -1.3782
10418TIP3    H255450   3.518   0.918   1.814 -1.4249  2.6457 -2.6643
10419TIP3   OH255451   5.971   3.568   3.787  0.7434  0.1943 -0.0824
10419TIP3    H155452   6.021   3.635   3.833  2.0892 -0.3179 -0.7594
10419TIP3    H255453   6.035   3.525   3.730  0.2364 -2.5191  1.2418
10420TIP3   OH255454   5.921   4.710   4.436  0.7545 -0.2400 -0.4418
10420TIP3    H155455   5.831   4.704   4.403 -0.0082 -1.4744  1.6641
10420TIP3    H255456   5.952   4.796   4.406 -1.0853  0.1813 -1.2693
10421TIP3   OH255457   0.400   0.810   1.697 -0.4970  0.0657  0.2788
10421TIP3    H155458   0.371   0.874   1.632  0.2930 -0.5659 -0.7337
10421TIP3    H255459   0.468   0.759   1.652 -1.1837 -1.5644  1.0013
10422TIP3   OH255460   2.980   5.781   1.067 -0.5190  0.1649  0.4837
10422TIP3    H155461   3.070   5.748   1.061 -0.4359  0.2420  1.1944
10422TIP3    H255462   2.990   5.876   1.065 -0.5678  0.1759  0.7433
10423TIP3   OH255463   1.216   1.113   2.768 -0.3215  0.4646 -0.0569
10423TIP3    H155464   1.202   1.035   2.715  0.9452 -0.1803  0.5224
10423TIP3    H255465   1.273   1.168   2.715  0.4291  0.0986  0.3613
10424TIP3   OH255466   1.477   6.268   1.869  0.0008 -0.6926 -0.3977
10424TIP3    H155467   1.453   6.270   1.962  0.3682 -0.0903 -0.3027
10424TIP3    H255468   1.559   6.218   1.867 -0.3941 -1.3410 -0.5003
10425TIP3   OH255469   5.629   0.291   1.717  0.0618  0.4113  0.2706
10425TIP3    H155470   5.677   0.274   1.798  1.1077  1.0732 -0.1814
10425TIP3    H255471   5.555   0.231   1.719  1.4979 -1.4448  0.4911
10426TIP3   OH255472   3.465   2.847   1.623  0.6481 -0.0517  0.0499
10426TIP3    H155473   3.413   2.836   1.703 -1.9953  0.3862 -1.4904
10426TIP3    H255474   3.406   2.891   1.562  2.5431 -0.4168 -2.1750
10427TIP3   OH255475   4.812   5.905   0.801 -0.4224  0.1005 -0.3852
10427TIP3    H155476   4.812   5.838   0.870 -1.4987  0.5590  0.0804
10427TIP3    H255477   4.877   5.969   0.831 -1.2521  0.5630  0.5013
10428TIP3   OH255478   0.197   3.530   1.398  0.0597  0.3471 -0.6249
10428TIP3    H155479   0.114   3.517   1.444  0.4089 -0.9066 -0.3155
10428TIP3    H255480   0.263   3.530   1.467  0.4383 -0.0055 -0.9744
10429TIP3   OH255481   0.449   4.243   1.375  0.3308  0.1137 -0.1127
10429TIP3    H155482   0.374   4.186   1.360 -1.2977  1.9290  0.6202
10429TIP3    H255483   0.435   4.318   1.317  1.2678  0.7550  0.4551
10430TIP3   OH255484   0.328   2.587   3.281  0.2865 -0.0211  0.1513
10430TIP3    H155485   0.314   2.656   3.216 -1.5816 -1.1981 -0.8101
10430TIP3    H255486   0.415   2.552   3.261  0.1917  0.3651 -1.0494
10431TIP3   OH255487   4.146   4.545   2.693 -0.5341 -0.3774 -0.4373
10431TIP3    H155488   4.063   4.558   2.647 -2.0233 -1.3069  1.7600
10431TIP3    H255489   4.183   4.467   2.653 -1.3042 -0.6225 -0.7051
10432TIP3   OH255490   4.235   0.353   0.823 -0.0285  0.6061  0.1287
10432TIP3    H155491   4.203   0.386   0.739  2.6006  2.0117 -0.4166
10432TIP3    H255492   4.329   0.344   0.811  0.0227 -2.7374  1.7977
10433TIP3   OH255493   1.562   0.767   1.088 -0.3742 -0.4468  0.2118
10433TIP3    H155494   1.565   0.780   1.183  0.5837 -0.3810  0.1847
10433TIP3    H255495   1.628   0.700   1.071 -0.2172 -0.1294 -0.4606
10434TIP3   OH255496   4.574   4.510   2.388 -0.0632 -0.0433  0.2535
10434TIP3    H155497   4.648   4.564   2.360 -0.5744  0.6384  0.1866
10434TIP3    H255498   4.553   4.457   2.311 -0.8602  1.1474 -0.3972
10435TIP3   OH255499   5.245   0.358   1.618  0.3756 -0.2012 -0.1529
10435TIP3    H155500   5.283   0.445   1.614 -2.4249  1.1717  0.5915
10435TIP3    H255501   5.212   0.342   1.530  1.0573 -0.6079 -0.3384
10436TIP3   OH255502   4.601   3.229   4.333 -0.0273  0.3121  0.0099
10436TIP3    H155503   4.529   3.221   4.395  0.2312  2.4095  0.6646
10436TIP3    H255504   4.575   3.176   4.258 -0.9293 -1.2472  1.3654
10437TIP3   OH255505   3.071   5.469   0.825 -0.3080  0.1240 -0.3539
10437TIP3    H155506   3.079   5.397   0.886 -0.0291  2.4156  2.5318
10437TIP3    H255507   2.987   5.455   0.781 -0.0336 -2.1425 -0.2633
10438TIP3   OH255508   3.917   6.166   2.494 -0.1638 -0.8976  0.1985
10438TIP3    H155509   3.899   6.087   2.443  1.6074 -0.5777 -1.0362
10438TIP3    H255510   3.934   6.135   2.583  1.8091 -2.1047 -0.5386
10439TIP3   OH255511   1.187   5.940   1.775  0.1471 -0.6429  0.5612
10439TIP3    H155512   1.238   5.860   1.788  1.3968  0.0462  0.0552
10439TIP3    H255513   1.109   5.927   1.829  1.5662 -1.0872  2.6325
   6.70766   6.70766  30.00000
