Generated by CHARMM-GUI FF-Converter
55513
    1DOPE     N    1   3.845   3.899   6.784
    1DOPE   HN1    2   3.852   3.891   6.887
    1DOPE   HN2    3   3.861   3.997   6.754
    1DOPE   HN3    4   3.750   3.866   6.757
    1DOPE   C12    5   3.943   3.803   6.725
    1DOPE  H12A    6   4.044   3.834   6.760
    1DOPE  H12B    7   3.940   3.811   6.615
    1DOPE   C11    8   3.909   3.660   6.772
    1DOPE  H11A    9   3.987   3.588   6.738
    1DOPE  H11B   10   3.814   3.628   6.722
    1DOPE     P   11   4.009   3.651   7.018
    1DOPE   O13   12   4.035   3.512   7.062
    1DOPE   O14   13   3.972   3.752   7.120
    1DOPE   O11   14   4.125   3.699   6.923
    1DOPE   O12   15   3.890   3.653   6.913
    1DOPE    C1   16   4.260   3.730   6.952
    1DOPE    HA   17   4.305   3.660   7.025
    1DOPE    HB   18   4.265   3.833   6.994
    1DOPE    C2   19   4.343   3.728   6.821
    1DOPE    HS   20   4.447   3.760   6.847
    1DOPE   O21   21   4.286   3.822   6.731
    1DOPE   C21   22   4.348   3.849   6.620
    1DOPE   O22   23   4.452   3.801   6.579
    1DOPE   C22   24   4.263   3.957   6.554
    1DOPE   H2R   25   4.189   3.996   6.627
    1DOPE   H2S   26   4.208   3.907   6.472
    1DOPE    C3   27   4.352   3.587   6.755
    1DOPE    HX   28   4.376   3.521   6.840
    1DOPE    HY   29   4.441   3.590   6.690
    1DOPE   O31   30   4.234   3.539   6.685
    1DOPE   C31   31   4.252   3.416   6.631
    1DOPE   O32   32   4.359   3.359   6.624
    1DOPE   C32   33   4.123   3.351   6.585
    1DOPE   H2X   34   4.137   3.241   6.596
    1DOPE   H2Y   35   4.040   3.381   6.652
    1DOPE   C23   36   4.353   4.071   6.508
    1DOPE   H3R   37   4.432   4.092   6.584
    1DOPE   H3S   38   4.293   4.164   6.494
    1DOPE   C24   39   4.414   4.031   6.375
    1DOPE   H4R   40   4.451   3.927   6.382
    1DOPE   H4S   41   4.504   4.086   6.346
    1DOPE   C25   42   4.313   4.050   6.264
    1DOPE   H5R   43   4.301   4.160   6.245
    1DOPE   H5S   44   4.214   4.013   6.297
    1DOPE   C26   45   4.358   3.977   6.139
    1DOPE   H6R   46   4.462   4.010   6.120
    1DOPE   H6S   47   4.299   4.009   6.053
    1DOPE   C27   48   4.359   3.824   6.152
    1DOPE   H7R   49   4.395   3.791   6.252
    1DOPE   H7S   50   4.430   3.784   6.078
    1DOPE   C28   51   4.229   3.753   6.116
    1DOPE   H8R   52   4.206   3.772   6.009
    1DOPE   H8S   53   4.150   3.798   6.178
    1DOPE   C29   54   4.249   3.607   6.149
    1DOPE   H9R   55   4.285   3.593   6.252
    1DOPE  C210   56   4.235   3.498   6.071
    1DOPE  H10R   57   4.250   3.399   6.117
    1DOPE  C211   58   4.194   3.491   5.927
    1DOPE  H11R   59   4.185   3.596   5.887
    1DOPE  H11S   60   4.091   3.453   5.924
    1DOPE  C212   61   4.277   3.419   5.814
    1DOPE  H12R   62   4.328   3.511   5.787
    1DOPE  H12S   63   4.206   3.389   5.737
    1DOPE  C213   64   4.383   3.305   5.825
    1DOPE  H13R   65   4.329   3.211   5.849
    1DOPE  H13S   66   4.437   3.329   5.916
    1DOPE  C214   67   4.488   3.243   5.717
    1DOPE  H14R   68   4.469   3.137   5.731
    1DOPE  H14S   69   4.571   3.249   5.790
    1DOPE  C215   70   4.593   3.279   5.592
    1DOPE  H15R   71   4.615   3.177   5.581
    1DOPE  H15S   72   4.688   3.309   5.640
    1DOPE  C216   73   4.591   3.352   5.441
    1DOPE  H16R   74   4.647   3.446   5.442
    1DOPE  H16S   75   4.496   3.380   5.406
    1DOPE  C217   76   4.613   3.305   5.291
    1DOPE  H17R   77   4.636   3.200   5.288
    1DOPE  H17S   78   4.700   3.362   5.252
    1DOPE  C218   79   4.497   3.328   5.188
    1DOPE  H18R   80   4.466   3.434   5.182
    1DOPE  H18S   81   4.405   3.272   5.211
    1DOPE  H18T   82   4.527   3.294   5.087
    1DOPE   C33   83   4.089   3.382   6.438
    1DOPE   H3X   84   4.001   3.319   6.409
    1DOPE   H3Y   85   4.171   3.354   6.368
    1DOPE   C34   86   4.051   3.529   6.423
    1DOPE   H4X   87   4.008   3.565   6.519
    1DOPE   H4Y   88   4.142   3.590   6.404
    1DOPE   C35   89   3.947   3.554   6.314
    1DOPE   H5X   90   3.854   3.497   6.337
    1DOPE   H5Y   91   3.987   3.515   6.218
    1DOPE   C36   92   3.916   3.703   6.301
    1DOPE   H6X   93   4.000   3.761   6.346
    1DOPE   H6Y   94   3.823   3.727   6.358
    1DOPE   C37   95   3.897   3.747   6.156
    1DOPE   H7X   96   3.981   3.716   6.092
    1DOPE   H7Y   97   3.808   3.693   6.116
    1DOPE   C38   98   3.870   3.899   6.143
    1DOPE   H8X   99   3.802   3.923   6.227
    1DOPE   H8Y  100   3.812   3.910   6.049
    1DOPE   C39  101   3.982   3.999   6.147
    1DOPE   H9X  102   4.030   4.009   6.245
    1DOPE  C310  103   4.024   4.077   6.045
    1DOPE  H10X  104   4.111   4.143   6.059
    1DOPE  C311  105   3.965   4.077   5.907
    1DOPE  H11X  106   3.857   4.052   5.905
    1DOPE  H11Y  107   3.978   4.177   5.861
    1DOPE  C312  108   4.040   3.982   5.816
    1DOPE  H12X  109   3.983   3.974   5.721
    1DOPE  H12Y  110   4.048   3.879   5.859
    1DOPE  C313  111   4.178   4.039   5.786
    1DOPE  H13X  112   4.170   4.147   5.761
    1DOPE  H13Y  113   4.248   4.030   5.870
    1DOPE  C314  114   4.234   3.969   5.666
    1DOPE  H14X  115   4.151   3.965   5.591
    1DOPE  H14Y  116   4.255   3.861   5.685
    1DOPE  C315  117   4.342   4.052   5.593
    1DOPE  H15X  118   4.284   4.132   5.549
    1DOPE  H15Y  119   4.349   3.988   5.509
    1DOPE  C316  120   4.478   4.110   5.658
    1DOPE  H16X  121   4.463   4.114   5.765
    1DOPE  H16Y  122   4.463   4.211   5.625
    1DOPE  C317  123   4.634   4.134   5.615
    1DOPE  H17X  124   4.635   4.215   5.539
    1DOPE  H17Y  125   4.683   4.176   5.705
    1DOPE  C318  126   4.744   4.041   5.558
    1DOPE  H18X  127   4.824   4.113   5.527
    1DOPE  H18Y  128   4.782   3.963   5.628
    1DOPE  H18Z  129   4.712   3.987   5.468
    2DOPE     N  130   4.521   4.437   6.899
    2DOPE   HN1  131   4.523   4.531   6.945
    2DOPE   HN2  132   4.605   4.425   6.838
    2DOPE   HN3  133   4.436   4.430   6.840
    2DOPE   C12  134   4.524   4.326   7.004
    2DOPE  H12A  135   4.422   4.318   7.047
    2DOPE  H12B  136   4.593   4.356   7.084
    2DOPE   C11  137   4.569   4.188   6.948
    2DOPE  H11A  138   4.527   4.169   6.847
    2DOPE  H11B  139   4.527   4.111   7.017
    2DOPE     P  140   4.786   4.044   6.902
    2DOPE   O13  141   4.692   3.930   6.909
    2DOPE   O14  142   4.915   4.034   6.976
    2DOPE   O11  143   4.817   4.085   6.750
    2DOPE   O12  144   4.712   4.179   6.949
    2DOPE    C1  145   4.870   4.218   6.733
    2DOPE    HA  146   4.960   4.232   6.798
    2DOPE    HB  147   4.795   4.294   6.765
    2DOPE    C2  148   4.918   4.256   6.589
    2DOPE    HS  149   4.965   4.357   6.597
    2DOPE   O21  150   4.815   4.264   6.491
    2DOPE   C21  151   4.709   4.336   6.510
    2DOPE   O22  152   4.687   4.416   6.600
    2DOPE   C22  153   4.607   4.297   6.406
    2DOPE   H2R  154   4.531   4.244   6.466
    2DOPE   H2S  155   4.653   4.227   6.333
    2DOPE    C3  156   5.026   4.158   6.533
    2DOPE    HX  157   5.105   4.149   6.611
    2DOPE    HY  158   5.075   4.204   6.444
    2DOPE   O31  159   4.973   4.027   6.504
    2DOPE   C31  160   4.908   4.014   6.387
    2DOPE   O32  161   4.912   4.094   6.296
    2DOPE   C32  162   4.831   3.880   6.383
    2DOPE   H2X  163   4.885   3.808   6.448
    2DOPE   H2Y  164   4.732   3.899   6.429
    2DOPE   C23  165   4.532   4.411   6.332
    2DOPE   H3R  166   4.512   4.496   6.400
    2DOPE   H3S  167   4.433   4.369   6.301
    2DOPE   C24  168   4.600   4.459   6.204
    2DOPE   H4R  169   4.701   4.499   6.225
    2DOPE   H4S  170   4.539   4.541   6.161
    2DOPE   C25  171   4.611   4.349   6.098
    2DOPE   H5R  172   4.515   4.292   6.097
    2DOPE   H5S  173   4.690   4.275   6.125
    2DOPE   C26  174   4.636   4.408   5.957
    2DOPE   H6R  175   4.741   4.381   5.928
    2DOPE   H6S  176   4.621   4.518   5.954
    2DOPE   C27  177   4.543   4.344   5.854
    2DOPE   H7R  178   4.554   4.238   5.887
    2DOPE   H7S  179   4.580   4.355   5.750
    2DOPE   C28  180   4.394   4.385   5.856
    2DOPE   H8R  181   4.368   4.409   5.962
    2DOPE   H8S  182   4.335   4.293   5.834
    2DOPE   C29  183   4.354   4.502   5.766
    2DOPE   H9R  184   4.369   4.598   5.816
    2DOPE  C210  185   4.326   4.506   5.632
    2DOPE  H10R  186   4.314   4.603   5.580
    2DOPE  C211  187   4.332   4.386   5.543
    2DOPE  H11R  188   4.306   4.305   5.613
    2DOPE  H11S  189   4.440   4.382   5.516
    2DOPE  C212  190   4.271   4.340   5.408
    2DOPE  H12R  191   4.163   4.314   5.416
    2DOPE  H12S  192   4.318   4.242   5.381
    2DOPE  C213  193   4.305   4.435   5.294
    2DOPE  H13R  194   4.274   4.538   5.322
    2DOPE  H13S  195   4.250   4.400   5.204
    2DOPE  C214  196   4.449   4.440   5.244
    2DOPE  H14R  197   4.473   4.340   5.202
    2DOPE  H14S  198   4.522   4.463   5.324
    2DOPE  C215  199   4.457   4.544   5.132
    2DOPE  H15R  200   4.444   4.643   5.179
    2DOPE  H15S  201   4.371   4.529   5.062
    2DOPE  C216  202   4.587   4.536   5.053
    2DOPE  H16R  203   4.670   4.521   5.126
    2DOPE  H16S  204   4.606   4.632   5.000
    2DOPE  C217  205   4.586   4.421   4.951
    2DOPE  H17R  206   4.553   4.461   4.853
    2DOPE  H17S  207   4.512   4.344   4.982
    2DOPE  C218  208   4.721   4.351   4.934
    2DOPE  H18R  209   4.723   4.292   4.841
    2DOPE  H18S  210   4.747   4.289   5.022
    2DOPE  H18T  211   4.802   4.421   4.917
    2DOPE   C33  212   4.809   3.818   6.240
    2DOPE   H3X  213   4.781   3.711   6.255
    2DOPE   H3Y  214   4.903   3.816   6.184
    2DOPE   C34  215   4.699   3.889   6.155
    2DOPE   H4X  216   4.609   3.890   6.220
    2DOPE   H4Y  217   4.733   3.993   6.136
    2DOPE   C35  218   4.664   3.825   6.018
    2DOPE   H5X  219   4.618   3.725   6.032
    2DOPE   H5Y  220   4.762   3.808   5.968
    2DOPE   C36  221   4.581   3.906   5.910
    2DOPE   H6X  222   4.668   3.927   5.844
    2DOPE   H6Y  223   4.549   4.008   5.936
    2DOPE   C37  224   4.473   3.831   5.820
    2DOPE   H7X  225   4.476   3.729   5.861
    2DOPE   H7Y  226   4.370   3.861   5.841
    2DOPE   C38  227   4.520   3.837   5.665
    2DOPE   H8X  228   4.587   3.760   5.688
    2DOPE   H8Y  229   4.590   3.914   5.673
    2DOPE   C39  230   4.509   3.808   5.511
    2DOPE   H9X  231   4.508   3.702   5.492
    2DOPE  C310  232   4.503   3.873   5.389
    2DOPE  H10X  233   4.499   3.807   5.302
    2DOPE  C311  234   4.505   4.021   5.342
    2DOPE  H11X  235   4.405   4.041   5.297
    2DOPE  H11Y  236   4.503   4.097   5.420
    2DOPE  C312  237   4.612   4.076   5.247
    2DOPE  H12X  238   4.709   4.098   5.294
    2DOPE  H12Y  239   4.577   4.174   5.205
    2DOPE  C313  240   4.621   3.983   5.130
    2DOPE  H13X  241   4.696   4.026   5.062
    2DOPE  H13Y  242   4.658   3.884   5.163
    2DOPE  C314  243   4.478   3.976   5.074
    2DOPE  H14X  244   4.428   4.075   5.076
    2DOPE  H14Y  245   4.420   3.906   5.138
    2DOPE  C315  246   4.465   3.916   4.937
    2DOPE  H15X  247   4.363   3.871   4.930
    2DOPE  H15Y  248   4.539   3.835   4.942
    2DOPE  C316  249   4.480   4.015   4.821
    2DOPE  H16X  250   4.409   4.099   4.838
    2DOPE  H16Y  251   4.448   3.970   4.725
    2DOPE  C317  252   4.619   4.078   4.810
    2DOPE  H17X  253   4.623   4.148   4.723
    2DOPE  H17Y  254   4.618   4.137   4.904
    2DOPE  C318  255   4.749   3.995   4.815
    2DOPE  H18X  256   4.834   4.063   4.838
    2DOPE  H18Y  257   4.746   3.919   4.895
    2DOPE  H18Z  258   4.770   3.943   4.719
    3DOPE     N  259   3.622   5.152   6.724
    3DOPE   HN1  260   3.704   5.152   6.788
    3DOPE   HN2  261   3.622   5.061   6.673
    3DOPE   HN3  262   3.641   5.228   6.656
    3DOPE   C12  263   3.490   5.172   6.796
    3DOPE  H12A  264   3.409   5.168   6.720
    3DOPE  H12B  265   3.491   5.272   6.843
    3DOPE   C11  266   3.465   5.063   6.903
    3DOPE  H11A  267   3.551   5.065   6.974
    3DOPE  H11B  268   3.468   4.963   6.853
    3DOPE     P  269   3.214   4.995   6.947
    3DOPE   O13  270   3.110   5.021   7.049
    3DOPE   O14  271   3.258   4.856   6.926
    3DOPE   O11  272   3.169   5.060   6.810
    3DOPE   O12  273   3.344   5.084   6.976
    3DOPE    C1  274   3.063   5.003   6.733
    3DOPE    HA  275   3.003   5.085   6.690
    3DOPE    HB  276   2.995   4.939   6.795
    3DOPE    C2  277   3.118   4.920   6.614
    3DOPE    HS  278   3.177   4.837   6.661
    3DOPE   O21  279   3.200   5.005   6.531
    3DOPE   C21  280   3.293   4.935   6.466
    3DOPE   O22  281   3.305   4.815   6.471
    3DOPE   C22  282   3.393   5.030   6.400
    3DOPE   H2R  283   3.412   5.115   6.468
    3DOPE   H2S  284   3.347   5.068   6.308
    3DOPE    C3  285   3.001   4.861   6.532
    3DOPE    HX  286   2.941   4.799   6.602
    3DOPE    HY  287   3.042   4.792   6.454
    3DOPE   O31  288   2.919   4.968   6.481
    3DOPE   C31  289   2.923   4.987   6.349
    3DOPE   O32  290   2.963   4.907   6.267
    3DOPE   C32  291   2.876   5.130   6.318
    3DOPE   H2X  292   2.766   5.128   6.309
    3DOPE   H2Y  293   2.905   5.195   6.404
    3DOPE   C23  294   3.523   4.954   6.367
    3DOPE   H3R  295   3.549   4.885   6.451
    3DOPE   H3S  296   3.608   5.025   6.354
    3DOPE   C24  297   3.508   4.873   6.238
    3DOPE   H4R  298   3.402   4.842   6.225
    3DOPE   H4S  299   3.567   4.779   6.244
    3DOPE   C25  300   3.553   4.952   6.114
    3DOPE   H5R  301   3.664   4.950   6.110
    3DOPE   H5S  302   3.522   5.058   6.122
    3DOPE   C26  303   3.495   4.895   5.984
    3DOPE   H6R  304   3.503   4.784   5.985
    3DOPE   H6S  305   3.558   4.933   5.900
    3DOPE   C27  306   3.349   4.934   5.959
    3DOPE   H7R  307   3.346   5.023   5.893
    3DOPE   H7S  308   3.304   4.963   6.057
    3DOPE   C28  309   3.261   4.827   5.892
    3DOPE   H8R  310   3.273   4.730   5.946
    3DOPE   H8S  311   3.296   4.811   5.788
    3DOPE   C29  312   3.117   4.872   5.897
    3DOPE   H9R  313   3.059   4.836   5.983
    3DOPE  C210  314   3.058   4.956   5.810
    3DOPE  H10R  315   2.952   4.982   5.826
    3DOPE  C211  316   3.121   5.022   5.690
    3DOPE  H11R  317   3.190   4.953   5.637
    3DOPE  H11S  318   3.183   5.109   5.722
    3DOPE  C212  319   3.013   5.073   5.591
    3DOPE  H12R  320   3.066   5.111   5.500
    3DOPE  H12S  321   2.960   5.159   5.637
    3DOPE  C213  322   2.910   4.967   5.548
    3DOPE  H13R  323   2.832   5.015   5.484
    3DOPE  H13S  324   2.858   4.922   5.636
    3DOPE  C214  325   2.976   4.856   5.466
    3DOPE  H14R  326   3.066   4.818   5.518
    3DOPE  H14S  327   3.008   4.906   5.373
    3DOPE  C215  328   2.886   4.736   5.432
    3DOPE  H15R  329   2.798   4.770   5.373
    3DOPE  H15S  330   2.849   4.690   5.526
    3DOPE  C216  331   2.965   4.631   5.354
    3DOPE  H16R  332   3.052   4.599   5.416
    3DOPE  H16S  333   3.004   4.675   5.260
    3DOPE  C217  334   2.889   4.507   5.310
    3DOPE  H17R  335   2.844   4.454   5.397
    3DOPE  H17S  336   2.968   4.442   5.267
    3DOPE  C218  337   2.786   4.531   5.200
    3DOPE  H18R  338   2.833   4.589   5.117
    3DOPE  H18S  339   2.699   4.587   5.239
    3DOPE  H18T  340   2.750   4.434   5.158
    3DOPE   C33  341   2.942   5.184   6.190
    3DOPE   H3X  342   2.897   5.282   6.162
    3DOPE   H3Y  343   2.925   5.115   6.105
    3DOPE   C34  344   3.093   5.205   6.210
    3DOPE   H4X  345   3.110   5.292   6.279
    3DOPE   H4Y  346   3.138   5.116   6.258
    3DOPE   C35  347   3.167   5.229   6.079
    3DOPE   H5X  348   3.115   5.308   6.021
    3DOPE   H5Y  349   3.163   5.135   6.018
    3DOPE   C36  350   3.313   5.270   6.100
    3DOPE   H6X  351   3.368   5.189   6.150
    3DOPE   H6Y  352   3.315   5.359   6.167
    3DOPE   C37  353   3.382   5.303   5.969
    3DOPE   H7X  354   3.393   5.212   5.907
    3DOPE   H7Y  355   3.313   5.368   5.913
    3DOPE   C38  356   3.519   5.373   5.985
    3DOPE   H8X  357   3.526   5.412   6.089
    3DOPE   H8Y  358   3.517   5.463   5.919
    3DOPE   C39  359   3.640   5.290   5.950
    3DOPE   H9X  360   3.710   5.269   6.032
    3DOPE  C310  361   3.667   5.243   5.827
    3DOPE  H10X  362   3.763   5.191   5.810
    3DOPE  C311  363   3.583   5.264   5.703
    3DOPE  H11X  364   3.491   5.323   5.726
    3DOPE  H11Y  365   3.638   5.327   5.631
    3DOPE  C312  366   3.535   5.136   5.630
    3DOPE  H12X  367   3.501   5.164   5.527
    3DOPE  H12Y  368   3.444   5.101   5.684
    3DOPE  C313  369   3.634   5.018   5.620
    3DOPE  H13X  370   3.695   5.025   5.528
    3DOPE  H13Y  371   3.704   5.019   5.706
    3DOPE  C314  372   3.562   4.882   5.629
    3DOPE  H14X  373   3.489   4.888   5.712
    3DOPE  H14Y  374   3.634   4.801   5.652
    3DOPE  C315  375   3.482   4.844   5.504
    3DOPE  H15X  376   3.413   4.928   5.481
    3DOPE  H15Y  377   3.418   4.756   5.529
    3DOPE  C316  378   3.569   4.810   5.383
    3DOPE  H16X  379   3.526   4.720   5.333
    3DOPE  H16Y  380   3.671   4.782   5.415
    3DOPE  C317  381   3.576   4.926   5.283
    3DOPE  H17X  382   3.479   4.981   5.282
    3DOPE  H17Y  383   3.653   4.997   5.319
    3DOPE  C318  384   3.611   4.887   5.139
    3DOPE  H18X  385   3.699   4.821   5.139
    3DOPE  H18Y  386   3.537   4.830   5.084
    3DOPE  H18Z  387   3.627   4.979   5.081
    4DOPE     N  388   4.342   2.502   6.738
    4DOPE   HN1  389   4.276   2.582   6.753
    4DOPE   HN2  390   4.396   2.520   6.651
    4DOPE   HN3  391   4.286   2.415   6.726
    4DOPE   C12  392   4.438   2.484   6.852
    4DOPE  H12A  393   4.466   2.378   6.851
    4DOPE  H12B  394   4.383   2.500   6.945
    4DOPE   C11  395   4.564   2.574   6.843
    4DOPE  H11A  396   4.534   2.679   6.823
    4DOPE  H11B  397   4.629   2.543   6.758
    4DOPE     P  398   4.669   2.451   7.056
    4DOPE   O13  399   4.544   2.443   7.137
    4DOPE   O14  400   4.798   2.468   7.127
    4DOPE   O11  401   4.673   2.338   6.947
    4DOPE   O12  402   4.642   2.574   6.962
    4DOPE    C1  403   4.637   2.201   6.953
    4DOPE    HA  404   4.546   2.187   7.016
    4DOPE    HB  405   4.720   2.143   7.002
    4DOPE    C2  406   4.613   2.141   6.809
    4DOPE    HS  407   4.708   2.093   6.779
    4DOPE   O21  408   4.574   2.242   6.712
    4DOPE   C21  409   4.672   2.305   6.654
    4DOPE   O22  410   4.781   2.330   6.697
    4DOPE   C22  411   4.637   2.340   6.512
    4DOPE   H2R  412   4.529   2.356   6.498
    4DOPE   H2S  413   4.669   2.250   6.453
    4DOPE    C3  414   4.500   2.033   6.802
    4DOPE    HX  415   4.405   2.089   6.797
    4DOPE    HY  416   4.495   1.977   6.897
    4DOPE   O31  417   4.510   1.937   6.691
    4DOPE   C31  418   4.476   1.985   6.570
    4DOPE   O32  419   4.444   2.100   6.548
    4DOPE   C32  420   4.480   1.877   6.460
    4DOPE   H2X  421   4.569   1.814   6.471
    4DOPE   H2Y  422   4.389   1.815   6.470
    4DOPE   C23  423   4.724   2.459   6.469
    4DOPE   H3R  424   4.832   2.445   6.494
    4DOPE   H3S  425   4.694   2.554   6.519
    4DOPE   C24  426   4.717   2.473   6.320
    4DOPE   H4R  427   4.615   2.512   6.297
    4DOPE   H4S  428   4.725   2.373   6.269
    4DOPE   C25  429   4.822   2.564   6.259
    4DOPE   H5R  430   4.918   2.511   6.239
    4DOPE   H5S  431   4.844   2.652   6.324
    4DOPE   C26  432   4.757   2.607   6.131
    4DOPE   H6R  433   4.663   2.659   6.162
    4DOPE   H6S  434   4.729   2.517   6.072
    4DOPE   C27  435   4.831   2.702   6.040
    4DOPE   H7R  436   4.925   2.658   5.999
    4DOPE   H7S  437   4.857   2.794   6.096
    4DOPE   C28  438   4.733   2.724   5.925
    4DOPE   H8R  439   4.721   2.622   5.883
    4DOPE   H8S  440   4.782   2.784   5.844
    4DOPE   C29  441   4.596   2.785   5.957
    4DOPE   H9R  442   4.599   2.882   6.009
    4DOPE  C210  443   4.476   2.730   5.932
    4DOPE  H10R  444   4.387   2.791   5.950
    4DOPE  C211  445   4.448   2.596   5.868
    4DOPE  H11R  446   4.346   2.559   5.897
    4DOPE  H11S  447   4.519   2.521   5.911
    4DOPE  C212  448   4.461   2.593   5.714
    4DOPE  H12R  449   4.388   2.665   5.671
    4DOPE  H12S  450   4.431   2.493   5.676
    4DOPE  C213  451   4.603   2.631   5.669
    4DOPE  H13R  452   4.684   2.558   5.685
    4DOPE  H13S  453   4.625   2.725   5.722
    4DOPE  C214  454   4.620   2.691   5.534
    4DOPE  H14R  455   4.721   2.738   5.523
    4DOPE  H14S  456   4.543   2.770   5.537
    4DOPE  C215  457   4.588   2.594   5.425
    4DOPE  H15R  458   4.526   2.650   5.353
    4DOPE  H15S  459   4.524   2.516   5.469
    4DOPE  C216  460   4.711   2.535   5.357
    4DOPE  H16R  461   4.680   2.436   5.317
    4DOPE  H16S  462   4.792   2.517   5.432
    4DOPE  C217  463   4.758   2.632   5.249
    4DOPE  H17R  464   4.844   2.688   5.293
    4DOPE  H17S  465   4.677   2.706   5.231
    4DOPE  C218  466   4.795   2.579   5.111
    4DOPE  H18R  467   4.708   2.541   5.055
    4DOPE  H18S  468   4.869   2.497   5.122
    4DOPE  H18T  469   4.840   2.662   5.052
    4DOPE   C33  470   4.480   1.952   6.324
    4DOPE   H3X  471   4.565   2.025   6.326
    4DOPE   H3Y  472   4.387   2.012   6.321
    4DOPE   C34  473   4.487   1.879   6.189
    4DOPE   H4X  474   4.590   1.839   6.173
    4DOPE   H4Y  475   4.416   1.793   6.185
    4DOPE   C35  476   4.452   1.977   6.073
    4DOPE   H5X  477   4.343   1.998   6.076
    4DOPE   H5Y  478   4.475   1.930   5.975
    4DOPE   C36  479   4.525   2.112   6.085
    4DOPE   H6X  480   4.635   2.093   6.089
    4DOPE   H6Y  481   4.497   2.164   6.179
    4DOPE   C37  482   4.497   2.212   5.971
    4DOPE   H7X  483   4.402   2.186   5.918
    4DOPE   H7Y  484   4.485   2.314   6.015
    4DOPE   C38  485   4.616   2.210   5.876
    4DOPE   H8X  486   4.624   2.106   5.840
    4DOPE   H8Y  487   4.706   2.229   5.939
    4DOPE   C39  488   4.619   2.310   5.765
    4DOPE   H9X  489   4.639   2.411   5.800
    4DOPE  C310  490   4.612   2.284   5.633
    4DOPE  H10X  491   4.613   2.367   5.561
    4DOPE  C311  492   4.598   2.147   5.575
    4DOPE  H11X  493   4.583   2.070   5.653
    4DOPE  H11Y  494   4.505   2.143   5.516
    4DOPE  C312  495   4.723   2.100   5.496
    4DOPE  H12X  496   4.737   1.993   5.522
    4DOPE  H12Y  497   4.815   2.156   5.524
    4DOPE  C313  498   4.716   2.110   5.345
    4DOPE  H13X  499   4.700   2.217   5.317
    4DOPE  H13Y  500   4.812   2.077   5.300
    4DOPE  C314  501   4.603   2.026   5.289
    4DOPE  H14X  502   4.514   2.052   5.347
    4DOPE  H14Y  503   4.620   1.916   5.302
    4DOPE  C315  504   4.577   2.062   5.145
    4DOPE  H15X  505   4.616   1.981   5.082
    4DOPE  H15Y  506   4.639   2.152   5.122
    4DOPE  C316  507   4.431   2.101   5.120
    4DOPE  H16X  508   4.427   2.186   5.050
    4DOPE  H16Y  509   4.383   2.130   5.215
    4DOPE  C317  510   4.339   1.999   5.057
    4DOPE  H17X  511   4.380   1.969   4.959
    4DOPE  H17Y  512   4.336   1.910   5.123
    4DOPE  C318  513   4.200   2.060   5.037
    4DOPE  H18X  514   4.124   1.982   5.015
    4DOPE  H18Y  515   4.169   2.116   5.128
    4DOPE  H18Z  516   4.203   2.132   4.953
    5DOPE     N  517   1.681   4.263   6.761
    5DOPE   HN1  518   1.609   4.190   6.749
    5DOPE   HN2  519   1.639   4.356   6.784
    5DOPE   HN3  520   1.735   4.274   6.672
    5DOPE   C12  521   1.776   4.237   6.871
    5DOPE  H12A  522   1.717   4.218   6.962
    5DOPE  H12B  523   1.835   4.331   6.884
    5DOPE   C11  524   1.865   4.117   6.840
    5DOPE  H11A  525   1.935   4.132   6.755
    5DOPE  H11B  526   1.805   4.028   6.812
    5DOPE     P  527   2.048   4.190   7.012
    5DOPE   O13  528   2.159   4.100   7.051
    5DOPE   O14  529   1.983   4.276   7.114
    5DOPE   O11  530   2.074   4.271   6.875
    5DOPE   O12  531   1.939   4.089   6.956
    5DOPE    C1  532   2.199   4.322   6.831
    5DOPE    HA  533   2.282   4.249   6.848
    5DOPE    HB  534   2.224   4.414   6.889
    5DOPE    C2  535   2.209   4.358   6.676
    5DOPE    HS  536   2.305   4.413   6.663
    5DOPE   O21  537   2.098   4.440   6.631
    5DOPE   C21  538   2.034   4.407   6.519
    5DOPE   O22  539   2.080   4.399   6.406
    5DOPE   C22  540   1.895   4.355   6.563
    5DOPE   H2R  541   1.857   4.429   6.636
    5DOPE   H2S  542   1.915   4.265   6.621
    5DOPE    C3  543   2.221   4.226   6.591
    5DOPE    HX  544   2.293   4.159   6.643
    5DOPE    HY  545   2.269   4.261   6.496
    5DOPE   O31  546   2.098   4.151   6.570
    5DOPE   C31  547   2.099   4.082   6.455
    5DOPE   O32  548   2.188   4.086   6.373
    5DOPE   C32  549   1.970   4.001   6.442
    5DOPE   H2X  550   1.982   3.916   6.511
    5DOPE   H2Y  551   1.884   4.059   6.478
    5DOPE   C23  552   1.796   4.325   6.446
    5DOPE   H3R  553   1.791   4.218   6.420
    5DOPE   H3S  554   1.831   4.378   6.354
    5DOPE   C24  555   1.652   4.372   6.467
    5DOPE   H4R  556   1.652   4.481   6.460
    5DOPE   H4S  557   1.614   4.350   6.565
    5DOPE   C25  558   1.547   4.319   6.368
    5DOPE   H5R  559   1.450   4.370   6.384
    5DOPE   H5S  560   1.533   4.210   6.390
    5DOPE   C26  561   1.583   4.326   6.220
    5DOPE   H6R  562   1.522   4.245   6.173
    5DOPE   H6S  563   1.689   4.298   6.203
    5DOPE   C27  564   1.552   4.455   6.143
    5DOPE   H7R  565   1.611   4.537   6.186
    5DOPE   H7S  566   1.447   4.485   6.154
    5DOPE   C28  567   1.588   4.448   5.994
    5DOPE   H8R  568   1.692   4.409   5.983
    5DOPE   H8S  569   1.585   4.548   5.947
    5DOPE   C29  570   1.486   4.357   5.933
    5DOPE   H9R  571   1.384   4.399   5.922
    5DOPE  C210  572   1.507   4.229   5.908
    5DOPE  H10R  573   1.417   4.168   5.896
    5DOPE  C211  574   1.634   4.151   5.934
    5DOPE  H11R  575   1.614   4.051   5.976
    5DOPE  H11S  576   1.697   4.200   6.011
    5DOPE  C212  577   1.722   4.135   5.810
    5DOPE  H12R  578   1.804   4.065   5.838
    5DOPE  H12S  579   1.769   4.231   5.782
    5DOPE  C213  580   1.652   4.077   5.687
    5DOPE  H13R  581   1.620   4.160   5.621
    5DOPE  H13S  582   1.561   4.022   5.717
    5DOPE  C214  583   1.747   3.980   5.615
    5DOPE  H14R  584   1.780   3.902   5.688
    5DOPE  H14S  585   1.838   4.036   5.584
    5DOPE  C215  586   1.684   3.912   5.494
    5DOPE  H15R  587   1.609   3.838   5.529
    5DOPE  H15S  588   1.763   3.856   5.439
    5DOPE  C216  589   1.614   4.010   5.398
    5DOPE  H16R  590   1.521   4.047   5.447
    5DOPE  H16S  591   1.583   3.955   5.306
    5DOPE  C217  592   1.700   4.129   5.357
    5DOPE  H17R  593   1.749   4.176   5.445
    5DOPE  H17S  594   1.638   4.208   5.311
    5DOPE  C218  595   1.806   4.091   5.256
    5DOPE  H18R  596   1.882   4.171   5.248
    5DOPE  H18S  597   1.763   4.073   5.156
    5DOPE  H18T  598   1.855   3.998   5.289
    5DOPE   C33  599   1.944   3.951   6.298
    5DOPE   H3X  600   1.881   3.860   6.308
    5DOPE   H3Y  601   2.039   3.919   6.248
    5DOPE   C34  602   1.866   4.048   6.207
    5DOPE   H4X  603   1.839   3.998   6.112
    5DOPE   H4Y  604   1.769   4.071   6.257
    5DOPE   C35  605   1.936   4.182   6.176
    5DOPE   H5X  606   1.967   4.228   6.272
    5DOPE   H5Y  607   1.866   4.252   6.127
    5DOPE   C36  608   2.061   4.177   6.087
    5DOPE   H6X  609   2.136   4.113   6.137
    5DOPE   H6Y  610   2.103   4.280   6.081
    5DOPE   C37  611   2.035   4.126   5.945
    5DOPE   H7X  612   1.976   4.031   5.951
    5DOPE   H7Y  613   1.976   4.198   5.885
    5DOPE   C38  614   2.166   4.091   5.874
    5DOPE   H8X  615   2.151   3.997   5.817
    5DOPE   H8Y  616   2.239   4.065   5.953
    5DOPE   C39  617   2.222   4.201   5.788
    5DOPE   H9X  618   2.211   4.303   5.830
    5DOPE  C310  619   2.277   4.184   5.667
    5DOPE  H10X  620   2.309   4.273   5.611
    5DOPE  C311  621   2.294   4.053   5.595
    5DOPE  H11X  622   2.371   4.061   5.515
    5DOPE  H11Y  623   2.330   3.972   5.662
    5DOPE  C312  624   2.162   4.002   5.535
    5DOPE  H12X  625   2.084   3.998   5.614
    5DOPE  H12Y  626   2.175   3.897   5.499
    5DOPE  C313  627   2.113   4.088   5.420
    5DOPE  H13X  628   2.006   4.063   5.406
    5DOPE  H13Y  629   2.116   4.195   5.449
    5DOPE  C314  630   2.191   4.063   5.291
    5DOPE  H14X  631   2.196   3.953   5.272
    5DOPE  H14Y  632   2.295   4.099   5.307
    5DOPE  C315  633   2.131   4.133   5.169
    5DOPE  H15X  634   2.093   4.233   5.202
    5DOPE  H15Y  635   2.043   4.076   5.131
    5DOPE  C316  636   2.231   4.155   5.055
    5DOPE  H16X  637   2.235   4.065   4.990
    5DOPE  H16Y  638   2.332   4.169   5.099
    5DOPE  C317  639   2.199   4.282   4.975
    5DOPE  H17X  640   2.184   4.367   5.045
    5DOPE  H17Y  641   2.287   4.307   4.913
    5DOPE  C318  642   2.080   4.274   4.880
    5DOPE  H18X  643   1.987   4.246   4.934
    5DOPE  H18Y  644   2.064   4.372   4.831
    5DOPE  H18Z  645   2.100   4.200   4.800
    6DOPE     N  646   1.875   5.215   7.071
    6DOPE   HN1  647   1.840   5.117   7.077
    6DOPE   HN2  648   1.868   5.264   7.163
    6DOPE   HN3  649   1.826   5.266   6.994
    6DOPE   C12  650   2.015   5.200   7.022
    6DOPE  H12A  651   2.070   5.139   7.096
    6DOPE  H12B  652   2.060   5.301   7.014
    6DOPE   C11  653   2.010   5.127   6.886
    6DOPE  H11A  654   2.112   5.090   6.860
    6DOPE  H11B  655   1.982   5.201   6.809
    6DOPE     P  656   1.953   4.877   6.924
    6DOPE   O13  657   2.038   4.890   7.045
    6DOPE   O14  658   2.006   4.807   6.807
    6DOPE   O11  659   1.824   4.807   6.975
    6DOPE   O12  660   1.910   5.025   6.884
    6DOPE    C1  661   1.711   4.868   7.031
    6DOPE    HA  662   1.718   4.979   7.029
    6DOPE    HB  663   1.700   4.839   7.138
    6DOPE    C2  664   1.585   4.827   6.953
    6DOPE    HS  665   1.534   4.745   7.009
    6DOPE   O21  666   1.614   4.785   6.818
    6DOPE   C21  667   1.641   4.664   6.786
    6DOPE   O22  668   1.644   4.563   6.855
    6DOPE   C22  669   1.654   4.651   6.634
    6DOPE   H2R  670   1.558   4.635   6.583
    6DOPE   H2S  671   1.710   4.557   6.627
    6DOPE    C3  672   1.493   4.952   6.947
    6DOPE    HX  673   1.484   4.991   7.052
    6DOPE    HY  674   1.392   4.926   6.912
    6DOPE   O31  675   1.548   5.056   6.864
    6DOPE   C31  676   1.530   5.031   6.736
    6DOPE   O32  677   1.452   4.950   6.689
    6DOPE   C32  678   1.631   5.112   6.657
    6DOPE   H2X  679   1.644   5.211   6.706
    6DOPE   H2Y  680   1.727   5.057   6.663
    6DOPE   C23  681   1.737   4.755   6.556
    6DOPE   H3R  682   1.792   4.820   6.628
    6DOPE   H3S  683   1.666   4.817   6.503
    6DOPE   C24  684   1.841   4.695   6.458
    6DOPE   H4R  685   1.868   4.596   6.497
    6DOPE   H4S  686   1.933   4.754   6.478
    6DOPE   C25  687   1.809   4.677   6.304
    6DOPE   H5R  688   1.749   4.586   6.300
    6DOPE   H5S  689   1.906   4.657   6.253
    6DOPE   C26  690   1.739   4.795   6.229
    6DOPE   H6R  691   1.818   4.860   6.191
    6DOPE   H6S  692   1.676   4.836   6.306
    6DOPE   C27  693   1.638   4.800   6.111
    6DOPE   H7R  694   1.567   4.718   6.121
    6DOPE   H7S  695   1.686   4.787   6.014
    6DOPE   C28  696   1.567   4.940   6.108
    6DOPE   H8R  697   1.646   5.018   6.102
    6DOPE   H8S  698   1.517   4.955   6.205
    6DOPE   C29  699   1.465   4.973   6.004
    6DOPE   H9R  700   1.361   4.981   6.039
    6DOPE  C210  701   1.489   5.010   5.879
    6DOPE  H10R  702   1.402   5.023   5.812
    6DOPE  C211  703   1.622   5.026   5.814
    6DOPE  H11R  704   1.707   5.008   5.883
    6DOPE  H11S  705   1.636   5.129   5.771
    6DOPE  C212  706   1.619   4.925   5.700
    6DOPE  H12R  707   1.592   4.824   5.739
    6DOPE  H12S  708   1.720   4.918   5.654
    6DOPE  C213  709   1.516   4.965   5.593
    6DOPE  H13R  710   1.524   5.075   5.577
    6DOPE  H13S  711   1.413   4.942   5.627
    6DOPE  C214  712   1.538   4.895   5.461
    6DOPE  H14R  713   1.521   4.786   5.473
    6DOPE  H14S  714   1.644   4.910   5.430
    6DOPE  C215  715   1.448   4.952   5.352
    6DOPE  H15R  716   1.467   5.061   5.341
    6DOPE  H15S  717   1.341   4.941   5.381
    6DOPE  C216  718   1.473   4.882   5.220
    6DOPE  H16R  719   1.581   4.885   5.196
    6DOPE  H16S  720   1.419   4.938   5.140
    6DOPE  C217  721   1.424   4.737   5.220
    6DOPE  H17R  722   1.358   4.719   5.308
    6DOPE  H17S  723   1.511   4.669   5.231
    6DOPE  C218  724   1.346   4.705   5.093
    6DOPE  H18R  725   1.309   4.601   5.093
    6DOPE  H18S  726   1.411   4.720   5.004
    6DOPE  H18T  727   1.257   4.768   5.083
    6DOPE   C33  728   1.583   5.132   6.512
    6DOPE   H3X  729   1.583   5.240   6.493
    6DOPE   H3Y  730   1.477   5.102   6.501
    6DOPE   C34  731   1.661   5.055   6.403
    6DOPE   H4X  732   1.603   4.963   6.409
    6DOPE   H4Y  733   1.639   5.102   6.305
    6DOPE   C35  734   1.816   5.042   6.415
    6DOPE   H5X  735   1.859   5.009   6.512
    6DOPE   H5Y  736   1.815   5.147   6.424
    6DOPE   C36  737   1.921   5.046   6.297
    6DOPE   H6X  738   1.971   5.144   6.288
    6DOPE   H6Y  739   1.872   5.039   6.199
    6DOPE   C37  740   2.042   4.954   6.314
    6DOPE   H7X  741   2.104   4.987   6.401
    6DOPE   H7Y  742   2.006   4.854   6.343
    6DOPE   C38  743   2.133   4.944   6.190
    6DOPE   H8X  744   2.238   4.955   6.224
    6DOPE   H8Y  745   2.114   5.025   6.116
    6DOPE   C39  746   2.109   4.805   6.137
    6DOPE   H9X  747   2.125   4.728   6.214
    6DOPE  C310  748   2.080   4.763   6.015
    6DOPE  H10X  749   2.067   4.654   6.001
    6DOPE  C311  750   2.062   4.845   5.891
    6DOPE  H11X  751   2.004   4.937   5.912
    6DOPE  H11Y  752   2.161   4.873   5.848
    6DOPE  C312  753   1.989   4.755   5.791
    6DOPE  H12X  754   2.050   4.664   5.770
    6DOPE  H12Y  755   1.976   4.809   5.695
    6DOPE  C313  756   1.851   4.717   5.844
    6DOPE  H13X  757   1.854   4.659   5.940
    6DOPE  H13Y  758   1.802   4.815   5.863
    6DOPE  C314  759   1.767   4.638   5.745
    6DOPE  H14X  760   1.760   4.698   5.652
    6DOPE  H14Y  761   1.663   4.627   5.782
    6DOPE  C315  762   1.825   4.500   5.718
    6DOPE  H15X  763   1.794   4.432   5.800
    6DOPE  H15Y  764   1.936   4.501   5.717
    6DOPE  C316  765   1.779   4.451   5.583
    6DOPE  H16X  766   1.670   4.473   5.572
    6DOPE  H16Y  767   1.792   4.341   5.574
    6DOPE  C317  768   1.858   4.520   5.471
    6DOPE  H17X  769   1.870   4.629   5.491
    6DOPE  H17Y  770   1.960   4.476   5.465
    6DOPE  C318  771   1.784   4.503   5.341
    6DOPE  H18X  772   1.682   4.547   5.351
    6DOPE  H18Y  773   1.834   4.555   5.258
    6DOPE  H18Z  774   1.775   4.395   5.317
    7DOPE     N  775   4.903   5.807   7.213
    7DOPE   HN1  776   5.005   5.821   7.196
    7DOPE   HN2  777   4.864   5.898   7.246
    7DOPE   HN3  778   4.891   5.735   7.289
    7DOPE   C12  779   4.828   5.763   7.089
    7DOPE  H12A  780   4.721   5.774   7.113
    7DOPE  H12B  781   4.853   5.656   7.070
    7DOPE   C11  782   4.855   5.847   6.962
    7DOPE  H11A  783   4.960   5.832   6.930
    7DOPE  H11B  784   4.840   5.955   6.983
    7DOPE     P  785   4.625   5.864   6.828
    7DOPE   O13  786   4.636   6.004   6.783
    7DOPE   O14  787   4.538   5.835   6.944
    7DOPE   O11  788   4.570   5.784   6.706
    7DOPE   O12  789   4.770   5.803   6.856
    7DOPE    C1  790   4.611   5.651   6.677
    7DOPE    HA  791   4.518   5.590   6.668
    7DOPE    HB  792   4.673   5.604   6.757
    7DOPE    C2  793   4.685   5.642   6.542
    7DOPE    HS  794   4.669   5.535   6.513
    7DOPE   O21  795   4.827   5.677   6.553
    7DOPE   C21  796   4.887   5.633   6.442
    7DOPE   O22  797   4.831   5.556   6.366
    7DOPE   C22  798   5.024   5.698   6.419
    7DOPE   H2R  799   5.088   5.675   6.506
    7DOPE   H2S  800   5.010   5.807   6.412
    7DOPE    C3  801   4.618   5.733   6.434
    7DOPE    HX  802   4.513   5.753   6.466
    7DOPE    HY  803   4.616   5.677   6.338
    7DOPE   O31  804   4.683   5.860   6.423
    7DOPE   C31  805   4.728   5.905   6.309
    7DOPE   O32  806   4.745   5.843   6.206
    7DOPE   C32  807   4.751   6.055   6.331
    7DOPE   H2X  808   4.724   6.080   6.435
    7DOPE   H2Y  809   4.857   6.080   6.313
    7DOPE   C23  810   5.096   5.648   6.290
    7DOPE   H3R  811   5.131   5.544   6.304
    7DOPE   H3S  812   5.188   5.709   6.274
    7DOPE   C24  813   5.010   5.654   6.164
    7DOPE   H4R  814   4.980   5.758   6.139
    7DOPE   H4S  815   4.917   5.595   6.173
    7DOPE   C25  816   5.074   5.589   6.044
    7DOPE   H5R  817   5.092   5.481   6.065
    7DOPE   H5S  818   5.173   5.636   6.028
    7DOPE   C26  819   4.976   5.600   5.927
    7DOPE   H6R  820   4.955   5.706   5.901
    7DOPE   H6S  821   4.880   5.562   5.965
    7DOPE   C27  822   5.024   5.523   5.803
    7DOPE   H7R  823   4.953   5.511   5.720
    7DOPE   H7S  824   5.053   5.420   5.838
    7DOPE   C28  825   5.145   5.592   5.747
    7DOPE   H8R  826   5.201   5.525   5.678
    7DOPE   H8S  827   5.203   5.604   5.839
    7DOPE   C29  828   5.142   5.733   5.702
    7DOPE   H9R  829   5.097   5.805   5.773
    7DOPE  C210  830   5.183   5.777   5.584
    7DOPE  H10R  831   5.180   5.885   5.568
    7DOPE  C211  832   5.238   5.703   5.465
    7DOPE  H11R  833   5.345   5.676   5.473
    7DOPE  H11S  834   5.238   5.776   5.382
    7DOPE  C212  835   5.146   5.596   5.402
    7DOPE  H12R  836   5.120   5.515   5.474
    7DOPE  H12S  837   5.211   5.555   5.323
    7DOPE  C213  838   5.020   5.666   5.341
    7DOPE  H13R  839   5.058   5.763   5.304
    7DOPE  H13S  840   4.953   5.683   5.428
    7DOPE  C214  841   4.935   5.637   5.212
    7DOPE  H14R  842   4.849   5.705   5.231
    7DOPE  H14S  843   4.883   5.540   5.209
    7DOPE  C215  844   4.997   5.688   5.076
    7DOPE  H15R  845   5.087   5.633   5.053
    7DOPE  H15S  846   5.041   5.789   5.084
    7DOPE  C216  847   4.923   5.668   4.941
    7DOPE  H16R  848   4.817   5.699   4.951
    7DOPE  H16S  849   4.923   5.558   4.927
    7DOPE  C217  850   4.990   5.733   4.815
    7DOPE  H17R  851   4.993   5.841   4.831
    7DOPE  H17S  852   4.932   5.733   4.721
    7DOPE  C218  853   5.124   5.676   4.767
    7DOPE  H18R  854   5.175   5.758   4.712
    7DOPE  H18S  855   5.110   5.590   4.697
    7DOPE  H18T  856   5.189   5.640   4.848
    7DOPE   C33  857   4.659   6.136   6.239
    7DOPE   H3X  858   4.659   6.243   6.272
    7DOPE   H3Y  859   4.553   6.100   6.244
    7DOPE   C34  860   4.709   6.126   6.097
    7DOPE   H4X  861   4.814   6.088   6.094
    7DOPE   H4Y  862   4.646   6.050   6.045
    7DOPE   C35  863   4.707   6.258   6.023
    7DOPE   H5X  864   4.805   6.310   6.038
    7DOPE   H5Y  865   4.628   6.327   6.059
    7DOPE   C36  866   4.686   6.226   5.877
    7DOPE   H6X  867   4.582   6.245   5.847
    7DOPE   H6Y  868   4.707   6.118   5.859
    7DOPE   C37  869   4.780   6.305   5.790
    7DOPE   H7X  870   4.787   6.409   5.826
    7DOPE   H7Y  871   4.882   6.266   5.803
    7DOPE   C38  872   4.735   6.308   5.643
    7DOPE   H8X  873   4.826   6.333   5.589
    7DOPE   H8Y  874   4.667   6.391   5.626
    7DOPE   C39  875   4.668   6.188   5.583
    7DOPE   H9X  876   4.646   6.111   5.657
    7DOPE  C310  877   4.649   6.156   5.454
    7DOPE  H10X  878   4.606   6.056   5.440
    7DOPE  C311  879   4.685   6.224   5.323
    7DOPE  H11X  880   4.731   6.324   5.333
    7DOPE  H11Y  881   4.769   6.174   5.275
    7DOPE  C312  882   4.572   6.230   5.218
    7DOPE  H12X  883   4.608   6.257   5.116
    7DOPE  H12Y  884   4.510   6.311   5.255
    7DOPE  C313  885   4.470   6.117   5.210
    7DOPE  H13X  886   4.452   6.071   5.309
    7DOPE  H13Y  887   4.371   6.158   5.178
    7DOPE  C314  888   4.515   6.015   5.108
    7DOPE  H14X  889   4.624   6.024   5.092
    7DOPE  H14Y  890   4.475   6.040   5.009
    7DOPE  C315  891   4.480   5.874   5.148
    7DOPE  H15X  892   4.370   5.861   5.155
    7DOPE  H15Y  893   4.521   5.848   5.247
    7DOPE  C316  894   4.535   5.782   5.040
    7DOPE  H16X  895   4.643   5.806   5.025
    7DOPE  H16Y  896   4.481   5.806   4.946
    7DOPE  C317  897   4.519   5.636   5.076
    7DOPE  H17X  898   4.620   5.590   5.084
    7DOPE  H17Y  899   4.478   5.631   5.178
    7DOPE  C318  900   4.431   5.560   4.978
    7DOPE  H18X  901   4.459   5.577   4.873
    7DOPE  H18Y  902   4.431   5.451   5.001
    7DOPE  H18Z  903   4.328   5.595   4.974
    8DOPE     N  904   5.486   5.544   7.203
    8DOPE   HN1  905   5.410   5.483   7.242
    8DOPE   HN2  906   5.541   5.474   7.146
    8DOPE   HN3  907   5.543   5.583   7.281
    8DOPE   C12  908   5.433   5.648   7.110
    8DOPE  H12A  909   5.520   5.700   7.064
    8DOPE  H12B  910   5.371   5.719   7.167
    8DOPE   C11  911   5.355   5.580   6.997
    8DOPE  H11A  912   5.308   5.655   6.930
    8DOPE  H11B  913   5.275   5.518   7.041
    8DOPE     P  914   5.385   5.388   6.833
    8DOPE   O13  915   5.271   5.440   6.756
    8DOPE   O14  916   5.369   5.275   6.927
    8DOPE   O11  917   5.509   5.366   6.742
    8DOPE   O12  918   5.447   5.501   6.923
    8DOPE    C1  919   5.623   5.311   6.807
    8DOPE    HA  920   5.600   5.241   6.890
    8DOPE    HB  921   5.687   5.393   6.845
    8DOPE    C2  922   5.694   5.221   6.707
    8DOPE    HS  923   5.791   5.191   6.747
    8DOPE   O21  924   5.716   5.291   6.587
    8DOPE   C21  925   5.804   5.385   6.602
    8DOPE   O22  926   5.869   5.413   6.701
    8DOPE   C22  927   5.811   5.460   6.473
    8DOPE   H2R  928   5.918   5.484   6.460
    8DOPE   H2S  929   5.749   5.552   6.481
    8DOPE    C3  930   5.615   5.091   6.679
    8DOPE    HX  931   5.595   5.040   6.776
    8DOPE    HY  932   5.683   5.025   6.622
    8DOPE   O31  933   5.490   5.111   6.613
    8DOPE   C31  934   5.497   5.109   6.482
    8DOPE   O32  935   5.596   5.087   6.414
    8DOPE   C32  936   5.358   5.113   6.425
    8DOPE   H2X  937   5.344   5.010   6.389
    8DOPE   H2Y  938   5.284   5.139   6.503
    8DOPE   C23  939   5.772   5.379   6.350
    8DOPE   H3R  940   5.665   5.350   6.351
    8DOPE   H3S  941   5.828   5.286   6.343
    8DOPE   C24  942   5.816   5.454   6.228
    8DOPE   H4R  943   5.925   5.473   6.229
    8DOPE   H4S  944   5.766   5.550   6.238
    8DOPE   C25  945   5.778   5.383   6.100
    8DOPE   H5R  946   5.765   5.458   6.019
    8DOPE   H5S  947   5.681   5.329   6.115
    8DOPE   C26  948   5.888   5.287   6.060
    8DOPE   H6R  949   5.961   5.280   6.143
    8DOPE   H6S  950   5.942   5.328   5.973
    8DOPE   C27  951   5.837   5.147   6.029
    8DOPE   H7R  952   5.753   5.121   6.097
    8DOPE   H7S  953   5.920   5.075   6.050
    8DOPE   C28  954   5.797   5.141   5.883
    8DOPE   H8R  955   5.881   5.173   5.819
    8DOPE   H8S  956   5.713   5.213   5.868
    8DOPE   C29  957   5.758   5.003   5.843
    8DOPE   H9R  958   5.840   4.941   5.812
    8DOPE  C210  959   5.636   4.952   5.851
    8DOPE  H10R  960   5.615   4.855   5.803
    8DOPE  C211  961   5.518   5.028   5.903
    8DOPE  H11R  962   5.546   5.106   5.977
    8DOPE  H11S  963   5.445   4.959   5.950
    8DOPE  C212  964   5.457   5.095   5.781
    8DOPE  H12R  965   5.525   5.174   5.739
    8DOPE  H12S  966   5.363   5.146   5.812
    8DOPE  C213  967   5.427   4.993   5.673
    8DOPE  H13R  968   5.402   4.894   5.717
    8DOPE  H13S  969   5.515   4.978   5.606
    8DOPE  C214  970   5.311   5.041   5.591
    8DOPE  H14R  971   5.218   5.048   5.653
    8DOPE  H14S  972   5.297   4.959   5.517
    8DOPE  C215  973   5.343   5.177   5.530
    8DOPE  H15R  974   5.445   5.172   5.486
    8DOPE  H15S  975   5.345   5.257   5.607
    8DOPE  C216  976   5.245   5.214   5.420
    8DOPE  H16R  977   5.292   5.298   5.365
    8DOPE  H16S  978   5.151   5.251   5.465
    8DOPE  C217  979   5.221   5.095   5.326
    8DOPE  H17R  980   5.311   5.030   5.330
    8DOPE  H17S  981   5.218   5.126   5.220
    8DOPE  C218  982   5.100   5.007   5.359
    8DOPE  H18R  983   5.006   5.061   5.340
    8DOPE  H18S  984   5.097   4.971   5.463
    8DOPE  H18T  985   5.106   4.916   5.295
    8DOPE   C33  986   5.351   5.207   6.305
    8DOPE   H3X  987   5.256   5.189   6.249
    8DOPE   H3Y  988   5.436   5.181   6.237
    8DOPE   C34  989   5.355   5.353   6.348
    8DOPE   H4X  990   5.251   5.385   6.371
    8DOPE   H4Y  991   5.413   5.366   6.442
    8DOPE   C35  992   5.415   5.446   6.242
    8DOPE   H5X  993   5.524   5.456   6.258
    8DOPE   H5Y  994   5.372   5.548   6.255
    8DOPE   C36  995   5.395   5.400   6.098
    8DOPE   H6X  996   5.286   5.393   6.075
    8DOPE   H6Y  997   5.440   5.301   6.076
    8DOPE   C37  998   5.462   5.500   6.006
    8DOPE   H7X  999   5.442   5.601   6.048
    8DOPE   H7Y 1000   5.571   5.485   6.007
    8DOPE   C38 1001   5.419   5.484   5.862
    8DOPE   H8X 1002   5.314   5.448   5.862
    8DOPE   H8Y 1003   5.475   5.400   5.816
    8DOPE   C39 1004   5.439   5.620   5.799
    8DOPE   H9X 1005   5.384   5.702   5.848
    8DOPE  C310 1006   5.522   5.649   5.700
    8DOPE  H10X 1007   5.532   5.753   5.666
    8DOPE  C311 1008   5.609   5.542   5.640
    8DOPE  H11X 1009   5.560   5.442   5.644
    8DOPE  H11Y 1010   5.623   5.561   5.534
    8DOPE  C312 1011   5.744   5.537   5.714
    8DOPE  H12X 1012   5.720   5.542   5.823
    8DOPE  H12Y 1013   5.804   5.627   5.689
    8DOPE  C313 1014   5.824   5.406   5.696
    8DOPE  H13X 1015   5.879   5.389   5.791
    8DOPE  H13Y 1016   5.751   5.324   5.684
    8DOPE  C314 1017   5.925   5.399   5.579
    8DOPE  H14X 1018   6.023   5.440   5.610
    8DOPE  H14Y 1019   5.891   5.469   5.500
    8DOPE  C315 1020   5.937   5.263   5.506
    8DOPE  H15X 1021   5.993   5.184   5.561
    8DOPE  H15Y 1022   5.998   5.282   5.415
    8DOPE  C316 1023   5.803   5.204   5.462
    8DOPE  H16X 1024   5.750   5.157   5.548
    8DOPE  H16Y 1025   5.823   5.122   5.392
    8DOPE  C317 1026   5.712   5.304   5.391
    8DOPE  H17X 1027   5.614   5.257   5.367
    8DOPE  H17Y 1028   5.689   5.386   5.460
    8DOPE  C318 1029   5.773   5.357   5.261
    8DOPE  H18X 1030   5.877   5.322   5.245
    8DOPE  H18Y 1031   5.769   5.465   5.251
    8DOPE  H18Z 1032   5.710   5.329   5.175
    9DOPE     N 1033   1.319   4.699   6.663
    9DOPE   HN1 1034   1.422   4.693   6.657
    9DOPE   HN2 1035   1.276   4.720   6.570
    9DOPE   HN3 1036   1.301   4.781   6.725
    9DOPE   C12 1037   1.253   4.580   6.727
    9DOPE  H12A 1038   1.266   4.492   6.662
    9DOPE  H12B 1039   1.145   4.603   6.732
    9DOPE   C11 1040   1.301   4.558   6.872
    9DOPE  H11A 1041   1.398   4.504   6.866
    9DOPE  H11B 1042   1.229   4.490   6.923
    9DOPE     P 1043   1.222   4.737   7.052
    9DOPE   O13 1044   1.259   4.877   7.084
    9DOPE   O14 1045   1.210   4.643   7.165
    9DOPE   O11 1046   1.093   4.739   6.966
    9DOPE   O12 1047   1.322   4.680   6.942
    9DOPE    C1 1048   0.960   4.720   7.010
    9DOPE    HA 1049   0.924   4.813   7.060
    9DOPE    HB 1050   0.951   4.635   7.081
    9DOPE    C2 1051   0.873   4.694   6.886
    9DOPE    HS 1052   0.771   4.660   6.917
    9DOPE   O21 1053   0.935   4.601   6.797
    9DOPE   C21 1054   0.886   4.481   6.787
    9DOPE   O22 1055   0.804   4.430   6.861
    9DOPE   C22 1056   0.946   4.415   6.663
    9DOPE   H2R 1057   0.881   4.329   6.647
    9DOPE   H2S 1058   1.047   4.380   6.687
    9DOPE    C3 1059   0.854   4.824   6.804
    9DOPE    HX 1060   0.778   4.883   6.860
    9DOPE    HY 1061   0.809   4.797   6.706
    9DOPE   O31 1062   0.971   4.909   6.788
    9DOPE   C31 1063   1.051   4.881   6.688
    9DOPE   O32 1064   1.054   4.781   6.621
    9DOPE   C32 1065   1.130   5.004   6.649
    9DOPE   H2X 1066   1.056   5.085   6.635
    9DOPE   H2Y 1067   1.198   5.031   6.732
    9DOPE   C23 1068   0.940   4.501   6.533
    9DOPE   H3R 1069   1.011   4.584   6.545
    9DOPE   H3S 1070   0.838   4.543   6.520
    9DOPE   C24 1071   0.985   4.434   6.402
    9DOPE   H4R 1072   0.988   4.511   6.322
    9DOPE   H4S 1073   0.911   4.358   6.371
    9DOPE   C25 1074   1.123   4.371   6.414
    9DOPE   H5R 1075   1.125   4.307   6.505
    9DOPE   H5S 1076   1.202   4.449   6.426
    9DOPE   C26 1077   1.160   4.277   6.300
    9DOPE   H6R 1078   1.082   4.202   6.278
    9DOPE   H6S 1079   1.248   4.223   6.341
    9DOPE   C27 1080   1.212   4.344   6.172
    9DOPE   H7R 1081   1.293   4.282   6.127
    9DOPE   H7S 1082   1.260   4.437   6.206
    9DOPE   C28 1083   1.106   4.374   6.064
    9DOPE   H8R 1084   1.159   4.433   5.986
    9DOPE   H8S 1085   1.032   4.444   6.108
    9DOPE   C29 1086   1.035   4.256   6.003
    9DOPE   H9R 1087   0.957   4.212   6.068
    9DOPE  C210 1088   1.062   4.197   5.884
    9DOPE  H10R 1089   1.004   4.109   5.854
    9DOPE  C211 1090   1.171   4.241   5.789
    9DOPE  H11R 1091   1.253   4.168   5.801
    9DOPE  H11S 1092   1.211   4.340   5.817
    9DOPE  C212 1093   1.151   4.246   5.636
    9DOPE  H12R 1094   1.084   4.331   5.610
    9DOPE  H12S 1095   1.104   4.152   5.600
    9DOPE  C213 1096   1.287   4.264   5.565
    9DOPE  H13R 1097   1.341   4.166   5.567
    9DOPE  H13S 1098   1.349   4.336   5.622
    9DOPE  C214 1099   1.275   4.315   5.420
    9DOPE  H14R 1100   1.250   4.423   5.425
    9DOPE  H14S 1101   1.192   4.262   5.369
    9DOPE  C215 1102   1.403   4.299   5.336
    9DOPE  H15R 1103   1.424   4.191   5.316
    9DOPE  H15S 1104   1.489   4.341   5.393
    9DOPE  C216 1105   1.393   4.373   5.203
    9DOPE  H16R 1106   1.352   4.471   5.232
    9DOPE  H16S 1107   1.319   4.324   5.135
    9DOPE  C217 1108   1.526   4.400   5.131
    9DOPE  H17R 1109   1.602   4.423   5.206
    9DOPE  H17S 1110   1.516   4.491   5.068
    9DOPE  C218 1111   1.578   4.288   5.042
    9DOPE  H18R 1112   1.631   4.211   5.100
    9DOPE  H18S 1113   1.648   4.326   4.964
    9DOPE  H18T 1114   1.490   4.241   4.994
    9DOPE   C33 1115   1.210   4.981   6.518
    9DOPE   H3X 1116   1.281   4.897   6.527
    9DOPE   H3Y 1117   1.275   5.070   6.502
    9DOPE   C34 1118   1.128   4.956   6.392
    9DOPE   H4X 1119   1.060   4.870   6.405
    9DOPE   H4Y 1120   1.061   5.042   6.368
    9DOPE   C35 1121   1.216   4.927   6.270
    9DOPE   H5X 1122   1.308   4.988   6.270
    9DOPE   H5Y 1123   1.155   4.960   6.184
    9DOPE   C36 1124   1.247   4.777   6.261
    9DOPE   H6X 1125   1.163   4.719   6.304
    9DOPE   H6Y 1126   1.337   4.756   6.323
    9DOPE   C37 1127   1.275   4.721   6.120
    9DOPE   H7X 1128   1.382   4.733   6.101
    9DOPE   H7Y 1129   1.258   4.612   6.120
    9DOPE   C38 1130   1.203   4.781   5.999
    9DOPE   H8X 1131   1.276   4.774   5.915
    9DOPE   H8Y 1132   1.183   4.889   6.008
    9DOPE   C39 1133   1.077   4.710   5.965
    9DOPE   H9X 1134   1.022   4.664   6.049
    9DOPE  C310 1135   1.022   4.711   5.843
    9DOPE  H10X 1136   0.925   4.662   5.827
    9DOPE  C311 1137   1.079   4.784   5.724
    9DOPE  H11X 1138   1.037   4.887   5.715
    9DOPE  H11Y 1139   1.190   4.795   5.728
    9DOPE  C312 1140   1.045   4.707   5.597
    9DOPE  H12X 1141   0.935   4.710   5.577
    9DOPE  H12Y 1142   1.074   4.600   5.608
    9DOPE  C313 1143   1.122   4.763   5.477
    9DOPE  H13X 1144   1.231   4.761   5.496
    9DOPE  H13Y 1145   1.105   4.687   5.399
    9DOPE  C314 1146   1.080   4.902   5.425
    9DOPE  H14X 1147   1.149   4.977   5.467
    9DOPE  H14Y 1148   0.977   4.929   5.458
    9DOPE  C315 1149   1.084   4.902   5.271
    9DOPE  H15X 1150   0.987   4.864   5.233
    9DOPE  H15Y 1151   1.161   4.829   5.242
    9DOPE  C316 1152   1.117   5.035   5.203
    9DOPE  H16X 1153   1.221   5.062   5.227
    9DOPE  H16Y 1154   1.049   5.112   5.247
    9DOPE  C317 1155   1.097   5.037   5.050
    9DOPE  H17X 1156   1.022   4.959   5.021
    9DOPE  H17Y 1157   1.052   5.136   5.024
    9DOPE  C318 1158   1.223   5.023   4.963
    9DOPE  H18X 1159   1.306   5.084   5.004
    9DOPE  H18Y 1160   1.257   4.918   4.956
    9DOPE  H18Z 1161   1.203   5.056   4.859
   10DOPE     N 1162   2.061   6.196   7.005
   10DOPE   HN1 1163   1.998   6.209   7.086
   10DOPE   HN2 1164   2.141   6.134   7.033
   10DOPE   HN3 1165   2.085   6.287   6.960
   10DOPE   C12 1166   1.985   6.116   6.907
   10DOPE  H12A 1167   1.978   6.172   6.812
   10DOPE  H12B 1168   1.884   6.102   6.951
   10DOPE   C11 1169   2.055   5.983   6.890
   10DOPE  H11A 1170   2.165   5.992   6.885
   10DOPE  H11B 1171   2.023   5.950   6.788
   10DOPE     P 1172   1.970   5.750   6.964
   10DOPE   O13 1173   2.033   5.646   7.048
   10DOPE   O14 1174   1.973   5.740   6.820
   10DOPE   O11 1175   1.816   5.762   7.003
   10DOPE   O12 1176   2.019   5.896   7.000
   10DOPE    C1 1177   1.738   5.642   7.009
   10DOPE    HA 1178   1.664   5.650   7.092
   10DOPE    HB 1179   1.800   5.554   7.039
   10DOPE    C2 1180   1.660   5.599   6.878
   10DOPE    HS 1181   1.613   5.501   6.903
   10DOPE   O21 1182   1.752   5.584   6.767
   10DOPE   C21 1183   1.851   5.490   6.781
   10DOPE   O22 1184   1.849   5.401   6.865
   10DOPE   C22 1185   1.961   5.508   6.673
   10DOPE   H2R 1186   2.046   5.564   6.712
   10DOPE   H2S 1187   1.921   5.569   6.592
   10DOPE    C3 1188   1.534   5.697   6.836
   10DOPE    HX 1189   1.479   5.724   6.927
   10DOPE    HY 1190   1.481   5.617   6.786
   10DOPE   O31 1191   1.538   5.813   6.748
   10DOPE   C31 1192   1.441   5.860   6.660
   10DOPE   O32 1193   1.328   5.814   6.656
   10DOPE   C32 1194   1.484   5.981   6.552
   10DOPE   H2X 1195   1.389   6.032   6.530
   10DOPE   H2Y 1196   1.538   6.038   6.618
   10DOPE   C23 1197   2.021   5.379   6.618
   10DOPE   H3R 1198   2.084   5.328   6.692
   10DOPE   H3S 1199   2.086   5.404   6.531
   10DOPE   C24 1200   1.914   5.292   6.560
   10DOPE   H4R 1201   1.854   5.241   6.637
   10DOPE   H4S 1202   1.972   5.213   6.506
   10DOPE   C25 1203   1.828   5.369   6.458
   10DOPE   H5R 1204   1.788   5.458   6.504
   10DOPE   H5S 1205   1.736   5.322   6.422
   10DOPE   C26 1206   1.910   5.392   6.333
   10DOPE   H6R 1207   2.007   5.339   6.339
   10DOPE   H6S 1208   1.935   5.499   6.342
   10DOPE   C27 1209   1.839   5.354   6.201
   10DOPE   H7R 1210   1.813   5.246   6.203
   10DOPE   H7S 1211   1.908   5.367   6.115
   10DOPE   C28 1212   1.709   5.430   6.178
   10DOPE   H8R 1213   1.636   5.410   6.259
   10DOPE   H8S 1214   1.658   5.392   6.087
   10DOPE   C29 1215   1.748   5.575   6.171
   10DOPE   H9R 1216   1.804   5.611   6.258
   10DOPE  C210 1217   1.707   5.667   6.085
   10DOPE  H10R 1218   1.748   5.769   6.095
   10DOPE  C211 1219   1.609   5.644   5.975
   10DOPE  H11R 1220   1.587   5.740   5.925
   10DOPE  H11S 1221   1.514   5.609   6.020
   10DOPE  C212 1222   1.666   5.546   5.869
   10DOPE  H12R 1223   1.588   5.520   5.796
   10DOPE  H12S 1224   1.701   5.451   5.913
   10DOPE  C213 1225   1.785   5.609   5.798
   10DOPE  H13R 1226   1.857   5.642   5.875
   10DOPE  H13S 1227   1.749   5.699   5.744
   10DOPE  C214 1228   1.860   5.518   5.700
   10DOPE  H14R 1229   1.910   5.435   5.753
   10DOPE  H14S 1230   1.940   5.580   5.653
   10DOPE  C215 1231   1.768   5.463   5.590
   10DOPE  H15R 1232   1.690   5.539   5.568
   10DOPE  H15S 1233   1.717   5.372   5.628
   10DOPE  C216 1234   1.843   5.432   5.459
   10DOPE  H16R 1235   1.952   5.443   5.475
   10DOPE  H16S 1236   1.812   5.507   5.382
   10DOPE  C217 1237   1.812   5.295   5.400
   10DOPE  H17R 1238   1.803   5.220   5.482
   10DOPE  H17S 1239   1.897   5.264   5.336
   10DOPE  C218 1240   1.685   5.297   5.315
   10DOPE  H18R 1241   1.597   5.321   5.378
   10DOPE  H18S 1242   1.668   5.198   5.266
   10DOPE  H18T 1243   1.693   5.375   5.236
   10DOPE   C33 1244   1.585   5.999   6.418
   10DOPE   H3X 1245   1.513   6.022   6.337
   10DOPE   H3Y 1246   1.639   5.911   6.390
   10DOPE   C34 1247   1.710   6.098   6.395
   10DOPE   H4X 1248   1.712   6.114   6.284
   10DOPE   H4Y 1249   1.693   6.199   6.431
   10DOPE   C35 1250   1.862   6.066   6.423
   10DOPE   H5X 1251   1.884   6.034   6.526
   10DOPE   H5Y 1252   1.917   6.163   6.415
   10DOPE   C36 1253   1.943   5.968   6.333
   10DOPE   H6X 1254   1.954   6.010   6.231
   10DOPE   H6Y 1255   1.888   5.872   6.325
   10DOPE   C37 1256   2.084   5.937   6.392
   10DOPE   H7X 1257   2.142   6.031   6.399
   10DOPE   H7Y 1258   2.074   5.899   6.496
   10DOPE   C38 1259   2.170   5.835   6.314
   10DOPE   H8X 1260   2.266   5.828   6.369
   10DOPE   H8Y 1261   2.194   5.881   6.216
   10DOPE   C39 1262   2.123   5.692   6.300
   10DOPE   H9X 1263   2.120   5.636   6.394
   10DOPE  C310 1264   2.077   5.631   6.189
   10DOPE  H10X 1265   2.064   5.522   6.192
   10DOPE  C311 1266   2.058   5.685   6.052
   10DOPE  H11X 1267   2.023   5.601   5.988
   10DOPE  H11Y 1268   1.978   5.763   6.051
   10DOPE  C312 1269   2.186   5.739   5.990
   10DOPE  H12X 1270   2.270   5.671   6.016
   10DOPE  H12Y 1271   2.210   5.841   6.026
   10DOPE  C313 1272   2.173   5.745   5.839
   10DOPE  H13X 1273   2.270   5.779   5.795
   10DOPE  H13Y 1274   2.151   5.643   5.801
   10DOPE  C314 1275   2.065   5.839   5.787
   10DOPE  H14X 1276   2.079   5.942   5.826
   10DOPE  H14Y 1277   1.964   5.805   5.818
   10DOPE  C315 1278   2.078   5.835   5.635
   10DOPE  H15X 1279   2.098   5.729   5.605
   10DOPE  H15Y 1280   2.168   5.894   5.606
   10DOPE  C316 1281   1.956   5.883   5.559
   10DOPE  H16X 1282   1.934   5.988   5.586
   10DOPE  H16Y 1283   1.867   5.821   5.585
   10DOPE  C317 1284   1.985   5.870   5.411
   10DOPE  H17X 1285   1.914   5.936   5.358
   10DOPE  H17Y 1286   2.089   5.905   5.390
   10DOPE  C318 1287   1.968   5.729   5.356
   10DOPE  H18X 1288   2.032   5.656   5.410
   10DOPE  H18Y 1289   1.861   5.700   5.368
   10DOPE  H18Z 1290   1.992   5.724   5.248
   11DOPE     N 1291   1.468   3.010   7.160
   11DOPE   HN1 1292   1.491   3.011   7.261
   11DOPE   HN2 1293   1.502   3.094   7.110
   11DOPE   HN3 1294   1.364   3.010   7.142
   11DOPE   C12 1295   1.526   2.894   7.080
   11DOPE  H12A 1296   1.497   2.799   7.130
   11DOPE  H12B 1297   1.636   2.904   7.078
   11DOPE   C11 1298   1.466   2.899   6.940
   11DOPE  H11A 1299   1.472   2.799   6.891
   11DOPE  H11B 1300   1.523   2.967   6.873
   11DOPE     P 1301   1.247   2.974   6.823
   11DOPE   O13 1302   1.322   3.079   6.753
   11DOPE   O14 1303   1.108   2.993   6.863
   11DOPE   O11 1304   1.266   2.838   6.747
   11DOPE   O12 1305   1.331   2.945   6.952
   11DOPE    C1 1306   1.220   2.721   6.818
   11DOPE    HA 1307   1.132   2.740   6.887
   11DOPE    HB 1308   1.301   2.678   6.881
   11DOPE    C2 1309   1.174   2.613   6.719
   11DOPE    HS 1310   1.164   2.519   6.778
   11DOPE   O21 1311   1.262   2.591   6.607
   11DOPE   C21 1312   1.388   2.578   6.618
   11DOPE   O22 1313   1.453   2.573   6.723
   11DOPE   C22 1314   1.455   2.575   6.475
   11DOPE   H2R 1315   1.553   2.585   6.521
   11DOPE   H2S 1316   1.436   2.667   6.418
   11DOPE    C3 1317   1.034   2.645   6.660
   11DOPE    HX 1318   0.960   2.636   6.742
   11DOPE    HY 1319   1.015   2.563   6.587
   11DOPE   O31 1320   1.020   2.775   6.598
   11DOPE   C31 1321   1.088   2.798   6.487
   11DOPE   O32 1322   1.152   2.718   6.422
   11DOPE   C32 1323   1.059   2.936   6.432
   11DOPE   H2X 1324   0.950   2.941   6.413
   11DOPE   H2Y 1325   1.086   3.014   6.506
   11DOPE   C23 1326   1.491   2.446   6.388
   11DOPE   H3R 1327   1.431   2.362   6.425
   11DOPE   H3S 1328   1.596   2.420   6.412
   11DOPE   C24 1329   1.489   2.439   6.232
   11DOPE   H4R 1330   1.421   2.362   6.189
   11DOPE   H4S 1331   1.588   2.394   6.203
   11DOPE   C25 1332   1.479   2.570   6.155
   11DOPE   H5R 1333   1.544   2.565   6.065
   11DOPE   H5S 1334   1.517   2.650   6.220
   11DOPE   C26 1335   1.341   2.615   6.106
   11DOPE   H6R 1336   1.293   2.680   6.183
   11DOPE   H6S 1337   1.281   2.525   6.099
   11DOPE   C27 1338   1.358   2.685   5.970
   11DOPE   H7R 1339   1.395   2.611   5.896
   11DOPE   H7S 1340   1.442   2.756   5.988
   11DOPE   C28 1341   1.244   2.770   5.909
   11DOPE   H8R 1342   1.295   2.832   5.833
   11DOPE   H8S 1343   1.211   2.840   5.989
   11DOPE   C29 1344   1.119   2.710   5.847
   11DOPE   H9R 1345   1.040   2.687   5.920
   11DOPE  C210 1346   1.097   2.684   5.716
   11DOPE  H10R 1347   0.996   2.650   5.686
   11DOPE  C211 1348   1.193   2.709   5.603
   11DOPE  H11R 1349   1.245   2.806   5.621
   11DOPE  H11S 1350   1.139   2.719   5.506
   11DOPE  C212 1351   1.302   2.600   5.591
   11DOPE  H12R 1352   1.259   2.510   5.542
   11DOPE  H12S 1353   1.335   2.572   5.693
   11DOPE  C213 1354   1.430   2.646   5.517
   11DOPE  H13R 1355   1.468   2.741   5.562
   11DOPE  H13S 1356   1.402   2.672   5.412
   11DOPE  C214 1357   1.543   2.540   5.515
   11DOPE  H14R 1358   1.507   2.447   5.564
   11DOPE  H14S 1359   1.631   2.574   5.574
   11DOPE  C215 1360   1.580   2.513   5.369
   11DOPE  H15R 1361   1.678   2.465   5.349
   11DOPE  H15S 1362   1.584   2.612   5.320
   11DOPE  C216 1363   1.471   2.431   5.303
   11DOPE  H16R 1364   1.382   2.427   5.370
   11DOPE  H16S 1365   1.508   2.327   5.292
   11DOPE  C217 1366   1.432   2.481   5.165
   11DOPE  H17R 1367   1.409   2.590   5.165
   11DOPE  H17S 1368   1.340   2.429   5.131
   11DOPE  C218 1369   1.546   2.450   5.069
   11DOPE  H18R 1370   1.627   2.525   5.075
   11DOPE  H18S 1371   1.511   2.438   4.966
   11DOPE  H18T 1372   1.593   2.355   5.101
   11DOPE   C33 1373   1.138   2.952   6.299
   11DOPE   H3X 1374   1.116   2.868   6.229
   11DOPE   H3Y 1375   1.247   2.952   6.319
   11DOPE   C34 1376   1.094   3.081   6.232
   11DOPE   H4X 1377   0.986   3.066   6.211
   11DOPE   H4Y 1378   1.107   3.160   6.309
   11DOPE   C35 1379   1.161   3.126   6.102
   11DOPE   H5X 1380   1.079   3.164   6.037
   11DOPE   H5Y 1381   1.205   3.039   6.049
   11DOPE   C36 1382   1.262   3.241   6.116
   11DOPE   H6X 1383   1.313   3.239   6.214
   11DOPE   H6Y 1384   1.218   3.342   6.110
   11DOPE   C37 1385   1.361   3.241   6.000
   11DOPE   H7X 1386   1.460   3.275   6.038
   11DOPE   H7Y 1387   1.366   3.138   5.962
   11DOPE   C38 1388   1.324   3.328   5.880
   11DOPE   H8X 1389   1.398   3.313   5.798
   11DOPE   H8Y 1390   1.332   3.433   5.916
   11DOPE   C39 1391   1.183   3.300   5.837
   11DOPE   H9X 1392   1.121   3.390   5.840
   11DOPE  C310 1393   1.128   3.195   5.777
   11DOPE  H10X 1394   1.024   3.206   5.744
   11DOPE  C311 1395   1.192   3.066   5.729
   11DOPE  H11X 1396   1.297   3.051   5.761
   11DOPE  H11Y 1397   1.131   2.976   5.750
   11DOPE  C312 1398   1.181   3.108   5.584
   11DOPE  H12X 1399   1.238   3.204   5.569
   11DOPE  H12Y 1400   1.072   3.119   5.560
   11DOPE  C313 1401   1.229   3.030   5.464
   11DOPE  H13X 1402   1.338   3.008   5.463
   11DOPE  H13Y 1403   1.173   2.935   5.450
   11DOPE  C314 1404   1.192   3.132   5.357
   11DOPE  H14X 1405   1.276   3.205   5.347
   11DOPE  H14Y 1406   1.102   3.190   5.386
   11DOPE  C315 1407   1.153   3.075   5.226
   11DOPE  H15X 1408   1.227   2.998   5.209
   11DOPE  H15Y 1409   1.159   3.157   5.151
   11DOPE  C316 1410   1.019   3.004   5.215
   11DOPE  H16X 1411   0.949   3.078   5.178
   11DOPE  H16Y 1412   0.986   2.960   5.310
   11DOPE  C317 1413   1.023   2.901   5.105
   11DOPE  H17X 1414   1.075   2.811   5.142
   11DOPE  H17Y 1415   0.921   2.872   5.070
   11DOPE  C318 1416   1.100   2.965   4.990
   11DOPE  H18X 1417   1.058   3.063   4.969
   11DOPE  H18Y 1418   1.206   2.983   5.014
   11DOPE  H18Z 1419   1.097   2.906   4.899
   12DOPE     N 1420   3.111   6.502   6.924
   12DOPE   HN1 1421   3.019   6.490   6.878
   12DOPE   HN2 1422   3.190   6.485   6.856
   12DOPE   HN3 1423   3.120   6.432   7.001
   12DOPE   C12 1424   3.131   6.639   6.978
   12DOPE  H12A 1425   3.063   6.654   7.063
   12DOPE  H12B 1426   3.108   6.712   6.897
   12DOPE   C11 1427   3.278   6.656   7.018
   12DOPE  H11A 1428   3.307   6.584   7.097
   12DOPE  H11B 1429   3.286   6.759   7.062
   12DOPE     P 1430   3.482   6.736   6.882
   12DOPE   O13 1431   3.540   6.707   6.749
   12DOPE   O14 1432   3.572   6.726   7.000
   12DOPE   O11 1433   3.392   6.869   6.876
   12DOPE   O12 1434   3.363   6.633   6.906
   12DOPE    C1 1435   3.407   6.969   6.773
   12DOPE    HA 1436   3.484   6.939   6.698
   12DOPE    HB 1437   3.451   7.060   6.820
   12DOPE    C2 1438   3.277   7.018   6.692
   12DOPE    HS 1439   3.275   7.129   6.707
   12DOPE   O21 1440   3.149   6.961   6.732
   12DOPE   C21 1441   3.044   7.022   6.672
   12DOPE   O22 1442   3.050   7.129   6.615
   12DOPE   C22 1443   2.913   6.943   6.687
   12DOPE   H2R 1444   2.830   7.015   6.673
   12DOPE   H2S 1445   2.909   6.904   6.790
   12DOPE    C3 1446   3.298   6.990   6.539
   12DOPE    HX 1447   3.388   7.046   6.505
   12DOPE    HY 1448   3.212   7.027   6.478
   12DOPE   O31 1449   3.316   6.850   6.520
   12DOPE   C31 1450   3.340   6.804   6.400
   12DOPE   O32 1451   3.329   6.863   6.294
   12DOPE   C32 1452   3.393   6.661   6.422
   12DOPE   H2X 1453   3.464   6.666   6.508
   12DOPE   H2Y 1454   3.307   6.601   6.456
   12DOPE   C23 1455   2.888   6.827   6.588
   12DOPE   H3R 1456   2.873   6.867   6.485
   12DOPE   H3S 1457   2.793   6.777   6.618
   12DOPE   C24 1458   3.003   6.726   6.591
   12DOPE   H4R 1459   3.021   6.695   6.696
   12DOPE   H4S 1460   3.094   6.777   6.554
   12DOPE   C25 1461   2.979   6.602   6.505
   12DOPE   H5R 1462   2.898   6.542   6.554
   12DOPE   H5S 1463   3.071   6.539   6.503
   12DOPE   C26 1464   2.933   6.631   6.361
   12DOPE   H6R 1465   2.834   6.680   6.367
   12DOPE   H6S 1466   2.923   6.532   6.312
   12DOPE   C27 1467   3.013   6.723   6.267
   12DOPE   H7R 1468   3.115   6.683   6.250
   12DOPE   H7S 1469   3.025   6.824   6.313
   12DOPE   C28 1470   2.939   6.734   6.132
   12DOPE   H8R 1471   2.840   6.780   6.149
   12DOPE   H8S 1472   2.920   6.630   6.097
   12DOPE   C29 1473   3.015   6.812   6.028
   12DOPE   H9R 1474   3.052   6.910   6.064
   12DOPE  C210 1475   3.042   6.774   5.902
   12DOPE  H10R 1476   3.104   6.841   5.840
   12DOPE  C211 1477   3.003   6.647   5.831
   12DOPE  H11R 1478   2.938   6.581   5.893
   12DOPE  H11S 1479   3.095   6.589   5.809
   12DOPE  C212 1480   2.931   6.672   5.697
   12DOPE  H12R 1481   2.831   6.718   5.713
   12DOPE  H12S 1482   2.914   6.573   5.648
   12DOPE  C213 1483   3.011   6.761   5.602
   12DOPE  H13R 1484   3.118   6.729   5.600
   12DOPE  H13S 1485   3.009   6.866   5.639
   12DOPE  C214 1486   2.954   6.757   5.461
   12DOPE  H14R 1487   2.845   6.777   5.465
   12DOPE  H14S 1488   2.968   6.656   5.417
   12DOPE  C215 1489   3.021   6.862   5.374
   12DOPE  H15R 1490   3.130   6.841   5.369
   12DOPE  H15S 1491   3.008   6.962   5.421
   12DOPE  C216 1492   2.962   6.863   5.235
   12DOPE  H16R 1493   2.856   6.897   5.240
   12DOPE  H16S 1494   2.960   6.760   5.193
   12DOPE  C217 1495   3.037   6.953   5.138
   12DOPE  H17R 1496   3.036   7.059   5.164
   12DOPE  H17S 1497   2.971   6.953   5.051
   12DOPE  C218 1498   3.181   6.913   5.106
   12DOPE  H18R 1499   3.231   6.985   5.039
   12DOPE  H18S 1500   3.180   6.816   5.054
   12DOPE  H18T 1501   3.243   6.905   5.198
   12DOPE   C33 1502   3.464   6.596   6.301
   12DOPE   H3X 1503   3.573   6.594   6.321
   12DOPE   H3Y 1504   3.447   6.655   6.208
   12DOPE   C34 1505   3.415   6.453   6.278
   12DOPE   H4X 1506   3.480   6.402   6.205
   12DOPE   H4Y 1507   3.431   6.399   6.373
   12DOPE   C35 1508   3.267   6.449   6.234
   12DOPE   H5X 1509   3.208   6.518   6.296
   12DOPE   H5Y 1510   3.221   6.351   6.255
   12DOPE   C36 1511   3.245   6.479   6.085
   12DOPE   H6X 1512   3.276   6.584   6.064
   12DOPE   H6Y 1513   3.137   6.471   6.061
   12DOPE   C37 1514   3.325   6.382   5.998
   12DOPE   H7X 1515   3.433   6.404   6.010
   12DOPE   H7Y 1516   3.306   6.280   6.037
   12DOPE   C38 1517   3.294   6.389   5.849
   12DOPE   H8X 1518   3.318   6.491   5.812
   12DOPE   H8Y 1519   3.186   6.374   5.829
   12DOPE   C39 1520   3.377   6.280   5.786
   12DOPE   H9X 1521   3.344   6.178   5.811
   12DOPE  C310 1522   3.484   6.296   5.706
   12DOPE  H10X 1523   3.537   6.207   5.669
   12DOPE  C311 1524   3.541   6.428   5.663
   12DOPE  H11X 1525   3.524   6.507   5.740
   12DOPE  H11Y 1526   3.651   6.419   5.652
   12DOPE  C312 1527   3.484   6.477   5.529
   12DOPE  H12X 1528   3.500   6.400   5.451
   12DOPE  H12Y 1529   3.542   6.568   5.499
   12DOPE  C313 1530   3.336   6.517   5.530
   12DOPE  H13X 1531   3.272   6.425   5.533
   12DOPE  H13Y 1532   3.313   6.575   5.622
   12DOPE  C314 1533   3.297   6.601   5.408
   12DOPE  H14X 1534   3.352   6.698   5.412
   12DOPE  H14Y 1535   3.189   6.625   5.413
   12DOPE  C315 1536   3.326   6.530   5.275
   12DOPE  H15X 1537   3.274   6.432   5.276
   12DOPE  H15Y 1538   3.435   6.513   5.265
   12DOPE  C316 1539   3.277   6.611   5.155
   12DOPE  H16X 1540   3.338   6.704   5.149
   12DOPE  H16Y 1541   3.171   6.639   5.172
   12DOPE  C317 1542   3.289   6.535   5.022
   12DOPE  H17X 1543   3.395   6.504   5.008
   12DOPE  H17Y 1544   3.227   6.443   5.029
   12DOPE  C318 1545   3.244   6.616   4.899
   12DOPE  H18X 1546   3.260   6.558   4.806
   12DOPE  H18Y 1547   3.136   6.642   4.906
   12DOPE  H18Z 1548   3.302   6.711   4.891
   13DOPE     N 1549   2.500   1.109   7.196
   13DOPE   HN1 1550   2.469   1.207   7.214
   13DOPE   HN2 1551   2.476   1.048   7.276
   13DOPE   HN3 1552   2.604   1.115   7.189
   13DOPE   C12 1553   2.442   1.053   7.070
   13DOPE  H12A 1554   2.335   1.031   7.085
   13DOPE  H12B 1555   2.496   0.958   7.046
   13DOPE   C11 1556   2.463   1.150   6.955
   13DOPE  H11A 1557   2.403   1.242   6.971
   13DOPE  H11B 1558   2.422   1.099   6.863
   13DOPE     P 1559   2.648   1.224   6.797
   13DOPE   O13 1560   2.773   1.302   6.797
   13DOPE   O14 1561   2.531   1.284   6.732
   13DOPE   O11 1562   2.678   1.078   6.742
   13DOPE   O12 1563   2.602   1.182   6.944
   13DOPE    C1 1564   2.792   1.014   6.804
   13DOPE    HA 1565   2.770   0.991   6.910
   13DOPE    HB 1566   2.881   1.081   6.803
   13DOPE    C2 1567   2.837   0.881   6.735
   13DOPE    HS 1568   2.930   0.850   6.786
   13DOPE   O21 1569   2.860   0.893   6.593
   13DOPE   C21 1570   2.967   0.963   6.562
   13DOPE   O22 1571   3.049   1.006   6.641
   13DOPE   C22 1572   2.975   0.988   6.414
   13DOPE   H2R 1573   2.889   0.941   6.361
   13DOPE   H2S 1574   3.070   0.946   6.375
   13DOPE    C3 1575   2.735   0.766   6.756
   13DOPE    HX 1576   2.745   0.727   6.859
   13DOPE    HY 1577   2.767   0.684   6.690
   13DOPE   O31 1578   2.598   0.802   6.732
   13DOPE   C31 1579   2.568   0.827   6.605
   13DOPE   O32 1580   2.630   0.791   6.507
   13DOPE   C32 1581   2.437   0.904   6.600
   13DOPE   H2X 1582   2.357   0.831   6.624
   13DOPE   H2Y 1583   2.440   0.981   6.679
   13DOPE   C23 1584   2.973   1.141   6.402
   13DOPE   H3R 1585   2.978   1.170   6.295
   13DOPE   H3S 1586   3.063   1.183   6.453
   13DOPE   C24 1587   2.848   1.199   6.469
   13DOPE   H4R 1588   2.837   1.168   6.574
   13DOPE   H4S 1589   2.760   1.162   6.413
   13DOPE   C25 1590   2.841   1.351   6.470
   13DOPE   H5R 1591   2.930   1.393   6.520
   13DOPE   H5S 1592   2.752   1.382   6.529
   13DOPE   C26 1593   2.828   1.399   6.327
   13DOPE   H6R 1594   2.827   1.310   6.260
   13DOPE   H6S 1595   2.920   1.453   6.300
   13DOPE   C27 1596   2.698   1.476   6.298
   13DOPE   H7R 1597   2.713   1.585   6.314
   13DOPE   H7S 1598   2.619   1.445   6.370
   13DOPE   C28 1599   2.655   1.441   6.155
   13DOPE   H8R 1600   2.646   1.331   6.150
   13DOPE   H8S 1601   2.738   1.466   6.087
   13DOPE   C29 1602   2.527   1.498   6.102
   13DOPE   H9R 1603   2.459   1.547   6.174
   13DOPE  C210 1604   2.494   1.486   5.972
   13DOPE  H10R 1605   2.399   1.527   5.937
   13DOPE  C211 1606   2.577   1.416   5.867
   13DOPE  H11R 1607   2.545   1.310   5.860
   13DOPE  H11S 1608   2.686   1.415   5.889
   13DOPE  C212 1609   2.555   1.483   5.732
   13DOPE  H12R 1610   2.596   1.586   5.731
   13DOPE  H12S 1611   2.445   1.491   5.714
   13DOPE  C213 1612   2.613   1.406   5.612
   13DOPE  H13R 1613   2.590   1.297   5.622
   13DOPE  H13S 1614   2.723   1.417   5.605
   13DOPE  C214 1615   2.545   1.463   5.489
   13DOPE  H14R 1616   2.558   1.573   5.487
   13DOPE  H14S 1617   2.437   1.440   5.501
   13DOPE  C215 1618   2.584   1.407   5.353
   13DOPE  H15R 1619   2.570   1.296   5.351
   13DOPE  H15S 1620   2.690   1.429   5.329
   13DOPE  C216 1621   2.491   1.473   5.251
   13DOPE  H16R 1622   2.514   1.581   5.247
   13DOPE  H16S 1623   2.390   1.468   5.295
   13DOPE  C217 1624   2.501   1.410   5.112
   13DOPE  H17R 1625   2.467   1.304   5.111
   13DOPE  H17S 1626   2.609   1.408   5.102
   13DOPE  C218 1627   2.448   1.488   4.991
   13DOPE  H18R 1628   2.341   1.470   4.972
   13DOPE  H18S 1629   2.502   1.460   4.898
   13DOPE  H18T 1630   2.460   1.597   5.004
   13DOPE   C33 1631   2.413   0.971   6.463
   13DOPE   H3X 1632   2.312   1.017   6.461
   13DOPE   H3Y 1633   2.421   0.898   6.380
   13DOPE   C34 1634   2.515   1.082   6.442
   13DOPE   H4X 1635   2.519   1.147   6.533
   13DOPE   H4Y 1636   2.615   1.035   6.433
   13DOPE   C35 1637   2.488   1.173   6.323
   13DOPE   H5X 1638   2.560   1.256   6.330
   13DOPE   H5Y 1639   2.387   1.218   6.332
   13DOPE   C36 1640   2.503   1.109   6.185
   13DOPE   H6X 1641   2.484   1.186   6.108
   13DOPE   H6Y 1642   2.426   1.030   6.172
   13DOPE   C37 1643   2.644   1.052   6.163
   13DOPE   H7X 1644   2.719   1.129   6.193
   13DOPE   H7Y 1645   2.660   0.964   6.230
   13DOPE   C38 1646   2.670   1.014   6.017
   13DOPE   H8X 1647   2.775   0.981   6.004
   13DOPE   H8Y 1648   2.655   1.104   5.953
   13DOPE   C39 1649   2.576   0.902   5.981
   13DOPE   H9X 1650   2.582   0.815   6.048
   13DOPE  C310 1651   2.488   0.900   5.880
   13DOPE  H10X 1652   2.428   0.809   5.866
   13DOPE  C311 1653   2.462   1.008   5.778
   13DOPE  H11X 1654   2.353   1.017   5.759
   13DOPE  H11Y 1655   2.495   1.108   5.813
   13DOPE  C312 1656   2.535   0.970   5.648
   13DOPE  H12X 1657   2.532   0.859   5.636
   13DOPE  H12Y 1658   2.642   0.999   5.655
   13DOPE  C313 1659   2.472   1.028   5.520
   13DOPE  H13X 1660   2.361   1.030   5.533
   13DOPE  H13Y 1661   2.505   1.133   5.505
   13DOPE  C314 1662   2.504   0.943   5.395
   13DOPE  H14X 1663   2.425   0.959   5.318
   13DOPE  H14Y 1664   2.502   0.835   5.423
   13DOPE  C315 1665   2.640   0.981   5.334
   13DOPE  H15X 1666   2.695   1.041   5.411
   13DOPE  H15Y 1667   2.625   1.046   5.246
   13DOPE  C316 1668   2.734   0.865   5.296
   13DOPE  H16X 1669   2.697   0.816   5.204
   13DOPE  H16Y 1670   2.734   0.788   5.377
   13DOPE  C317 1671   2.877   0.921   5.280
   13DOPE  H17X 1672   2.867   1.032   5.270
   13DOPE  H17Y 1673   2.935   0.901   5.373
   13DOPE  C318 1674   2.960   0.874   5.160
   13DOPE  H18X 1675   3.052   0.823   5.193
   13DOPE  H18Y 1676   2.904   0.804   5.095
   13DOPE  H18Z 1677   2.994   0.960   5.099
   14DOPE     N 1678   6.784   4.560   7.210
   14DOPE   HN1 1679   6.808   4.546   7.311
   14DOPE   HN2 1680   6.784   4.662   7.187
   14DOPE   HN3 1681   6.689   4.522   7.188
   14DOPE   C12 1682   6.885   4.493   7.120
   14DOPE  H12A 1683   6.861   4.385   7.116
   14DOPE  H12B 1684   6.985   4.506   7.164
   14DOPE   C11 1685   6.884   4.550   6.978
   14DOPE  H11A 1686   6.951   4.487   6.914
   14DOPE  H11B 1687   6.929   4.652   6.982
   14DOPE     P 1688   6.738   4.623   6.782
   14DOPE   O13 1689   6.594   4.625   6.750
   14DOPE   O14 1690   6.833   4.564   6.687
   14DOPE   O11 1691   6.787   4.769   6.823
   14DOPE   O12 1692   6.751   4.551   6.926
   14DOPE    C1 1693   6.722   4.850   6.922
   14DOPE    HA 1694   6.794   4.881   7.001
   14DOPE    HB 1695   6.640   4.794   6.973
   14DOPE    C2 1696   6.654   4.977   6.861
   14DOPE    HS 1697   6.581   5.010   6.938
   14DOPE   O21 1698   6.592   4.947   6.738
   14DOPE   C21 1699   6.467   4.912   6.744
   14DOPE   O22 1700   6.408   4.881   6.846
   14DOPE   C22 1701   6.419   4.937   6.602
   14DOPE   H2R 1702   6.467   5.030   6.565
   14DOPE   H2S 1703   6.310   4.953   6.599
   14DOPE    C3 1704   6.740   5.102   6.826
   14DOPE    HX 1705   6.790   5.135   6.919
   14DOPE    HY 1706   6.669   5.185   6.802
   14DOPE   O31 1707   6.833   5.077   6.717
   14DOPE   C31 1708   6.793   5.114   6.595
   14DOPE   O32 1709   6.700   5.187   6.569
   14DOPE   C32 1710   6.888   5.061   6.485
   14DOPE   H2X 1711   6.918   5.150   6.426
   14DOPE   H2Y 1712   6.977   5.014   6.529
   14DOPE   C23 1713   6.454   4.821   6.510
   14DOPE   H3R 1714   6.376   4.743   6.522
   14DOPE   H3S 1715   6.551   4.773   6.537
   14DOPE   C24 1716   6.460   4.866   6.364
   14DOPE   H4R 1717   6.561   4.899   6.336
   14DOPE   H4S 1718   6.389   4.949   6.343
   14DOPE   C25 1719   6.429   4.745   6.282
   14DOPE   H5R 1720   6.322   4.722   6.297
   14DOPE   H5S 1721   6.484   4.658   6.327
   14DOPE   C26 1722   6.464   4.750   6.135
   14DOPE   H6R 1723   6.398   4.670   6.101
   14DOPE   H6S 1724   6.567   4.720   6.113
   14DOPE   C27 1725   6.431   4.872   6.048
   14DOPE   H7R 1726   6.514   4.945   6.059
   14DOPE   H7S 1727   6.338   4.921   6.084
   14DOPE   C28 1728   6.421   4.823   5.900
   14DOPE   H8R 1729   6.518   4.783   5.870
   14DOPE   H8S 1730   6.397   4.911   5.838
   14DOPE   C29 1731   6.319   4.714   5.884
   14DOPE   H9R 1732   6.241   4.734   5.956
   14DOPE  C210 1733   6.308   4.595   5.824
   14DOPE  H10R 1734   6.212   4.542   5.837
   14DOPE  C211 1735   6.400   4.514   5.741
   14DOPE  H11R 1736   6.446   4.441   5.809
   14DOPE  H11S 1737   6.486   4.571   5.701
   14DOPE  C212 1738   6.317   4.436   5.635
   14DOPE  H12R 1739   6.213   4.420   5.670
   14DOPE  H12S 1740   6.353   4.331   5.628
   14DOPE  C213 1741   6.312   4.502   5.495
   14DOPE  H13R 1742   6.210   4.542   5.489
   14DOPE  H13S 1743   6.315   4.424   5.417
   14DOPE  C214 1744   6.420   4.612   5.471
   14DOPE  H14R 1745   6.520   4.565   5.483
   14DOPE  H14S 1746   6.407   4.688   5.552
   14DOPE  C215 1747   6.425   4.698   5.342
   14DOPE  H15R 1748   6.523   4.752   5.342
   14DOPE  H15S 1749   6.350   4.780   5.349
   14DOPE  C216 1750   6.411   4.624   5.208
   14DOPE  H16R 1751   6.328   4.551   5.214
   14DOPE  H16S 1752   6.506   4.568   5.192
   14DOPE  C217 1753   6.386   4.718   5.088
   14DOPE  H17R 1754   6.418   4.667   4.995
   14DOPE  H17S 1755   6.449   4.810   5.097
   14DOPE  C218 1756   6.239   4.754   5.069
   14DOPE  H18R 1757   6.207   4.829   5.142
   14DOPE  H18S 1758   6.177   4.666   5.088
   14DOPE  H18T 1759   6.218   4.793   4.967
   14DOPE   C33 1760   6.818   4.958   6.393
   14DOPE   H3X 1761   6.853   4.960   6.287
   14DOPE   H3Y 1762   6.713   4.990   6.391
   14DOPE   C34 1763   6.835   4.816   6.451
   14DOPE   H4X 1764   6.940   4.800   6.483
   14DOPE   H4Y 1765   6.773   4.818   6.544
   14DOPE   C35 1766   6.789   4.693   6.370
   14DOPE   H5X 1767   6.686   4.707   6.335
   14DOPE   H5Y 1768   6.788   4.606   6.441
   14DOPE   C36 1769   6.878   4.652   6.250
   14DOPE   H6X 1770   6.969   4.604   6.291
   14DOPE   H6Y 1771   6.902   4.743   6.192
   14DOPE   C37 1772   6.810   4.554   6.155
   14DOPE   H7X 1773   6.778   4.468   6.218
   14DOPE   H7Y 1774   6.721   4.603   6.113
   14DOPE   C38 1775   6.891   4.501   6.034
   14DOPE   H8X 1776   6.824   4.443   5.967
   14DOPE   H8Y 1777   6.967   4.429   6.071
   14DOPE   C39 1778   6.960   4.606   5.952
   14DOPE   H9X 1779   7.068   4.603   5.971
   14DOPE  C310 1780   6.911   4.688   5.857
   14DOPE  H10X 1781   6.979   4.764   5.814
   14DOPE  C311 1782   6.770   4.696   5.807
   14DOPE  H11X 1783   6.717   4.599   5.821
   14DOPE  H11Y 1784   6.716   4.772   5.868
   14DOPE  C312 1785   6.756   4.740   5.658
   14DOPE  H12X 1786   6.778   4.849   5.651
   14DOPE  H12Y 1787   6.649   4.726   5.628
   14DOPE  C313 1788   6.845   4.666   5.557
   14DOPE  H13X 1789   6.951   4.674   5.590
   14DOPE  H13Y 1790   6.818   4.558   5.554
   14DOPE  C314 1791   6.835   4.726   5.416
   14DOPE  H14X 1792   6.838   4.837   5.425
   14DOPE  H14Y 1793   6.737   4.698   5.370
   14DOPE  C315 1794   6.950   4.686   5.321
   14DOPE  H15X 1795   7.047   4.687   5.374
   14DOPE  H15Y 1796   6.955   4.763   5.241
   14DOPE  C316 1797   6.929   4.549   5.255
   14DOPE  H16X 1798   6.824   4.541   5.220
   14DOPE  H16Y 1799   6.947   4.470   5.331
   14DOPE  C317 1800   7.020   4.528   5.133
   14DOPE  H17X 1801   7.123   4.563   5.157
   14DOPE  H17Y 1802   7.026   4.418   5.114
   14DOPE  C318 1803   6.968   4.599   5.008
   14DOPE  H18X 1804   6.966   4.709   5.021
   14DOPE  H18Y 1805   7.033   4.579   4.920
   14DOPE  H18Z 1806   6.865   4.564   4.984
   15DOPE     N 1807   1.192   1.793   6.838
   15DOPE   HN1 1808   1.093   1.767   6.855
   15DOPE   HN2 1809   1.192   1.896   6.815
   15DOPE   HN3 1810   1.230   1.738   6.759
   15DOPE   C12 1811   1.278   1.786   6.961
   15DOPE  H12A 1812   1.385   1.791   6.930
   15DOPE  H12B 1813   1.261   1.694   7.017
   15DOPE   C11 1814   1.243   1.908   7.045
   15DOPE  H11A 1815   1.300   1.914   7.140
   15DOPE  H11B 1816   1.133   1.913   7.065
   15DOPE     P 1817   1.211   2.151   6.956
   15DOPE   O13 1818   1.290   2.242   7.042
   15DOPE   O14 1819   1.066   2.134   6.974
   15DOPE   O11 1820   1.243   2.161   6.805
   15DOPE   O12 1821   1.281   2.012   6.963
   15DOPE    C1 1822   1.379   2.136   6.767
   15DOPE    HA 1823   1.391   2.029   6.742
   15DOPE    HB 1824   1.451   2.164   6.848
   15DOPE    C2 1825   1.422   2.217   6.644
   15DOPE    HS 1826   1.423   2.326   6.672
   15DOPE   O21 1827   1.334   2.188   6.531
   15DOPE   C21 1828   1.222   2.263   6.544
   15DOPE   O22 1829   1.201   2.341   6.634
   15DOPE   C22 1830   1.130   2.262   6.423
   15DOPE   H2R 1831   1.025   2.276   6.459
   15DOPE   H2S 1832   1.138   2.169   6.364
   15DOPE    C3 1833   1.571   2.182   6.614
   15DOPE    HX 1834   1.626   2.184   6.711
   15DOPE    HY 1835   1.616   2.263   6.554
   15DOPE   O31 1836   1.580   2.049   6.557
   15DOPE   C31 1837   1.594   2.053   6.424
   15DOPE   O32 1838   1.639   2.146   6.360
   15DOPE   C32 1839   1.545   1.926   6.361
   15DOPE   H2X 1840   1.637   1.875   6.324
   15DOPE   H2Y 1841   1.495   1.860   6.434
   15DOPE   C23 1842   1.172   2.388   6.344
   15DOPE   H3R 1843   1.267   2.358   6.299
   15DOPE   H3S 1844   1.191   2.475   6.411
   15DOPE   C24 1845   1.081   2.433   6.231
   15DOPE   H4R 1846   1.102   2.539   6.205
   15DOPE   H4S 1847   0.976   2.429   6.266
   15DOPE   C25 1848   1.106   2.339   6.112
   15DOPE   H5R 1849   1.022   2.269   6.127
   15DOPE   H5S 1850   1.197   2.277   6.126
   15DOPE   C26 1851   1.116   2.399   5.970
   15DOPE   H6R 1852   1.217   2.436   5.943
   15DOPE   H6S 1853   1.047   2.485   5.962
   15DOPE   C27 1854   1.083   2.296   5.863
   15DOPE   H7R 1855   1.166   2.222   5.857
   15DOPE   H7S 1856   1.075   2.345   5.763
   15DOPE   C28 1857   0.954   2.223   5.899
   15DOPE   H8R 1858   0.974   2.149   5.980
   15DOPE   H8S 1859   0.928   2.160   5.813
   15DOPE   C29 1860   0.846   2.320   5.942
   15DOPE   H9R 1861   0.867   2.385   6.028
   15DOPE  C210 1862   0.726   2.326   5.888
   15DOPE  H10R 1863   0.649   2.391   5.932
   15DOPE  C211 1864   0.683   2.236   5.778
   15DOPE  H11R 1865   0.577   2.210   5.795
   15DOPE  H11S 1866   0.740   2.144   5.783
   15DOPE  C212 1867   0.705   2.269   5.633
   15DOPE  H12R 1868   0.646   2.358   5.616
   15DOPE  H12S 1869   0.661   2.186   5.573
   15DOPE  C213 1870   0.850   2.280   5.590
   15DOPE  H13R 1871   0.903   2.187   5.621
   15DOPE  H13S 1872   0.900   2.367   5.637
   15DOPE  C214 1873   0.863   2.284   5.440
   15DOPE  H14R 1874   0.872   2.390   5.408
   15DOPE  H14S 1875   0.776   2.237   5.394
   15DOPE  C215 1876   0.976   2.201   5.386
   15DOPE  H15R 1877   0.947   2.159   5.287
   15DOPE  H15S 1878   0.996   2.114   5.450
   15DOPE  C216 1879   1.098   2.288   5.374
   15DOPE  H16R 1880   1.145   2.298   5.474
   15DOPE  H16S 1881   1.070   2.391   5.341
   15DOPE  C217 1882   1.187   2.226   5.270
   15DOPE  H17R 1883   1.202   2.119   5.295
   15DOPE  H17S 1884   1.284   2.276   5.276
   15DOPE  C218 1885   1.130   2.242   5.129
   15DOPE  H18R 1886   1.073   2.150   5.101
   15DOPE  H18S 1887   1.209   2.260   5.055
   15DOPE  H18T 1888   1.061   2.329   5.124
   15DOPE   C33 1889   1.453   1.958   6.242
   15DOPE   H3X 1890   1.484   2.053   6.190
   15DOPE   H3Y 1891   1.347   1.969   6.272
   15DOPE   C34 1892   1.477   1.847   6.141
   15DOPE   H4X 1893   1.582   1.871   6.111
   15DOPE   H4Y 1894   1.472   1.746   6.188
   15DOPE   C35 1895   1.394   1.851   6.015
   15DOPE   H5X 1896   1.456   1.825   5.926
   15DOPE   H5Y 1897   1.364   1.957   6.003
   15DOPE   C36 1898   1.277   1.753   6.022
   15DOPE   H6X 1899   1.222   1.772   6.117
   15DOPE   H6Y 1900   1.315   1.648   6.025
   15DOPE   C37 1901   1.178   1.768   5.907
   15DOPE   H7X 1902   1.220   1.721   5.814
   15DOPE   H7Y 1903   1.084   1.713   5.932
   15DOPE   C38 1904   1.149   1.915   5.880
   15DOPE   H8X 1905   1.242   1.966   5.849
   15DOPE   H8Y 1906   1.116   1.964   5.975
   15DOPE   C39 1907   1.047   1.933   5.773
   15DOPE   H9X 1908   0.943   1.929   5.808
   15DOPE  C310 1909   1.072   1.946   5.643
   15DOPE  H10X 1910   0.987   1.960   5.574
   15DOPE  C311 1911   1.209   1.946   5.582
   15DOPE  H11X 1912   1.264   1.859   5.623
   15DOPE  H11Y 1913   1.202   1.930   5.472
   15DOPE  C312 1914   1.299   2.069   5.606
   15DOPE  H12X 1915   1.280   2.114   5.706
   15DOPE  H12Y 1916   1.276   2.147   5.531
   15DOPE  C313 1917   1.448   2.031   5.599
   15DOPE  H13X 1918   1.509   2.123   5.611
   15DOPE  H13Y 1919   1.470   1.964   5.685
   15DOPE  C314 1920   1.489   1.961   5.467
   15DOPE  H14X 1921   1.424   1.872   5.450
   15DOPE  H14Y 1922   1.593   1.922   5.481
   15DOPE  C315 1923   1.489   2.060   5.349
   15DOPE  H15X 1924   1.593   2.098   5.341
   15DOPE  H15Y 1925   1.426   2.146   5.378
   15DOPE  C316 1926   1.445   2.016   5.208
   15DOPE  H16X 1927   1.336   1.992   5.205
   15DOPE  H16Y 1928   1.501   1.926   5.178
   15DOPE  C317 1929   1.472   2.128   5.105
   15DOPE  H17X 1930   1.418   2.218   5.139
   15DOPE  H17Y 1931   1.580   2.152   5.111
   15DOPE  C318 1932   1.430   2.108   4.959
   15DOPE  H18X 1933   1.490   2.172   4.891
   15DOPE  H18Y 1934   1.445   2.003   4.931
   15DOPE  H18Z 1935   1.323   2.132   4.944
   16DOPE     N 1936   0.478   3.709   7.146
   16DOPE   HN1 1937   0.497   3.753   7.053
   16DOPE   HN2 1938   0.394   3.754   7.192
   16DOPE   HN3 1939   0.563   3.715   7.204
   16DOPE   C12 1940   0.458   3.564   7.116
   16DOPE  H12A 1941   0.367   3.551   7.055
   16DOPE  H12B 1942   0.448   3.508   7.211
   16DOPE   C11 1943   0.581   3.519   7.037
   16DOPE  H11A 1944   0.576   3.407   7.031
   16DOPE  H11B 1945   0.676   3.541   7.091
   16DOPE     P 1946   0.592   3.494   6.783
   16DOPE   O13 1947   0.701   3.395   6.800
   16DOPE   O14 1948   0.580   3.573   6.660
   16DOPE   O11 1949   0.452   3.424   6.811
   16DOPE   O12 1950   0.587   3.587   6.911
   16DOPE    C1 1951   0.418   3.293   6.766
   16DOPE    HA 1952   0.336   3.253   6.829
   16DOPE    HB 1953   0.504   3.222   6.774
   16DOPE    C2 1954   0.372   3.294   6.619
   16DOPE    HS 1955   0.313   3.201   6.605
   16DOPE   O21 1956   0.493   3.285   6.548
   16DOPE   C21 1957   0.480   3.272   6.421
   16DOPE   O22 1958   0.398   3.204   6.361
   16DOPE   C22 1959   0.591   3.344   6.358
   16DOPE   H2R 1960   0.636   3.418   6.428
   16DOPE   H2S 1961   0.553   3.397   6.269
   16DOPE    C3 1962   0.291   3.420   6.572
   16DOPE    HX 1963   0.356   3.510   6.582
   16DOPE    HY 1964   0.213   3.433   6.646
   16DOPE   O31 1965   0.233   3.415   6.438
   16DOPE   C31 1966   0.161   3.307   6.407
   16DOPE   O32 1967   0.132   3.216   6.482
   16DOPE   C32 1968   0.124   3.294   6.255
   16DOPE   H2X 1969   0.158   3.192   6.229
   16DOPE   H2Y 1970   0.013   3.295   6.253
   16DOPE   C23 1971   0.684   3.229   6.324
   16DOPE   H3R 1972   0.730   3.179   6.411
   16DOPE   H3S 1973   0.760   3.283   6.271
   16DOPE   C24 1974   0.625   3.135   6.219
   16DOPE   H4R 1975   0.546   3.197   6.171
   16DOPE   H4S 1976   0.573   3.048   6.265
   16DOPE   C25 1977   0.726   3.093   6.113
   16DOPE   H5R 1978   0.747   2.985   6.122
   16DOPE   H5S 1979   0.823   3.146   6.126
   16DOPE   C26 1980   0.681   3.129   5.971
   16DOPE   H6R 1981   0.739   3.066   5.900
   16DOPE   H6S 1982   0.709   3.233   5.950
   16DOPE   C27 1983   0.531   3.110   5.945
   16DOPE   H7R 1984   0.470   3.196   5.980
   16DOPE   H7S 1985   0.497   3.020   6.003
   16DOPE   C28 1986   0.505   3.078   5.798
   16DOPE   H8R 1987   0.399   3.045   5.789
   16DOPE   H8S 1988   0.571   2.991   5.784
   16DOPE   C29 1989   0.532   3.181   5.690
   16DOPE   H9R 1990   0.454   3.258   5.684
   16DOPE  C210 1991   0.636   3.194   5.604
   16DOPE  H10R 1992   0.626   3.270   5.527
   16DOPE  C211 1993   0.763   3.118   5.581
   16DOPE  H11R 1994   0.789   3.049   5.664
   16DOPE  H11S 1995   0.847   3.190   5.572
   16DOPE  C212 1996   0.756   3.046   5.444
   16DOPE  H12R 1997   0.682   2.965   5.437
   16DOPE  H12S 1998   0.855   2.997   5.436
   16DOPE  C213 1999   0.732   3.137   5.324
   16DOPE  H13R 2000   0.776   3.091   5.234
   16DOPE  H13S 2001   0.780   3.235   5.342
   16DOPE  C214 2002   0.588   3.152   5.274
   16DOPE  H14R 2003   0.587   3.247   5.216
   16DOPE  H14S 2004   0.514   3.161   5.356
   16DOPE  C215 2005   0.548   3.041   5.174
   16DOPE  H15R 2006   0.535   2.946   5.231
   16DOPE  H15S 2007   0.630   3.023   5.101
   16DOPE  C216 2008   0.420   3.077   5.099
   16DOPE  H16R 2009   0.348   3.115   5.176
   16DOPE  H16S 2010   0.372   2.987   5.057
   16DOPE  C217 2011   0.436   3.185   4.990
   16DOPE  H17R 2012   0.482   3.275   5.036
   16DOPE  H17S 2013   0.334   3.215   4.955
   16DOPE  C218 2014   0.517   3.147   4.865
   16DOPE  H18R 2015   0.539   3.239   4.806
   16DOPE  H18S 2016   0.460   3.080   4.798
   16DOPE  H18T 2017   0.613   3.100   4.892
   16DOPE   C33 2018   0.173   3.391   6.142
   16DOPE   H3X 2019   0.120   3.360   6.049
   16DOPE   H3Y 2020   0.280   3.375   6.120
   16DOPE   C34 2021   0.127   3.534   6.174
   16DOPE   H4X 2022   0.018   3.526   6.157
   16DOPE   H4Y 2023   0.147   3.554   6.281
   16DOPE   C35 2024   0.172   3.661   6.099
   16DOPE   H5X 2025   0.103   3.741   6.135
   16DOPE   H5Y 2026   0.152   3.648   5.991
   16DOPE   C36 2027   0.317   3.710   6.123
   16DOPE   H6X 2028   0.332   3.742   6.229
   16DOPE   H6Y 2029   0.333   3.799   6.058
   16DOPE   C37 2030   0.412   3.595   6.088
   16DOPE   H7X 2031   0.398   3.522   6.171
   16DOPE   H7Y 2032   0.367   3.556   5.994
   16DOPE   C38 2033   0.565   3.609   6.073
   16DOPE   H8X 2034   0.615   3.610   6.173
   16DOPE   H8Y 2035   0.598   3.698   6.017
   16DOPE   C39 2036   0.593   3.479   6.000
   16DOPE   H9X 2037   0.601   3.390   6.064
   16DOPE  C310 2038   0.612   3.465   5.868
   16DOPE  H10X 2039   0.616   3.364   5.827
   16DOPE  C311 2040   0.611   3.574   5.764
   16DOPE  H11X 2041   0.619   3.673   5.813
   16DOPE  H11Y 2042   0.706   3.560   5.709
   16DOPE  C312 2043   0.502   3.584   5.656
   16DOPE  H12X 2044   0.506   3.690   5.624
   16DOPE  H12Y 2045   0.401   3.567   5.696
   16DOPE  C313 2046   0.535   3.502   5.531
   16DOPE  H13X 2047   0.638   3.462   5.542
   16DOPE  H13Y 2048   0.464   3.418   5.518
   16DOPE  C314 2049   0.542   3.588   5.405
   16DOPE  H14X 2050   0.612   3.672   5.427
   16DOPE  H14Y 2051   0.441   3.631   5.383
   16DOPE  C315 2052   0.594   3.519   5.280
   16DOPE  H15X 2053   0.520   3.443   5.247
   16DOPE  H15Y 2054   0.691   3.468   5.300
   16DOPE  C316 2055   0.612   3.626   5.173
   16DOPE  H16X 2056   0.700   3.689   5.198
   16DOPE  H16Y 2057   0.521   3.690   5.175
   16DOPE  C317 2058   0.626   3.578   5.029
   16DOPE  H17X 2059   0.721   3.523   5.021
   16DOPE  H17Y 2060   0.542   3.510   5.003
   16DOPE  C318 2061   0.629   3.698   4.934
   16DOPE  H18X 2062   0.617   3.665   4.829
   16DOPE  H18Y 2063   0.546   3.767   4.958
   16DOPE  H18Z 2064   0.723   3.755   4.945
   17DOPE     N 2065   2.756   7.207   7.150
   17DOPE   HN1 2066   2.664   7.190   7.103
   17DOPE   HN2 2067   2.785   7.116   7.193
   17DOPE   HN3 2068   2.744   7.281   7.222
   17DOPE   C12 2069   2.853   7.244   7.041
   17DOPE  H12A 2070   2.953   7.204   7.067
   17DOPE  H12B 2071   2.859   7.354   7.032
   17DOPE   C11 2072   2.802   7.185   6.910
   17DOPE  H11A 2073   2.878   7.204   6.829
   17DOPE  H11B 2074   2.709   7.237   6.879
   17DOPE     P 2075   2.645   6.971   6.936
   17DOPE   O13 2076   2.664   6.835   6.989
   17DOPE   O14 2077   2.588   6.983   6.802
   17DOPE   O11 2078   2.553   7.050   7.043
   17DOPE   O12 2079   2.784   7.046   6.932
   17DOPE    C1 2080   2.425   6.986   7.069
   17DOPE    HA 2081   2.380   7.033   7.160
   17DOPE    HB 2082   2.434   6.878   7.095
   17DOPE    C2 2083   2.317   7.008   6.955
   17DOPE    HS 2084   2.217   6.984   6.998
   17DOPE   O21 2085   2.332   6.927   6.835
   17DOPE   C21 2086   2.337   6.794   6.851
   17DOPE   O22 2087   2.305   6.739   6.955
   17DOPE   C22 2088   2.386   6.721   6.722
   17DOPE   H2R 2089   2.330   6.627   6.713
   17DOPE   H2S 2090   2.491   6.692   6.742
   17DOPE    C3 2091   2.313   7.158   6.913
   17DOPE    HX 2092   2.296   7.218   7.003
   17DOPE    HY 2093   2.225   7.168   6.844
   17DOPE   O31 2094   2.435   7.200   6.851
   17DOPE   C31 2095   2.421   7.289   6.755
   17DOPE   O32 2096   2.327   7.366   6.747
   17DOPE   C32 2097   2.538   7.278   6.657
   17DOPE   H2X 2098   2.579   7.380   6.644
   17DOPE   H2Y 2099   2.616   7.213   6.700
   17DOPE   C23 2100   2.372   6.807   6.592
   17DOPE   H3R 2101   2.462   6.873   6.592
   17DOPE   H3S 2102   2.284   6.872   6.610
   17DOPE   C24 2103   2.349   6.755   6.445
   17DOPE   H4R 2104   2.434   6.783   6.379
   17DOPE   H4S 2105   2.270   6.823   6.415
   17DOPE   C25 2106   2.289   6.617   6.404
   17DOPE   H5R 2107   2.187   6.605   6.443
   17DOPE   H5S 2108   2.351   6.541   6.456
   17DOPE   C26 2109   2.294   6.579   6.250
   17DOPE   H6R 2110   2.267   6.471   6.241
   17DOPE   H6S 2111   2.400   6.589   6.221
   17DOPE   C27 2112   2.222   6.652   6.132
   17DOPE   H7R 2113   2.228   6.762   6.144
   17DOPE   H7S 2114   2.116   6.619   6.129
   17DOPE   C28 2115   2.289   6.626   5.993
   17DOPE   H8R 2116   2.311   6.518   5.991
   17DOPE   H8S 2117   2.387   6.678   5.997
   17DOPE   C29 2118   2.218   6.664   5.864
   17DOPE   H9R 2119   2.110   6.681   5.873
   17DOPE  C210 2120   2.275   6.672   5.741
   17DOPE  H10R 2121   2.215   6.702   5.654
   17DOPE  C211 2122   2.420   6.643   5.710
   17DOPE  H11R 2123   2.458   6.572   5.786
   17DOPE  H11S 2124   2.482   6.735   5.720
   17DOPE  C212 2125   2.452   6.576   5.575
   17DOPE  H12R 2126   2.387   6.487   5.559
   17DOPE  H12S 2127   2.557   6.539   5.581
   17DOPE  C213 2128   2.452   6.664   5.451
   17DOPE  H13R 2129   2.498   6.763   5.476
   17DOPE  H13S 2130   2.348   6.681   5.416
   17DOPE  C214 2131   2.538   6.599   5.342
   17DOPE  H14R 2132   2.500   6.497   5.318
   17DOPE  H14S 2133   2.642   6.588   5.381
   17DOPE  C215 2134   2.544   6.683   5.215
   17DOPE  H15R 2135   2.627   6.647   5.149
   17DOPE  H15S 2136   2.567   6.787   5.244
   17DOPE  C216 2137   2.414   6.680   5.136
   17DOPE  H16R 2138   2.326   6.686   5.202
   17DOPE  H16S 2139   2.409   6.583   5.083
   17DOPE  C217 2140   2.411   6.792   5.033
   17DOPE  H17R 2141   2.518   6.812   5.011
   17DOPE  H17S 2142   2.373   6.886   5.078
   17DOPE  C218 2143   2.341   6.758   4.901
   17DOPE  H18R 2144   2.347   6.650   4.878
   17DOPE  H18S 2145   2.388   6.814   4.817
   17DOPE  H18T 2146   2.234   6.785   4.901
   17DOPE   C33 2147   2.494   7.211   6.526
   17DOPE   H3X 2148   2.429   7.282   6.469
   17DOPE   H3Y 2149   2.437   7.119   6.549
   17DOPE   C34 2150   2.608   7.168   6.433
   17DOPE   H4X 2151   2.687   7.245   6.433
   17DOPE   H4Y 2152   2.653   7.074   6.471
   17DOPE   C35 2153   2.554   7.151   6.290
   17DOPE   H5X 2154   2.468   7.222   6.278
   17DOPE   H5Y 2155   2.514   7.049   6.278
   17DOPE   C36 2156   2.652   7.185   6.178
   17DOPE   H6X 2157   2.727   7.104   6.168
   17DOPE   H6Y 2158   2.710   7.276   6.202
   17DOPE   C37 2159   2.575   7.209   6.047
   17DOPE   H7X 2160   2.492   7.281   6.069
   17DOPE   H7Y 2161   2.641   7.258   5.972
   17DOPE   C38 2162   2.513   7.082   5.987
   17DOPE   H8X 2163   2.451   7.111   5.900
   17DOPE   H8Y 2164   2.444   7.035   6.061
   17DOPE   C39 2165   2.623   6.986   5.950
   17DOPE   H9X 2166   2.678   6.942   6.035
   17DOPE  C310 2167   2.661   6.951   5.826
   17DOPE  H10X 2168   2.749   6.885   5.816
   17DOPE  C311 2169   2.602   6.999   5.697
   17DOPE  H11X 2170   2.532   6.923   5.657
   17DOPE  H11Y 2171   2.545   7.094   5.707
   17DOPE  C312 2172   2.712   7.020   5.592
   17DOPE  H12X 2173   2.787   6.938   5.598
   17DOPE  H12Y 2174   2.765   7.115   5.614
   17DOPE  C313 2175   2.657   7.022   5.449
   17DOPE  H13X 2176   2.728   6.966   5.386
   17DOPE  H13Y 2177   2.559   6.969   5.442
   17DOPE  C314 2178   2.643   7.164   5.393
   17DOPE  H14X 2179   2.710   7.233   5.450
   17DOPE  H14Y 2180   2.539   7.200   5.405
   17DOPE  C315 2181   2.691   7.168   5.248
   17DOPE  H15X 2182   2.800   7.149   5.247
   17DOPE  H15Y 2183   2.676   7.269   5.203
   17DOPE  C316 2184   2.627   7.068   5.153
   17DOPE  H16X 2185   2.516   7.066   5.164
   17DOPE  H16Y 2186   2.665   6.966   5.173
   17DOPE  C317 2187   2.668   7.112   5.012
   17DOPE  H17X 2188   2.622   7.212   4.993
   17DOPE  H17Y 2189   2.778   7.125   5.011
   17DOPE  C318 2190   2.628   7.017   4.902
   17DOPE  H18X 2191   2.683   6.921   4.914
   17DOPE  H18Y 2192   2.519   6.996   4.907
   17DOPE  H18Z 2193   2.649   7.060   4.802
   18DOPE     N 2194   7.531   3.109   7.106
   18DOPE   HN1 2195   7.481   3.193   7.142
   18DOPE   HN2 2196   7.566   3.050   7.184
   18DOPE   HN3 2197   7.614   3.144   7.051
   18DOPE   C12 2198   7.432   3.034   7.022
   18DOPE  H12A 2199   7.366   2.979   7.092
   18DOPE  H12B 2200   7.487   2.963   6.957
   18DOPE   C11 2201   7.347   3.130   6.938
   18DOPE  H11A 2202   7.244   3.088   6.923
   18DOPE  H11B 2203   7.395   3.133   6.837
   18DOPE     P 2204   7.329   3.381   6.899
   18DOPE   O13 2205   7.318   3.503   6.982
   18DOPE   O14 2206   7.224   3.347   6.800
   18DOPE   O11 2207   7.472   3.364   6.842
   18DOPE   O12 2208   7.337   3.258   7.000
   18DOPE    C1 2209   7.590   3.397   6.911
   18DOPE    HA 2210   7.602   3.340   7.005
   18DOPE    HB 2211   7.594   3.505   6.937
   18DOPE    C2 2212   7.700   3.362   6.810
   18DOPE    HS 2213   7.800   3.387   6.854
   18DOPE   O21 2214   7.678   3.438   6.690
   18DOPE   C21 2215   7.700   3.568   6.704
   18DOPE   O22 2216   7.753   3.621   6.800
   18DOPE   C22 2217   7.669   3.643   6.577
   18DOPE   H2R 2218   7.758   3.634   6.510
   18DOPE   H2S 2219   7.659   3.750   6.606
   18DOPE    C3 2220   7.702   3.207   6.778
   18DOPE    HX 2221   7.686   3.155   6.874
   18DOPE    HY 2222   7.802   3.181   6.738
   18DOPE   O31 2223   7.599   3.167   6.687
   18DOPE   C31 2224   7.594   3.041   6.649
   18DOPE   O32 2225   7.657   2.949   6.700
   18DOPE   C32 2226   7.478   3.026   6.550
   18DOPE   H2X 2227   7.395   2.979   6.607
   18DOPE   H2Y 2228   7.444   3.128   6.519
   18DOPE   C23 2229   7.540   3.593   6.511
   18DOPE   H3R 2230   7.473   3.680   6.505
   18DOPE   H3S 2231   7.484   3.518   6.570
   18DOPE   C24 2232   7.564   3.544   6.369
   18DOPE   H4R 2233   7.646   3.470   6.369
   18DOPE   H4S 2234   7.599   3.634   6.314
   18DOPE   C25 2235   7.439   3.488   6.300
   18DOPE   H5R 2236   7.352   3.529   6.355
   18DOPE   H5S 2237   7.433   3.377   6.310
   18DOPE   C26 2238   7.433   3.536   6.153
   18DOPE   H6R 2239   7.475   3.459   6.084
   18DOPE   H6S 2240   7.498   3.626   6.144
   18DOPE   C27 2241   7.294   3.585   6.111
   18DOPE   H7R 2242   7.269   3.672   6.176
   18DOPE   H7S 2243   7.222   3.504   6.131
   18DOPE   C28 2244   7.279   3.629   5.963
   18DOPE   H8R 2245   7.176   3.668   5.951
   18DOPE   H8S 2246   7.282   3.536   5.902
   18DOPE   C29 2247   7.375   3.732   5.910
   18DOPE   H9R 2248   7.355   3.836   5.941
   18DOPE  C210 2249   7.474   3.708   5.823
   18DOPE  H10R 2250   7.539   3.791   5.791
   18DOPE  C211 2251   7.507   3.574   5.763
   18DOPE  H11R 2252   7.504   3.495   5.842
   18DOPE  H11S 2253   7.612   3.575   5.726
   18DOPE  C212 2254   7.414   3.529   5.648
   18DOPE  H12R 2255   7.318   3.492   5.690
   18DOPE  H12S 2256   7.461   3.443   5.597
   18DOPE  C213 2257   7.383   3.636   5.542
   18DOPE  H13R 2258   7.325   3.717   5.590
   18DOPE  H13S 2259   7.318   3.591   5.464
   18DOPE  C214 2260   7.509   3.690   5.471
   18DOPE  H14R 2261   7.590   3.706   5.545
   18DOPE  H14S 2262   7.488   3.788   5.423
   18DOPE  C215 2263   7.554   3.592   5.362
   18DOPE  H15R 2264   7.475   3.586   5.284
   18DOPE  H15S 2265   7.563   3.492   5.409
   18DOPE  C216 2266   7.688   3.626   5.296
   18DOPE  H16R 2267   7.761   3.655   5.375
   18DOPE  H16S 2268   7.676   3.712   5.227
   18DOPE  C217 2269   7.743   3.506   5.219
   18DOPE  H17R 2270   7.742   3.416   5.286
   18DOPE  H17S 2271   7.850   3.527   5.194
   18DOPE  C218 2272   7.667   3.474   5.091
   18DOPE  H18R 2273   7.643   3.566   5.034
   18DOPE  H18S 2274   7.572   3.421   5.111
   18DOPE  H18T 2275   7.727   3.408   5.026
   18DOPE   C33 2276   7.510   2.941   6.425
   18DOPE   H3X 2277   7.414   2.897   6.389
   18DOPE   H3Y 2278   7.578   2.856   6.450
   18DOPE   C34 2279   7.568   3.025   6.310
   18DOPE   H4X 2280   7.498   3.109   6.288
   18DOPE   H4Y 2281   7.664   3.070   6.344
   18DOPE   C35 2282   7.594   2.947   6.180
   18DOPE   H5X 2283   7.503   2.892   6.151
   18DOPE   H5Y 2284   7.674   2.871   6.199
   18DOPE   C36 2285   7.637   3.039   6.064
   18DOPE   H6X 2286   7.735   3.083   6.091
   18DOPE   H6Y 2287   7.564   3.122   6.053
   18DOPE   C37 2288   7.654   2.969   5.928
   18DOPE   H7X 2289   7.705   2.871   5.946
   18DOPE   H7Y 2290   7.555   2.948   5.883
   18DOPE   C38 2291   7.743   3.049   5.829
   18DOPE   H8X 2292   7.770   2.980   5.746
   18DOPE   H8Y 2293   7.839   3.073   5.880
   18DOPE   C39 2294   7.681   3.175   5.774
   18DOPE   H9X 2295   7.698   3.266   5.834
   18DOPE  C310 2296   7.609   3.186   5.661
   18DOPE  H10X 2297   7.574   3.285   5.630
   18DOPE  C311 2298   7.574   3.075   5.565
   18DOPE  H11X 2299   7.630   3.087   5.470
   18DOPE  H11Y 2300   7.603   2.976   5.608
   18DOPE  C312 2301   7.423   3.064   5.533
   18DOPE  H12X 2302   7.366   3.066   5.628
   18DOPE  H12Y 2303   7.403   2.966   5.484
   18DOPE  C313 2304   7.368   3.174   5.441
   18DOPE  H13X 2305   7.257   3.170   5.447
   18DOPE  H13Y 2306   7.400   3.274   5.479
   18DOPE  C314 2307   7.406   3.163   5.293
   18DOPE  H14X 2308   7.355   3.075   5.246
   18DOPE  H14Y 2309   7.516   3.146   5.285
   18DOPE  C315 2310   7.373   3.291   5.216
   18DOPE  H15X 2311   7.396   3.282   5.108
   18DOPE  H15Y 2312   7.437   3.371   5.259
   18DOPE  C316 2313   7.229   3.341   5.231
   18DOPE  H16X 2314   7.214   3.351   5.340
   18DOPE  H16Y 2315   7.155   3.268   5.192
   18DOPE  C317 2316   7.207   3.482   5.176
   18DOPE  H17X 2317   7.304   3.535   5.177
   18DOPE  H17Y 2318   7.173   3.475   5.070
   18DOPE  C318 2319   7.107   3.564   5.260
   18DOPE  H18X 2320   7.008   3.515   5.262
   18DOPE  H18Y 2321   7.141   3.574   5.365
   18DOPE  H18Z 2322   7.096   3.666   5.217
   19DOPE     N 2323   7.522   4.289   7.150
   19DOPE   HN1 2324   7.441   4.223   7.151
   19DOPE   HN2 2325   7.598   4.258   7.216
   19DOPE   HN3 2326   7.489   4.384   7.177
   19DOPE   C12 2327   7.570   4.285   7.007
   19DOPE  H12A 2328   7.637   4.197   6.999
   19DOPE  H12B 2329   7.626   4.378   6.987
   19DOPE   C11 2330   7.453   4.270   6.906
   19DOPE  H11A 2331   7.496   4.269   6.802
   19DOPE  H11B 2332   7.389   4.361   6.911
   19DOPE     P 2333   7.408   4.015   6.863
   19DOPE   O13 2334   7.391   3.911   6.968
   19DOPE   O14 2335   7.544   4.030   6.806
   19DOPE   O11 2336   7.297   4.015   6.748
   19DOPE   O12 2337   7.373   4.154   6.932
   19DOPE    C1 2338   7.158   4.021   6.787
   19DOPE    HA 2339   7.137   4.107   6.853
   19DOPE    HB 2340   7.134   3.928   6.843
   19DOPE    C2 2341   7.051   4.020   6.671
   19DOPE    HS 2342   6.967   3.953   6.702
   19DOPE   O21 2343   7.101   3.972   6.546
   19DOPE   C21 2344   7.171   3.862   6.545
   19DOPE   O22 2345   7.200   3.787   6.635
   19DOPE   C22 2346   7.213   3.844   6.401
   19DOPE   H2R 2347   7.158   3.911   6.332
   19DOPE   H2S 2348   7.191   3.739   6.374
   19DOPE    C3 2349   6.985   4.159   6.644
   19DOPE    HX 2350   6.939   4.194   6.739
   19DOPE    HY 2351   6.903   4.150   6.569
   19DOPE   O31 2352   7.082   4.256   6.604
   19DOPE   C31 2353   7.107   4.265   6.475
   19DOPE   O32 2354   7.036   4.226   6.383
   19DOPE   C32 2355   7.246   4.326   6.461
   19DOPE   H2X 2356   7.240   4.428   6.503
   19DOPE   H2Y 2357   7.315   4.267   6.525
   19DOPE   C23 2358   7.364   3.867   6.395
   19DOPE   H3R 2359   7.406   3.782   6.336
   19DOPE   H3S 2360   7.410   3.867   6.497
   19DOPE   C24 2361   7.414   3.994   6.333
   19DOPE   H4R 2362   7.401   4.080   6.402
   19DOPE   H4S 2363   7.360   4.016   6.238
   19DOPE   C25 2364   7.562   3.967   6.308
   19DOPE   H5R 2365   7.570   3.891   6.227
   19DOPE   H5S 2366   7.608   3.923   6.399
   19DOPE   C26 2367   7.640   4.090   6.266
   19DOPE   H6R 2368   7.744   4.055   6.248
   19DOPE   H6S 2369   7.645   4.165   6.349
   19DOPE   C27 2370   7.577   4.153   6.141
   19DOPE   H7R 2371   7.481   4.202   6.169
   19DOPE   H7S 2372   7.551   4.070   6.071
   19DOPE   C28 2373   7.666   4.255   6.071
   19DOPE   H8R 2374   7.679   4.342   6.139
   19DOPE   H8S 2375   7.615   4.293   5.980
   19DOPE   C29 2376   7.798   4.189   6.040
   19DOPE   H9R 2377   7.881   4.212   6.109
   19DOPE  C210 2378   7.819   4.104   5.938
   19DOPE  H10R 2379   7.919   4.060   5.924
   19DOPE  C211 2380   7.714   4.060   5.838
   19DOPE  H11R 2381   7.611   4.093   5.865
   19DOPE  H11S 2382   7.713   3.949   5.831
   19DOPE  C212 2383   7.749   4.121   5.702
   19DOPE  H12R 2384   7.677   4.082   5.627
   19DOPE  H12S 2385   7.849   4.085   5.671
   19DOPE  C213 2386   7.750   4.276   5.701
   19DOPE  H13R 2387   7.844   4.311   5.656
   19DOPE  H13S 2388   7.750   4.317   5.804
   19DOPE  C214 2389   7.635   4.344   5.625
   19DOPE  H14R 2390   7.657   4.452   5.615
   19DOPE  H14S 2391   7.547   4.332   5.691
   19DOPE  C215 2392   7.601   4.284   5.488
   19DOPE  H15R 2393   7.545   4.190   5.505
   19DOPE  H15S 2394   7.695   4.259   5.433
   19DOPE  C216 2395   7.514   4.377   5.402
   19DOPE  H16R 2396   7.576   4.455   5.355
   19DOPE  H16S 2397   7.439   4.427   5.467
   19DOPE  C217 2398   7.433   4.300   5.297
   19DOPE  H17R 2399   7.380   4.221   5.355
   19DOPE  H17S 2400   7.502   4.250   5.226
   19DOPE  C218 2401   7.326   4.380   5.223
   19DOPE  H18R 2402   7.261   4.433   5.296
   19DOPE  H18S 2403   7.261   4.311   5.164
   19DOPE  H18T 2404   7.371   4.453   5.153
   19DOPE   C33 2405   7.300   4.327   6.317
   19DOPE   H3X 2406   7.292   4.227   6.269
   19DOPE   H3Y 2407   7.408   4.356   6.322
   19DOPE   C34 2408   7.228   4.430   6.231
   19DOPE   H4X 2409   7.129   4.392   6.199
   19DOPE   H4Y 2410   7.208   4.512   6.302
   19DOPE   C35 2411   7.310   4.480   6.111
   19DOPE   H5X 2412   7.417   4.489   6.137
   19DOPE   H5Y 2413   7.275   4.582   6.083
   19DOPE   C36 2414   7.291   4.394   5.987
   19DOPE   H6X 2415   7.181   4.386   5.970
   19DOPE   H6Y 2416   7.331   4.292   6.003
   19DOPE   C37 2417   7.356   4.461   5.867
   19DOPE   H7X 2418   7.331   4.568   5.871
   19DOPE   H7Y 2419   7.466   4.453   5.878
   19DOPE   C38 2420   7.313   4.410   5.729
   19DOPE   H8X 2421   7.327   4.300   5.728
   19DOPE   H8Y 2422   7.385   4.454   5.657
   19DOPE   C39 2423   7.176   4.452   5.683
   19DOPE   H9X 2424   7.174   4.539   5.617
   19DOPE  C310 2425   7.062   4.385   5.706
   19DOPE  H10X 2426   6.967   4.427   5.670
   19DOPE  C311 2427   7.054   4.256   5.782
   19DOPE  H11X 2428   7.151   4.227   5.828
   19DOPE  H11Y 2429   6.981   4.265   5.865
   19DOPE  C312 2430   7.014   4.140   5.689
   19DOPE  H12X 2431   6.908   4.155   5.661
   19DOPE  H12Y 2432   7.019   4.045   5.745
   19DOPE  C313 2433   7.094   4.128   5.558
   19DOPE  H13X 2434   7.043   4.052   5.495
   19DOPE  H13Y 2435   7.093   4.223   5.501
   19DOPE  C314 2436   7.239   4.083   5.583
   19DOPE  H14X 2437   7.249   4.054   5.690
   19DOPE  H14Y 2438   7.310   4.166   5.564
   19DOPE  C315 2439   7.278   3.961   5.499
   19DOPE  H15X 2440   7.199   3.883   5.513
   19DOPE  H15Y 2441   7.374   3.921   5.539
   19DOPE  C316 2442   7.296   3.988   5.350
   19DOPE  H16X 2443   7.402   4.018   5.334
   19DOPE  H16Y 2444   7.231   4.071   5.316
   19DOPE  C317 2445   7.268   3.867   5.261
   19DOPE  H17X 2446   7.280   3.773   5.320
   19DOPE  H17Y 2447   7.163   3.871   5.226
   19DOPE  C318 2448   7.365   3.864   5.142
   19DOPE  H18X 2449   7.341   3.948   5.073
   19DOPE  H18Y 2450   7.469   3.878   5.178
   19DOPE  H18Z 2451   7.359   3.768   5.087
   20DOPE     N 2452   6.290   6.957   6.997
   20DOPE   HN1 2453   6.376   7.010   7.025
   20DOPE   HN2 2454   6.307   6.885   6.923
   20DOPE   HN3 2455   6.220   7.019   6.953
   20DOPE   C12 2456   6.224   6.882   7.108
   20DOPE  H12A 2457   6.137   6.939   7.144
   20DOPE  H12B 2458   6.297   6.867   7.191
   20DOPE   C11 2459   6.178   6.750   7.047
   20DOPE  H11A 2460   6.115   6.697   7.123
   20DOPE  H11B 2461   6.268   6.687   7.024
   20DOPE     P 2462   6.045   6.648   6.852
   20DOPE   O13 2463   5.987   6.558   6.956
   20DOPE   O14 2464   6.156   6.598   6.769
   20DOPE   O11 2465   5.930   6.716   6.768
   20DOPE   O12 2466   6.104   6.777   6.928
   20DOPE    C1 2467   5.810   6.756   6.835
   20DOPE    HA 2468   5.829   6.811   6.931
   20DOPE    HB 2469   5.751   6.665   6.861
   20DOPE    C2 2470   5.722   6.849   6.745
   20DOPE    HS 2471   5.620   6.849   6.789
   20DOPE   O21 2472   5.720   6.799   6.609
   20DOPE   C21 2473   5.658   6.682   6.602
   20DOPE   O22 2474   5.575   6.642   6.683
   20DOPE   C22 2475   5.702   6.607   6.478
   20DOPE   H2R 2476   5.688   6.499   6.500
   20DOPE   H2S 2477   5.810   6.624   6.460
   20DOPE    C3 2478   5.770   6.998   6.745
   20DOPE    HX 2479   5.764   7.032   6.850
   20DOPE    HY 2480   5.697   7.055   6.683
   20DOPE   O31 2481   5.905   7.014   6.698
   20DOPE   C31 2482   5.943   7.124   6.639
   20DOPE   O32 2483   5.880   7.228   6.628
   20DOPE   C32 2484   6.089   7.107   6.598
   20DOPE   H2X 2485   6.128   7.208   6.573
   20DOPE   H2Y 2486   6.145   7.068   6.685
   20DOPE   C23 2487   5.616   6.645   6.355
   20DOPE   H3R 2488   5.510   6.619   6.378
   20DOPE   H3S 2489   5.650   6.581   6.271
   20DOPE   C24 2490   5.618   6.791   6.310
   20DOPE   H4R 2491   5.584   6.858   6.391
   20DOPE   H4S 2492   5.547   6.804   6.225
   20DOPE   C25 2493   5.751   6.844   6.258
   20DOPE   H5R 2494   5.800   6.766   6.195
   20DOPE   H5S 2495   5.818   6.866   6.344
   20DOPE   C26 2496   5.727   6.971   6.175
   20DOPE   H6R 2497   5.635   7.020   6.215
   20DOPE   H6S 2498   5.706   6.942   6.070
   20DOPE   C27 2499   5.840   7.074   6.184
   20DOPE   H7R 2500   5.935   7.018   6.199
   20DOPE   H7S 2501   5.825   7.139   6.272
   20DOPE   C28 2502   5.859   7.157   6.056
   20DOPE   H8R 2503   5.867   7.084   5.972
   20DOPE   H8S 2504   5.959   7.203   6.066
   20DOPE   C29 2505   5.760   7.268   6.029
   20DOPE   H9R 2506   5.737   7.332   6.116
   20DOPE  C210 2507   5.695   7.290   5.913
   20DOPE  H10R 2508   5.621   7.372   5.907
   20DOPE  C211 2509   5.710   7.208   5.788
   20DOPE  H11R 2510   5.623   7.140   5.787
   20DOPE  H11S 2511   5.801   7.145   5.792
   20DOPE  C212 2512   5.717   7.281   5.651
   20DOPE  H12R 2513   5.821   7.319   5.639
   20DOPE  H12S 2514   5.648   7.368   5.648
   20DOPE  C213 2515   5.686   7.188   5.532
   20DOPE  H13R 2516   5.759   7.207   5.451
   20DOPE  H13S 2517   5.587   7.214   5.488
   20DOPE  C214 2518   5.683   7.038   5.567
   20DOPE  H14R 2519   5.588   7.014   5.618
   20DOPE  H14S 2520   5.767   7.010   5.635
   20DOPE  C215 2521   5.694   6.949   5.446
   20DOPE  H15R 2522   5.624   6.989   5.369
   20DOPE  H15S 2523   5.658   6.847   5.468
   20DOPE  C216 2524   5.839   6.943   5.398
   20DOPE  H16R 2525   5.896   6.862   5.448
   20DOPE  H16S 2526   5.892   7.038   5.423
   20DOPE  C217 2527   5.845   6.927   5.248
   20DOPE  H17R 2528   5.795   6.831   5.218
   20DOPE  H17S 2529   5.951   6.920   5.218
   20DOPE  C218 2530   5.778   7.044   5.177
   20DOPE  H18R 2531   5.786   7.137   5.238
   20DOPE  H18S 2532   5.671   7.020   5.165
   20DOPE  H18T 2533   5.823   7.066   5.079
   20DOPE   C33 2534   6.107   7.012   6.478
   20DOPE   H3X 2535   6.204   7.037   6.429
   20DOPE   H3Y 2536   6.027   7.027   6.402
   20DOPE   C34 2537   6.113   6.864   6.519
   20DOPE   H4X 2538   6.177   6.853   6.609
   20DOPE   H4Y 2539   6.012   6.826   6.546
   20DOPE   C35 2540   6.175   6.776   6.409
   20DOPE   H5X 2541   6.197   6.675   6.452
   20DOPE   H5Y 2542   6.270   6.820   6.374
   20DOPE   C36 2543   6.080   6.760   6.290
   20DOPE   H6X 2544   6.070   6.860   6.242
   20DOPE   H6Y 2545   5.981   6.730   6.331
   20DOPE   C37 2546   6.124   6.655   6.188
   20DOPE   H7X 2547   6.219   6.685   6.140
   20DOPE   H7Y 2548   6.143   6.561   6.245
   20DOPE   C38 2549   6.016   6.626   6.082
   20DOPE   H8X 2550   5.924   6.593   6.134
   20DOPE   H8Y 2551   6.050   6.539   6.021
   20DOPE   C39 2552   5.987   6.748   5.997
   20DOPE   H9X 2553   5.968   6.840   6.054
   20DOPE  C310 2554   5.978   6.754   5.863
   20DOPE  H10X 2555   5.952   6.850   5.816
   20DOPE  C311 2556   5.996   6.638   5.769
   20DOPE  H11X 2557   6.047   6.670   5.676
   20DOPE  H11Y 2558   6.058   6.557   5.813
   20DOPE  C312 2559   5.859   6.577   5.734
   20DOPE  H12X 2560   5.802   6.548   5.826
   20DOPE  H12Y 2561   5.878   6.483   5.678
   20DOPE  C313 2562   5.772   6.668   5.647
   20DOPE  H13X 2563   5.691   6.714   5.708
   20DOPE  H13Y 2564   5.834   6.752   5.608
   20DOPE  C314 2565   5.713   6.591   5.528
   20DOPE  H14X 2566   5.629   6.647   5.482
   20DOPE  H14Y 2567   5.671   6.495   5.566
   20DOPE  C315 2568   5.820   6.562   5.422
   20DOPE  H15X 2569   5.884   6.479   5.459
   20DOPE  H15Y 2570   5.886   6.650   5.410
   20DOPE  C316 2571   5.763   6.527   5.284
   20DOPE  H16X 2572   5.846   6.499   5.216
   20DOPE  H16Y 2573   5.714   6.618   5.241
   20DOPE  C317 2574   5.660   6.414   5.288
   20DOPE  H17X 2575   5.701   6.327   5.342
   20DOPE  H17Y 2576   5.571   6.450   5.344
   20DOPE  C318 2577   5.617   6.368   5.148
   20DOPE  H18X 2578   5.582   6.456   5.090
   20DOPE  H18Y 2579   5.702   6.322   5.094
   20DOPE  H18Z 2580   5.535   6.294   5.155
   21DOPE     N 2581   3.366   7.432   6.814
   21DOPE   HN1 2582   3.307   7.496   6.755
   21DOPE   HN2 2583   3.430   7.371   6.760
   21DOPE   HN3 2584   3.295   7.373   6.863
   21DOPE   C12 2585   3.434   7.511   6.922
   21DOPE  H12A 2586   3.474   7.604   6.877
   21DOPE  H12B 2587   3.517   7.449   6.962
   21DOPE   C11 2588   3.334   7.541   7.035
   21DOPE  H11A 2589   3.388   7.602   7.111
   21DOPE  H11B 2590   3.304   7.447   7.087
   21DOPE     P 2591   3.082   7.554   6.948
   21DOPE   O13 2592   2.992   7.553   7.066
   21DOPE   O14 2593   3.108   7.425   6.880
   21DOPE   O11 2594   3.036   7.657   6.839
   21DOPE   O12 2595   3.222   7.615   6.988
   21DOPE    C1 2596   3.121   7.684   6.727
   21DOPE    HA 2597   3.177   7.594   6.693
   21DOPE    HB 2598   3.194   7.764   6.756
   21DOPE    C2 2599   3.043   7.736   6.603
   21DOPE    HS 2600   2.968   7.809   6.642
   21DOPE   O21 2601   2.980   7.629   6.532
   21DOPE   C21 2602   2.865   7.587   6.581
   21DOPE   O22 2603   2.808   7.631   6.679
   21DOPE   C22 2604   2.800   7.491   6.480
   21DOPE   H2R 2605   2.796   7.395   6.536
   21DOPE   H2S 2606   2.866   7.475   6.393
   21DOPE    C3 2607   3.129   7.816   6.500
   21DOPE    HX 2608   3.190   7.892   6.552
   21DOPE    HY 2609   3.058   7.871   6.436
   21DOPE   O31 2610   3.209   7.732   6.413
   21DOPE   C31 2611   3.321   7.687   6.465
   21DOPE   O32 2612   3.364   7.714   6.576
   21DOPE   C32 2613   3.390   7.588   6.373
   21DOPE   H2X 2614   3.498   7.594   6.401
   21DOPE   H2Y 2615   3.356   7.485   6.397
   21DOPE   C23 2616   2.653   7.527   6.439
   21DOPE   H3R 2617   2.604   7.585   6.521
   21DOPE   H3S 2618   2.598   7.431   6.433
   21DOPE   C24 2619   2.617   7.592   6.303
   21DOPE   H4R 2620   2.624   7.701   6.312
   21DOPE   H4S 2621   2.507   7.575   6.289
   21DOPE   C25 2622   2.685   7.539   6.176
   21DOPE   H5R 2623   2.615   7.465   6.130
   21DOPE   H5S 2624   2.778   7.484   6.201
   21DOPE   C26 2625   2.722   7.644   6.069
   21DOPE   H6R 2626   2.806   7.705   6.106
   21DOPE   H6S 2627   2.635   7.712   6.053
   21DOPE   C27 2628   2.765   7.588   5.932
   21DOPE   H7R 2629   2.762   7.669   5.856
   21DOPE   H7S 2630   2.690   7.511   5.901
   21DOPE   C28 2631   2.905   7.525   5.929
   21DOPE   H8R 2632   2.916   7.475   5.830
   21DOPE   H8S 2633   2.908   7.443   6.004
   21DOPE   C29 2634   3.022   7.618   5.952
   21DOPE   H9R 2635   3.037   7.644   6.058
   21DOPE  C210 2636   3.102   7.677   5.861
   21DOPE  H10R 2637   3.179   7.747   5.897
   21DOPE  C211 2638   3.095   7.665   5.709
   21DOPE  H11R 2639   3.027   7.582   5.678
   21DOPE  H11S 2640   3.195   7.642   5.666
   21DOPE  C212 2641   3.041   7.803   5.660
   21DOPE  H12R 2642   3.123   7.878   5.661
   21DOPE  H12S 2643   2.968   7.831   5.738
   21DOPE  C213 2644   2.950   7.819   5.535
   21DOPE  H13R 2645   3.004   7.864   5.450
   21DOPE  H13S 2646   2.871   7.893   5.560
   21DOPE  C214 2647   2.871   7.697   5.496
   21DOPE  H14R 2648   2.802   7.677   5.581
   21DOPE  H14S 2649   2.940   7.610   5.487
   21DOPE  C215 2650   2.790   7.705   5.366
   21DOPE  H15R 2651   2.860   7.697   5.280
   21DOPE  H15S 2652   2.732   7.799   5.355
   21DOPE  C216 2653   2.696   7.584   5.374
   21DOPE  H16R 2654   2.625   7.598   5.458
   21DOPE  H16S 2655   2.764   7.500   5.403
   21DOPE  C217 2656   2.623   7.538   5.249
   21DOPE  H17R 2657   2.603   7.431   5.271
   21DOPE  H17S 2658   2.689   7.542   5.160
   21DOPE  C218 2659   2.484   7.595   5.221
   21DOPE  H18R 2660   2.422   7.595   5.314
   21DOPE  H18S 2661   2.433   7.531   5.146
   21DOPE  H18T 2662   2.488   7.699   5.182
   21DOPE   C33 2663   3.378   7.615   6.222
   21DOPE   H3X 2664   3.375   7.724   6.202
   21DOPE   H3Y 2665   3.284   7.573   6.181
   21DOPE   C34 2666   3.502   7.557   6.153
   21DOPE   H4X 2667   3.509   7.592   6.047
   21DOPE   H4Y 2668   3.590   7.597   6.207
   21DOPE   C35 2669   3.513   7.405   6.156
   21DOPE   H5X 2670   3.529   7.373   6.260
   21DOPE   H5Y 2671   3.600   7.371   6.095
   21DOPE   C36 2672   3.386   7.338   6.105
   21DOPE   H6X 2673   3.302   7.360   6.175
   21DOPE   H6Y 2674   3.400   7.228   6.105
   21DOPE   C37 2675   3.348   7.389   5.965
   21DOPE   H7X 2676   3.348   7.500   5.961
   21DOPE   H7Y 2677   3.423   7.354   5.891
   21DOPE   C38 2678   3.206   7.349   5.927
   21DOPE   H8X 2679   3.179   7.404   5.834
   21DOPE   H8Y 2680   3.137   7.382   6.008
   21DOPE   C39 2681   3.198   7.200   5.911
   21DOPE   H9X 2682   3.259   7.141   5.980
   21DOPE  C310 2683   3.125   7.139   5.818
   21DOPE  H10X 2684   3.131   7.030   5.810
   21DOPE  C311 2685   3.039   7.207   5.716
   21DOPE  H11X 2686   2.940   7.156   5.714
   21DOPE  H11Y 2687   3.019   7.314   5.738
   21DOPE  C312 2688   3.105   7.199   5.579
   21DOPE  H12X 2689   3.144   7.096   5.560
   21DOPE  H12Y 2690   3.192   7.269   5.574
   21DOPE  C313 2691   3.006   7.231   5.469
   21DOPE  H13X 2692   2.924   7.155   5.473
   21DOPE  H13Y 2693   2.958   7.330   5.486
   21DOPE  C314 2694   3.071   7.222   5.332
   21DOPE  H14X 2695   2.990   7.226   5.256
   21DOPE  H14Y 2696   3.125   7.125   5.326
   21DOPE  C315 2697   3.168   7.332   5.295
   21DOPE  H15X 2698   3.198   7.320   5.188
   21DOPE  H15Y 2699   3.261   7.325   5.356
   21DOPE  C316 2700   3.101   7.466   5.318
   21DOPE  H16X 2701   3.100   7.482   5.429
   21DOPE  H16Y 2702   2.996   7.466   5.282
   21DOPE  C317 2703   3.178   7.579   5.255
   21DOPE  H17X 2704   3.284   7.545   5.247
   21DOPE  H17Y 2705   3.138   7.598   5.152
   21DOPE  C318 2706   3.174   7.708   5.336
   21DOPE  H18X 2707   3.084   7.765   5.304
   21DOPE  H18Y 2708   3.169   7.686   5.444
   21DOPE  H18Z 2709   3.262   7.772   5.320
   22DOPE     N 2710   7.370   4.790   6.917
   22DOPE   HN1 2711   7.281   4.768   6.869
   22DOPE   HN2 2712   7.428   4.854   6.859
   22DOPE   HN3 2713   7.433   4.707   6.933
   22DOPE   C12 2714   7.373   4.872   7.043
   22DOPE  H12A 2715   7.373   4.802   7.129
   22DOPE  H12B 2716   7.282   4.935   7.049
   22DOPE   C11 2717   7.500   4.961   7.038
   22DOPE  H11A 2718   7.554   4.955   7.136
   22DOPE  H11B 2719   7.467   5.067   7.028
   22DOPE     P 2720   7.685   4.807   6.939
   22DOPE   O13 2721   7.606   4.690   6.984
   22DOPE   O14 2722   7.796   4.850   7.026
   22DOPE   O11 2723   7.726   4.787   6.789
   22DOPE   O12 2724   7.585   4.929   6.926
   22DOPE    C1 2725   7.626   4.793   6.685
   22DOPE    HA 2726   7.553   4.873   6.702
   22DOPE    HB 2727   7.572   4.696   6.678
   22DOPE    C2 2728   7.694   4.817   6.547
   22DOPE    HS 2729   7.788   4.759   6.560
   22DOPE   O21 2730   7.718   4.957   6.517
   22DOPE   C21 2731   7.824   4.968   6.436
   22DOPE   O22 2732   7.910   4.883   6.423
   22DOPE   C22 2733   7.818   5.092   6.347
   22DOPE   H2R 2734   7.916   5.142   6.352
   22DOPE   H2S 2735   7.743   5.164   6.384
   22DOPE    C3 2736   7.614   4.757   6.426
   22DOPE    HX 2737   7.632   4.647   6.425
   22DOPE    HY 2738   7.661   4.795   6.332
   22DOPE   O31 2739   7.474   4.795   6.424
   22DOPE   C31 2740   7.386   4.696   6.423
   22DOPE   O32 2741   7.415   4.579   6.441
   22DOPE   C32 2742   7.240   4.744   6.407
   22DOPE   H2X 2743   7.179   4.667   6.459
   22DOPE   H2Y 2744   7.227   4.833   6.468
   22DOPE   C23 2745   7.804   5.048   6.201
   22DOPE   H3R 2746   7.700   5.015   6.179
   22DOPE   H3S 2747   7.871   4.959   6.184
   22DOPE   C24 2748   7.848   5.153   6.098
   22DOPE   H4R 2749   7.937   5.207   6.135
   22DOPE   H4S 2750   7.774   5.232   6.080
   22DOPE   C25 2751   7.883   5.081   5.968
   22DOPE   H5R 2752   7.816   4.995   5.948
   22DOPE   H5S 2753   7.979   5.031   5.985
   22DOPE   C26 2754   7.889   5.172   5.846
   22DOPE   H6R 2755   7.947   5.117   5.769
   22DOPE   H6S 2756   7.942   5.267   5.871
   22DOPE   C27 2757   7.752   5.201   5.784
   22DOPE   H7R 2758   7.712   5.291   5.834
   22DOPE   H7S 2759   7.681   5.120   5.810
   22DOPE   C28 2760   7.751   5.223   5.631
   22DOPE   H8R 2761   7.668   5.294   5.610
   22DOPE   H8S 2762   7.720   5.128   5.581
   22DOPE   C29 2763   7.878   5.275   5.568
   22DOPE   H9R 2764   7.957   5.306   5.639
   22DOPE  C210 2765   7.901   5.286   5.436
   22DOPE  H10R 2766   7.999   5.323   5.401
   22DOPE  C211 2767   7.801   5.247   5.329
   22DOPE  H11R 2768   7.699   5.273   5.367
   22DOPE  H11S 2769   7.800   5.137   5.316
   22DOPE  C212 2770   7.818   5.313   5.189
   22DOPE  H12R 2771   7.901   5.268   5.131
   22DOPE  H12S 2772   7.848   5.419   5.210
   22DOPE  C213 2773   7.686   5.322   5.107
   22DOPE  H13R 2774   7.683   5.420   5.055
   22DOPE  H13S 2775   7.610   5.323   5.187
   22DOPE  C214 2776   7.642   5.209   5.009
   22DOPE  H14R 2777   7.599   5.127   5.072
   22DOPE  H14S 2778   7.733   5.169   4.960
   22DOPE  C215 2779   7.536   5.244   4.898
   22DOPE  H15R 2780   7.526   5.158   4.829
   22DOPE  H15S 2781   7.578   5.329   4.839
   22DOPE  C216 2782   7.400   5.291   4.956
   22DOPE  H16R 2783   7.435   5.395   4.979
   22DOPE  H16S 2784   7.375   5.235   5.048
   22DOPE  C217 2785   7.265   5.322   4.886
   22DOPE  H17R 2786   7.223   5.410   4.940
   22DOPE  H17S 2787   7.184   5.249   4.897
   22DOPE  C218 2788   7.267   5.356   4.740
   22DOPE  H18R 2789   7.366   5.327   4.699
   22DOPE  H18S 2790   7.243   5.464   4.732
   22DOPE  H18T 2791   7.188   5.303   4.684
   22DOPE   C33 2792   7.172   4.766   6.268
   22DOPE   H3X 2793   7.072   4.810   6.295
   22DOPE   H3Y 2794   7.149   4.672   6.217
   22DOPE   C34 2795   7.229   4.856   6.158
   22DOPE   H4X 2796   7.231   4.961   6.187
   22DOPE   H4Y 2797   7.330   4.821   6.126
   22DOPE   C35 2798   7.136   4.863   6.039
   22DOPE   H5X 2799   7.030   4.870   6.074
   22DOPE   H5Y 2800   7.149   4.770   5.981
   22DOPE   C36 2801   7.164   4.977   5.943
   22DOPE   H6X 2802   7.160   5.076   5.994
   22DOPE   H6Y 2803   7.078   4.971   5.872
   22DOPE   C37 2804   7.297   4.965   5.865
   22DOPE   H7X 2805   7.302   5.045   5.790
   22DOPE   H7Y 2806   7.383   4.985   5.929
   22DOPE   C38 2807   7.329   4.829   5.802
   22DOPE   H8X 2808   7.333   4.758   5.887
   22DOPE   H8Y 2809   7.431   4.830   5.758
   22DOPE   C39 2810   7.228   4.789   5.698
   22DOPE   H9X 2811   7.162   4.706   5.726
   22DOPE  C310 2812   7.213   4.850   5.580
   22DOPE  H10X 2813   7.137   4.815   5.509
   22DOPE  C311 2814   7.294   4.968   5.533
   22DOPE  H11X 2815   7.229   5.051   5.497
   22DOPE  H11Y 2816   7.361   5.011   5.611
   22DOPE  C312 2817   7.393   4.928   5.426
   22DOPE  H12X 2818   7.442   4.833   5.455
   22DOPE  H12Y 2819   7.472   5.007   5.421
   22DOPE  C313 2820   7.331   4.917   5.288
   22DOPE  H13X 2821   7.253   4.837   5.286
   22DOPE  H13Y 2822   7.279   5.011   5.262
   22DOPE  C314 2823   7.441   4.886   5.187
   22DOPE  H14X 2824   7.524   4.958   5.196
   22DOPE  H14Y 2825   7.396   4.901   5.085
   22DOPE  C315 2826   7.490   4.742   5.201
   22DOPE  H15X 2827   7.512   4.701   5.101
   22DOPE  H15Y 2828   7.404   4.680   5.236
   22DOPE  C316 2829   7.610   4.711   5.294
   22DOPE  H16X 2830   7.670   4.629   5.248
   22DOPE  H16Y 2831   7.564   4.667   5.386
   22DOPE  C317 2832   7.707   4.820   5.347
   22DOPE  H17X 2833   7.649   4.902   5.394
   22DOPE  H17Y 2834   7.765   4.772   5.429
   22DOPE  C318 2835   7.809   4.882   5.251
   22DOPE  H18X 2836   7.878   4.949   5.308
   22DOPE  H18Y 2837   7.872   4.804   5.204
   22DOPE  H18Z 2838   7.759   4.942   5.173
   23DOPE     N 2839   4.670  -0.146   7.187
   23DOPE   HN1 2840   4.662  -0.168   7.289
   23DOPE   HN2 2841   4.740  -0.071   7.171
   23DOPE   HN3 2842   4.580  -0.113   7.145
   23DOPE   C12 2843   4.711  -0.270   7.113
   23DOPE  H12A 2844   4.623  -0.338   7.113
   23DOPE  H12B 2845   4.795  -0.318   7.165
   23DOPE   C11 2846   4.745  -0.231   6.970
   23DOPE  H11A 2847   4.750  -0.324   6.908
   23DOPE  H11B 2848   4.846  -0.183   6.967
   23DOPE     P 2849   4.655  -0.092   6.774
   23DOPE   O13 2850   4.524  -0.039   6.734
   23DOPE   O14 2851   4.711  -0.207   6.699
   23DOPE   O11 2852   4.761   0.025   6.791
   23DOPE   O12 2853   4.643  -0.140   6.925
   23DOPE    C1 2854   4.764   0.112   6.905
   23DOPE    HA 2855   4.813   0.060   6.990
   23DOPE    HB 2856   4.660   0.139   6.936
   23DOPE    C2 2857   4.842   0.246   6.881
   23DOPE    HS 2858   4.825   0.313   6.968
   23DOPE   O21 2859   4.797   0.312   6.764
   23DOPE   C21 2860   4.670   0.339   6.750
   23DOPE   O22 2861   4.588   0.352   6.840
   23DOPE   C22 2862   4.649   0.374   6.603
   23DOPE   H2R 2863   4.747   0.371   6.551
   23DOPE   H2S 2864   4.611   0.478   6.599
   23DOPE    C3 2865   4.998   0.231   6.869
   23DOPE    HX 2866   5.039   0.229   6.973
   23DOPE    HY 2867   5.040   0.323   6.822
   23DOPE   O31 2868   5.044   0.111   6.803
   23DOPE   C31 2869   5.020   0.107   6.672
   23DOPE   O32 2870   4.977   0.197   6.603
   23DOPE   C32 2871   5.077  -0.024   6.615
   23DOPE   H2X 2872   5.187  -0.016   6.618
   23DOPE   H2Y 2873   5.046  -0.107   6.682
   23DOPE   C23 2874   4.552   0.283   6.526
   23DOPE   H3R 2875   4.447   0.307   6.552
   23DOPE   H3S 2876   4.570   0.175   6.552
   23DOPE   C24 2877   4.578   0.301   6.376
   23DOPE   H4R 2878   4.679   0.258   6.353
   23DOPE   H4S 2879   4.581   0.409   6.352
   23DOPE   C25 2880   4.473   0.232   6.290
   23DOPE   H5R 2881   4.379   0.293   6.292
   23DOPE   H5S 2882   4.449   0.134   6.336
   23DOPE   C26 2883   4.519   0.210   6.146
   23DOPE   H6R 2884   4.438   0.153   6.095
   23DOPE   H6S 2885   4.609   0.144   6.144
   23DOPE   C27 2886   4.551   0.341   6.071
   23DOPE   H7R 2887   4.658   0.366   6.087
   23DOPE   H7S 2888   4.492   0.424   6.116
   23DOPE   C28 2889   4.521   0.334   5.920
   23DOPE   H8R 2890   4.578   0.250   5.874
   23DOPE   H8S 2891   4.555   0.428   5.872
   23DOPE   C29 2892   4.372   0.318   5.903
   23DOPE   H9R 2893   4.315   0.406   5.934
   23DOPE  C210 2894   4.304   0.207   5.868
   23DOPE  H10R 2895   4.196   0.211   5.887
   23DOPE  C211 2896   4.354   0.068   5.833
   23DOPE  H11R 2897   4.324   0.003   5.918
   23DOPE  H11S 2898   4.465   0.064   5.832
   23DOPE  C212 2899   4.300  -0.005   5.706
   23DOPE  H12R 2900   4.190  -0.015   5.714
   23DOPE  H12S 2901   4.341  -0.108   5.711
   23DOPE  C213 2902   4.332   0.051   5.564
   23DOPE  H13R 2903   4.262   0.131   5.540
   23DOPE  H13S 2904   4.311  -0.027   5.489
   23DOPE  C214 2905   4.475   0.103   5.543
   23DOPE  H14R 2906   4.540   0.017   5.515
   23DOPE  H14S 2907   4.509   0.144   5.640
   23DOPE  C215 2908   4.495   0.219   5.443
   23DOPE  H15R 2909   4.591   0.271   5.468
   23DOPE  H15S 2910   4.414   0.292   5.460
   23DOPE  C216 2911   4.505   0.178   5.295
   23DOPE  H16R 2912   4.411   0.125   5.268
   23DOPE  H16S 2913   4.588   0.105   5.281
   23DOPE  C217 2914   4.526   0.296   5.199
   23DOPE  H17R 2915   4.507   0.260   5.095
   23DOPE  H17S 2916   4.632   0.330   5.204
   23DOPE  C218 2917   4.435   0.413   5.233
   23DOPE  H18R 2918   4.481   0.477   5.312
   23DOPE  H18S 2919   4.340   0.371   5.271
   23DOPE  H18T 2920   4.410   0.475   5.146
   23DOPE   C33 2921   5.028  -0.048   6.471
   23DOPE   H3X 2922   5.090  -0.126   6.422
   23DOPE   H3Y 2923   5.037   0.044   6.410
   23DOPE   C34 2924   4.882  -0.096   6.475
   23DOPE   H4X 2925   4.879  -0.204   6.502
   23DOPE   H4Y 2926   4.832  -0.040   6.556
   23DOPE   C35 2927   4.795  -0.069   6.352
   23DOPE   H5X 2928   4.787   0.041   6.334
   23DOPE   H5Y 2929   4.693  -0.106   6.377
   23DOPE   C36 2930   4.843  -0.139   6.226
   23DOPE   H6X 2931   4.882  -0.240   6.253
   23DOPE   H6Y 2932   4.926  -0.081   6.181
   23DOPE   C37 2933   4.729  -0.159   6.124
   23DOPE   H7X 2934   4.643  -0.204   6.178
   23DOPE   H7Y 2935   4.694  -0.061   6.085
   23DOPE   C38 2936   4.771  -0.251   6.010
   23DOPE   H8X 2937   4.686  -0.268   5.940
   23DOPE   H8Y 2938   4.796  -0.348   6.056
   23DOPE   C39 2939   4.893  -0.199   5.940
   23DOPE   H9X 2940   4.988  -0.249   5.963
   23DOPE  C310 2941   4.892  -0.096   5.855
   23DOPE  H10X 2942   4.986  -0.061   5.809
   23DOPE  C311 2943   4.768  -0.019   5.816
   23DOPE  H11X 2944   4.675  -0.079   5.827
   23DOPE  H11Y 2945   4.756   0.072   5.879
   23DOPE  C312 2946   4.783   0.022   5.670
   23DOPE  H12X 2947   4.871   0.089   5.657
   23DOPE  H12Y 2948   4.697   0.084   5.644
   23DOPE  C313 2949   4.792  -0.096   5.572
   23DOPE  H13X 2950   4.880  -0.159   5.597
   23DOPE  H13Y 2951   4.701  -0.161   5.580
   23DOPE  C314 2952   4.809  -0.047   5.429
   23DOPE  H14X 2953   4.888   0.032   5.430
   23DOPE  H14Y 2954   4.716   0.001   5.393
   23DOPE  C315 2955   4.853  -0.157   5.333
   23DOPE  H15X 2956   4.930  -0.219   5.382
   23DOPE  H15Y 2957   4.901  -0.105   5.247
   23DOPE  C316 2958   4.738  -0.246   5.282
   23DOPE  H16X 2959   4.648  -0.183   5.266
   23DOPE  H16Y 2960   4.714  -0.321   5.361
   23DOPE  C317 2961   4.769  -0.318   5.150
   23DOPE  H17X 2962   4.854  -0.389   5.164
   23DOPE  H17Y 2963   4.681  -0.379   5.121
   23DOPE  C318 2964   4.802  -0.224   5.034
   23DOPE  H18X 2965   4.896  -0.167   5.052
   23DOPE  H18Y 2966   4.817  -0.281   4.941
   23DOPE  H18Z 2967   4.720  -0.151   5.018
   24DOPE     N 2968   6.861   6.219   7.193
   24DOPE   HN1 2969   6.809   6.129   7.195
   24DOPE   HN2 2970   6.945   6.203   7.134
   24DOPE   HN3 2971   6.888   6.244   7.291
   24DOPE   C12 2972   6.779   6.329   7.129
   24DOPE  H12A 2973   6.850   6.409   7.099
   24DOPE  H12B 2974   6.710   6.369   7.206
   24DOPE   C11 2975   6.700   6.281   7.006
   24DOPE  H11A 2976   6.656   6.370   6.956
   24DOPE  H11B 2977   6.617   6.214   7.037
   24DOPE     P 2978   6.803   6.250   6.765
   24DOPE   O13 2979   6.875   6.379   6.757
   24DOPE   O14 2980   6.675   6.236   6.692
   24DOPE   O11 2981   6.898   6.131   6.729
   24DOPE   O12 2982   6.785   6.211   6.917
   24DOPE    C1 2983   6.844   6.000   6.754
   24DOPE    HA 2984   6.737   5.990   6.722
   24DOPE    HB 2985   6.851   5.975   6.862
   24DOPE    C2 2986   6.924   5.894   6.677
   24DOPE    HS 2987   7.017   5.888   6.738
   24DOPE   O21 2988   6.951   5.938   6.543
   24DOPE   C21 2989   7.057   6.015   6.534
   24DOPE   O22 2990   7.149   6.024   6.614
   24DOPE   C22 2991   7.049   6.088   6.402
   24DOPE   H2R 2992   7.123   6.167   6.404
   24DOPE   H2S 2993   6.949   6.137   6.395
   24DOPE    C3 2994   6.857   5.754   6.670
   24DOPE    HX 2995   6.847   5.711   6.772
   24DOPE    HY 2996   6.923   5.686   6.613
   24DOPE   O31 2997   6.727   5.767   6.610
   24DOPE   C31 2998   6.714   5.719   6.489
   24DOPE   O32 2999   6.779   5.629   6.437
   24DOPE   C32 3000   6.607   5.799   6.419
   24DOPE   H2X 3001   6.601   5.761   6.315
   24DOPE   H2Y 3002   6.511   5.778   6.471
   24DOPE   C23 3003   7.083   6.000   6.280
   24DOPE   H3R 3004   7.174   5.940   6.294
   24DOPE   H3S 3005   7.102   6.071   6.197
   24DOPE   C24 3006   6.961   5.923   6.235
   24DOPE   H4R 3007   6.886   5.998   6.263
   24DOPE   H4S 3008   6.931   5.834   6.293
   24DOPE   C25 3009   6.944   5.911   6.084
   24DOPE   H5R 3010   6.956   5.811   6.041
   24DOPE   H5S 3011   7.021   5.973   6.037
   24DOPE   C26 3012   6.802   5.951   6.049
   24DOPE   H6R 3013   6.798   5.996   5.948
   24DOPE   H6S 3014   6.770   6.032   6.116
   24DOPE   C27 3015   6.709   5.830   6.069
   24DOPE   H7R 3016   6.610   5.864   6.105
   24DOPE   H7S 3017   6.752   5.765   6.149
   24DOPE   C28 3018   6.692   5.745   5.942
   24DOPE   H8R 3019   6.617   5.666   5.960
   24DOPE   H8S 3020   6.790   5.694   5.923
   24DOPE   C29 3021   6.652   5.838   5.830
   24DOPE   H9R 3022   6.576   5.912   5.858
   24DOPE  C210 3023   6.705   5.842   5.707
   24DOPE  H10R 3024   6.673   5.921   5.637
   24DOPE  C211 3025   6.816   5.754   5.658
   24DOPE  H11R 3026   6.881   5.719   5.742
   24DOPE  H11S 3027   6.883   5.809   5.589
   24DOPE  C212 3028   6.756   5.629   5.591
   24DOPE  H12R 3029   6.682   5.584   5.661
   24DOPE  H12S 3030   6.836   5.554   5.575
   24DOPE  C213 3031   6.688   5.657   5.456
   24DOPE  H13R 3032   6.617   5.742   5.468
   24DOPE  H13S 3033   6.628   5.568   5.426
   24DOPE  C214 3034   6.786   5.692   5.343
   24DOPE  H14R 3035   6.859   5.767   5.382
   24DOPE  H14S 3036   6.731   5.741   5.260
   24DOPE  C215 3037   6.867   5.575   5.285
   24DOPE  H15R 3038   6.801   5.511   5.223
   24DOPE  H15S 3039   6.910   5.515   5.368
   24DOPE  C216 3040   6.985   5.632   5.207
   24DOPE  H16R 3041   7.067   5.657   5.278
   24DOPE  H16S 3042   6.946   5.728   5.169
   24DOPE  C217 3043   7.040   5.559   5.084
   24DOPE  H17R 3044   6.997   5.460   5.068
   24DOPE  H17S 3045   7.150   5.546   5.094
   24DOPE  C218 3046   7.015   5.637   4.957
   24DOPE  H18R 3047   7.035   5.568   4.872
   24DOPE  H18S 3048   7.085   5.721   4.946
   24DOPE  H18T 3049   6.912   5.676   4.954
   24DOPE   C33 3050   6.640   5.950   6.422
   24DOPE   H3X 3051   6.724   5.970   6.353
   24DOPE   H3Y 3052   6.670   5.984   6.523
   24DOPE   C34 3053   6.527   6.039   6.375
   24DOPE   H4X 3054   6.496   6.000   6.277
   24DOPE   H4Y 3055   6.442   6.032   6.447
   24DOPE   C35 3056   6.567   6.185   6.347
   24DOPE   H5X 3057   6.655   6.210   6.410
   24DOPE   H5Y 3058   6.483   6.249   6.380
   24DOPE   C36 3059   6.595   6.211   6.197
   24DOPE   H6X 3060   6.508   6.265   6.153
   24DOPE   H6Y 3061   6.597   6.115   6.142
   24DOPE   C37 3062   6.725   6.290   6.168
   24DOPE   H7X 3063   6.716   6.390   6.214
   24DOPE   H7Y 3064   6.811   6.237   6.215
   24DOPE   C38 3065   6.752   6.306   6.016
   24DOPE   H8X 3066   6.659   6.345   5.971
   24DOPE   H8Y 3067   6.763   6.204   5.973
   24DOPE   C39 3068   6.867   6.394   5.971
   24DOPE   H9X 3069   6.852   6.502   5.982
   24DOPE  C310 3070   6.984   6.351   5.919
   24DOPE  H10X 3071   7.049   6.423   5.868
   24DOPE  C311 3072   7.023   6.207   5.897
   24DOPE  H11X 3073   7.133   6.192   5.904
   24DOPE  H11Y 3074   6.978   6.149   5.979
   24DOPE  C312 3075   6.973   6.150   5.762
   24DOPE  H12X 3076   6.863   6.140   5.765
   24DOPE  H12Y 3077   7.017   6.049   5.746
   24DOPE  C313 3078   7.012   6.242   5.647
   24DOPE  H13X 3079   6.976   6.345   5.670
   24DOPE  H13Y 3080   7.123   6.248   5.642
   24DOPE  C314 3081   6.950   6.217   5.510
   24DOPE  H14X 3082   6.842   6.244   5.512
   24DOPE  H14Y 3083   6.960   6.112   5.474
   24DOPE  C315 3084   7.025   6.314   5.420
   24DOPE  H15X 3085   7.131   6.294   5.441
   24DOPE  H15Y 3086   7.003   6.418   5.454
   24DOPE  C316 3087   7.003   6.299   5.269
   24DOPE  H16X 3088   6.955   6.392   5.235
   24DOPE  H16Y 3089   6.930   6.216   5.254
   24DOPE  C317 3090   7.136   6.265   5.196
   24DOPE  H17X 3091   7.217   6.331   5.233
   24DOPE  H17Y 3092   7.165   6.163   5.225
   24DOPE  C318 3093   7.143   6.273   5.043
   24DOPE  H18X 3094   7.151   6.376   5.010
   24DOPE  H18Y 3095   7.232   6.220   5.004
   24DOPE  H18Z 3096   7.053   6.233   4.995
   25DOPE     N 3097   7.687   6.013   6.801
   25DOPE   HN1 3098   7.755   5.967   6.865
   25DOPE   HN2 3099   7.632   5.935   6.760
   25DOPE   HN3 3100   7.733   6.071   6.727
   25DOPE   C12 3101   7.594   6.088   6.891
   25DOPE  H12A 3102   7.491   6.075   6.852
   25DOPE  H12B 3103   7.618   6.195   6.889
   25DOPE   C11 3104   7.611   6.028   7.032
   25DOPE  H11A 3105   7.538   6.073   7.103
   25DOPE  H11B 3106   7.712   6.057   7.070
   25DOPE     P 3107   7.464   5.815   7.029
   25DOPE   O13 3108   7.379   5.895   6.939
   25DOPE   O14 3109   7.416   5.799   7.168
   25DOPE   O11 3110   7.496   5.682   6.958
   25DOPE   O12 3111   7.606   5.885   7.030
   25DOPE    C1 3112   7.549   5.562   7.008
   25DOPE    HA 3113   7.471   5.502   7.059
   25DOPE    HB 3114   7.628   5.583   7.083
   25DOPE    C2 3115   7.611   5.477   6.892
   25DOPE    HS 3116   7.712   5.449   6.923
   25DOPE   O21 3117   7.616   5.544   6.762
   25DOPE   C21 3118   7.683   5.657   6.748
   25DOPE   O22 3119   7.734   5.727   6.833
   25DOPE   C22 3120   7.702   5.691   6.600
   25DOPE   H2R 3121   7.607   5.735   6.564
   25DOPE   H2S 3122   7.719   5.594   6.548
   25DOPE    C3 3123   7.537   5.340   6.874
   25DOPE    HX 3124   7.497   5.310   6.972
   25DOPE    HY 3125   7.611   5.260   6.847
   25DOPE   O31 3126   7.426   5.346   6.784
   25DOPE   C31 3127   7.464   5.336   6.657
   25DOPE   O32 3128   7.573   5.299   6.617
   25DOPE   C32 3129   7.351   5.389   6.572
   25DOPE   H2X 3130   7.259   5.331   6.576
   25DOPE   H2Y 3131   7.306   5.469   6.624
   25DOPE   C23 3132   7.819   5.788   6.567
   25DOPE   H3R 3133   7.914   5.737   6.593
   25DOPE   H3S 3134   7.816   5.878   6.630
   25DOPE   C24 3135   7.825   5.836   6.419
   25DOPE   H4R 3136   7.923   5.884   6.398
   25DOPE   H4S 3137   7.748   5.914   6.403
   25DOPE   C25 3138   7.799   5.720   6.321
   25DOPE   H5R 3139   7.707   5.667   6.345
   25DOPE   H5S 3140   7.874   5.644   6.338
   25DOPE   C26 3141   7.795   5.748   6.170
   25DOPE   H6R 3142   7.870   5.823   6.138
   25DOPE   H6S 3143   7.697   5.792   6.146
   25DOPE   C27 3144   7.809   5.618   6.089
   25DOPE   H7R 3145   7.711   5.592   6.045
   25DOPE   H7S 3146   7.832   5.534   6.158
   25DOPE   C28 3147   7.919   5.622   5.980
   25DOPE   H8R 3148   7.934   5.518   5.942
   25DOPE   H8S 3149   8.017   5.651   6.023
   25DOPE   C29 3150   7.884   5.715   5.868
   25DOPE   H9R 3151   7.921   5.818   5.877
   25DOPE  C210 3152   7.796   5.687   5.771
   25DOPE  H10R 3153   7.766   5.763   5.699
   25DOPE  C211 3154   7.720   5.558   5.762
   25DOPE  H11R 3155   7.755   5.483   5.836
   25DOPE  H11S 3156   7.733   5.511   5.663
   25DOPE  C212 3157   7.574   5.595   5.787
   25DOPE  H12R 3158   7.563   5.686   5.851
   25DOPE  H12S 3159   7.517   5.519   5.842
   25DOPE  C213 3160   7.500   5.614   5.657
   25DOPE  H13R 3161   7.537   5.708   5.614
   25DOPE  H13S 3162   7.394   5.626   5.678
   25DOPE  C214 3163   7.494   5.504   5.552
   25DOPE  H14R 3164   7.441   5.413   5.587
   25DOPE  H14S 3165   7.596   5.474   5.519
   25DOPE  C215 3166   7.419   5.564   5.433
   25DOPE  H15R 3167   7.436   5.674   5.431
   25DOPE  H15S 3168   7.309   5.546   5.440
   25DOPE  C216 3169   7.472   5.516   5.303
   25DOPE  H16R 3170   7.577   5.480   5.313
   25DOPE  H16S 3171   7.476   5.600   5.231
   25DOPE  C217 3172   7.379   5.410   5.251
   25DOPE  H17R 3173   7.432   5.380   5.163
   25DOPE  H17S 3174   7.281   5.451   5.221
   25DOPE  C218 3175   7.366   5.289   5.341
   25DOPE  H18R 3176   7.300   5.313   5.427
   25DOPE  H18S 3177   7.466   5.259   5.379
   25DOPE  H18T 3178   7.323   5.205   5.284
   25DOPE   C33 3179   7.380   5.435   6.430
   25DOPE   H3X 3180   7.301   5.508   6.423
   25DOPE   H3Y 3181   7.349   5.357   6.360
   25DOPE   C34 3182   7.495   5.532   6.395
   25DOPE   H4X 3183   7.510   5.583   6.491
   25DOPE   H4Y 3184   7.588   5.479   6.367
   25DOPE   C35 3185   7.458   5.640   6.288
   25DOPE   H5X 3186   7.354   5.623   6.257
   25DOPE   H5Y 3187   7.520   5.618   6.198
   25DOPE   C36 3188   7.474   5.791   6.325
   25DOPE   H6X 3189   7.572   5.807   6.371
   25DOPE   H6Y 3190   7.404   5.825   6.403
   25DOPE   C37 3191   7.464   5.887   6.204
   25DOPE   H7X 3192   7.493   5.828   6.114
   25DOPE   H7Y 3193   7.358   5.917   6.190
   25DOPE   C38 3194   7.554   6.014   6.208
   25DOPE   H8X 3195   7.661   5.987   6.213
   25DOPE   H8Y 3196   7.533   6.072   6.300
   25DOPE   C39 3197   7.530   6.104   6.089
   25DOPE   H9X 3198   7.462   6.188   6.112
   25DOPE  C310 3199   7.583   6.098   5.965
   25DOPE  H10X 3200   7.549   6.172   5.891
   25DOPE  C311 3201   7.684   6.001   5.909
   25DOPE  H11X 3202   7.759   5.972   5.986
   25DOPE  H11Y 3203   7.631   5.908   5.877
   25DOPE  C312 3204   7.759   6.056   5.785
   25DOPE  H12X 3205   7.829   5.977   5.750
   25DOPE  H12Y 3206   7.822   6.143   5.814
   25DOPE  C313 3207   7.667   6.095   5.668
   25DOPE  H13X 3208   7.579   6.028   5.665
   25DOPE  H13Y 3209   7.628   6.196   5.690
   25DOPE  C314 3210   7.734   6.103   5.530
   25DOPE  H14X 3211   7.825   6.164   5.536
   25DOPE  H14Y 3212   7.665   6.151   5.458
   25DOPE  C315 3213   7.781   5.971   5.472
   25DOPE  H15X 3214   7.852   5.922   5.542
   25DOPE  H15Y 3215   7.837   5.989   5.377
   25DOPE  C316 3216   7.663   5.880   5.444
   25DOPE  H16X 3217   7.593   5.926   5.372
   25DOPE  H16Y 3218   7.609   5.869   5.540
   25DOPE  C317 3219   7.708   5.744   5.395
   25DOPE  H17X 3220   7.804   5.720   5.443
   25DOPE  H17Y 3221   7.644   5.666   5.436
   25DOPE  C318 3222   7.708   5.731   5.243
   25DOPE  H18X 3223   7.735   5.628   5.212
   25DOPE  H18Y 3224   7.607   5.753   5.205
   25DOPE  H18Z 3225   7.775   5.804   5.195
   26DOPE     N 3226   0.644   6.425   6.759
   26DOPE   HN1 3227   0.675   6.499   6.827
   26DOPE   HN2 3228   0.706   6.342   6.771
   26DOPE   HN3 3229   0.654   6.471   6.667
   26DOPE   C12 3230   0.500   6.399   6.791
   26DOPE  H12A 3231   0.496   6.323   6.873
   26DOPE  H12B 3232   0.451   6.359   6.701
   26DOPE   C11 3233   0.432   6.528   6.841
   26DOPE  H11A 3234   0.327   6.502   6.868
   26DOPE  H11B 3235   0.425   6.604   6.759
   26DOPE     P 3236   0.603   6.695   6.956
   26DOPE   O13 3237   0.718   6.643   6.878
   26DOPE   O14 3238   0.627   6.735   7.097
   26DOPE   O11 3239   0.525   6.800   6.871
   26DOPE   O12 3240   0.497   6.576   6.958
   26DOPE    C1 3241   0.413   6.864   6.932
   26DOPE    HA 3242   0.452   6.949   6.991
   26DOPE    HB 3243   0.359   6.795   7.002
   26DOPE    C2 3244   0.307   6.914   6.829
   26DOPE    HS 3245   0.248   6.994   6.877
   26DOPE   O21 3246   0.223   6.801   6.801
   26DOPE   C21 3247   0.148   6.793   6.692
   26DOPE   O22 3248   0.110   6.884   6.621
   26DOPE   C22 3249   0.141   6.642   6.660
   26DOPE   H2R 3250   0.034   6.617   6.653
   26DOPE   H2S 3251   0.179   6.583   6.744
   26DOPE    C3 3252   0.374   6.974   6.702
   26DOPE    HX 3253   0.451   7.045   6.739
   26DOPE    HY 3254   0.298   7.032   6.646
   26DOPE   O31 3255   0.429   6.871   6.617
   26DOPE   C31 3256   0.548   6.895   6.566
   26DOPE   O32 3257   0.608   7.001   6.565
   26DOPE   C32 3258   0.596   6.767   6.498
   26DOPE   H2X 3259   0.618   6.692   6.576
   26DOPE   H2Y 3260   0.511   6.730   6.436
   26DOPE   C23 3261   0.224   6.611   6.532
   26DOPE   H3R 3262   0.324   6.657   6.547
   26DOPE   H3S 3263   0.183   6.670   6.449
   26DOPE   C24 3264   0.254   6.462   6.501
   26DOPE   H4R 3265   0.218   6.400   6.586
   26DOPE   H4S 3266   0.365   6.450   6.496
   26DOPE   C25 3267   0.202   6.399   6.368
   26DOPE   H5R 3268   0.129   6.319   6.395
   26DOPE   H5S 3269   0.286   6.345   6.318
   26DOPE   C26 3270   0.142   6.493   6.262
   26DOPE   H6R 3271   0.100   6.585   6.306
   26DOPE   H6S 3272   0.052   6.446   6.216
   26DOPE   C27 3273   0.244   6.533   6.153
   26DOPE   H7R 3274   0.264   6.444   6.089
   26DOPE   H7S 3275   0.340   6.562   6.201
   26DOPE   C28 3276   0.199   6.651   6.065
   26DOPE   H8R 3277   0.284   6.684   6.003
   26DOPE   H8S 3278   0.172   6.738   6.130
   26DOPE   C29 3279   0.081   6.606   5.983
   26DOPE   H9R 3280  -0.010   6.589   6.042
   26DOPE  C210 3281   0.080   6.578   5.852
   26DOPE  H10R 3282  -0.012   6.540   5.806
   26DOPE  C211 3283   0.199   6.588   5.759
   26DOPE  H11R 3284   0.272   6.663   5.798
   26DOPE  H11S 3285   0.166   6.626   5.660
   26DOPE  C212 3286   0.277   6.456   5.745
   26DOPE  H12R 3287   0.268   6.397   5.839
   26DOPE  H12S 3288   0.385   6.479   5.731
   26DOPE  C213 3289   0.232   6.369   5.626
   26DOPE  H13R 3290   0.123   6.353   5.634
   26DOPE  H13S 3291   0.285   6.271   5.636
   26DOPE  C214 3292   0.265   6.427   5.488
   26DOPE  H14R 3293   0.373   6.411   5.467
   26DOPE  H14S 3294   0.246   6.536   5.492
   26DOPE  C215 3295   0.184   6.372   5.369
   26DOPE  H15R 3296   0.077   6.389   5.391
   26DOPE  H15S 3297   0.201   6.263   5.354
   26DOPE  C216 3298   0.222   6.445   5.240
   26DOPE  H16R 3299   0.333   6.451   5.237
   26DOPE  H16S 3300   0.180   6.547   5.248
   26DOPE  C217 3301   0.179   6.386   5.105
   26DOPE  H17R 3302   0.069   6.375   5.102
   26DOPE  H17S 3303   0.224   6.285   5.092
   26DOPE  C218 3304   0.223   6.476   4.987
   26DOPE  H18R 3305   0.177   6.442   4.892
   26DOPE  H18S 3306   0.334   6.474   4.976
   26DOPE  H18T 3307   0.192   6.581   5.005
   26DOPE   C33 3308   0.718   6.791   6.407
   26DOPE   H3X 3309   0.811   6.798   6.467
   26DOPE   H3Y 3310   0.707   6.887   6.352
   26DOPE   C34 3311   0.732   6.680   6.302
   26DOPE   H4X 3312   0.749   6.583   6.353
   26DOPE   H4Y 3313   0.636   6.673   6.245
   26DOPE   C35 3314   0.846   6.706   6.204
   26DOPE   H5X 3315   0.939   6.731   6.261
   26DOPE   H5Y 3316   0.822   6.795   6.141
   26DOPE   C36 3317   0.876   6.585   6.114
   26DOPE   H6X 3318   0.917   6.504   6.178
   26DOPE   H6Y 3319   0.956   6.613   6.041
   26DOPE   C37 3320   0.756   6.530   6.037
   26DOPE   H7X 3321   0.674   6.505   6.109
   26DOPE   H7Y 3322   0.717   6.609   5.968
   26DOPE   C38 3323   0.795   6.404   5.959
   26DOPE   H8X 3324   0.841   6.332   6.030
   26DOPE   H8Y 3325   0.876   6.434   5.888
   26DOPE   C39 3326   0.678   6.340   5.889
   26DOPE   H9X 3327   0.588   6.330   5.951
   26DOPE  C310 3328   0.674   6.298   5.761
   26DOPE  H10X 3329   0.581   6.254   5.723
   26DOPE  C311 3330   0.786   6.308   5.660
   26DOPE  H11X 3331   0.881   6.343   5.704
   26DOPE  H11Y 3332   0.807   6.207   5.618
   26DOPE  C312 3333   0.750   6.403   5.544
   26DOPE  H12X 3334   0.660   6.366   5.491
   26DOPE  H12Y 3335   0.834   6.404   5.471
   26DOPE  C313 3336   0.726   6.548   5.591
   26DOPE  H13X 3337   0.646   6.550   5.669
   26DOPE  H13Y 3338   0.820   6.584   5.639
   26DOPE  C314 3339   0.686   6.647   5.482
   26DOPE  H14X 3340   0.759   6.645   5.398
   26DOPE  H14Y 3341   0.691   6.748   5.528
   26DOPE  C315 3342   0.543   6.631   5.430
   26DOPE  H15X 3343   0.474   6.645   5.516
   26DOPE  H15Y 3344   0.528   6.529   5.389
   26DOPE  C316 3345   0.508   6.735   5.323
   26DOPE  H16X 3346   0.574   6.723   5.234
   26DOPE  H16Y 3347   0.527   6.834   5.367
   26DOPE  C317 3348   0.361   6.724   5.281
   26DOPE  H17X 3349   0.361   6.649   5.199
   26DOPE  H17Y 3350   0.307   6.683   5.369
   26DOPE  C318 3351   0.281   6.845   5.232
   26DOPE  H18X 3352   0.175   6.813   5.218
   26DOPE  H18Y 3353   0.282   6.928   5.305
   26DOPE  H18Z 3354   0.319   6.880   5.134
   27DOPE     N 3355   5.854   7.489   6.677
   27DOPE   HN1 3356   5.752   7.507   6.684
   27DOPE   HN2 3357   5.897   7.548   6.603
   27DOPE   HN3 3358   5.868   7.388   6.653
   27DOPE   C12 3359   5.923   7.515   6.809
   27DOPE  H12A 3360   5.865   7.463   6.888
   27DOPE  H12B 3361   5.919   7.625   6.827
   27DOPE   C11 3362   6.069   7.462   6.809
   27DOPE  H11A 3363   6.133   7.520   6.738
   27DOPE  H11B 3364   6.069   7.357   6.773
   27DOPE     P 3365   6.138   7.603   7.016
   27DOPE   O13 3366   6.258   7.615   7.102
   27DOPE   O14 3367   6.007   7.640   7.075
   27DOPE   O11 3368   6.156   7.697   6.888
   27DOPE   O12 3369   6.127   7.462   6.941
   27DOPE    C1 3370   6.192   7.834   6.906
   27DOPE    HA 3371   6.297   7.841   6.942
   27DOPE    HB 3372   6.125   7.884   6.979
   27DOPE    C2 3373   6.177   7.920   6.777
   27DOPE    HS 3374   6.174   8.026   6.809
   27DOPE   O21 3375   6.056   7.884   6.707
   27DOPE   C21 3376   6.030   7.963   6.603
   27DOPE   O22 3377   6.096   8.059   6.568
   27DOPE   C22 3378   5.906   7.911   6.532
   27DOPE   H2R 3379   5.820   7.929   6.599
   27DOPE   H2S 3380   5.917   7.801   6.518
   27DOPE    C3 3381   6.304   7.905   6.685
   27DOPE    HX 3382   6.387   7.923   6.758
   27DOPE    HY 3383   6.307   7.987   6.612
   27DOPE   O31 3384   6.321   7.780   6.614
   27DOPE   C31 3385   6.450   7.760   6.583
   27DOPE   O32 3386   6.544   7.827   6.619
   27DOPE   C32 3387   6.465   7.631   6.505
   27DOPE   H2X 3388   6.526   7.569   6.573
   27DOPE   H2Y 3389   6.365   7.583   6.494
   27DOPE   C23 3390   5.883   7.981   6.397
   27DOPE   H3R 3391   5.902   8.091   6.405
   27DOPE   H3S 3392   5.776   7.969   6.369
   27DOPE   C24 3393   5.969   7.921   6.285
   27DOPE   H4R 3394   5.956   7.810   6.284
   27DOPE   H4S 3395   6.077   7.943   6.305
   27DOPE   C25 3396   5.929   7.976   6.147
   27DOPE   H5R 3397   5.944   8.086   6.146
   27DOPE   H5S 3398   5.820   7.956   6.133
   27DOPE   C26 3399   6.005   7.910   6.031
   27DOPE   H6R 3400   5.957   7.942   5.936
   27DOPE   H6S 3401   5.996   7.800   6.039
   27DOPE   C27 3402   6.155   7.946   6.024
   27DOPE   H7R 3403   6.205   7.903   6.113
   27DOPE   H7S 3404   6.166   8.057   6.029
   27DOPE   C28 3405   6.218   7.896   5.892
   27DOPE   H8R 3406   6.238   7.984   5.828
   27DOPE   H8S 3407   6.138   7.839   5.841
   27DOPE   C29 3408   6.340   7.808   5.902
   27DOPE   H9R 3409   6.353   7.754   5.996
   27DOPE  C210 3410   6.436   7.797   5.807
   27DOPE  H10R 3411   6.524   7.735   5.827
   27DOPE  C211 3412   6.433   7.873   5.677
   27DOPE  H11R 3413   6.436   7.981   5.704
   27DOPE  H11S 3414   6.336   7.856   5.628
   27DOPE  C212 3415   6.544   7.852   5.572
   27DOPE  H12R 3416   6.642   7.837   5.624
   27DOPE  H12S 3417   6.557   7.945   5.512
   27DOPE  C213 3418   6.524   7.731   5.479
   27DOPE  H13R 3419   6.535   7.651   5.553
   27DOPE  H13S 3420   6.604   7.724   5.402
   27DOPE  C214 3421   6.390   7.685   5.419
   27DOPE  H14R 3422   6.389   7.696   5.309
   27DOPE  H14S 3423   6.313   7.751   5.463
   27DOPE  C215 3424   6.342   7.541   5.458
   27DOPE  H15R 3425   6.248   7.516   5.406
   27DOPE  H15S 3426   6.321   7.548   5.567
   27DOPE  C216 3427   6.430   7.416   5.438
   27DOPE  H16R 3428   6.384   7.334   5.498
   27DOPE  H16S 3429   6.525   7.432   5.488
   27DOPE  C217 3430   6.457   7.363   5.297
   27DOPE  H17R 3431   6.536   7.284   5.311
   27DOPE  H17S 3432   6.503   7.442   5.234
   27DOPE  C218 3433   6.339   7.297   5.222
   27DOPE  H18R 3434   6.263   7.373   5.194
   27DOPE  H18S 3435   6.291   7.218   5.283
   27DOPE  H18T 3436   6.376   7.250   5.129
   27DOPE   C33 3437   6.539   7.643   6.370
   27DOPE   H3X 3438   6.600   7.551   6.355
   27DOPE   H3Y 3439   6.611   7.728   6.372
   27DOPE   C34 3440   6.445   7.652   6.248
   27DOPE   H4X 3441   6.378   7.740   6.258
   27DOPE   H4Y 3442   6.508   7.668   6.157
   27DOPE   C35 3443   6.363   7.524   6.228
   27DOPE   H5X 3444   6.312   7.493   6.322
   27DOPE   H5Y 3445   6.433   7.442   6.200
   27DOPE   C36 3446   6.254   7.533   6.121
   27DOPE   H6X 3447   6.296   7.573   6.027
   27DOPE   H6Y 3448   6.173   7.602   6.153
   27DOPE   C37 3449   6.197   7.395   6.086
   27DOPE   H7X 3450   6.282   7.324   6.084
   27DOPE   H7Y 3451   6.128   7.361   6.166
   27DOPE   C38 3452   6.129   7.394   5.948
   27DOPE   H8X 3453   6.088   7.292   5.928
   27DOPE   H8Y 3454   6.207   7.411   5.871
   27DOPE   C39 3455   6.021   7.498   5.943
   27DOPE   H9X 3456   5.958   7.503   6.033
   27DOPE  C310 3457   5.995   7.584   5.843
   27DOPE  H10X 3458   5.914   7.657   5.857
   27DOPE  C311 3459   6.067   7.598   5.710
   27DOPE  H11X 3460   6.122   7.694   5.704
   27DOPE  H11Y 3461   6.142   7.518   5.694
   27DOPE  C312 3462   5.963   7.595   5.596
   27DOPE  H12X 3463   5.866   7.641   5.627
   27DOPE  H12Y 3464   5.943   7.488   5.573
   27DOPE  C313 3465   6.007   7.667   5.467
   27DOPE  H13X 3466   6.111   7.642   5.446
   27DOPE  H13Y 3467   5.945   7.629   5.383
   27DOPE  C314 3468   5.999   7.820   5.468
   27DOPE  H14X 3469   6.077   7.859   5.536
   27DOPE  H14Y 3470   5.900   7.853   5.507
   27DOPE  C315 3471   6.021   7.876   5.326
   27DOPE  H15X 3472   5.993   7.984   5.325
   27DOPE  H15Y 3473   5.954   7.824   5.254
   27DOPE  C316 3474   6.167   7.862   5.282
   27DOPE  H16X 3475   6.188   7.755   5.261
   27DOPE  H16Y 3476   6.232   7.896   5.366
   27DOPE  C317 3477   6.216   7.947   5.165
   27DOPE  H17X 3478   6.237   8.050   5.202
   27DOPE  H17Y 3479   6.313   7.902   5.135
   27DOPE  C318 3480   6.122   7.954   5.045
   27DOPE  H18X 3481   6.024   7.994   5.077
   27DOPE  H18Y 3482   6.163   8.023   4.968
   27DOPE  H18Z 3483   6.107   7.854   5.000
   28DOPE     N 3484   7.514   6.968   7.080
   28DOPE   HN1 3485   7.529   6.944   6.977
   28DOPE   HN2 3486   7.415   6.997   7.092
   28DOPE   HN3 3487   7.580   7.041   7.110
   28DOPE   C12 3488   7.537   6.832   7.143
   28DOPE  H12A 3489   7.552   6.847   7.251
   28DOPE  H12B 3490   7.630   6.791   7.099
   28DOPE   C11 3491   7.419   6.736   7.112
   28DOPE  H11A 3492   7.341   6.754   7.190
   28DOPE  H11B 3493   7.453   6.631   7.124
   28DOPE     P 3494   7.439   6.740   6.851
   28DOPE   O13 3495   7.552   6.837   6.855
   28DOPE   O14 3496   7.344   6.752   6.740
   28DOPE   O11 3497   7.492   6.592   6.868
   28DOPE   O12 3498   7.356   6.757   6.985
   28DOPE    C1 3499   7.405   6.483   6.839
   28DOPE    HA 3500   7.296   6.511   6.835
   28DOPE    HB 3501   7.418   6.407   6.917
   28DOPE    C2 3502   7.447   6.419   6.706
   28DOPE    HS 3503   7.554   6.389   6.722
   28DOPE   O21 3504   7.433   6.521   6.606
   28DOPE   C21 3505   7.534   6.525   6.523
   28DOPE   O22 3506   7.612   6.432   6.506
   28DOPE   C22 3507   7.544   6.662   6.458
   28DOPE   H2R 3508   7.651   6.686   6.448
   28DOPE   H2S 3509   7.497   6.740   6.521
   28DOPE    C3 3510   7.365   6.291   6.670
   28DOPE    HX 3511   7.320   6.249   6.763
   28DOPE    HY 3512   7.433   6.213   6.629
   28DOPE   O31 3513   7.259   6.325   6.580
   28DOPE   C31 3514   7.292   6.324   6.452
   28DOPE   O32 3515   7.383   6.262   6.402
   28DOPE   C32 3516   7.189   6.414   6.383
   28DOPE   H2X 3517   7.090   6.392   6.428
   28DOPE   H2Y 3518   7.215   6.519   6.408
   28DOPE   C23 3519   7.485   6.655   6.318
   28DOPE   H3R 3520   7.375   6.650   6.326
   28DOPE   H3S 3521   7.522   6.563   6.268
   28DOPE   C24 3522   7.526   6.772   6.229
   28DOPE   H4R 3523   7.635   6.763   6.208
   28DOPE   H4S 3524   7.508   6.869   6.282
   28DOPE   C25 3525   7.443   6.763   6.103
   28DOPE   H5R 3526   7.336   6.786   6.127
   28DOPE   H5S 3527   7.446   6.657   6.072
   28DOPE   C26 3528   7.489   6.841   5.981
   28DOPE   H6R 3529   7.586   6.802   5.944
   28DOPE   H6S 3530   7.504   6.947   6.006
   28DOPE   C27 3531   7.383   6.828   5.871
   28DOPE   H7R 3532   7.289   6.875   5.906
   28DOPE   H7S 3533   7.360   6.720   5.859
   28DOPE   C28 3534   7.427   6.893   5.738
   28DOPE   H8R 3535   7.512   6.961   5.759
   28DOPE   H8S 3536   7.341   6.955   5.702
   28DOPE   C29 3537   7.468   6.793   5.634
   28DOPE   H9R 3538   7.542   6.720   5.669
   28DOPE  C210 3539   7.440   6.797   5.504
   28DOPE  H10R 3540   7.463   6.710   5.441
   28DOPE  C211 3541   7.362   6.904   5.435
   28DOPE  H11R 3542   7.400   6.916   5.331
   28DOPE  H11S 3543   7.385   6.997   5.489
   28DOPE  C212 3544   7.210   6.891   5.430
   28DOPE  H12R 3545   7.164   6.992   5.417
   28DOPE  H12S 3546   7.172   6.848   5.525
   28DOPE  C213 3547   7.170   6.806   5.311
   28DOPE  H13R 3548   7.228   6.711   5.314
   28DOPE  H13S 3549   7.198   6.859   5.216
   28DOPE  C214 3550   7.022   6.773   5.308
   28DOPE  H14R 3551   6.962   6.865   5.323
   28DOPE  H14S 3552   6.999   6.703   5.392
   28DOPE  C215 3553   6.982   6.710   5.176
   28DOPE  H15R 3554   6.972   6.790   5.099
   28DOPE  H15S 3555   6.881   6.667   5.193
   28DOPE  C216 3556   7.073   6.597   5.123
   28DOPE  H16R 3557   7.005   6.522   5.075
   28DOPE  H16S 3558   7.122   6.547   5.209
   28DOPE  C217 3559   7.177   6.631   5.015
   28DOPE  H17R 3560   7.233   6.540   4.990
   28DOPE  H17S 3561   7.254   6.701   5.054
   28DOPE  C218 3562   7.120   6.680   4.882
   28DOPE  H18R 3563   7.055   6.602   4.836
   28DOPE  H18S 3564   7.200   6.706   4.811
   28DOPE  H18T 3565   7.059   6.770   4.900
   28DOPE   C33 3566   7.185   6.390   6.231
   28DOPE   H3X 3567   7.100   6.449   6.189
   28DOPE   H3Y 3568   7.165   6.283   6.210
   28DOPE   C34 3569   7.312   6.434   6.159
   28DOPE   H4X 3570   7.315   6.543   6.168
   28DOPE   H4Y 3571   7.404   6.390   6.205
   28DOPE   C35 3572   7.308   6.398   6.011
   28DOPE   H5X 3573   7.226   6.458   5.966
   28DOPE   H5Y 3574   7.282   6.290   6.005
   28DOPE   C36 3575   7.438   6.419   5.934
   28DOPE   H6X 3576   7.520   6.363   5.983
   28DOPE   H6Y 3577   7.470   6.525   5.933
   28DOPE   C37 3578   7.422   6.375   5.788
   28DOPE   H7X 3579   7.522   6.351   5.747
   28DOPE   H7Y 3580   7.356   6.286   5.780
   28DOPE   C38 3581   7.369   6.492   5.706
   28DOPE   H8X 3582   7.460   6.553   5.693
   28DOPE   H8Y 3583   7.298   6.549   5.769
   28DOPE   C39 3584   7.305   6.471   5.573
   28DOPE   H9X 3585   7.205   6.517   5.567
   28DOPE  C310 3586   7.349   6.411   5.462
   28DOPE  H10X 3587   7.283   6.425   5.377
   28DOPE  C311 3588   7.477   6.342   5.423
   28DOPE  H11X 3589   7.559   6.366   5.493
   28DOPE  H11Y 3590   7.463   6.231   5.423
   28DOPE  C312 3591   7.513   6.385   5.278
   28DOPE  H12X 3592   7.441   6.342   5.205
   28DOPE  H12Y 3593   7.612   6.343   5.252
   28DOPE  C313 3594   7.514   6.538   5.266
   28DOPE  H13X 3595   7.408   6.575   5.271
   28DOPE  H13Y 3596   7.570   6.576   5.355
   28DOPE  C314 3597   7.575   6.606   5.143
   28DOPE  H14X 3598   7.686   6.605   5.151
   28DOPE  H14Y 3599   7.543   6.713   5.145
   28DOPE  C315 3600   7.535   6.546   5.009
   28DOPE  H15X 3601   7.427   6.527   5.007
   28DOPE  H15Y 3602   7.585   6.447   4.995
   28DOPE  C316 3603   7.575   6.640   4.894
   28DOPE  H16X 3604   7.680   6.671   4.911
   28DOPE  H16Y 3605   7.512   6.731   4.897
   28DOPE  C317 3606   7.566   6.573   4.756
   28DOPE  H17X 3607   7.616   6.640   4.682
   28DOPE  H17Y 3608   7.624   6.478   4.760
   28DOPE  C318 3609   7.424   6.545   4.708
   28DOPE  H18X 3610   7.369   6.483   4.782
   28DOPE  H18Y 3611   7.369   6.640   4.692
   28DOPE  H18Z 3612   7.425   6.490   4.611
   29DOPE     N 3613   7.038   0.819   6.976
   29DOPE   HN1 3614   7.029   0.919   7.010
   29DOPE   HN2 3615   7.022   0.819   6.872
   29DOPE   HN3 3616   6.960   0.772   7.027
   29DOPE   C12 3617   7.177   0.773   7.009
   29DOPE  H12A 3618   7.191   0.675   6.958
   29DOPE  H12B 3619   7.180   0.759   7.119
   29DOPE   C11 3620   7.285   0.875   6.965
   29DOPE  H11A 3621   7.253   0.975   7.001
   29DOPE  H11B 3622   7.290   0.877   6.853
   29DOPE     P 3623   7.550   0.851   6.947
   29DOPE   O13 3624   7.659   0.823   7.044
   29DOPE   O14 3625   7.565   0.967   6.858
   29DOPE   O11 3626   7.518   0.724   6.858
   29DOPE   O12 3627   7.413   0.851   7.025
   29DOPE    C1 3628   7.609   0.619   6.833
   29DOPE    HA 3629   7.558   0.524   6.857
   29DOPE    HB 3630   7.699   0.624   6.899
   29DOPE    C2 3631   7.656   0.612   6.683
   29DOPE    HS 3632   7.734   0.533   6.677
   29DOPE   O21 3633   7.709   0.736   6.634
   29DOPE   C21 3634   7.822   0.778   6.689
   29DOPE   O22 3635   7.887   0.718   6.773
   29DOPE   C22 3636   7.871   0.907   6.626
   29DOPE   H2R 3637   7.948   0.890   6.548
   29DOPE   H2S 3638   7.918   0.969   6.705
   29DOPE    C3 3639   7.539   0.567   6.588
   29DOPE    HX 3640   7.482   0.491   6.646
   29DOPE    HY 3641   7.583   0.516   6.499
   29DOPE   O31 3642   7.447   0.671   6.553
   29DOPE   C31 3643   7.442   0.719   6.430
   29DOPE   O32 3644   7.504   0.676   6.333
   29DOPE   C32 3645   7.349   0.841   6.432
   29DOPE   H2X 3646   7.296   0.836   6.530
   29DOPE   H2Y 3647   7.411   0.933   6.433
   29DOPE   C23 3648   7.764   0.984   6.551
   29DOPE   H3R 3649   7.804   1.087   6.534
   29DOPE   H3S 3650   7.670   0.994   6.608
   29DOPE   C24 3651   7.743   0.928   6.412
   29DOPE   H4R 3652   7.681   0.836   6.417
   29DOPE   H4S 3653   7.838   0.901   6.362
   29DOPE   C25 3654   7.674   1.037   6.334
   29DOPE   H5R 3655   7.746   1.118   6.310
   29DOPE   H5S 3656   7.593   1.077   6.398
   29DOPE   C26 3657   7.614   0.980   6.210
   29DOPE   H6R 3658   7.536   1.050   6.172
   29DOPE   H6S 3659   7.562   0.886   6.237
   29DOPE   C27 3660   7.717   0.952   6.102
   29DOPE   H7R 3661   7.791   0.876   6.136
   29DOPE   H7S 3662   7.773   1.045   6.078
   29DOPE   C28 3663   7.642   0.904   5.981
   29DOPE   H8R 3664   7.706   0.915   5.891
   29DOPE   H8S 3665   7.562   0.979   5.966
   29DOPE   C29 3666   7.587   0.765   6.005
   29DOPE   H9R 3667   7.511   0.752   6.084
   29DOPE  C210 3668   7.633   0.658   5.943
   29DOPE  H10R 3669   7.597   0.557   5.967
   29DOPE  C211 3670   7.743   0.669   5.843
   29DOPE  H11R 3671   7.795   0.571   5.846
   29DOPE  H11S 3672   7.819   0.746   5.871
   29DOPE  C212 3673   7.700   0.695   5.699
   29DOPE  H12R 3674   7.602   0.648   5.673
   29DOPE  H12S 3675   7.781   0.639   5.651
   29DOPE  C213 3676   7.715   0.833   5.635
   29DOPE  H13R 3677   7.819   0.870   5.645
   29DOPE  H13S 3678   7.651   0.907   5.686
   29DOPE  C214 3679   7.674   0.830   5.486
   29DOPE  H14R 3680   7.611   0.919   5.469
   29DOPE  H14S 3681   7.609   0.741   5.469
   29DOPE  C215 3682   7.793   0.835   5.389
   29DOPE  H15R 3683   7.880   0.785   5.435
   29DOPE  H15S 3684   7.821   0.942   5.375
   29DOPE  C216 3685   7.771   0.771   5.251
   29DOPE  H16R 3686   7.745   0.851   5.179
   29DOPE  H16S 3687   7.683   0.703   5.256
   29DOPE  C217 3688   7.892   0.693   5.195
   29DOPE  H17R 3689   7.934   0.622   5.269
   29DOPE  H17S 3690   7.978   0.761   5.179
   29DOPE  C218 3691   7.861   0.612   5.068
   29DOPE  H18R 3692   7.935   0.530   5.056
   29DOPE  H18S 3693   7.865   0.674   4.977
   29DOPE  H18T 3694   7.760   0.569   5.069
   29DOPE   C33 3695   7.242   0.848   6.320
   29DOPE   H3X 3696   7.144   0.880   6.362
   29DOPE   H3Y 3697   7.229   0.746   6.278
   29DOPE   C34 3698   7.277   0.943   6.204
   29DOPE   H4X 3699   7.292   1.046   6.244
   29DOPE   H4Y 3700   7.373   0.906   6.164
   29DOPE   C35 3701   7.175   0.937   6.090
   29DOPE   H5X 3702   7.076   0.976   6.125
   29DOPE   H5Y 3703   7.162   0.830   6.066
   29DOPE   C36 3704   7.210   1.003   5.954
   29DOPE   H6X 3705   7.231   1.109   5.967
   29DOPE   H6Y 3706   7.114   0.998   5.901
   29DOPE   C37 3707   7.313   0.924   5.870
   29DOPE   H7X 3708   7.390   0.903   5.945
   29DOPE   H7Y 3709   7.270   0.824   5.851
   29DOPE   C38 3710   7.390   0.970   5.737
   29DOPE   H8X 3711   7.397   0.878   5.675
   29DOPE   H8Y 3712   7.493   0.975   5.774
   29DOPE   C39 3713   7.381   1.093   5.646
   29DOPE   H9X 3714   7.385   1.183   5.705
   29DOPE  C310 3715   7.338   1.115   5.518
   29DOPE  H10X 3716   7.359   1.215   5.475
   29DOPE  C311 3717   7.280   1.015   5.421
   29DOPE  H11X 3718   7.319   0.916   5.450
   29DOPE  H11Y 3719   7.169   1.015   5.432
   29DOPE  C312 3720   7.309   1.010   5.270
   29DOPE  H12X 3721   7.240   1.074   5.211
   29DOPE  H12Y 3722   7.294   0.905   5.236
   29DOPE  C313 3723   7.454   1.046   5.245
   29DOPE  H13X 3724   7.454   1.156   5.249
   29DOPE  H13Y 3725   7.519   1.012   5.327
   29DOPE  C314 3726   7.512   0.995   5.114
   29DOPE  H14X 3727   7.523   0.884   5.119
   29DOPE  H14Y 3728   7.613   1.038   5.104
   29DOPE  C315 3729   7.426   1.031   4.993
   29DOPE  H15X 3730   7.333   0.970   4.997
   29DOPE  H15Y 3731   7.479   1.004   4.899
   29DOPE  C316 3732   7.385   1.179   4.990
   29DOPE  H16X 3733   7.337   1.210   5.085
   29DOPE  H16Y 3734   7.311   1.196   4.911
   29DOPE  C317 3735   7.500   1.274   4.964
   29DOPE  H17X 3736   7.583   1.254   5.032
   29DOPE  H17Y 3737   7.542   1.246   4.866
   29DOPE  C318 3738   7.456   1.421   4.974
   29DOPE  H18X 3739   7.379   1.444   4.897
   29DOPE  H18Y 3740   7.412   1.439   5.074
   29DOPE  H18Z 3741   7.542   1.490   4.960
   30DOPE     N 3742   0.659   7.321   7.117
   30DOPE   HN1 3743   0.752   7.334   7.075
   30DOPE   HN2 3744   0.660   7.245   7.189
   30DOPE   HN3 3745   0.602   7.286   7.035
   30DOPE   C12 3746   0.592   7.451   7.155
   30DOPE  H12A 3747   0.669   7.523   7.186
   30DOPE  H12B 3748   0.523   7.431   7.240
   30DOPE   C11 3749   0.510   7.502   7.035
   30DOPE  H11A 3750   0.573   7.520   6.945
   30DOPE  H11B 3751   0.466   7.600   7.064
   30DOPE     P 3752   0.417   7.280   6.916
   30DOPE   O13 3753   0.365   7.166   6.994
   30DOPE   O14 3754   0.558   7.272   6.874
   30DOPE   O11 3755   0.314   7.317   6.803
   30DOPE   O12 3756   0.406   7.408   7.008
   30DOPE    C1 3757   0.183   7.342   6.860
   30DOPE    HA 3758   0.185   7.407   6.952
   30DOPE    HB 3759   0.134   7.246   6.887
   30DOPE    C2 3760   0.090   7.422   6.768
   30DOPE    HS 3761  -0.012   7.413   6.812
   30DOPE   O21 3762   0.094   7.369   6.634
   30DOPE   C21 3763   0.038   7.251   6.623
   30DOPE   O22 3764  -0.024   7.191   6.710
   30DOPE   C22 3765   0.045   7.211   6.475
   30DOPE   H2R 3766  -0.007   7.291   6.419
   30DOPE   H2S 3767  -0.013   7.117   6.463
   30DOPE    C3 3768   0.127   7.573   6.768
   30DOPE    HX 3769   0.106   7.611   6.871
   30DOPE    HY 3770   0.061   7.631   6.700
   30DOPE   O31 3771   0.268   7.592   6.741
   30DOPE   C31 3772   0.297   7.578   6.612
   30DOPE   O32 3773   0.219   7.593   6.519
   30DOPE   C32 3774   0.445   7.546   6.596
   30DOPE   H2X 3775   0.500   7.611   6.667
   30DOPE   H2Y 3776   0.460   7.440   6.624
   30DOPE   C23 3777   0.184   7.195   6.411
   30DOPE   H3R 3778   0.243   7.119   6.467
   30DOPE   H3S 3779   0.240   7.291   6.415
   30DOPE   C24 3780   0.168   7.150   6.265
   30DOPE   H4R 3781   0.131   7.237   6.205
   30DOPE   H4S 3782   0.091   7.070   6.260
   30DOPE   C25 3783   0.297   7.097   6.201
   30DOPE   H5R 3784   0.343   7.020   6.268
   30DOPE   H5S 3785   0.369   7.181   6.196
   30DOPE   C26 3786   0.279   7.034   6.061
   30DOPE   H6R 3787   0.229   6.935   6.072
   30DOPE   H6S 3788   0.380   7.017   6.017
   30DOPE   C27 3789   0.195   7.117   5.963
   30DOPE   H7R 3790   0.212   7.225   5.985
   30DOPE   H7S 3791   0.088   7.096   5.981
   30DOPE   C28 3792   0.226   7.093   5.813
   30DOPE   H8R 3793   0.323   7.143   5.792
   30DOPE   H8S 3794   0.147   7.147   5.754
   30DOPE   C29 3795   0.236   6.951   5.767
   30DOPE   H9R 3796   0.177   6.878   5.825
   30DOPE  C210 3797   0.313   6.907   5.664
   30DOPE  H10R 3798   0.311   6.801   5.638
   30DOPE  C211 3799   0.403   6.991   5.576
   30DOPE  H11R 3800   0.365   7.095   5.566
   30DOPE  H11S 3801   0.400   6.948   5.474
   30DOPE  C212 3802   0.550   6.998   5.622
   30DOPE  H12R 3803   0.579   6.904   5.674
   30DOPE  H12S 3804   0.556   7.080   5.697
   30DOPE  C213 3805   0.658   7.023   5.513
   30DOPE  H13R 3806   0.676   6.934   5.450
   30DOPE  H13S 3807   0.752   7.040   5.569
   30DOPE  C214 3808   0.641   7.144   5.419
   30DOPE  H14R 3809   0.741   7.168   5.376
   30DOPE  H14S 3810   0.610   7.230   5.483
   30DOPE  C215 3811   0.541   7.135   5.302
   30DOPE  H15R 3812   0.540   7.238   5.260
   30DOPE  H15S 3813   0.440   7.112   5.342
   30DOPE  C216 3814   0.564   7.045   5.179
   30DOPE  H16R 3815   0.500   7.086   5.097
   30DOPE  H16S 3816   0.524   6.945   5.197
   30DOPE  C217 3817   0.704   7.026   5.123
   30DOPE  H17R 3818   0.768   6.976   5.199
   30DOPE  H17S 3819   0.750   7.125   5.098
   30DOPE  C218 3820   0.698   6.939   4.997
   30DOPE  H18R 3821   0.656   6.838   5.020
   30DOPE  H18S 3822   0.798   6.926   4.951
   30DOPE  H18T 3823   0.630   6.985   4.922
   30DOPE   C33 3824   0.493   7.574   6.452
   30DOPE   H3X 3825   0.588   7.633   6.459
   30DOPE   H3Y 3826   0.420   7.635   6.395
   30DOPE   C34 3827   0.522   7.452   6.364
   30DOPE   H4X 3828   0.607   7.395   6.408
   30DOPE   H4Y 3829   0.434   7.385   6.358
   30DOPE   C35 3830   0.557   7.501   6.223
   30DOPE   H5X 3831   0.592   7.607   6.229
   30DOPE   H5Y 3832   0.466   7.502   6.161
   30DOPE   C36 3833   0.672   7.426   6.156
   30DOPE   H6X 3834   0.754   7.438   6.229
   30DOPE   H6Y 3835   0.705   7.478   6.064
   30DOPE   C37 3836   0.655   7.275   6.132
   30DOPE   H7X 3837   0.757   7.231   6.121
   30DOPE   H7Y 3838   0.610   7.227   6.222
   30DOPE   C38 3839   0.574   7.236   6.007
   30DOPE   H8X 3840   0.467   7.251   6.028
   30DOPE   H8Y 3841   0.588   7.127   5.990
   30DOPE   C39 3842   0.614   7.312   5.883
   30DOPE   H9X 3843   0.699   7.270   5.827
   30DOPE  C310 3844   0.555   7.425   5.839
   30DOPE  H10X 3845   0.593   7.473   5.748
   30DOPE  C311 3846   0.440   7.498   5.905
   30DOPE  H11X 3847   0.390   7.438   5.984
   30DOPE  H11Y 3848   0.478   7.588   5.956
   30DOPE  C312 3849   0.333   7.538   5.803
   30DOPE  H12X 3850   0.381   7.575   5.710
   30DOPE  H12Y 3851   0.268   7.619   5.844
   30DOPE  C313 3852   0.245   7.418   5.771
   30DOPE  H13X 3853   0.312   7.332   5.752
   30DOPE  H13Y 3854   0.185   7.395   5.861
   30DOPE  C314 3855   0.154   7.433   5.650
   30DOPE  H14X 3856   0.088   7.522   5.662
   30DOPE  H14Y 3857   0.089   7.343   5.645
   30DOPE  C315 3858   0.231   7.442   5.519
   30DOPE  H15X 3859   0.298   7.353   5.511
   30DOPE  H15Y 3860   0.294   7.533   5.517
   30DOPE  C316 3861   0.134   7.445   5.401
   30DOPE  H16X 3862   0.065   7.532   5.411
   30DOPE  H16Y 3863   0.074   7.352   5.406
   30DOPE  C317 3864   0.201   7.447   5.264
   30DOPE  H17X 3865   0.125   7.463   5.185
   30DOPE  H17Y 3866   0.273   7.532   5.260
   30DOPE  C318 3867   0.274   7.316   5.240
   30DOPE  H18X 3868   0.366   7.320   5.301
   30DOPE  H18Y 3869   0.214   7.229   5.275
   30DOPE  H18Z 3870   0.301   7.301   5.134
   31DOPE     N 3871   3.181   3.209   2.826
   31DOPE   HN1 3872   3.164   3.127   2.765
   31DOPE   HN2 3873   3.088   3.248   2.854
   31DOPE   HN3 3874   3.239   3.282   2.780
   31DOPE   C12 3875   3.250   3.165   2.953
   31DOPE  H12A 3876   3.328   3.240   2.977
   31DOPE  H12B 3877   3.298   3.068   2.933
   31DOPE   C11 3878   3.147   3.155   3.065
   31DOPE  H11A 3879   3.105   3.256   3.084
   31DOPE  H11B 3880   3.198   3.122   3.159
   31DOPE     P 3881   2.896   3.075   3.079
   31DOPE   O13 3882   2.810   3.011   2.977
   31DOPE   O14 3883   2.871   3.218   3.109
   31DOPE   O11 3884   2.893   2.992   3.209
   31DOPE   O12 3885   3.045   3.063   3.028
   31DOPE    C1 3886   3.000   2.905   3.240
   31DOPE    HA 3887   3.101   2.941   3.210
   31DOPE    HB 3888   2.985   2.806   3.193
   31DOPE    C2 3889   3.009   2.895   3.392
   31DOPE    HS 3890   3.074   2.811   3.415
   31DOPE   O21 3891   2.883   2.871   3.452
   31DOPE   C21 3892   2.825   2.761   3.415
   31DOPE   O22 3893   2.873   2.669   3.351
   31DOPE   C22 3894   2.696   2.760   3.493
   31DOPE   H2R 3895   2.653   2.660   3.472
   31DOPE   H2S 3896   2.625   2.837   3.457
   31DOPE    C3 3897   3.067   3.022   3.460
   31DOPE    HX 3898   3.168   3.044   3.419
   31DOPE    HY 3899   3.074   2.991   3.566
   31DOPE   O31 3900   2.981   3.138   3.451
   31DOPE   C31 3901   3.014   3.223   3.547
   31DOPE   O32 3902   3.122   3.222   3.605
   31DOPE   C32 3903   2.892   3.303   3.588
   31DOPE   H2X 3904   2.837   3.338   3.498
   31DOPE   H2Y 3905   2.825   3.236   3.646
   31DOPE   C23 3906   2.727   2.772   3.644
   31DOPE   H3R 3907   2.818   2.712   3.663
   31DOPE   H3S 3908   2.645   2.721   3.699
   31DOPE   C24 3909   2.743   2.910   3.712
   31DOPE   H4R 3910   2.688   2.989   3.656
   31DOPE   H4S 3911   2.851   2.937   3.714
   31DOPE   C25 3912   2.688   2.899   3.854
   31DOPE   H5R 3913   2.727   2.807   3.901
   31DOPE   H5S 3914   2.578   2.886   3.846
   31DOPE   C26 3915   2.723   3.004   3.959
   31DOPE   H6R 3916   2.693   3.105   3.926
   31DOPE   H6S 3917   2.833   3.007   3.974
   31DOPE   C27 3918   2.657   2.964   4.093
   31DOPE   H7R 3919   2.687   3.038   4.171
   31DOPE   H7S 3920   2.698   2.865   4.123
   31DOPE   C28 3921   2.504   2.948   4.091
   31DOPE   H8R 3922   2.464   2.934   4.194
   31DOPE   H8S 3923   2.472   2.860   4.031
   31DOPE   C29 3924   2.460   3.076   4.029
   31DOPE   H9R 3925   2.447   3.077   3.919
   31DOPE  C210 3926   2.443   3.189   4.098
   31DOPE  H10R 3927   2.425   3.280   4.039
   31DOPE  C211 3928   2.461   3.212   4.246
   31DOPE  H11R 3929   2.511   3.127   4.298
   31DOPE  H11S 3930   2.360   3.222   4.291
   31DOPE  C212 3931   2.540   3.341   4.273
   31DOPE  H12R 3932   2.538   3.410   4.185
   31DOPE  H12S 3933   2.644   3.312   4.293
   31DOPE  C213 3934   2.493   3.424   4.392
   31DOPE  H13R 3935   2.393   3.467   4.369
   31DOPE  H13S 3936   2.563   3.509   4.408
   31DOPE  C214 3937   2.482   3.342   4.519
   31DOPE  H14R 3938   2.401   3.267   4.506
   31DOPE  H14S 3939   2.451   3.409   4.603
   31DOPE  C215 3940   2.608   3.266   4.561
   31DOPE  H15R 3941   2.698   3.330   4.563
   31DOPE  H15S 3942   2.626   3.181   4.492
   31DOPE  C216 3943   2.578   3.214   4.701
   31DOPE  H16R 3944   2.475   3.173   4.693
   31DOPE  H16S 3945   2.577   3.296   4.774
   31DOPE  C217 3946   2.662   3.098   4.749
   31DOPE  H17R 3947   2.770   3.118   4.734
   31DOPE  H17S 3948   2.628   3.014   4.685
   31DOPE  C218 3949   2.633   3.054   4.890
   31DOPE  H18R 3950   2.529   3.015   4.895
   31DOPE  H18S 3951   2.642   3.137   4.963
   31DOPE  H18T 3952   2.702   2.972   4.919
   31DOPE   C33 3953   2.940   3.419   3.674
   31DOPE   H3X 3954   2.998   3.488   3.608
   31DOPE   H3Y 3955   3.008   3.383   3.754
   31DOPE   C34 3956   2.827   3.498   3.737
   31DOPE   H4X 3957   2.864   3.601   3.760
   31DOPE   H4Y 3958   2.749   3.505   3.659
   31DOPE   C35 3959   2.768   3.441   3.867
   31DOPE   H5X 3960   2.725   3.341   3.847
   31DOPE   H5Y 3961   2.685   3.506   3.902
   31DOPE   C36 3962   2.869   3.432   3.983
   31DOPE   H6X 3963   2.912   3.532   4.005
   31DOPE   H6Y 3964   2.952   3.367   3.950
   31DOPE   C37 3965   2.803   3.376   4.109
   31DOPE   H7X 3966   2.742   3.458   4.153
   31DOPE   H7Y 3967   2.733   3.294   4.077
   31DOPE   C38 3968   2.895   3.317   4.219
   31DOPE   H8X 3969   2.836   3.257   4.291
   31DOPE   H8Y 3970   2.941   3.400   4.277
   31DOPE   C39 3971   2.995   3.226   4.155
   31DOPE   H9X 3972   2.962   3.181   4.060
   31DOPE  C310 3973   3.117   3.198   4.201
   31DOPE  H10X 3974   3.185   3.138   4.138
   31DOPE  C311 3975   3.177   3.250   4.328
   31DOPE  H11X 3976   3.250   3.331   4.303
   31DOPE  H11Y 3977   3.103   3.295   4.397
   31DOPE  C312 3978   3.254   3.139   4.401
   31DOPE  H12X 3979   3.338   3.191   4.451
   31DOPE  H12Y 3980   3.300   3.065   4.332
   31DOPE  C313 3981   3.174   3.071   4.512
   31DOPE  H13X 3982   3.114   3.148   4.564
   31DOPE  H13Y 3983   3.103   2.996   4.470
   31DOPE  C314 3984   3.265   3.005   4.616
   31DOPE  H14X 3985   3.357   3.067   4.631
   31DOPE  H14Y 3986   3.297   2.907   4.578
   31DOPE  C315 3987   3.195   2.987   4.751
   31DOPE  H15X 3988   3.112   2.915   4.734
   31DOPE  H15Y 3989   3.148   3.083   4.783
   31DOPE  C316 3990   3.288   2.937   4.861
   31DOPE  H16X 3991   3.306   3.017   4.937
   31DOPE  H16Y 3992   3.388   2.916   4.816
   31DOPE  C317 3993   3.237   2.807   4.925
   31DOPE  H17X 3994   3.232   2.732   4.843
   31DOPE  H17Y 3995   3.312   2.770   4.998
   31DOPE  C318 3996   3.097   2.811   4.989
   31DOPE  H18X 3997   3.026   2.869   4.926
   31DOPE  H18Y 3998   3.056   2.708   4.997
   31DOPE  H18Z 3999   3.097   2.856   5.090
   32DOPE     N 4000   4.661   2.892   3.306
   32DOPE   HN1 4001   4.664   2.861   3.405
   32DOPE   HN2 4002   4.683   2.814   3.241
   32DOPE   HN3 4003   4.734   2.964   3.284
   32DOPE   C12 4004   4.530   2.949   3.257
   32DOPE  H12A 4005   4.512   3.044   3.310
   32DOPE  H12B 4006   4.449   2.877   3.278
   32DOPE   C11 4007   4.545   2.976   3.107
   32DOPE  H11A 4008   4.459   3.036   3.069
   32DOPE  H11B 4009   4.549   2.880   3.049
   32DOPE     P 4010   4.706   3.134   2.967
   32DOPE   O13 4011   4.630   3.089   2.849
   32DOPE   O14 4012   4.853   3.129   2.965
   32DOPE   O11 4013   4.655   3.275   3.016
   32DOPE   O12 4014   4.669   3.043   3.090
   32DOPE    C1 4015   4.713   3.395   2.962
   32DOPE    HA 4016   4.639   3.446   2.897
   32DOPE    HB 4017   4.799   3.373   2.895
   32DOPE    C2 4018   4.765   3.496   3.069
   32DOPE    HS 4019   4.807   3.582   3.011
   32DOPE   O21 4020   4.864   3.435   3.154
   32DOPE   C21 4021   4.980   3.407   3.100
   32DOPE   O22 4022   5.019   3.442   2.990
   32DOPE   C22 4023   5.059   3.322   3.198
   32DOPE   H2R 4024   5.161   3.306   3.157
   32DOPE   H2S 4025   5.008   3.224   3.202
   32DOPE    C3 4026   4.659   3.561   3.164
   32DOPE    HX 4027   4.582   3.609   3.101
   32DOPE    HY 4028   4.710   3.643   3.221
   32DOPE   O31 4029   4.595   3.467   3.251
   32DOPE   C31 4030   4.654   3.443   3.368
   32DOPE   O32 4031   4.746   3.505   3.416
   32DOPE   C32 4032   4.583   3.320   3.430
   32DOPE   H2X 4033   4.475   3.332   3.410
   32DOPE   H2Y 4034   4.618   3.230   3.375
   32DOPE   C23 4035   5.065   3.388   3.338
   32DOPE   H3R 4036   4.965   3.423   3.371
   32DOPE   H3S 4037   5.130   3.478   3.330
   32DOPE   C24 4038   5.121   3.296   3.447
   32DOPE   H4R 4039   5.139   3.358   3.538
   32DOPE   H4S 4040   5.217   3.255   3.408
   32DOPE   C25 4041   5.036   3.177   3.490
   32DOPE   H5R 4042   5.101   3.103   3.543
   32DOPE   H5S 4043   4.997   3.128   3.398
   32DOPE   C26 4044   4.918   3.214   3.582
   32DOPE   H6R 4045   4.830   3.183   3.523
   32DOPE   H6S 4046   4.911   3.324   3.596
   32DOPE   C27 4047   4.914   3.145   3.720
   32DOPE   H7R 4048   4.976   3.053   3.719
   32DOPE   H7S 4049   4.809   3.112   3.738
   32DOPE   C28 4050   4.953   3.238   3.837
   32DOPE   H8R 4051   4.893   3.331   3.828
   32DOPE   H8S 4052   5.059   3.268   3.825
   32DOPE   C29 4053   4.932   3.179   3.974
   32DOPE   H9R 4054   4.888   3.079   3.978
   32DOPE  C210 4055   4.962   3.242   4.090
   32DOPE  H10R 4056   4.940   3.192   4.185
   32DOPE  C211 4057   5.022   3.380   4.103
   32DOPE  H11R 4058   5.066   3.415   4.007
   32DOPE  H11S 4059   5.106   3.378   4.176
   32DOPE  C212 4060   4.919   3.486   4.148
   32DOPE  H12R 4061   4.838   3.493   4.071
   32DOPE  H12S 4062   4.969   3.585   4.153
   32DOPE  C213 4063   4.854   3.458   4.284
   32DOPE  H13R 4064   4.800   3.360   4.282
   32DOPE  H13S 4065   4.778   3.537   4.304
   32DOPE  C214 4066   4.954   3.457   4.400
   32DOPE  H14R 4067   5.009   3.554   4.401
   32DOPE  H14S 4068   5.028   3.375   4.388
   32DOPE  C215 4069   4.881   3.439   4.533
   32DOPE  H15R 4070   4.809   3.355   4.526
   32DOPE  H15S 4071   4.822   3.532   4.548
   32DOPE  C216 4072   4.973   3.414   4.652
   32DOPE  H16R 4073   5.031   3.321   4.637
   32DOPE  H16S 4074   4.910   3.400   4.743
   32DOPE  C217 4075   5.069   3.530   4.678
   32DOPE  H17R 4076   5.014   3.627   4.672
   32DOPE  H17S 4077   5.149   3.532   4.600
   32DOPE  C218 4078   5.132   3.515   4.815
   32DOPE  H18R 4079   5.053   3.503   4.892
   32DOPE  H18S 4080   5.192   3.603   4.841
   32DOPE  H18T 4081   5.201   3.428   4.820
   32DOPE   C33 4082   4.604   3.299   3.582
   32DOPE   H3X 4083   4.667   3.381   3.623
   32DOPE   H3Y 4084   4.656   3.203   3.602
   32DOPE   C34 4085   4.475   3.287   3.664
   32DOPE   H4X 4086   4.396   3.342   3.611
   32DOPE   H4Y 4087   4.442   3.182   3.674
   32DOPE   C35 4088   4.493   3.351   3.802
   32DOPE   H5X 4089   4.396   3.374   3.851
   32DOPE   H5Y 4090   4.543   3.447   3.779
   32DOPE   C36 4091   4.579   3.269   3.899
   32DOPE   H6X 4092   4.618   3.333   3.982
   32DOPE   H6Y 4093   4.668   3.231   3.846
   32DOPE   C37 4094   4.499   3.154   3.960
   32DOPE   H7X 4095   4.431   3.195   4.038
   32DOPE   H7Y 4096   4.436   3.110   3.880
   32DOPE   C38 4097   4.588   3.045   4.020
   32DOPE   H8X 4098   4.644   3.088   4.106
   32DOPE   H8Y 4099   4.663   3.016   3.943
   32DOPE   C39 4100   4.506   2.926   4.061
   32DOPE   H9X 4101   4.397   2.935   4.048
   32DOPE  C310 4102   4.558   2.813   4.109
   32DOPE  H10X 4103   4.492   2.729   4.136
   32DOPE  C311 4104   4.705   2.789   4.129
   32DOPE  H11X 4105   4.729   2.687   4.093
   32DOPE  H11Y 4106   4.769   2.859   4.070
   32DOPE  C312 4107   4.747   2.800   4.277
   32DOPE  H12X 4108   4.854   2.770   4.286
   32DOPE  H12Y 4109   4.688   2.729   4.339
   32DOPE  C313 4110   4.740   2.941   4.338
   32DOPE  H13X 4111   4.790   3.014   4.272
   32DOPE  H13Y 4112   4.634   2.971   4.350
   32DOPE  C314 4113   4.810   2.937   4.473
   32DOPE  H14X 4114   4.918   2.913   4.460
   32DOPE  H14Y 4115   4.764   2.851   4.527
   32DOPE  C315 4116   4.799   3.064   4.558
   32DOPE  H15X 4117   4.692   3.095   4.564
   32DOPE  H15Y 4118   4.854   3.146   4.507
   32DOPE  C316 4119   4.854   3.044   4.700
   32DOPE  H16X 4120   4.829   3.135   4.761
   32DOPE  H16Y 4121   4.965   3.037   4.695
   32DOPE  C317 4122   4.798   2.919   4.771
   32DOPE  H17X 4123   4.840   2.828   4.722
   32DOPE  H17Y 4124   4.838   2.918   4.875
   32DOPE  C318 4125   4.645   2.911   4.772
   32DOPE  H18X 4126   4.605   2.896   4.669
   32DOPE  H18Y 4127   4.611   2.826   4.835
   32DOPE  H18Z 4128   4.601   3.005   4.811
   33DOPE     N 4129   3.545   2.194   2.933
   33DOPE   HN1 4130   3.616   2.171   2.859
   33DOPE   HN2 4131   3.506   2.110   2.979
   33DOPE   HN3 4132   3.464   2.247   2.893
   33DOPE   C12 4133   3.601   2.290   3.034
   33DOPE  H12A 4134   3.641   2.377   2.977
   33DOPE  H12B 4135   3.682   2.240   3.091
   33DOPE   C11 4136   3.489   2.344   3.123
   33DOPE  H11A 4137   3.527   2.436   3.175
   33DOPE  H11B 4138   3.466   2.268   3.202
   33DOPE     P 4139   3.239   2.412   3.121
   33DOPE   O13 4140   3.152   2.292   3.116
   33DOPE   O14 4141   3.187   2.535   3.059
   33DOPE   O11 4142   3.297   2.436   3.266
   33DOPE   O12 4143   3.374   2.374   3.044
   33DOPE    C1 4144   3.228   2.395   3.383
   33DOPE    HA 4145   3.301   2.364   3.460
   33DOPE    HB 4146   3.160   2.309   3.364
   33DOPE    C2 4147   3.146   2.513   3.441
   33DOPE    HS 4148   3.086   2.557   3.358
   33DOPE   O21 4149   3.233   2.611   3.499
   33DOPE   C21 4150   3.288   2.705   3.424
   33DOPE   O22 4151   3.278   2.723   3.305
   33DOPE   C22 4152   3.347   2.808   3.520
   33DOPE   H2R 4153   3.357   2.902   3.461
   33DOPE   H2S 4154   3.447   2.776   3.551
   33DOPE    C3 4155   3.045   2.460   3.548
   33DOPE    HX 4156   2.988   2.379   3.497
   33DOPE    HY 4157   2.974   2.542   3.571
   33DOPE   O31 4158   3.110   2.414   3.671
   33DOPE   C31 4159   3.037   2.325   3.741
   33DOPE   O32 4160   2.937   2.270   3.699
   33DOPE   C32 4161   3.088   2.311   3.885
   33DOPE   H2X 4162   3.170   2.237   3.887
   33DOPE   H2Y 4163   3.134   2.408   3.913
   33DOPE   C23 4164   3.254   2.834   3.641
   33DOPE   H3R 4165   3.147   2.810   3.616
   33DOPE   H3S 4166   3.259   2.943   3.667
   33DOPE   C24 4167   3.284   2.756   3.767
   33DOPE   H4R 4168   3.246   2.651   3.759
   33DOPE   H4S 4169   3.228   2.810   3.846
   33DOPE   C25 4170   3.430   2.754   3.812
   33DOPE   H5R 4171   3.468   2.859   3.817
   33DOPE   H5S 4172   3.491   2.697   3.739
   33DOPE   C26 4173   3.442   2.685   3.947
   33DOPE   H6R 4174   3.398   2.584   3.935
   33DOPE   H6S 4175   3.382   2.739   4.024
   33DOPE   C27 4176   3.587   2.671   3.995
   33DOPE   H7R 4177   3.618   2.765   4.046
   33DOPE   H7S 4178   3.652   2.657   3.906
   33DOPE   C28 4179   3.609   2.550   4.087
   33DOPE   H8R 4180   3.709   2.560   4.135
   33DOPE   H8S 4181   3.613   2.458   4.025
   33DOPE   C29 4182   3.496   2.539   4.186
   33DOPE   H9R 4183   3.399   2.511   4.143
   33DOPE  C210 4184   3.502   2.562   4.317
   33DOPE  H10R 4185   3.410   2.553   4.376
   33DOPE  C211 4186   3.625   2.603   4.395
   33DOPE  H11R 4187   3.712   2.626   4.330
   33DOPE  H11S 4188   3.655   2.518   4.458
   33DOPE  C212 4189   3.602   2.728   4.483
   33DOPE  H12R 4190   3.591   2.817   4.417
   33DOPE  H12S 4191   3.693   2.747   4.544
   33DOPE  C213 4192   3.479   2.722   4.575
   33DOPE  H13R 4193   3.391   2.740   4.510
   33DOPE  H13S 4194   3.485   2.806   4.648
   33DOPE  C214 4195   3.450   2.592   4.652
   33DOPE  H14R 4196   3.438   2.506   4.583
   33DOPE  H14S 4197   3.352   2.607   4.701
   33DOPE  C215 4198   3.547   2.554   4.764
   33DOPE  H15R 4199   3.497   2.477   4.828
   33DOPE  H15S 4200   3.566   2.643   4.828
   33DOPE  C216 4201   3.678   2.496   4.712
   33DOPE  H16R 4202   3.730   2.575   4.654
   33DOPE  H16S 4203   3.658   2.411   4.643
   33DOPE  C217 4204   3.774   2.454   4.822
   33DOPE  H17R 4205   3.774   2.538   4.895
   33DOPE  H17S 4206   3.876   2.445   4.780
   33DOPE  C218 4207   3.738   2.323   4.893
   33DOPE  H18R 4208   3.750   2.237   4.824
   33DOPE  H18S 4209   3.634   2.325   4.931
   33DOPE  H18T 4210   3.807   2.304   4.978
   33DOPE   C33 4211   2.973   2.265   3.981
   33DOPE   H3X 4212   2.966   2.154   3.979
   33DOPE   H3Y 4213   2.875   2.303   3.946
   33DOPE   C34 4214   2.983   2.305   4.130
   33DOPE   H4X 4215   2.927   2.398   4.150
   33DOPE   H4Y 4216   2.922   2.234   4.188
   33DOPE   C35 4217   3.127   2.317   4.180
   33DOPE   H5X 4218   3.130   2.379   4.273
   33DOPE   H5Y 4219   3.193   2.370   4.109
   33DOPE   C36 4220   3.184   2.178   4.208
   33DOPE   H6X 4221   3.288   2.189   4.247
   33DOPE   H6Y 4222   3.194   2.123   4.113
   33DOPE   C37 4223   3.096   2.100   4.307
   33DOPE   H7X 4224   2.999   2.072   4.263
   33DOPE   H7Y 4225   3.145   2.001   4.327
   33DOPE   C38 4226   3.071   2.180   4.436
   33DOPE   H8X 4227   3.000   2.127   4.503
   33DOPE   H8Y 4228   3.030   2.281   4.419
   33DOPE   C39 4229   3.211   2.183   4.488
   33DOPE   H9X 4230   3.275   2.270   4.463
   33DOPE  C310 4231   3.257   2.086   4.565
   33DOPE  H10X 4232   3.357   2.093   4.604
   33DOPE  C311 4233   3.184   1.966   4.614
   33DOPE  H11X 4234   3.107   1.933   4.543
   33DOPE  H11Y 4235   3.254   1.882   4.633
   33DOPE  C312 4236   3.120   2.016   4.745
   33DOPE  H12X 4237   3.091   1.930   4.808
   33DOPE  H12Y 4238   3.027   2.070   4.718
   33DOPE  C313 4239   3.210   2.113   4.827
   33DOPE  H13X 4240   3.301   2.059   4.856
   33DOPE  H13Y 4241   3.245   2.202   4.770
   33DOPE  C314 4242   3.148   2.179   4.948
   33DOPE  H14X 4243   3.231   2.232   4.999
   33DOPE  H14Y 4244   3.111   2.098   5.014
   33DOPE  C315 4245   3.039   2.281   4.911
   33DOPE  H15X 4246   2.973   2.305   4.996
   33DOPE  H15Y 4247   2.975   2.236   4.832
   33DOPE  C316 4248   3.093   2.413   4.858
   33DOPE  H16X 4249   3.188   2.398   4.803
   33DOPE  H16Y 4250   3.112   2.483   4.942
   33DOPE  C317 4251   2.990   2.477   4.767
   33DOPE  H17X 4252   2.950   2.401   4.695
   33DOPE  H17Y 4253   2.906   2.508   4.832
   33DOPE  C318 4254   3.047   2.595   4.690
   33DOPE  H18X 4255   3.015   2.690   4.738
   33DOPE  H18Y 4256   3.157   2.592   4.692
   33DOPE  H18Z 4257   3.015   2.592   4.584
   34DOPE     N 4258   2.409   4.332   2.972
   34DOPE   HN1 4259   2.500   4.311   2.928
   34DOPE   HN2 4260   2.339   4.262   2.942
   34DOPE   HN3 4261   2.376   4.427   2.941
   34DOPE   C12 4262   2.413   4.349   3.122
   34DOPE  H12A 4263   2.492   4.424   3.145
   34DOPE  H12B 4264   2.438   4.253   3.169
   34DOPE   C11 4265   2.277   4.403   3.168
   34DOPE  H11A 4266   2.278   4.427   3.277
   34DOPE  H11B 4267   2.202   4.324   3.149
   34DOPE     P 4268   2.100   4.583   3.099
   34DOPE   O13 4269   2.038   4.556   2.968
   34DOPE   O14 4270   2.111   4.724   3.143
   34DOPE   O11 4271   2.022   4.499   3.208
   34DOPE   O12 4272   2.245   4.518   3.092
   34DOPE    C1 4273   1.936   4.565   3.303
   34DOPE    HA 4274   1.845   4.503   3.322
   34DOPE    HB 4275   1.900   4.664   3.267
   34DOPE    C2 4276   2.005   4.590   3.440
   34DOPE    HS 4277   1.951   4.670   3.495
   34DOPE   O21 4278   2.144   4.618   3.421
   34DOPE   C21 4279   2.185   4.735   3.457
   34DOPE   O22 4280   2.117   4.834   3.478
   34DOPE   C22 4281   2.334   4.720   3.489
   34DOPE   H2R 4282   2.385   4.817   3.477
   34DOPE   H2S 4283   2.380   4.649   3.417
   34DOPE    C3 4284   2.000   4.466   3.530
   34DOPE    HX 4285   2.057   4.384   3.479
   34DOPE    HY 4286   1.894   4.434   3.542
   34DOPE   O31 4287   2.062   4.499   3.656
   34DOPE   C31 4288   2.048   4.403   3.745
   34DOPE   O32 4289   1.982   4.302   3.731
   34DOPE   C32 4290   2.128   4.437   3.868
   34DOPE   H2X 4291   2.236   4.424   3.845
   34DOPE   H2Y 4292   2.110   4.543   3.896
   34DOPE   C23 4293   2.351   4.666   3.633
   34DOPE   H3R 4294   2.313   4.561   3.638
   34DOPE   H3S 4295   2.288   4.728   3.702
   34DOPE   C24 4296   2.494   4.669   3.685
   34DOPE   H4R 4297   2.531   4.774   3.677
   34DOPE   H4S 4298   2.563   4.607   3.623
   34DOPE   C25 4299   2.499   4.626   3.831
   34DOPE   H5R 4300   2.408   4.664   3.883
   34DOPE   H5S 4301   2.586   4.670   3.882
   34DOPE   C26 4302   2.527   4.478   3.859
   34DOPE   H6R 4303   2.622   4.451   3.807
   34DOPE   H6S 4304   2.446   4.415   3.817
   34DOPE   C27 4305   2.544   4.454   4.010
   34DOPE   H7R 4306   2.623   4.521   4.050
   34DOPE   H7S 4307   2.577   4.349   4.025
   34DOPE   C28 4308   2.413   4.478   4.088
   34DOPE   H8R 4309   2.338   4.412   4.040
   34DOPE   H8S 4310   2.377   4.582   4.071
   34DOPE   C29 4311   2.416   4.444   4.235
   34DOPE   H9R 4312   2.459   4.345   4.258
   34DOPE  C210 4313   2.368   4.519   4.336
   34DOPE  H10R 4314   2.368   4.476   4.437
   34DOPE  C211 4315   2.301   4.654   4.323
   34DOPE  H11R 4316   2.346   4.710   4.239
   34DOPE  H11S 4317   2.320   4.715   4.414
   34DOPE  C212 4318   2.148   4.648   4.295
   34DOPE  H12R 4319   2.131   4.587   4.204
   34DOPE  H12S 4320   2.110   4.749   4.272
   34DOPE  C213 4321   2.062   4.590   4.409
   34DOPE  H13R 4322   2.106   4.494   4.435
   34DOPE  H13S 4323   1.958   4.574   4.373
   34DOPE  C214 4324   2.058   4.672   4.538
   34DOPE  H14R 4325   2.013   4.771   4.516
   34DOPE  H14S 4326   2.163   4.688   4.572
   34DOPE  C215 4327   1.981   4.605   4.654
   34DOPE  H15R 4328   2.034   4.512   4.683
   34DOPE  H15S 4329   1.879   4.577   4.619
   34DOPE  C216 4330   1.967   4.698   4.776
   34DOPE  H16R 4331   1.925   4.793   4.738
   34DOPE  H16S 4332   2.068   4.720   4.819
   34DOPE  C217 4333   1.875   4.656   4.890
   34DOPE  H17R 4334   1.776   4.624   4.851
   34DOPE  H17S 4335   1.857   4.749   4.950
   34DOPE  C218 4336   1.933   4.554   4.987
   34DOPE  H18R 4337   1.917   4.589   5.090
   34DOPE  H18S 4338   2.042   4.542   4.973
   34DOPE  H18T 4339   1.883   4.454   4.977
   34DOPE   C33 4340   2.088   4.344   3.984
   34DOPE   H3X 4341   1.978   4.329   3.989
   34DOPE   H3Y 4342   2.117   4.394   4.079
   34DOPE   C34 4343   2.158   4.209   3.974
   34DOPE   H4X 4344   2.128   4.157   3.880
   34DOPE   H4Y 4345   2.268   4.223   3.970
   34DOPE   C35 4346   2.126   4.119   4.093
   34DOPE   H5X 4347   2.194   4.032   4.088
   34DOPE   H5Y 4348   2.022   4.081   4.088
   34DOPE   C36 4349   2.155   4.184   4.228
   34DOPE   H6X 4350   2.224   4.270   4.217
   34DOPE   H6Y 4351   2.212   4.108   4.285
   34DOPE   C37 4352   2.028   4.229   4.301
   34DOPE   H7X 4353   1.993   4.326   4.260
   34DOPE   H7Y 4354   1.948   4.154   4.281
   34DOPE   C38 4355   2.051   4.240   4.452
   34DOPE   H8X 4356   1.961   4.280   4.504
   34DOPE   H8Y 4357   2.133   4.312   4.468
   34DOPE   C39 4358   2.092   4.106   4.504
   34DOPE   H9X 4359   2.017   4.027   4.492
   34DOPE  C310 4360   2.214   4.075   4.553
   34DOPE  H10X 4361   2.234   3.970   4.580
   34DOPE  C311 4362   2.332   4.167   4.568
   34DOPE  H11X 4363   2.406   4.151   4.487
   34DOPE  H11Y 4364   2.302   4.273   4.566
   34DOPE  C312 4365   2.394   4.137   4.705
   34DOPE  H12X 4366   2.425   4.030   4.707
   34DOPE  H12Y 4367   2.317   4.147   4.784
   34DOPE  C313 4368   2.515   4.223   4.745
   34DOPE  H13X 4369   2.541   4.200   4.850
   34DOPE  H13Y 4370   2.601   4.193   4.682
   34DOPE  C314 4371   2.500   4.375   4.729
   34DOPE  H14X 4372   2.400   4.403   4.690
   34DOPE  H14Y 4373   2.577   4.409   4.656
   34DOPE  C315 4374   2.523   4.451   4.860
   34DOPE  H15X 4375   2.622   4.423   4.903
   34DOPE  H15Y 4376   2.447   4.424   4.936
   34DOPE  C316 4377   2.518   4.602   4.834
   34DOPE  H16X 4378   2.418   4.632   4.796
   34DOPE  H16Y 4379   2.590   4.621   4.752
   34DOPE  C317 4380   2.554   4.685   4.957
   34DOPE  H17X 4381   2.644   4.639   5.004
   34DOPE  H17Y 4382   2.580   4.790   4.931
   34DOPE  C318 4383   2.442   4.693   5.056
   34DOPE  H18X 4384   2.404   4.590   5.070
   34DOPE  H18Y 4385   2.478   4.734   5.153
   34DOPE  H18Z 4386   2.359   4.757   5.019
   35DOPE     N 4387   5.782   2.855   3.169
   35DOPE   HN1 4388   5.791   2.908   3.258
   35DOPE   HN2 4389   5.779   2.752   3.189
   35DOPE   HN3 4390   5.863   2.879   3.109
   35DOPE   C12 4391   5.655   2.900   3.101
   35DOPE  H12A 4392   5.583   2.815   3.101
   35DOPE  H12B 4393   5.679   2.927   2.996
   35DOPE   C11 4394   5.592   3.021   3.173
   35DOPE  H11A 4395   5.670   3.097   3.196
   35DOPE  H11B 4396   5.545   2.989   3.269
   35DOPE     P 4397   5.511   3.209   3.009
   35DOPE   O13 4398   5.393   3.241   2.926
   35DOPE   O14 4399   5.642   3.196   2.939
   35DOPE   O11 4400   5.522   3.312   3.128
   35DOPE   O12 4401   5.490   3.073   3.089
   35DOPE    C1 4402   5.618   3.417   3.115
   35DOPE    HA 4403   5.577   3.497   3.048
   35DOPE    HB 4404   5.714   3.383   3.070
   35DOPE    C2 4405   5.652   3.482   3.252
   35DOPE    HS 4406   5.733   3.555   3.232
   35DOPE   O21 4407   5.695   3.387   3.352
   35DOPE   C21 4408   5.813   3.330   3.332
   35DOPE   O22 4409   5.888   3.350   3.238
   35DOPE   C22 4410   5.834   3.227   3.448
   35DOPE   H2R 4411   5.741   3.167   3.445
   35DOPE   H2S 4412   5.829   3.289   3.539
   35DOPE    C3 4413   5.530   3.563   3.306
   35DOPE    HX 4414   5.465   3.588   3.220
   35DOPE    HY 4415   5.566   3.658   3.349
   35DOPE   O31 4416   5.446   3.498   3.400
   35DOPE   C31 4417   5.476   3.512   3.527
   35DOPE   O32 4418   5.562   3.583   3.577
   35DOPE   C32 4419   5.380   3.423   3.601
   35DOPE   H2X 4420   5.293   3.481   3.638
   35DOPE   H2Y 4421   5.344   3.351   3.525
   35DOPE   C23 4422   5.951   3.121   3.457
   35DOPE   H3R 4423   5.994   3.107   3.354
   35DOPE   H3S 4424   5.906   3.025   3.491
   35DOPE   C24 4425   6.071   3.140   3.556
   35DOPE   H4R 4426   6.100   3.241   3.544
   35DOPE   H4S 4427   6.161   3.102   3.504
   35DOPE   C25 4428   6.085   3.066   3.697
   35DOPE   H5R 4429   6.176   3.009   3.669
   35DOPE   H5S 4430   6.012   2.984   3.712
   35DOPE   C26 4431   6.142   3.114   3.842
   35DOPE   H6R 4432   6.243   3.140   3.821
   35DOPE   H6S 4433   6.151   3.020   3.897
   35DOPE   C27 4434   6.119   3.232   3.948
   35DOPE   H7R 4435   6.097   3.336   3.923
   35DOPE   H7S 4436   6.222   3.245   3.988
   35DOPE   C28 4437   6.038   3.201   4.075
   35DOPE   H8R 4438   6.106   3.161   4.152
   35DOPE   H8S 4439   5.984   3.125   4.022
   35DOPE   C29 4440   5.921   3.275   4.131
   35DOPE   H9R 4441   5.888   3.357   4.067
   35DOPE  C210 4442   5.838   3.245   4.232
   35DOPE  H10R 4443   5.750   3.312   4.241
   35DOPE  C211 4444   5.829   3.129   4.328
   35DOPE  H11R 4445   5.740   3.069   4.297
   35DOPE  H11S 4446   5.801   3.170   4.427
   35DOPE  C212 4447   5.942   3.022   4.344
   35DOPE  H12R 4448   6.015   3.030   4.261
   35DOPE  H12S 4449   5.893   2.923   4.330
   35DOPE  C213 4450   6.027   3.011   4.473
   35DOPE  H13R 4451   6.102   3.092   4.476
   35DOPE  H13S 4452   6.090   2.920   4.464
   35DOPE  C214 4453   5.949   3.002   4.604
   35DOPE  H14R 4454   5.916   2.897   4.621
   35DOPE  H14S 4455   5.857   3.065   4.596
   35DOPE  C215 4456   6.028   3.051   4.726
   35DOPE  H15R 4457   6.077   3.148   4.703
   35DOPE  H15S 4458   6.110   2.979   4.748
   35DOPE  C216 4459   5.936   3.072   4.846
   35DOPE  H16R 4460   5.833   3.038   4.824
   35DOPE  H16S 4461   5.928   3.181   4.865
   35DOPE  C217 4462   5.986   3.013   4.978
   35DOPE  H17R 4463   6.094   2.989   4.971
   35DOPE  H17S 4464   5.931   2.918   4.998
   35DOPE  C218 4465   5.965   3.114   5.091
   35DOPE  H18R 4466   5.856   3.134   5.104
   35DOPE  H18S 4467   6.014   3.210   5.065
   35DOPE  H18T 4468   6.008   3.079   5.186
   35DOPE   C33 4469   5.435   3.327   3.708
   35DOPE   H3X 4470   5.445   3.384   3.803
   35DOPE   H3Y 4471   5.534   3.286   3.678
   35DOPE   C34 4472   5.331   3.214   3.716
   35DOPE   H4X 4473   5.232   3.264   3.724
   35DOPE   H4Y 4474   5.330   3.156   3.621
   35DOPE   C35 4475   5.344   3.118   3.834
   35DOPE   H5X 4476   5.420   3.040   3.811
   35DOPE   H5Y 4477   5.246   3.067   3.847
   35DOPE   C36 4478   5.382   3.190   3.964
   35DOPE   H6X 4479   5.304   3.265   3.990
   35DOPE   H6Y 4480   5.479   3.243   3.950
   35DOPE   C37 4481   5.402   3.091   4.077
   35DOPE   H7X 4482   5.460   3.005   4.035
   35DOPE   H7Y 4483   5.464   3.137   4.157
   35DOPE   C38 4484   5.267   3.046   4.137
   35DOPE   H8X 4485   5.190   3.043   4.057
   35DOPE   H8Y 4486   5.234   3.123   4.210
   35DOPE   C39 4487   5.283   2.909   4.196
   35DOPE   H9X 4488   5.293   2.828   4.122
   35DOPE  C310 4489   5.291   2.880   4.327
   35DOPE  H10X 4490   5.307   2.776   4.357
   35DOPE  C311 4491   5.285   2.981   4.439
   35DOPE  H11X 4492   5.211   3.061   4.417
   35DOPE  H11Y 4493   5.251   2.931   4.532
   35DOPE  C312 4494   5.421   3.049   4.466
   35DOPE  H12X 4495   5.456   3.104   4.376
   35DOPE  H12Y 4496   5.497   2.971   4.490
   35DOPE  C313 4497   5.413   3.147   4.584
   35DOPE  H13X 4498   5.354   3.236   4.553
   35DOPE  H13Y 4499   5.358   3.098   4.668
   35DOPE  C314 4500   5.551   3.191   4.633
   35DOPE  H14X 4501   5.607   3.233   4.546
   35DOPE  H14Y 4502   5.608   3.104   4.672
   35DOPE  C315 4503   5.544   3.301   4.741
   35DOPE  H15X 4504   5.476   3.381   4.705
   35DOPE  H15Y 4505   5.646   3.344   4.754
   35DOPE  C316 4506   5.494   3.256   4.878
   35DOPE  H16X 4507   5.559   3.175   4.916
   35DOPE  H16Y 4508   5.391   3.215   4.868
   35DOPE  C317 4509   5.492   3.375   4.976
   35DOPE  H17X 4510   5.597   3.407   4.995
   35DOPE  H17Y 4511   5.440   3.459   4.926
   35DOPE  C318 4512   5.422   3.349   5.110
   35DOPE  H18X 4513   5.322   3.303   5.093
   35DOPE  H18Y 4514   5.481   3.283   5.175
   35DOPE  H18Z 4515   5.407   3.445   5.164
   36DOPE     N 4516   5.791   4.502   3.261
   36DOPE   HN1 4517   5.799   4.534   3.161
   36DOPE   HN2 4518   5.862   4.550   3.318
   36DOPE   HN3 4519   5.807   4.399   3.260
   36DOPE   C12 4520   5.647   4.531   3.294
   36DOPE  H12A 4521   5.632   4.641   3.283
   36DOPE  H12B 4522   5.624   4.499   3.397
   36DOPE   C11 4523   5.562   4.463   3.188
   36DOPE  H11A 4524   5.455   4.496   3.193
   36DOPE  H11B 4525   5.562   4.353   3.205
   36DOPE     P 4526   5.564   4.607   2.971
   36DOPE   O13 4527   5.423   4.574   2.949
   36DOPE   O14 4528   5.653   4.628   2.854
   36DOPE   O11 4529   5.575   4.731   3.070
   36DOPE   O12 4530   5.623   4.490   3.062
   36DOPE    C1 4531   5.483   4.842   3.048
   36DOPE    HA 4532   5.389   4.811   2.996
   36DOPE    HB 4533   5.534   4.917   2.982
   36DOPE    C2 4534   5.441   4.920   3.177
   36DOPE    HS 4535   5.436   5.028   3.151
   36DOPE   O21 4536   5.534   4.898   3.283
   36DOPE   C21 4537   5.647   4.963   3.269
   36DOPE   O22 4538   5.676   5.040   3.178
   36DOPE   C22 4539   5.735   4.932   3.391
   36DOPE   H2R 4540   5.746   5.028   3.444
   36DOPE   H2S 4541   5.835   4.900   3.357
   36DOPE    C3 4542   5.298   4.887   3.230
   36DOPE    HX 4543   5.228   4.889   3.144
   36DOPE    HY 4544   5.267   4.969   3.299
   36DOPE   O31 4545   5.291   4.758   3.292
   36DOPE   C31 4546   5.310   4.754   3.423
   36DOPE   O32 4547   5.309   4.848   3.500
   36DOPE   C32 4548   5.327   4.607   3.459
   36DOPE   H2X 4549   5.223   4.573   3.476
   36DOPE   H2Y 4550   5.366   4.555   3.370
   36DOPE   C23 4551   5.674   4.831   3.492
   36DOPE   H3R 4552   5.680   4.729   3.452
   36DOPE   H3S 4553   5.567   4.855   3.512
   36DOPE   C24 4554   5.743   4.830   3.628
   36DOPE   H4R 4555   5.719   4.927   3.675
   36DOPE   H4S 4556   5.853   4.822   3.618
   36DOPE   C25 4557   5.689   4.718   3.718
   36DOPE   H5R 4558   5.704   4.619   3.670
   36DOPE   H5S 4559   5.579   4.737   3.726
   36DOPE   C26 4560   5.741   4.713   3.862
   36DOPE   H6R 4561   5.850   4.691   3.859
   36DOPE   H6S 4562   5.693   4.632   3.920
   36DOPE   C27 4563   5.716   4.846   3.932
   36DOPE   H7R 4564   5.613   4.883   3.925
   36DOPE   H7S 4565   5.777   4.919   3.876
   36DOPE   C28 4566   5.768   4.849   4.076
   36DOPE   H8R 4567   5.804   4.954   4.080
   36DOPE   H8S 4568   5.858   4.784   4.079
   36DOPE   C29 4569   5.689   4.842   4.204
   36DOPE   H9R 4570   5.621   4.926   4.222
   36DOPE  C210 4571   5.702   4.749   4.298
   36DOPE  H10R 4572   5.649   4.762   4.394
   36DOPE  C211 4573   5.797   4.634   4.294
   36DOPE  H11R 4574   5.835   4.613   4.192
   36DOPE  H11S 4575   5.741   4.545   4.328
   36DOPE  C212 4576   5.917   4.647   4.386
   36DOPE  H12R 4577   5.971   4.742   4.366
   36DOPE  H12S 4578   5.983   4.561   4.359
   36DOPE  C213 4579   5.882   4.631   4.534
   36DOPE  H13R 4580   5.806   4.554   4.547
   36DOPE  H13S 4581   5.836   4.725   4.570
   36DOPE  C214 4582   6.002   4.580   4.614
   36DOPE  H14R 4583   6.070   4.666   4.627
   36DOPE  H14S 4584   6.053   4.502   4.554
   36DOPE  C215 4585   5.973   4.511   4.747
   36DOPE  H15R 4586   6.072   4.482   4.791
   36DOPE  H15S 4587   5.918   4.417   4.728
   36DOPE  C216 4588   5.897   4.595   4.849
   36DOPE  H16R 4589   5.791   4.605   4.820
   36DOPE  H16S 4590   5.941   4.697   4.852
   36DOPE  C217 4591   5.911   4.542   4.992
   36DOPE  H17R 4592   5.831   4.589   5.054
   36DOPE  H17S 4593   6.008   4.579   5.029
   36DOPE  C218 4594   5.910   4.390   5.008
   36DOPE  H18R 4595   5.815   4.348   4.970
   36DOPE  H18S 4596   5.920   4.364   5.115
   36DOPE  H18T 4597   5.994   4.344   4.953
   36DOPE   C33 4598   5.419   4.569   3.578
   36DOPE   H3X 4599   5.517   4.616   3.564
   36DOPE   H3Y 4600   5.434   4.459   3.574
   36DOPE   C34 4601   5.360   4.601   3.716
   36DOPE   H4X 4602   5.370   4.710   3.736
   36DOPE   H4Y 4603   5.252   4.580   3.709
   36DOPE   C35 4604   5.422   4.519   3.832
   36DOPE   H5X 4605   5.525   4.555   3.848
   36DOPE   H5Y 4606   5.431   4.412   3.803
   36DOPE   C36 4607   5.348   4.530   3.966
   36DOPE   H6X 4608   5.417   4.502   4.049
   36DOPE   H6Y 4609   5.266   4.456   3.971
   36DOPE   C37 4610   5.289   4.670   3.992
   36DOPE   H7X 4611   5.229   4.707   3.907
   36DOPE   H7Y 4612   5.214   4.662   4.072
   36DOPE   C38 4613   5.400   4.773   4.019
   36DOPE   H8X 4614   5.426   4.811   3.918
   36DOPE   H8Y 4615   5.488   4.716   4.055
   36DOPE   C39 4616   5.377   4.888   4.112
   36DOPE   H9X 4617   5.400   4.988   4.070
   36DOPE  C310 4618   5.333   4.878   4.239
   36DOPE  H10X 4619   5.323   4.969   4.300
   36DOPE  C311 4620   5.298   4.749   4.308
   36DOPE  H11X 4621   5.196   4.754   4.350
   36DOPE  H11Y 4622   5.293   4.665   4.237
   36DOPE  C312 4623   5.397   4.685   4.403
   36DOPE  H12X 4624   5.442   4.751   4.479
   36DOPE  H12Y 4625   5.478   4.649   4.335
   36DOPE  C313 4626   5.338   4.556   4.463
   36DOPE  H13X 4627   5.289   4.570   4.562
   36DOPE  H13Y 4628   5.261   4.521   4.393
   36DOPE  C314 4629   5.444   4.449   4.468
   36DOPE  H14X 4630   5.474   4.433   4.361
   36DOPE  H14Y 4631   5.407   4.352   4.506
   36DOPE  C315 4632   5.568   4.497   4.540
   36DOPE  H15X 4633   5.598   4.599   4.509
   36DOPE  H15Y 4634   5.653   4.439   4.506
   36DOPE  C316 4635   5.571   4.498   4.693
   36DOPE  H16X 4636   5.572   4.604   4.712
   36DOPE  H16Y 4637   5.670   4.464   4.728
   36DOPE  C317 4638   5.463   4.425   4.774
   36DOPE  H17X 4639   5.366   4.478   4.765
   36DOPE  H17Y 4640   5.449   4.322   4.735
   36DOPE  C318 4641   5.504   4.417   4.921
   36DOPE  H18X 4642   5.512   4.518   4.966
   36DOPE  H18Y 4643   5.433   4.357   4.980
   36DOPE  H18Z 4644   5.605   4.372   4.929
   37DOPE     N 4645   2.769   2.361   2.976
   37DOPE   HN1 4646   2.789   2.390   2.878
   37DOPE   HN2 4647   2.735   2.444   3.031
   37DOPE   HN3 4648   2.853   2.319   3.021
   37DOPE   C12 4649   2.648   2.271   2.974
   37DOPE  H12A 4650   2.639   2.225   3.074
   37DOPE  H12B 4651   2.662   2.192   2.898
   37DOPE   C11 4652   2.526   2.358   2.943
   37DOPE  H11A 4653   2.431   2.299   2.952
   37DOPE  H11B 4654   2.529   2.394   2.837
   37DOPE     P 4655   2.477   2.453   3.178
   37DOPE   O13 4656   2.597   2.490   3.259
   37DOPE   O14 4657   2.420   2.318   3.195
   37DOPE   O11 4658   2.368   2.567   3.176
   37DOPE   O12 4659   2.527   2.472   3.029
   37DOPE    C1 4660   2.396   2.695   3.233
   37DOPE    HA 4661   2.357   2.773   3.165
   37DOPE    HB 4662   2.505   2.716   3.247
   37DOPE    C2 4663   2.328   2.706   3.371
   37DOPE    HS 4664   2.365   2.799   3.420
   37DOPE   O21 4665   2.355   2.585   3.446
   37DOPE   C21 4666   2.420   2.601   3.559
   37DOPE   O22 4667   2.432   2.707   3.618
   37DOPE   C22 4668   2.482   2.467   3.608
   37DOPE   H2R 4669   2.560   2.439   3.534
   37DOPE   H2S 4670   2.400   2.392   3.603
   37DOPE    C3 4671   2.175   2.725   3.349
   37DOPE    HX 4672   2.137   2.639   3.289
   37DOPE    HY 4673   2.161   2.814   3.284
   37DOPE   O31 4674   2.109   2.748   3.475
   37DOPE   C31 4675   2.057   2.638   3.527
   37DOPE   O32 4676   2.033   2.537   3.464
   37DOPE   C32 4677   2.030   2.658   3.677
   37DOPE   H2X 4678   2.000   2.765   3.683
   37DOPE   H2Y 4679   1.945   2.596   3.709
   37DOPE   C23 4680   2.542   2.470   3.752
   37DOPE   H3R 4681   2.499   2.383   3.809
   37DOPE   H3S 4682   2.506   2.561   3.805
   37DOPE   C24 4683   2.696   2.464   3.765
   37DOPE   H4R 4684   2.742   2.506   3.674
   37DOPE   H4S 4685   2.726   2.357   3.771
   37DOPE   C25 4686   2.748   2.540   3.889
   37DOPE   H5R 4687   2.746   2.470   3.975
   37DOPE   H5S 4688   2.675   2.619   3.916
   37DOPE   C26 4689   2.889   2.605   3.882
   37DOPE   H6R 4690   2.888   2.710   3.847
   37DOPE   H6S 4691   2.954   2.551   3.810
   37DOPE   C27 4692   2.954   2.607   4.021
   37DOPE   H7R 4693   3.018   2.518   4.023
   37DOPE   H7S 4694   2.871   2.595   4.093
   37DOPE   C28 4695   3.052   2.716   4.063
   37DOPE   H8R 4696   3.106   2.751   3.975
   37DOPE   H8S 4697   3.128   2.669   4.130
   37DOPE   C29 4698   2.995   2.831   4.139
   37DOPE   H9R 4699   3.016   2.931   4.098
   37DOPE  C210 4700   2.923   2.822   4.251
   37DOPE  H10R 4701   2.887   2.917   4.292
   37DOPE  C211 4702   2.881   2.700   4.331
   37DOPE  H11R 4703   2.934   2.700   4.428
   37DOPE  H11S 4704   2.907   2.603   4.285
   37DOPE  C212 4705   2.729   2.703   4.360
   37DOPE  H12R 4706   2.704   2.621   4.431
   37DOPE  H12S 4707   2.672   2.683   4.266
   37DOPE  C213 4708   2.682   2.837   4.418
   37DOPE  H13R 4709   2.577   2.830   4.455
   37DOPE  H13S 4710   2.679   2.913   4.338
   37DOPE  C214 4711   2.775   2.893   4.527
   37DOPE  H14R 4712   2.750   3.000   4.538
   37DOPE  H14S 4713   2.881   2.898   4.495
   37DOPE  C215 4714   2.777   2.809   4.654
   37DOPE  H15R 4715   2.829   2.862   4.738
   37DOPE  H15S 4716   2.838   2.721   4.627
   37DOPE  C216 4717   2.646   2.747   4.704
   37DOPE  H16R 4718   2.592   2.697   4.621
   37DOPE  H16S 4719   2.577   2.820   4.751
   37DOPE  C217 4720   2.685   2.639   4.804
   37DOPE  H17R 4721   2.763   2.677   4.874
   37DOPE  H17S 4722   2.731   2.557   4.744
   37DOPE  C218 4723   2.568   2.585   4.881
   37DOPE  H18R 4724   2.477   2.591   4.817
   37DOPE  H18S 4725   2.549   2.641   4.973
   37DOPE  H18T 4726   2.589   2.479   4.908
   37DOPE   C33 4727   2.154   2.641   3.770
   37DOPE   H3X 4728   2.139   2.696   3.864
   37DOPE   H3Y 4729   2.237   2.696   3.723
   37DOPE   C34 4730   2.200   2.498   3.808
   37DOPE   H4X 4731   2.179   2.426   3.726
   37DOPE   H4Y 4732   2.309   2.501   3.821
   37DOPE   C35 4733   2.151   2.442   3.944
   37DOPE   H5X 4734   2.166   2.332   3.945
   37DOPE   H5Y 4735   2.042   2.463   3.953
   37DOPE   C36 4736   2.223   2.496   4.069
   37DOPE   H6X 4737   2.168   2.458   4.158
   37DOPE   H6Y 4738   2.219   2.607   4.069
   37DOPE   C37 4739   2.372   2.463   4.092
   37DOPE   H7X 4740   2.433   2.505   4.009
   37DOPE   H7Y 4741   2.399   2.521   4.184
   37DOPE   C38 4742   2.405   2.315   4.116
   37DOPE   H8X 4743   2.395   2.258   4.021
   37DOPE   H8Y 4744   2.332   2.272   4.188
   37DOPE   C39 4745   2.547   2.313   4.168
   37DOPE   H9X 4746   2.621   2.350   4.096
   37DOPE  C310 4747   2.589   2.273   4.289
   37DOPE  H10X 4748   2.696   2.286   4.312
   37DOPE  C311 4749   2.506   2.220   4.403
   37DOPE  H11X 4750   2.397   2.243   4.392
   37DOPE  H11Y 4751   2.514   2.109   4.405
   37DOPE  C312 4752   2.552   2.271   4.542
   37DOPE  H12X 4753   2.663   2.277   4.544
   37DOPE  H12Y 4754   2.523   2.196   4.619
   37DOPE  C313 4755   2.493   2.407   4.581
   37DOPE  H13X 4756   2.568   2.458   4.645
   37DOPE  H13Y 4757   2.481   2.469   4.489
   37DOPE  C314 4758   2.359   2.403   4.656
   37DOPE  H14X 4759   2.284   2.351   4.593
   37DOPE  H14Y 4760   2.324   2.508   4.670
   37DOPE  C315 4761   2.361   2.336   4.795
   37DOPE  H15X 4762   2.419   2.394   4.869
   37DOPE  H15Y 4763   2.412   2.239   4.793
   37DOPE  C316 4764   2.222   2.328   4.855
   37DOPE  H16X 4765   2.151   2.272   4.790
   37DOPE  H16Y 4766   2.184   2.433   4.860
   37DOPE  C317 4767   2.221   2.272   4.998
   37DOPE  H17X 4768   2.296   2.320   5.063
   37DOPE  H17Y 4769   2.129   2.308   5.040
   37DOPE  C318 4770   2.210   2.120   5.014
   37DOPE  H18X 4771   2.180   2.092   5.116
   37DOPE  H18Y 4772   2.132   2.079   4.947
   37DOPE  H18Z 4773   2.309   2.075   4.992
   38DOPE     N 4774   5.331   5.449   2.856
   38DOPE   HN1 4775   5.314   5.477   2.755
   38DOPE   HN2 4776   5.271   5.503   2.921
   38DOPE   HN3 4777   5.430   5.463   2.879
   38DOPE   C12 4778   5.299   5.305   2.873
   38DOPE  H12A 4779   5.367   5.247   2.807
   38DOPE  H12B 4780   5.194   5.288   2.841
   38DOPE   C11 4781   5.316   5.264   3.019
   38DOPE  H11A 4782   5.416   5.291   3.059
   38DOPE  H11B 4783   5.314   5.152   3.017
   38DOPE     P 4784   5.122   5.227   3.185
   38DOPE   O13 4785   5.106   5.101   3.107
   38DOPE   O14 4786   5.003   5.296   3.236
   38DOPE   O11 4787   5.227   5.207   3.301
   38DOPE   O12 4788   5.213   5.325   3.098
   38DOPE    C1 4789   5.243   5.320   3.390
   38DOPE    HA 4790   5.146   5.374   3.410
   38DOPE    HB 4791   5.314   5.394   3.348
   38DOPE    C2 4792   5.288   5.273   3.529
   38DOPE    HS 4793   5.377   5.206   3.515
   38DOPE   O21 4794   5.175   5.205   3.585
   38DOPE   C21 4795   5.203   5.111   3.671
   38DOPE   O22 4796   5.314   5.080   3.709
   38DOPE   C22 4797   5.070   5.060   3.729
   38DOPE   H2R 4798   5.015   5.010   3.647
   38DOPE   H2S 4799   5.014   5.150   3.761
   38DOPE    C3 4800   5.329   5.397   3.616
   38DOPE    HX 4801   5.241   5.465   3.619
   38DOPE    HY 4802   5.409   5.451   3.560
   38DOPE   O31 4803   5.381   5.364   3.748
   38DOPE   C31 4804   5.288   5.357   3.843
   38DOPE   O32 4805   5.170   5.383   3.829
   38DOPE   C32 4806   5.346   5.308   3.976
   38DOPE   H2X 4807   5.288   5.217   4.003
   38DOPE   H2Y 4808   5.451   5.278   3.961
   38DOPE   C23 4809   5.084   4.965   3.851
   38DOPE   H3R 4810   5.148   5.013   3.929
   38DOPE   H3S 4811   5.135   4.871   3.819
   38DOPE   C24 4812   4.947   4.932   3.911
   38DOPE   H4R 4813   4.889   4.875   3.835
   38DOPE   H4S 4814   4.891   5.027   3.930
   38DOPE   C25 4815   4.949   4.851   4.042
   38DOPE   H5R 4816   5.018   4.764   4.034
   38DOPE   H5S 4817   4.846   4.813   4.060
   38DOPE   C26 4818   4.988   4.935   4.163
   38DOPE   H6R 4819   4.934   5.031   4.154
   38DOPE   H6S 4820   5.096   4.959   4.159
   38DOPE   C27 4821   4.953   4.871   4.298
   38DOPE   H7R 4822   4.990   4.767   4.299
   38DOPE   H7S 4823   4.842   4.868   4.309
   38DOPE   C28 4824   5.015   4.949   4.415
   38DOPE   H8R 4825   4.978   5.053   4.405
   38DOPE   H8S 4826   5.125   4.953   4.404
   38DOPE   C29 4827   4.977   4.901   4.552
   38DOPE   H9R 4828   4.871   4.919   4.576
   38DOPE  C210 4829   5.056   4.850   4.649
   38DOPE  H10R 4830   5.011   4.839   4.748
   38DOPE  C211 4831   5.205   4.828   4.645
   38DOPE  H11R 4832   5.255   4.925   4.636
   38DOPE  H11S 4833   5.223   4.781   4.548
   38DOPE  C212 4834   5.286   4.746   4.750
   38DOPE  H12R 4835   5.376   4.712   4.694
   38DOPE  H12S 4836   5.239   4.653   4.783
   38DOPE  C213 4837   5.338   4.819   4.875
   38DOPE  H13R 4838   5.265   4.806   4.959
   38DOPE  H13S 4839   5.347   4.926   4.860
   38DOPE  C214 4840   5.479   4.776   4.914
   38DOPE  H14R 4841   5.522   4.720   4.834
   38DOPE  H14S 4842   5.469   4.710   5.004
   38DOPE  C215 4843   5.591   4.879   4.943
   38DOPE  H15R 4844   5.677   4.809   4.962
   38DOPE  H15S 4845   5.549   4.910   5.037
   38DOPE  C216 4846   5.641   4.998   4.848
   38DOPE  H16R 4847   5.613   4.982   4.742
   38DOPE  H16S 4848   5.736   4.943   4.854
   38DOPE  C217 4849   5.744   5.125   4.864
   38DOPE  H17R 4850   5.776   5.137   4.759
   38DOPE  H17S 4851   5.832   5.090   4.923
   38DOPE  C218 4852   5.731   5.274   4.912
   38DOPE  H18R 4853   5.655   5.290   4.990
   38DOPE  H18S 4854   5.707   5.342   4.828
   38DOPE  H18T 4855   5.828   5.310   4.953
   38DOPE   C33 4856   5.331   5.415   4.086
   38DOPE   H3X 4857   5.228   5.456   4.084
   38DOPE   H3Y 4858   5.396   5.502   4.060
   38DOPE   C34 4859   5.367   5.372   4.230
   38DOPE   H4X 4860   5.474   5.344   4.232
   38DOPE   H4Y 4861   5.355   5.460   4.297
   38DOPE   C35 4862   5.286   5.256   4.291
   38DOPE   H5X 4863   5.338   5.223   4.384
   38DOPE   H5Y 4864   5.286   5.169   4.222
   38DOPE   C36 4865   5.141   5.291   4.329
   38DOPE   H6X 4866   5.138   5.382   4.392
   38DOPE   H6Y 4867   5.103   5.208   4.392
   38DOPE   C37 4868   5.049   5.306   4.206
   38DOPE   H7X 4869   5.059   5.409   4.166
   38DOPE   H7Y 4870   5.083   5.235   4.128
   38DOPE   C38 4871   4.900   5.282   4.229
   38DOPE   H8X 4872   4.885   5.180   4.266
   38DOPE   H8Y 4873   4.849   5.289   4.130
   38DOPE   C39 4874   4.836   5.379   4.324
   38DOPE   H9X 4875   4.887   5.475   4.337
   38DOPE  C310 4876   4.728   5.350   4.399
   38DOPE  H10X 4877   4.691   5.425   4.469
   38DOPE  C311 4878   4.654   5.218   4.402
   38DOPE  H11X 4879   4.544   5.236   4.404
   38DOPE  H11Y 4880   4.674   5.156   4.312
   38DOPE  C312 4881   4.694   5.137   4.527
   38DOPE  H12X 4882   4.804   5.123   4.523
   38DOPE  H12Y 4883   4.647   5.036   4.526
   38DOPE  C313 4884   4.658   5.211   4.655
   38DOPE  H13X 4885   4.710   5.308   4.647
   38DOPE  H13Y 4886   4.549   5.229   4.661
   38DOPE  C314 4887   4.709   5.153   4.787
   38DOPE  H14X 4888   4.659   5.055   4.803
   38DOPE  H14Y 4889   4.680   5.217   4.873
   38DOPE  C315 4890   4.859   5.131   4.792
   38DOPE  H15X 4891   4.893   5.073   4.705
   38DOPE  H15Y 4892   4.866   5.065   4.879
   38DOPE  C316 4893   4.960   5.245   4.812
   38DOPE  H16X 4894   4.922   5.334   4.864
   38DOPE  H16Y 4895   5.002   5.276   4.713
   38DOPE  C317 4896   5.076   5.195   4.896
   38DOPE  H17X 4897   5.165   5.257   4.880
   38DOPE  H17Y 4898   5.052   5.200   5.003
   38DOPE  C318 4899   5.118   5.055   4.860
   38DOPE  H18X 4900   5.195   5.022   4.926
   38DOPE  H18Y 4901   5.043   4.977   4.879
   38DOPE  H18Z 4902   5.152   5.054   4.756
   39DOPE     N 4903   1.927   3.611   3.255
   39DOPE   HN1 4904   1.962   3.607   3.352
   39DOPE   HN2 4905   1.822   3.613   3.253
   39DOPE   HN3 4906   1.963   3.529   3.202
   39DOPE   C12 4907   1.969   3.735   3.183
   39DOPE  H12A 4908   2.078   3.738   3.170
   39DOPE  H12B 4909   1.932   3.818   3.245
   39DOPE   C11 4910   1.890   3.745   3.056
   39DOPE  H11A 4911   1.905   3.659   2.987
   39DOPE  H11B 4912   1.927   3.836   3.001
   39DOPE     P 4913   1.669   3.864   3.029
   39DOPE   O13 4914   1.536   3.867   3.088
   39DOPE   O14 4915   1.679   3.840   2.884
   39DOPE   O11 4916   1.750   3.993   3.062
   39DOPE   O12 4917   1.753   3.750   3.099
   39DOPE    C1 4918   1.698   4.120   3.021
   39DOPE    HA 4919   1.586   4.120   3.014
   39DOPE    HB 4920   1.739   4.146   2.921
   39DOPE    C2 4921   1.737   4.224   3.127
   39DOPE    HS 4922   1.715   4.324   3.087
   39DOPE   O21 4923   1.880   4.212   3.150
   39DOPE   C21 4924   1.936   4.202   3.268
   39DOPE   O22 4925   1.891   4.238   3.376
   39DOPE   C22 4926   2.070   4.130   3.255
   39DOPE   H2R 4927   2.152   4.197   3.287
   39DOPE   H2S 4928   2.082   4.101   3.148
   39DOPE    C3 4929   1.648   4.201   3.254
   39DOPE    HX 4930   1.541   4.203   3.221
   39DOPE    HY 4931   1.663   4.289   3.321
   39DOPE   O31 4932   1.676   4.075   3.319
   39DOPE   C31 4933   1.634   4.074   3.445
   39DOPE   O32 4934   1.571   4.164   3.497
   39DOPE   C32 4935   1.675   3.945   3.516
   39DOPE   H2X 4936   1.652   3.862   3.446
   39DOPE   H2Y 4937   1.784   3.947   3.535
   39DOPE   C23 4938   2.073   4.008   3.347
   39DOPE   H3R 4939   2.149   3.935   3.311
   39DOPE   H3S 4940   1.971   3.964   3.347
   39DOPE   C24 4941   2.099   4.036   3.496
   39DOPE   H4R 4942   2.020   4.104   3.535
   39DOPE   H4S 4943   2.197   4.087   3.508
   39DOPE   C25 4944   2.096   3.903   3.572
   39DOPE   H5R 4945   2.165   3.834   3.519
   39DOPE   H5S 4946   1.994   3.859   3.566
   39DOPE   C26 4947   2.143   3.911   3.717
   39DOPE   H6R 4948   2.196   4.007   3.736
   39DOPE   H6S 4949   2.219   3.830   3.729
   39DOPE   C27 4950   2.036   3.887   3.825
   39DOPE   H7R 4951   1.959   3.817   3.784
   39DOPE   H7S 4952   1.986   3.982   3.851
   39DOPE   C28 4953   2.101   3.818   3.947
   39DOPE   H8R 4954   2.191   3.874   3.979
   39DOPE   H8S 4955   2.141   3.725   3.904
   39DOPE   C29 4956   2.007   3.783   4.061
   39DOPE   H9R 4957   1.907   3.751   4.025
   39DOPE  C210 4958   2.028   3.782   4.194
   39DOPE  H10R 4959   1.945   3.750   4.259
   39DOPE  C211 4960   2.153   3.816   4.273
   39DOPE  H11R 4961   2.127   3.895   4.347
   39DOPE  H11S 4962   2.231   3.860   4.208
   39DOPE  C212 4963   2.220   3.701   4.352
   39DOPE  H12R 4964   2.293   3.744   4.424
   39DOPE  H12S 4965   2.280   3.644   4.277
   39DOPE  C213 4966   2.130   3.599   4.427
   39DOPE  H13R 4967   2.194   3.515   4.462
   39DOPE  H13S 4968   2.057   3.556   4.356
   39DOPE  C214 4969   2.051   3.651   4.548
   39DOPE  H14R 4970   1.969   3.577   4.567
   39DOPE  H14S 4971   2.001   3.746   4.519
   39DOPE  C215 4972   2.130   3.664   4.679
   39DOPE  H15R 4973   2.226   3.719   4.663
   39DOPE  H15S 4974   2.155   3.563   4.716
   39DOPE  C216 4975   2.047   3.739   4.786
   39DOPE  H16R 4976   2.089   3.722   4.887
   39DOPE  H16S 4977   1.943   3.700   4.783
   39DOPE  C217 4978   2.048   3.890   4.756
   39DOPE  H17R 4979   2.028   3.898   4.647
   39DOPE  H17S 4980   2.150   3.929   4.776
   39DOPE  C218 4981   1.947   3.980   4.824
   39DOPE  H18R 4982   1.932   4.073   4.766
   39DOPE  H18S 4983   1.984   4.009   4.925
   39DOPE  H18T 4984   1.848   3.932   4.833
   39DOPE   C33 4985   1.594   3.927   3.646
   39DOPE   H3X 4986   1.599   3.819   3.674
   39DOPE   H3Y 4987   1.488   3.954   3.623
   39DOPE   C34 4988   1.635   4.008   3.771
   39DOPE   H4X 4989   1.742   3.991   3.792
   39DOPE   H4Y 4990   1.620   4.117   3.752
   39DOPE   C35 4991   1.550   3.965   3.893
   39DOPE   H5X 4992   1.560   3.855   3.905
   39DOPE   H5Y 4993   1.443   3.988   3.873
   39DOPE   C36 4994   1.590   4.033   4.026
   39DOPE   H6X 4995   1.566   4.141   4.017
   39DOPE   H6Y 4996   1.700   4.024   4.040
   39DOPE   C37 4997   1.517   3.974   4.148
   39DOPE   H7X 4998   1.409   3.962   4.122
   39DOPE   H7Y 4999   1.557   3.872   4.169
   39DOPE   C38 5000   1.523   4.060   4.276
   39DOPE   H8X 5001   1.469   4.005   4.356
   39DOPE   H8Y 5002   1.462   4.152   4.259
   39DOPE   C39 5003   1.661   4.103   4.322
   39DOPE   H9X 5004   1.722   4.147   4.242
   39DOPE  C310 5005   1.721   4.083   4.442
   39DOPE  H10X 5006   1.824   4.118   4.453
   39DOPE  C311 5007   1.670   4.012   4.565
   39DOPE  H11X 5008   1.601   3.940   4.523
   39DOPE  H11Y 5009   1.760   3.957   4.597
   39DOPE  C312 5010   1.603   4.080   4.691
   39DOPE  H12X 5011   1.516   4.133   4.648
   39DOPE  H12Y 5012   1.679   4.154   4.729
   39DOPE  C313 5013   1.549   4.012   4.826
   39DOPE  H13X 5014   1.624   3.977   4.898
   39DOPE  H13Y 5015   1.532   4.117   4.860
   39DOPE  C314 5016   1.399   3.974   4.866
   39DOPE  H14X 5017   1.326   3.994   4.785
   39DOPE  H14Y 5018   1.372   4.052   4.943
   39DOPE  C315 5019   1.355   3.855   4.957
   39DOPE  H15X 5020   1.249   3.881   4.975
   39DOPE  H15Y 5021   1.403   3.866   5.056
   39DOPE  C316 5022   1.339   3.706   4.918
   39DOPE  H16X 5023   1.370   3.684   4.814
   39DOPE  H16Y 5024   1.229   3.683   4.922
   39DOPE  C317 5025   1.398   3.607   5.018
   39DOPE  H17X 5026   1.325   3.602   5.102
   39DOPE  H17Y 5027   1.400   3.506   4.969
   39DOPE  C318 5028   1.536   3.645   5.074
   39DOPE  H18X 5029   1.553   3.612   5.178
   39DOPE  H18Y 5030   1.615   3.604   5.011
   39DOPE  H18Z 5031   1.556   3.754   5.077
   40DOPE     N 5032   4.137   6.003   3.320
   40DOPE   HN1 5033   4.124   5.907   3.281
   40DOPE   HN2 5034   4.153   6.000   3.422
   40DOPE   HN3 5035   4.046   6.051   3.295
   40DOPE   C12 5036   4.250   6.063   3.241
   40DOPE  H12A 5037   4.333   5.990   3.242
   40DOPE  H12B 5038   4.281   6.157   3.290
   40DOPE   C11 5039   4.207   6.090   3.095
   40DOPE  H11A 5040   4.297   6.112   3.033
   40DOPE  H11B 5041   4.145   6.184   3.092
   40DOPE     P 5042   3.983   5.986   3.015
   40DOPE   O13 5043   3.927   5.856   2.977
   40DOPE   O14 5044   3.951   6.106   2.936
   40DOPE   O11 5045   3.939   6.013   3.163
   40DOPE   O12 5046   4.139   5.976   3.042
   40DOPE    C1 5047   3.827   5.947   3.220
   40DOPE    HA 5048   3.862   5.869   3.291
   40DOPE    HB 5049   3.760   5.897   3.145
   40DOPE    C2 5050   3.744   6.052   3.295
   40DOPE    HS 5051   3.676   6.099   3.219
   40DOPE   O21 5052   3.833   6.150   3.352
   40DOPE   C21 5053   3.766   6.257   3.393
   40DOPE   O22 5054   3.647   6.274   3.377
   40DOPE   C22 5055   3.861   6.356   3.460
   40DOPE   H2R 5056   3.798   6.423   3.522
   40DOPE   H2S 5057   3.904   6.418   3.378
   40DOPE    C3 5058   3.661   5.981   3.403
   40DOPE    HX 5059   3.602   5.901   3.351
   40DOPE    HY 5060   3.590   6.051   3.452
   40DOPE   O31 5061   3.754   5.927   3.499
   40DOPE   C31 5062   3.699   5.836   3.576
   40DOPE   O32 5063   3.585   5.794   3.564
   40DOPE   C32 5064   3.805   5.786   3.675
   40DOPE   H2X 5065   3.888   5.743   3.614
   40DOPE   H2Y 5066   3.844   5.870   3.735
   40DOPE   C23 5067   3.975   6.294   3.544
   40DOPE   H3R 5068   4.061   6.366   3.541
   40DOPE   H3S 5069   4.011   6.198   3.502
   40DOPE   C24 5070   3.940   6.276   3.693
   40DOPE   H4R 5071   3.912   6.375   3.734
   40DOPE   H4S 5072   4.031   6.242   3.747
   40DOPE   C25 5073   3.826   6.176   3.719
   40DOPE   H5R 5074   3.846   6.083   3.661
   40DOPE   H5S 5075   3.731   6.220   3.682
   40DOPE   C26 5076   3.810   6.139   3.867
   40DOPE   H6R 5077   3.889   6.066   3.894
   40DOPE   H6S 5078   3.711   6.090   3.881
   40DOPE   C27 5079   3.823   6.260   3.960
   40DOPE   H7R 5080   3.778   6.347   3.908
   40DOPE   H7S 5081   3.930   6.283   3.979
   40DOPE   C28 5082   3.747   6.247   4.094
   40DOPE   H8R 5083   3.646   6.211   4.069
   40DOPE   H8S 5084   3.733   6.350   4.134
   40DOPE   C29 5085   3.803   6.157   4.200
   40DOPE   H9R 5086   3.774   6.052   4.190
   40DOPE  C210 5087   3.883   6.195   4.301
   40DOPE  H10R 5088   3.913   6.119   4.375
   40DOPE  C211 5089   3.932   6.335   4.329
   40DOPE  H11R 5090   3.908   6.364   4.433
   40DOPE  H11S 5091   3.884   6.410   4.263
   40DOPE  C212 5092   4.085   6.345   4.306
   40DOPE  H12R 5093   4.117   6.450   4.321
   40DOPE  H12S 5094   4.107   6.318   4.200
   40DOPE  C213 5095   4.169   6.256   4.398
   40DOPE  H13R 5096   4.277   6.266   4.374
   40DOPE  H13S 5097   4.141   6.153   4.377
   40DOPE  C214 5098   4.145   6.278   4.547
   40DOPE  H14R 5099   4.039   6.252   4.572
   40DOPE  H14S 5100   4.162   6.385   4.570
   40DOPE  C215 5101   4.235   6.191   4.635
   40DOPE  H15R 5102   4.342   6.206   4.606
   40DOPE  H15S 5103   4.212   6.084   4.618
   40DOPE  C216 5104   4.215   6.227   4.782
   40DOPE  H16R 5105   4.107   6.215   4.808
   40DOPE  H16S 5106   4.241   6.334   4.796
   40DOPE  C217 5107   4.298   6.143   4.878
   40DOPE  H17R 5108   4.304   6.197   4.975
   40DOPE  H17S 5109   4.402   6.135   4.838
   40DOPE  C218 5110   4.241   6.003   4.903
   40DOPE  H18R 5111   4.290   5.951   4.987
   40DOPE  H18S 5112   4.259   5.939   4.815
   40DOPE  H18T 5113   4.133   6.007   4.927
   40DOPE   C33 5114   3.751   5.675   3.767
   40DOPE   H3X 5115   3.832   5.611   3.806
   40DOPE   H3Y 5116   3.682   5.614   3.704
   40DOPE   C34 5117   3.665   5.725   3.882
   40DOPE   H4X 5118   3.618   5.822   3.854
   40DOPE   H4Y 5119   3.584   5.649   3.895
   40DOPE   C35 5120   3.725   5.732   4.021
   40DOPE   H5X 5121   3.737   5.629   4.061
   40DOPE   H5Y 5122   3.648   5.781   4.084
   40DOPE   C36 5123   3.855   5.807   4.046
   40DOPE   H6X 5124   3.849   5.912   4.012
   40DOPE   H6Y 5125   3.940   5.758   3.995
   40DOPE   C37 5126   3.858   5.808   4.198
   40DOPE   H7X 5127   3.774   5.871   4.234
   40DOPE   H7Y 5128   3.831   5.703   4.232
   40DOPE   C38 5129   3.985   5.831   4.280
   40DOPE   H8X 5130   4.044   5.746   4.255
   40DOPE   H8Y 5131   3.938   5.811   4.377
   40DOPE   C39 5132   4.096   5.929   4.295
   40DOPE   H9X 5133   4.095   6.018   4.229
   40DOPE  C310 5134   4.196   5.907   4.384
   40DOPE  H10X 5135   4.285   5.972   4.384
   40DOPE  C311 5136   4.209   5.786   4.476
   40DOPE  H11X 5137   4.179   5.694   4.423
   40DOPE  H11Y 5138   4.317   5.771   4.500
   40DOPE  C312 5139   4.134   5.788   4.613
   40DOPE  H12X 5140   4.163   5.881   4.664
   40DOPE  H12Y 5141   4.168   5.702   4.675
   40DOPE  C313 5142   3.981   5.789   4.605
   40DOPE  H13X 5143   3.955   5.880   4.547
   40DOPE  H13Y 5144   3.945   5.698   4.552
   40DOPE  C314 5145   3.901   5.809   4.733
   40DOPE  H14X 5146   3.944   5.753   4.819
   40DOPE  H14Y 5147   3.798   5.770   4.716
   40DOPE  C315 5148   3.890   5.958   4.761
   40DOPE  H15X 5149   3.842   6.009   4.674
   40DOPE  H15Y 5150   3.992   6.001   4.771
   40DOPE  C316 5151   3.808   5.988   4.886
   40DOPE  H16X 5152   3.850   5.930   4.972
   40DOPE  H16Y 5153   3.704   5.953   4.869
   40DOPE  C317 5154   3.808   6.137   4.919
   40DOPE  H17X 5155   3.911   6.169   4.947
   40DOPE  H17Y 5156   3.781   6.194   4.827
   40DOPE  C318 5157   3.710   6.170   5.031
   40DOPE  H18X 5158   3.689   6.279   5.035
   40DOPE  H18Y 5159   3.613   6.117   5.013
   40DOPE  H18Z 5160   3.750   6.135   5.129
   41DOPE     N 5161   2.037   5.040   3.186
   41DOPE   HN1 5162   2.095   5.108   3.243
   41DOPE   HN2 5163   2.089   4.952   3.165
   41DOPE   HN3 5164   2.009   5.088   3.098
   41DOPE   C12 5165   1.908   5.015   3.258
   41DOPE  H12A 5166   1.879   5.110   3.309
   41DOPE  H12B 5167   1.926   4.939   3.336
   41DOPE   C11 5168   1.796   4.970   3.159
   41DOPE  H11A 5169   1.698   4.971   3.214
   41DOPE  H11B 5170   1.819   4.864   3.134
   41DOPE     P 5171   1.732   5.188   3.029
   41DOPE   O13 5172   1.604   5.200   3.101
   41DOPE   O14 5173   1.749   5.253   2.897
   41DOPE   O11 5174   1.850   5.241   3.119
   41DOPE   O12 5175   1.786   5.040   3.034
   41DOPE    C1 5176   1.953   5.333   3.087
   41DOPE    HA 5177   1.947   5.365   2.980
   41DOPE    HB 5178   2.054   5.288   3.099
   41DOPE    C2 5179   1.937   5.461   3.174
   41DOPE    HS 5180   1.972   5.547   3.112
   41DOPE   O21 5181   2.004   5.471   3.301
   41DOPE   C21 5182   2.044   5.367   3.367
   41DOPE   O22 5183   2.109   5.272   3.323
   41DOPE   C22 5184   1.992   5.381   3.508
   41DOPE   H2R 5185   1.883   5.395   3.500
   41DOPE   H2S 5186   2.038   5.474   3.550
   41DOPE    C3 5187   1.788   5.479   3.205
   41DOPE    HX 5188   1.736   5.450   3.112
   41DOPE    HY 5189   1.765   5.587   3.220
   41DOPE   O31 5190   1.737   5.393   3.311
   41DOPE   C31 5191   1.634   5.448   3.373
   41DOPE   O32 5192   1.603   5.565   3.367
   41DOPE   C32 5193   1.552   5.360   3.461
   41DOPE   H2X 5194   1.567   5.396   3.565
   41DOPE   H2Y 5195   1.446   5.383   3.432
   41DOPE   C23 5196   2.023   5.260   3.598
   41DOPE   H3R 5197   2.134   5.248   3.603
   41DOPE   H3S 5198   1.981   5.166   3.555
   41DOPE   C24 5199   1.971   5.274   3.742
   41DOPE   H4R 5200   1.860   5.270   3.746
   41DOPE   H4S 5201   2.004   5.373   3.781
   41DOPE   C25 5202   2.034   5.163   3.826
   41DOPE   H5R 5203   2.144   5.174   3.813
   41DOPE   H5S 5204   2.004   5.065   3.782
   41DOPE   C26 5205   2.008   5.158   3.976
   41DOPE   H6R 5206   1.915   5.213   4.004
   41DOPE   H6S 5207   2.093   5.209   4.026
   41DOPE   C27 5208   1.999   5.013   4.028
   41DOPE   H7R 5209   2.082   4.950   3.990
   41DOPE   H7S 5210   1.906   4.970   3.984
   41DOPE   C28 5211   1.989   5.000   4.181
   41DOPE   H8R 5212   1.943   4.902   4.206
   41DOPE   H8S 5213   1.916   5.078   4.209
   41DOPE   C29 5214   2.107   5.022   4.271
   41DOPE   H9R 5215   2.164   4.932   4.301
   41DOPE  C210 5216   2.153   5.141   4.312
   41DOPE  H10R 5217   2.240   5.143   4.379
   41DOPE  C211 5218   2.095   5.275   4.275
   41DOPE  H11R 5219   2.004   5.266   4.213
   41DOPE  H11S 5220   2.170   5.333   4.216
   41DOPE  C212 5221   2.055   5.356   4.398
   41DOPE  H12R 5222   1.989   5.293   4.460
   41DOPE  H12S 5223   1.993   5.442   4.367
   41DOPE  C213 5224   2.178   5.405   4.476
   41DOPE  H13R 5225   2.243   5.464   4.407
   41DOPE  H13S 5226   2.237   5.317   4.508
   41DOPE  C214 5227   2.145   5.488   4.601
   41DOPE  H14R 5228   2.108   5.589   4.574
   41DOPE  H14S 5229   2.238   5.499   4.661
   41DOPE  C215 5230   2.035   5.424   4.685
   41DOPE  H15R 5231   2.035   5.316   4.664
   41DOPE  H15S 5232   1.938   5.463   4.650
   41DOPE  C216 5233   2.056   5.440   4.835
   41DOPE  H16R 5234   2.079   5.547   4.853
   41DOPE  H16S 5235   2.147   5.383   4.865
   41DOPE  C217 5236   1.937   5.392   4.922
   41DOPE  H17R 5237   1.958   5.418   5.028
   41DOPE  H17S 5238   1.936   5.281   4.915
   41DOPE  C218 5239   1.797   5.444   4.885
   41DOPE  H18R 5240   1.786   5.551   4.911
   41DOPE  H18S 5241   1.719   5.387   4.941
   41DOPE  H18T 5242   1.776   5.432   4.777
   41DOPE   C33 5243   1.564   5.208   3.460
   41DOPE   H3X 5244   1.659   5.178   3.510
   41DOPE   H3Y 5245   1.563   5.161   3.360
   41DOPE   C34 5246   1.438   5.169   3.538
   41DOPE   H4X 5247   1.412   5.248   3.612
   41DOPE   H4Y 5248   1.352   5.163   3.467
   41DOPE   C35 5249   1.455   5.038   3.610
   41DOPE   H5X 5250   1.474   4.978   3.521
   41DOPE   H5Y 5251   1.361   5.004   3.660
   41DOPE   C36 5252   1.572   5.034   3.706
   41DOPE   H6X 5253   1.670   5.029   3.654
   41DOPE   H6Y 5254   1.566   4.939   3.764
   41DOPE   C37 5255   1.568   5.159   3.796
   41DOPE   H7X 5256   1.620   5.243   3.745
   41DOPE   H7Y 5257   1.462   5.191   3.811
   41DOPE   C38 5258   1.626   5.133   3.934
   41DOPE   H8X 5259   1.630   5.227   3.992
   41DOPE   H8Y 5260   1.731   5.096   3.922
   41DOPE   C39 5261   1.535   5.030   3.995
   41DOPE   H9X 5262   1.445   5.003   3.938
   41DOPE  C310 5263   1.556   4.969   4.111
   41DOPE  H10X 5264   1.488   4.891   4.148
   41DOPE  C311 5265   1.676   5.000   4.193
   41DOPE  H11X 5266   1.745   4.914   4.191
   41DOPE  H11Y 5267   1.729   5.090   4.155
   41DOPE  C312 5268   1.633   5.032   4.335
   41DOPE  H12X 5269   1.582   4.944   4.381
   41DOPE  H12Y 5270   1.564   5.120   4.335
   41DOPE  C313 5271   1.755   5.068   4.419
   41DOPE  H13X 5272   1.829   4.985   4.410
   41DOPE  H13Y 5273   1.803   5.160   4.378
   41DOPE  C314 5274   1.719   5.091   4.565
   41DOPE  H14X 5275   1.686   4.994   4.608
   41DOPE  H14Y 5276   1.634   5.162   4.571
   41DOPE  C315 5277   1.838   5.144   4.644
   41DOPE  H15X 5278   1.814   5.146   4.752
   41DOPE  H15Y 5279   1.852   5.249   4.611
   41DOPE  C316 5280   1.963   5.059   4.617
   41DOPE  H16X 5281   2.002   5.080   4.515
   41DOPE  H16Y 5282   1.928   4.953   4.614
   41DOPE  C317 5283   2.082   5.065   4.714
   41DOPE  H17X 5284   2.140   5.159   4.703
   41DOPE  H17Y 5285   2.045   5.059   4.819
   41DOPE  C318 5286   2.180   4.951   4.687
   41DOPE  H18X 5287   2.124   4.857   4.685
   41DOPE  H18Y 5288   2.228   4.962   4.588
   41DOPE  H18Z 5289   2.256   4.939   4.766
   42DOPE     N 5290   1.626   4.492   2.935
   42DOPE   HN1 5291   1.582   4.406   2.973
   42DOPE   HN2 5292   1.591   4.502   2.837
   42DOPE   HN3 5293   1.731   4.483   2.937
   42DOPE   C12 5294   1.577   4.605   3.020
   42DOPE  H12A 5295   1.623   4.699   2.983
   42DOPE  H12B 5296   1.610   4.586   3.125
   42DOPE   C11 5297   1.424   4.611   3.014
   42DOPE  H11A 5298   1.394   4.655   2.916
   42DOPE  H11B 5299   1.391   4.684   3.092
   42DOPE     P 5300   1.267   4.443   3.147
   42DOPE   O13 5301   1.354   4.415   3.263
   42DOPE   O14 5302   1.169   4.342   3.101
   42DOPE   O11 5303   1.199   4.582   3.170
   42DOPE   O12 5304   1.365   4.480   3.027
   42DOPE    C1 5305   1.113   4.653   3.082
   42DOPE    HA 5306   1.047   4.583   3.026
   42DOPE    HB 5307   1.173   4.709   3.008
   42DOPE    C2 5308   1.024   4.753   3.161
   42DOPE    HS 5309   0.969   4.818   3.090
   42DOPE   O21 5310   1.096   4.835   3.254
   42DOPE   C21 5311   1.209   4.889   3.221
   42DOPE   O22 5312   1.240   4.933   3.111
   42DOPE   C22 5313   1.295   4.893   3.349
   42DOPE   H2R 5314   1.226   4.901   3.436
   42DOPE   H2S 5315   1.357   4.984   3.344
   42DOPE    C3 5316   0.922   4.679   3.248
   42DOPE    HX 5317   0.850   4.629   3.179
   42DOPE    HY 5318   0.863   4.750   3.311
   42DOPE   O31 5319   0.987   4.577   3.326
   42DOPE   C31 5320   1.034   4.609   3.445
   42DOPE   O32 5321   1.026   4.718   3.498
   42DOPE   C32 5322   1.084   4.481   3.513
   42DOPE   H2X 5323   1.000   4.437   3.571
   42DOPE   H2Y 5324   1.113   4.408   3.434
   42DOPE   C23 5325   1.382   4.764   3.360
   42DOPE   H3R 5326   1.460   4.768   3.282
   42DOPE   H3S 5327   1.316   4.677   3.342
   42DOPE   C24 5328   1.448   4.733   3.495
   42DOPE   H4R 5329   1.371   4.728   3.574
   42DOPE   H4S 5330   1.522   4.808   3.526
   42DOPE   C25 5331   1.542   4.612   3.498
   42DOPE   H5R 5332   1.607   4.618   3.408
   42DOPE   H5S 5333   1.487   4.516   3.493
   42DOPE   C26 5334   1.633   4.620   3.622
   42DOPE   H6R 5335   1.703   4.705   3.608
   42DOPE   H6S 5336   1.692   4.527   3.626
   42DOPE   C27 5337   1.559   4.644   3.755
   42DOPE   H7R 5338   1.490   4.559   3.773
   42DOPE   H7S 5339   1.496   4.736   3.750
   42DOPE   C28 5340   1.654   4.662   3.874
   42DOPE   H8R 5341   1.595   4.689   3.964
   42DOPE   H8S 5342   1.724   4.746   3.856
   42DOPE   C29 5343   1.728   4.532   3.888
   42DOPE   H9R 5344   1.809   4.515   3.817
   42DOPE  C210 5345   1.694   4.433   3.972
   42DOPE  H10R 5346   1.751   4.339   3.970
   42DOPE  C211 5347   1.576   4.435   4.065
   42DOPE  H11R 5348   1.514   4.344   4.052
   42DOPE  H11S 5349   1.508   4.522   4.050
   42DOPE  C212 5350   1.631   4.442   4.207
   42DOPE  H12R 5351   1.695   4.532   4.222
   42DOPE  H12S 5352   1.695   4.353   4.227
   42DOPE  C213 5353   1.519   4.447   4.309
   42DOPE  H13R 5354   1.442   4.370   4.284
   42DOPE  H13S 5355   1.469   4.546   4.305
   42DOPE  C214 5356   1.572   4.421   4.450
   42DOPE  H14R 5357   1.635   4.506   4.483
   42DOPE  H14S 5358   1.636   4.331   4.450
   42DOPE  C215 5359   1.459   4.399   4.549
   42DOPE  H15R 5360   1.398   4.311   4.518
   42DOPE  H15S 5361   1.394   4.488   4.548
   42DOPE  C216 5362   1.514   4.380   4.690
   42DOPE  H16R 5363   1.620   4.350   4.684
   42DOPE  H16S 5364   1.456   4.297   4.739
   42DOPE  C217 5365   1.493   4.502   4.778
   42DOPE  H17R 5366   1.484   4.593   4.715
   42DOPE  H17S 5367   1.577   4.518   4.849
   42DOPE  C218 5368   1.364   4.478   4.854
   42DOPE  H18R 5369   1.370   4.410   4.940
   42DOPE  H18S 5370   1.297   4.424   4.783
   42DOPE  H18T 5371   1.315   4.572   4.884
   42DOPE   C33 5372   1.205   4.504   3.605
   42DOPE   H3X 5373   1.288   4.535   3.538
   42DOPE   H3Y 5374   1.236   4.407   3.649
   42DOPE   C34 5375   1.187   4.606   3.719
   42DOPE   H4X 5376   1.281   4.609   3.778
   42DOPE   H4Y 5377   1.174   4.709   3.678
   42DOPE   C35 5378   1.070   4.575   3.811
   42DOPE   H5X 5379   1.092   4.481   3.865
   42DOPE   H5Y 5380   0.979   4.556   3.749
   42DOPE   C36 5381   1.033   4.688   3.909
   42DOPE   H6X 5382   0.962   4.646   3.983
   42DOPE   H6Y 5383   0.977   4.765   3.851
   42DOPE   C37 5384   1.147   4.762   3.982
   42DOPE   H7X 5385   1.205   4.821   3.908
   42DOPE   H7Y 5386   1.098   4.835   4.051
   42DOPE   C38 5387   1.245   4.675   4.063
   42DOPE   H8X 5388   1.301   4.740   4.134
   42DOPE   H8Y 5389   1.320   4.633   3.993
   42DOPE   C39 5390   1.175   4.561   4.134
   42DOPE   H9X 5391   1.135   4.485   4.065
   42DOPE  C310 5392   1.162   4.536   4.265
   42DOPE  H10X 5393   1.109   4.444   4.293
   42DOPE  C311 5394   1.211   4.613   4.384
   42DOPE  H11X 5395   1.232   4.534   4.458
   42DOPE  H11Y 5396   1.306   4.667   4.366
   42DOPE  C312 5397   1.111   4.707   4.453
   42DOPE  H12X 5398   1.017   4.650   4.465
   42DOPE  H12Y 5399   1.092   4.798   4.392
   42DOPE  C313 5400   1.148   4.744   4.597
   42DOPE  H13X 5401   1.246   4.795   4.597
   42DOPE  H13Y 5402   1.073   4.812   4.640
   42DOPE  C314 5403   1.158   4.623   4.690
   42DOPE  H14X 5404   1.147   4.658   4.795
   42DOPE  H14Y 5405   1.259   4.585   4.668
   42DOPE  C315 5406   1.061   4.506   4.673
   42DOPE  H15X 5407   1.084   4.445   4.584
   42DOPE  H15Y 5408   0.965   4.560   4.660
   42DOPE  C316 5409   1.045   4.415   4.797
   42DOPE  H16X 5410   0.954   4.450   4.848
   42DOPE  H16Y 5411   1.123   4.438   4.870
   42DOPE  C317 5412   1.046   4.261   4.780
   42DOPE  H17X 5413   0.973   4.226   4.706
   42DOPE  H17Y 5414   1.146   4.229   4.744
   42DOPE  C318 5415   1.010   4.184   4.907
   42DOPE  H18X 5416   0.981   4.080   4.881
   42DOPE  H18Y 5417   1.095   4.183   4.979
   42DOPE  H18Z 5418   0.924   4.231   4.958
   43DOPE     N 5419   1.327   3.448   3.134
   43DOPE   HN1 5420   1.235   3.493   3.117
   43DOPE   HN2 5421   1.322   3.400   3.226
   43DOPE   HN3 5422   1.396   3.526   3.139
   43DOPE   C12 5423   1.363   3.350   3.025
   43DOPE  H12A 5424   1.457   3.298   3.056
   43DOPE  H12B 5425   1.385   3.408   2.934
   43DOPE   C11 5426   1.252   3.247   2.997
   43DOPE  H11A 5427   1.278   3.191   2.904
   43DOPE  H11B 5428   1.158   3.300   2.971
   43DOPE     P 5429   1.302   3.018   3.118
   43DOPE   O13 5430   1.410   3.031   3.219
   43DOPE   O14 5431   1.340   2.977   2.981
   43DOPE   O11 5432   1.187   2.923   3.169
   43DOPE   O12 5433   1.228   3.160   3.109
   43DOPE    C1 5434   1.078   2.969   3.249
   43DOPE    HA 5435   1.017   2.880   3.277
   43DOPE    HB 5436   1.012   3.037   3.192
   43DOPE    C2 5437   1.115   3.039   3.385
   43DOPE    HS 5438   1.163   3.136   3.359
   43DOPE   O21 5439   1.202   2.954   3.462
   43DOPE   C21 5440   1.303   3.016   3.522
   43DOPE   O22 5441   1.323   3.136   3.524
   43DOPE   C22 5442   1.393   2.915   3.594
   43DOPE   H2R 5443   1.474   2.972   3.644
   43DOPE   H2S 5444   1.438   2.851   3.515
   43DOPE    C3 5445   0.981   3.069   3.461
   43DOPE    HX 5446   0.927   2.971   3.459
   43DOPE    HY 5447   0.922   3.142   3.403
   43DOPE   O31 5448   1.001   3.117   3.595
   43DOPE   C31 5449   0.901   3.083   3.678
   43DOPE   O32 5450   0.801   3.022   3.645
   43DOPE   C32 5451   0.940   3.116   3.821
   43DOPE   H2X 5452   0.975   3.020   3.864
   43DOPE   H2Y 5453   1.024   3.188   3.821
   43DOPE   C23 5454   1.321   2.826   3.698
   43DOPE   H3R 5455   1.394   2.751   3.735
   43DOPE   H3S 5456   1.237   2.770   3.651
   43DOPE   C24 5457   1.268   2.901   3.821
   43DOPE   H4R 5458   1.181   2.964   3.790
   43DOPE   H4S 5459   1.345   2.969   3.864
   43DOPE   C25 5460   1.225   2.801   3.928
   43DOPE   H5R 5461   1.316   2.770   3.984
   43DOPE   H5S 5462   1.184   2.710   3.880
   43DOPE   C26 5463   1.119   2.854   4.025
   43DOPE   H6R 5464   1.018   2.822   3.992
   43DOPE   H6S 5465   1.122   2.965   4.026
   43DOPE   C27 5466   1.148   2.804   4.166
   43DOPE   H7R 5467   1.182   2.698   4.158
   43DOPE   H7S 5468   1.056   2.808   4.229
   43DOPE   C28 5469   1.257   2.887   4.231
   43DOPE   H8R 5470   1.214   2.988   4.250
   43DOPE   H8S 5471   1.340   2.901   4.158
   43DOPE   C29 5472   1.311   2.825   4.356
   43DOPE   H9R 5473   1.279   2.722   4.380
   43DOPE  C210 5474   1.393   2.891   4.438
   43DOPE  H10R 5475   1.426   2.844   4.531
   43DOPE  C211 5476   1.439   3.033   4.414
   43DOPE  H11R 5477   1.386   3.084   4.331
   43DOPE  H11S 5478   1.547   3.036   4.388
   43DOPE  C212 5479   1.414   3.111   4.542
   43DOPE  H12R 5480   1.313   3.096   4.586
   43DOPE  H12S 5481   1.429   3.220   4.520
   43DOPE  C213 5482   1.512   3.077   4.649
   43DOPE  H13R 5483   1.608   3.096   4.598
   43DOPE  H13S 5484   1.509   2.971   4.681
   43DOPE  C214 5485   1.500   3.173   4.764
   43DOPE  H14R 5486   1.454   3.268   4.728
   43DOPE  H14S 5487   1.604   3.198   4.790
   43DOPE  C215 5488   1.424   3.117   4.883
   43DOPE  H15R 5489   1.326   3.076   4.849
   43DOPE  H15S 5490   1.402   3.203   4.951
   43DOPE  C216 5491   1.503   3.010   4.960
   43DOPE  H16R 5492   1.611   3.031   4.955
   43DOPE  H16S 5493   1.488   2.912   4.910
   43DOPE  C217 5494   1.462   3.002   5.108
   43DOPE  H17R 5495   1.380   3.075   5.122
   43DOPE  H17S 5496   1.544   3.041   5.172
   43DOPE  C218 5497   1.430   2.860   5.159
   43DOPE  H18R 5498   1.326   2.839   5.187
   43DOPE  H18S 5499   1.493   2.837   5.248
   43DOPE  H18T 5500   1.456   2.787   5.080
   43DOPE   C33 5501   0.823   3.169   3.908
   43DOPE   H3X 5502   0.726   3.126   3.874
   43DOPE   H3Y 5503   0.817   3.279   3.897
   43DOPE   C34 5504   0.841   3.132   4.056
   43DOPE   H4X 5505   0.755   3.171   4.115
   43DOPE   H4Y 5506   0.846   3.022   4.067
   43DOPE   C35 5507   0.968   3.195   4.110
   43DOPE   H5X 5508   0.964   3.304   4.092
   43DOPE   H5Y 5509   1.058   3.158   4.057
   43DOPE   C36 5510   0.989   3.173   4.260
   43DOPE   H6X 5511   1.007   3.066   4.283
   43DOPE   H6Y 5512   0.900   3.206   4.318
   43DOPE   C37 5513   1.108   3.260   4.296
   43DOPE   H7X 5514   1.189   3.240   4.221
   43DOPE   H7Y 5515   1.078   3.365   4.287
   43DOPE   C38 5516   1.167   3.240   4.433
   43DOPE   H8X 5517   1.266   3.290   4.430
   43DOPE   H8Y 5518   1.184   3.131   4.438
   43DOPE   C39 5519   1.094   3.294   4.551
   43DOPE   H9X 5520   1.091   3.403   4.560
   43DOPE  C310 5521   1.037   3.218   4.646
   43DOPE  H10X 5522   0.998   3.270   4.733
   43DOPE  C311 5523   1.035   3.068   4.653
   43DOPE  H11X 5524   1.103   3.020   4.579
   43DOPE  H11Y 5525   1.072   3.037   4.751
   43DOPE  C312 5526   0.895   3.007   4.630
   43DOPE  H12X 5527   0.856   3.049   4.534
   43DOPE  H12Y 5528   0.825   3.037   4.711
   43DOPE  C313 5529   0.897   2.854   4.618
   43DOPE  H13X 5530   0.804   2.822   4.566
   43DOPE  H13Y 5531   0.982   2.824   4.552
   43DOPE  C314 5532   0.907   2.778   4.752
   43DOPE  H14X 5533   0.823   2.705   4.759
   43DOPE  H14Y 5534   0.893   2.850   4.836
   43DOPE  C315 5535   1.042   2.705   4.766
   43DOPE  H15X 5536   1.121   2.780   4.745
   43DOPE  H15Y 5537   1.048   2.630   4.684
   43DOPE  C316 5538   1.068   2.635   4.901
   43DOPE  H16X 5539   1.028   2.532   4.895
   43DOPE  H16Y 5540   1.010   2.680   4.983
   43DOPE  C317 5541   1.215   2.614   4.946
   43DOPE  H17X 5542   1.220   2.636   5.056
   43DOPE  H17Y 5543   1.240   2.506   4.935
   43DOPE  C318 5544   1.323   2.693   4.874
   43DOPE  H18X 5545   1.423   2.658   4.909
   43DOPE  H18Y 5546   1.317   2.679   4.764
   43DOPE  H18Z 5547   1.313   2.801   4.897
   44DOPE     N 5548   3.202   1.295   3.159
   44DOPE   HN1 5549   3.256   1.374   3.117
   44DOPE   HN2 5550   3.102   1.302   3.130
   44DOPE   HN3 5551   3.206   1.301   3.262
   44DOPE   C12 5552   3.263   1.163   3.115
   44DOPE  H12A 5553   3.323   1.121   3.198
   44DOPE  H12B 5554   3.330   1.182   3.029
   44DOPE   C11 5555   3.151   1.067   3.074
   44DOPE  H11A 5556   3.084   1.115   2.999
   44DOPE  H11B 5557   3.088   1.047   3.165
   44DOPE     P 5558   3.200   0.817   3.101
   44DOPE   O13 5559   3.266   0.701   3.037
   44DOPE   O14 5560   3.059   0.804   3.143
   44DOPE   O11 5561   3.288   0.864   3.225
   44DOPE   O12 5562   3.208   0.950   3.013
   44DOPE    C1 5563   3.325   0.770   3.325
   44DOPE    HA 5564   3.404   0.816   3.388
   44DOPE    HB 5565   3.368   0.677   3.281
   44DOPE    C2 5566   3.207   0.733   3.419
   44DOPE    HS 5567   3.146   0.657   3.363
   44DOPE   O21 5568   3.128   0.851   3.444
   44DOPE   C21 5569   3.007   0.828   3.486
   44DOPE   O22 5570   2.942   0.726   3.475
   44DOPE   C22 5571   2.968   0.950   3.571
   44DOPE   H2R 5572   2.872   0.927   3.620
   44DOPE   H2S 5573   2.955   1.036   3.503
   44DOPE    C3 5574   3.255   0.671   3.553
   44DOPE    HX 5575   3.350   0.619   3.530
   44DOPE    HY 5576   3.178   0.597   3.585
   44DOPE   O31 5577   3.285   0.769   3.655
   44DOPE   C31 5578   3.279   0.725   3.781
   44DOPE   O32 5579   3.247   0.613   3.815
   44DOPE   C32 5580   3.320   0.837   3.877
   44DOPE   H2X 5581   3.354   0.922   3.816
   44DOPE   H2Y 5582   3.231   0.869   3.934
   44DOPE   C23 5583   3.076   0.983   3.678
   44DOPE   H3R 5584   3.175   0.998   3.629
   44DOPE   H3S 5585   3.085   0.898   3.749
   44DOPE   C24 5586   3.045   1.108   3.759
   44DOPE   H4R 5587   2.985   1.082   3.847
   44DOPE   H4S 5588   2.973   1.159   3.695
   44DOPE   C25 5589   3.167   1.200   3.789
   44DOPE   H5R 5590   3.136   1.306   3.797
   44DOPE   H5S 5591   3.239   1.196   3.704
   44DOPE   C26 5592   3.240   1.179   3.923
   44DOPE   H6R 5593   3.311   1.263   3.939
   44DOPE   H6S 5594   3.301   1.088   3.916
   44DOPE   C27 5595   3.146   1.169   4.044
   44DOPE   H7R 5596   3.058   1.107   4.018
   44DOPE   H7S 5597   3.108   1.270   4.071
   44DOPE   C28 5598   3.211   1.099   4.163
   44DOPE   H8R 5599   3.279   1.170   4.215
   44DOPE   H8S 5600   3.273   1.017   4.123
   44DOPE   C29 5601   3.108   1.039   4.255
   44DOPE   H9R 5602   3.082   0.934   4.235
   44DOPE  C210 5603   3.044   1.105   4.352
   44DOPE  H10R 5604   2.971   1.052   4.415
   44DOPE  C211 5605   3.066   1.250   4.386
   44DOPE  H11R 5606   2.970   1.305   4.385
   44DOPE  H11S 5607   3.134   1.299   4.313
   44DOPE  C212 5608   3.131   1.263   4.524
   44DOPE  H12R 5609   3.170   1.366   4.540
   44DOPE  H12S 5610   3.219   1.196   4.529
   44DOPE  C213 5611   3.035   1.229   4.638
   44DOPE  H13R 5612   2.956   1.159   4.601
   44DOPE  H13S 5613   2.986   1.322   4.670
   44DOPE  C214 5614   3.107   1.162   4.755
   44DOPE  H14R 5615   3.168   1.238   4.808
   44DOPE  H14S 5616   3.171   1.086   4.711
   44DOPE  C215 5617   3.015   1.088   4.851
   44DOPE  H15R 5618   2.933   1.161   4.857
   44DOPE  H15S 5619   3.065   1.077   4.949
   44DOPE  C216 5620   2.955   0.953   4.805
   44DOPE  H16R 5621   2.996   0.867   4.861
   44DOPE  H16S 5622   2.981   0.940   4.697
   44DOPE  C217 5623   2.802   0.956   4.812
   44DOPE  H17R 5624   2.757   0.892   4.733
   44DOPE  H17S 5625   2.777   1.060   4.788
   44DOPE  C218 5626   2.730   0.927   4.943
   44DOPE  H18R 5627   2.746   0.822   4.975
   44DOPE  H18S 5628   2.622   0.942   4.927
   44DOPE  H18T 5629   2.759   0.996   5.025
   44DOPE   C33 5630   3.431   0.789   3.974
   44DOPE   H3X 5631   3.503   0.727   3.916
   44DOPE   H3Y 5632   3.382   0.723   4.049
   44DOPE   C34 5633   3.515   0.892   4.052
   44DOPE   H4X 5634   3.449   0.937   4.129
   44DOPE   H4Y 5635   3.593   0.836   4.109
   44DOPE   C35 5636   3.585   1.002   3.971
   44DOPE   H5X 5637   3.510   1.059   3.912
   44DOPE   H5Y 5638   3.657   0.958   3.899
   44DOPE   C36 5639   3.664   1.103   4.056
   44DOPE   H6X 5640   3.720   1.172   3.988
   44DOPE   H6Y 5641   3.737   1.052   4.121
   44DOPE   C37 5642   3.566   1.182   4.141
   44DOPE   H7X 5643   3.489   1.226   4.072
   44DOPE   H7Y 5644   3.513   1.110   4.207
   44DOPE   C38 5645   3.627   1.292   4.227
   44DOPE   H8X 5646   3.676   1.368   4.163
   44DOPE   H8Y 5647   3.706   1.250   4.293
   44DOPE   C39 5648   3.510   1.347   4.306
   44DOPE   H9X 5649   3.456   1.430   4.259
   44DOPE  C310 5650   3.464   1.296   4.420
   44DOPE  H10X 5651   3.375   1.340   4.467
   44DOPE  C311 5652   3.524   1.174   4.485
   44DOPE  H11X 5653   3.607   1.136   4.423
   44DOPE  H11Y 5654   3.568   1.203   4.583
   44DOPE  C312 5655   3.435   1.051   4.505
   44DOPE  H12X 5656   3.486   0.960   4.466
   44DOPE  H12Y 5657   3.339   1.059   4.448
   44DOPE  C313 5658   3.409   1.028   4.653
   44DOPE  H13X 5659   3.503   1.019   4.710
   44DOPE  H13Y 5660   3.362   1.121   4.691
   44DOPE  C314 5661   3.320   0.906   4.678
   44DOPE  H14X 5662   3.240   0.899   4.601
   44DOPE  H14Y 5663   3.269   0.925   4.774
   44DOPE  C315 5664   3.395   0.774   4.690
   44DOPE  H15X 5665   3.491   0.791   4.743
   44DOPE  H15Y 5666   3.418   0.734   4.589
   44DOPE  C316 5667   3.312   0.673   4.771
   44DOPE  H16X 5668   3.359   0.573   4.764
   44DOPE  H16Y 5669   3.210   0.664   4.728
   44DOPE  C317 5670   3.302   0.715   4.919
   44DOPE  H17X 5671   3.405   0.735   4.957
   44DOPE  H17Y 5672   3.246   0.810   4.931
   44DOPE  C318 5673   3.232   0.611   5.007
   44DOPE  H18X 5674   3.129   0.593   4.969
   44DOPE  H18Y 5675   3.288   0.515   5.009
   44DOPE  H18Z 5676   3.226   0.651   5.111
   45DOPE     N 5677   4.323   0.806   2.998
   45DOPE   HN1 5678   4.408   0.867   2.994
   45DOPE   HN2 5679   4.311   0.763   3.092
   45DOPE   HN3 5680   4.337   0.733   2.924
   45DOPE   C12 5681   4.202   0.884   2.958
   45DOPE  H12A 5682   4.189   0.871   2.849
   45DOPE  H12B 5683   4.221   0.991   2.983
   45DOPE   C11 5684   4.077   0.835   3.029
   45DOPE  H11A 5685   4.099   0.830   3.139
   45DOPE  H11B 5686   4.047   0.733   2.998
   45DOPE     P 5687   3.923   1.023   3.109
   45DOPE   O13 5688   3.792   1.079   3.072
   45DOPE   O14 5689   4.038   1.111   3.138
   45DOPE   O11 5690   3.909   0.914   3.222
   45DOPE   O12 5691   3.970   0.924   2.996
   45DOPE    C1 5692   3.789   0.904   3.295
   45DOPE    HA 5693   3.792   0.810   3.354
   45DOPE    HB 5694   3.699   0.900   3.229
   45DOPE    C2 5695   3.778   1.023   3.392
   45DOPE    HS 5696   3.786   1.117   3.334
   45DOPE   O21 5697   3.884   1.010   3.489
   45DOPE   C21 5698   3.934   1.126   3.530
   45DOPE   O22 5699   3.885   1.235   3.510
   45DOPE   C22 5700   4.063   1.100   3.610
   45DOPE   H2R 5701   4.136   1.053   3.540
   45DOPE   H2S 5702   4.041   1.027   3.691
   45DOPE    C3 5703   3.639   1.018   3.456
   45DOPE    HX 5704   3.563   1.055   3.383
   45DOPE    HY 5705   3.641   1.089   3.542
   45DOPE   O31 5706   3.612   0.880   3.490
   45DOPE   C31 5707   3.591   0.864   3.618
   45DOPE   O32 5708   3.546   0.949   3.693
   45DOPE   C32 5709   3.635   0.725   3.663
   45DOPE   H2X 5710   3.542   0.676   3.696
   45DOPE   H2Y 5711   3.675   0.670   3.576
   45DOPE   C23 5712   4.125   1.228   3.671
   45DOPE   H3R 5713   4.066   1.261   3.759
   45DOPE   H3S 5714   4.118   1.310   3.596
   45DOPE   C24 5715   4.274   1.216   3.708
   45DOPE   H4R 5716   4.311   1.316   3.738
   45DOPE   H4S 5717   4.330   1.186   3.616
   45DOPE   C25 5718   4.306   1.115   3.821
   45DOPE   H5R 5719   4.415   1.114   3.839
   45DOPE   H5S 5720   4.276   1.013   3.787
   45DOPE   C26 5721   4.236   1.146   3.954
   45DOPE   H6R 5722   4.265   1.068   4.028
   45DOPE   H6S 5723   4.126   1.138   3.939
   45DOPE   C27 5724   4.268   1.284   4.013
   45DOPE   H7R 5725   4.226   1.362   3.947
   45DOPE   H7S 5726   4.379   1.297   4.014
   45DOPE   C28 5727   4.215   1.303   4.157
   45DOPE   H8R 5728   4.257   1.397   4.199
   45DOPE   H8S 5729   4.252   1.218   4.219
   45DOPE   C29 5730   4.064   1.308   4.157
   45DOPE   H9R 5731   4.017   1.263   4.069
   45DOPE  C210 5732   3.983   1.351   4.255
   45DOPE  H10R 5733   3.875   1.348   4.237
   45DOPE  C211 5734   4.019   1.404   4.392
   45DOPE  H11R 5735   3.926   1.441   4.442
   45DOPE  H11S 5736   4.088   1.491   4.384
   45DOPE  C212 5737   4.081   1.296   4.483
   45DOPE  H12R 5738   4.087   1.333   4.587
   45DOPE  H12S 5739   4.186   1.280   4.448
   45DOPE  C213 5740   4.010   1.158   4.480
   45DOPE  H13R 5741   4.083   1.088   4.521
   45DOPE  H13S 5742   3.992   1.124   4.376
   45DOPE  C214 5743   3.881   1.144   4.563
   45DOPE  H14R 5744   3.809   1.218   4.521
   45DOPE  H14S 5745   3.899   1.172   4.669
   45DOPE  C215 5746   3.815   1.004   4.554
   45DOPE  H15R 5747   3.851   0.952   4.462
   45DOPE  H15S 5748   3.707   1.016   4.541
   45DOPE  C216 5749   3.822   0.909   4.675
   45DOPE  H16R 5750   3.919   0.857   4.682
   45DOPE  H16S 5751   3.746   0.829   4.657
   45DOPE  C217 5752   3.791   0.970   4.811
   45DOPE  H17R 5753   3.708   1.043   4.804
   45DOPE  H17S 5754   3.882   1.025   4.847
   45DOPE  C218 5755   3.755   0.859   4.909
   45DOPE  H18R 5756   3.841   0.789   4.919
   45DOPE  H18S 5757   3.667   0.802   4.872
   45DOPE  H18T 5758   3.727   0.897   5.010
   45DOPE   C33 5759   3.741   0.724   3.778
   45DOPE   H3X 5760   3.766   0.618   3.800
   45DOPE   H3Y 5761   3.702   0.766   3.872
   45DOPE   C34 5762   3.871   0.796   3.741
   45DOPE   H4X 5763   3.910   0.748   3.649
   45DOPE   H4Y 5764   3.851   0.903   3.717
   45DOPE   C35 5765   3.980   0.787   3.849
   45DOPE   H5X 5766   4.078   0.798   3.795
   45DOPE   H5Y 5767   3.980   0.687   3.896
   45DOPE   C36 5768   3.983   0.899   3.955
   45DOPE   H6X 5769   3.932   0.990   3.916
   45DOPE   H6Y 5770   4.090   0.926   3.970
   45DOPE   C37 5771   3.930   0.864   4.095
   45DOPE   H7X 5772   3.953   0.950   4.162
   45DOPE   H7Y 5773   3.819   0.854   4.091
   45DOPE   C38 5774   3.986   0.735   4.158
   45DOPE   H8X 5775   3.928   0.649   4.118
   45DOPE   H8Y 5776   3.964   0.739   4.267
   45DOPE   C39 5777   4.133   0.709   4.134
   45DOPE   H9X 5778   4.156   0.650   4.044
   45DOPE  C310 5779   4.235   0.752   4.210
   45DOPE  H10X 5780   4.339   0.723   4.184
   45DOPE  C311 5781   4.220   0.835   4.334
   45DOPE  H11X 5782   4.310   0.897   4.351
   45DOPE  H11Y 5783   4.135   0.907   4.322
   45DOPE  C312 5784   4.191   0.749   4.458
   45DOPE  H12X 5785   4.276   0.682   4.483
   45DOPE  H12Y 5786   4.103   0.683   4.438
   45DOPE  C313 5787   4.154   0.836   4.579
   45DOPE  H13X 5788   4.063   0.890   4.548
   45DOPE  H13Y 5789   4.129   0.770   4.664
   45DOPE  C314 5790   4.259   0.940   4.622
   45DOPE  H14X 5791   4.280   1.009   4.538
   45DOPE  H14Y 5792   4.353   0.887   4.647
   45DOPE  C315 5793   4.218   1.025   4.743
   45DOPE  H15X 5794   4.134   1.093   4.719
   45DOPE  H15Y 5795   4.306   1.089   4.771
   45DOPE  C316 5796   4.177   0.944   4.865
   45DOPE  H16X 5797   4.256   0.868   4.885
   45DOPE  H16Y 5798   4.082   0.889   4.848
   45DOPE  C317 5799   4.162   1.030   4.990
   45DOPE  H17X 5800   4.252   1.096   5.000
   45DOPE  H17Y 5801   4.072   1.096   4.986
   45DOPE  C318 5802   4.153   0.938   5.109
   45DOPE  H18X 5803   4.167   0.994   5.203
   45DOPE  H18Y 5804   4.056   0.885   5.110
   45DOPE  H18Z 5805   4.232   0.860   5.102
   46DOPE     N 5806   4.315   6.672   3.198
   46DOPE   HN1 5807   4.264   6.755   3.163
   46DOPE   HN2 5808   4.264   6.619   3.270
   46DOPE   HN3 5809   4.403   6.711   3.240
   46DOPE   C12 5810   4.365   6.591   3.081
   46DOPE  H12A 5811   4.341   6.648   2.988
   46DOPE  H12B 5812   4.315   6.492   3.078
   46DOPE   C11 5813   4.517   6.579   3.093
   46DOPE  H11A 5814   4.561   6.541   2.998
   46DOPE  H11B 5815   4.543   6.507   3.174
   46DOPE     P 5816   4.588   6.827   3.033
   46DOPE   O13 5817   4.508   6.935   3.093
   46DOPE   O14 5818   4.550   6.782   2.897
   46DOPE   O11 5819   4.744   6.852   3.044
   46DOPE   O12 5820   4.570   6.705   3.130
   46DOPE    C1 5821   4.831   6.739   3.023
   46DOPE    HA 5822   4.927   6.775   2.982
   46DOPE    HB 5823   4.789   6.669   2.946
   46DOPE    C2 5824   4.861   6.659   3.154
   46DOPE    HS 5825   4.766   6.646   3.212
   46DOPE   O21 5826   4.962   6.727   3.230
   46DOPE   C21 5827   4.912   6.805   3.324
   46DOPE   O22 5828   4.795   6.822   3.352
   46DOPE   C22 5829   5.024   6.869   3.405
   46DOPE   H2R 5830   4.984   6.964   3.446
   46DOPE   H2S 5831   5.109   6.891   3.338
   46DOPE    C3 5832   4.906   6.513   3.126
   46DOPE    HX 5833   4.985   6.516   3.049
   46DOPE    HY 5834   4.819   6.457   3.084
   46DOPE   O31 5835   4.959   6.448   3.244
   46DOPE   C31 5836   4.868   6.410   3.336
   46DOPE   O32 5837   4.748   6.423   3.323
   46DOPE   C32 5838   4.944   6.363   3.460
   46DOPE   H2X 5839   5.002   6.273   3.428
   46DOPE   H2Y 5840   5.015   6.444   3.485
   46DOPE   C23 5841   5.065   6.779   3.522
   46DOPE   H3R 5842   5.168   6.803   3.557
   46DOPE   H3S 5843   5.068   6.671   3.493
   46DOPE   C24 5844   4.968   6.800   3.637
   46DOPE   H4R 5845   4.871   6.757   3.606
   46DOPE   H4S 5846   4.947   6.908   3.650
   46DOPE   C25 5847   5.019   6.743   3.769
   46DOPE   H5R 5848   5.099   6.667   3.749
   46DOPE   H5S 5849   4.938   6.690   3.823
   46DOPE   C26 5850   5.073   6.856   3.858
   46DOPE   H6R 5851   5.065   6.950   3.800
   46DOPE   H6S 5852   5.181   6.843   3.879
   46DOPE   C27 5853   4.995   6.886   3.986
   46DOPE   H7R 5854   4.888   6.894   3.961
   46DOPE   H7S 5855   5.030   6.987   4.018
   46DOPE   C28 5856   5.013   6.786   4.101
   46DOPE   H8R 5857   5.119   6.755   4.113
   46DOPE   H8S 5858   4.957   6.694   4.077
   46DOPE   C29 5859   4.959   6.857   4.223
   46DOPE   H9R 5860   4.850   6.867   4.226
   46DOPE  C210 5861   5.030   6.898   4.330
   46DOPE  H10R 5862   4.977   6.955   4.408
   46DOPE  C211 5863   5.178   6.882   4.352
   46DOPE  H11R 5864   5.231   6.895   4.255
   46DOPE  H11S 5865   5.200   6.778   4.385
   46DOPE  C212 5866   5.243   6.978   4.455
   46DOPE  H12R 5867   5.207   7.082   4.438
   46DOPE  H12S 5868   5.353   6.979   4.435
   46DOPE  C213 5869   5.226   6.940   4.604
   46DOPE  H13R 5870   5.274   7.019   4.666
   46DOPE  H13S 5871   5.281   6.846   4.623
   46DOPE  C214 5872   5.080   6.922   4.651
   46DOPE  H14R 5873   5.028   6.853   4.581
   46DOPE  H14S 5874   5.027   7.019   4.650
   46DOPE  C215 5875   5.065   6.853   4.787
   46DOPE  H15R 5876   5.123   6.759   4.787
   46DOPE  H15S 5877   4.958   6.829   4.804
   46DOPE  C216 5878   5.118   6.933   4.906
   46DOPE  H16R 5879   5.051   7.020   4.919
   46DOPE  H16S 5880   5.217   6.973   4.881
   46DOPE  C217 5881   5.115   6.849   5.035
   46DOPE  H17R 5882   5.070   6.750   5.016
   46DOPE  H17S 5883   5.040   6.907   5.092
   46DOPE  C218 5884   5.238   6.836   5.127
   46DOPE  H18R 5885   5.207   6.797   5.226
   46DOPE  H18S 5886   5.290   6.931   5.141
   46DOPE  H18T 5887   5.319   6.772   5.091
   46DOPE   C33 5888   4.862   6.327   3.587
   46DOPE   H3X 5889   4.915   6.245   3.641
   46DOPE   H3Y 5890   4.762   6.286   3.557
   46DOPE   C34 5891   4.848   6.446   3.683
   46DOPE   H4X 5892   4.947   6.469   3.727
   46DOPE   H4Y 5893   4.817   6.532   3.620
   46DOPE   C35 5894   4.746   6.424   3.797
   46DOPE   H5X 5895   4.786   6.348   3.867
   46DOPE   H5Y 5896   4.652   6.384   3.752
   46DOPE   C36 5897   4.708   6.550   3.878
   46DOPE   H6X 5898   4.797   6.586   3.934
   46DOPE   H6Y 5899   4.632   6.523   3.955
   46DOPE   C37 5900   4.651   6.664   3.791
   46DOPE   H7X 5901   4.728   6.691   3.717
   46DOPE   H7Y 5902   4.564   6.627   3.733
   46DOPE   C38 5903   4.615   6.795   3.864
   46DOPE   H8X 5904   4.602   6.875   3.788
   46DOPE   H8Y 5905   4.702   6.826   3.925
   46DOPE   C39 5906   4.490   6.781   3.946
   46DOPE   H9X 5907   4.396   6.785   3.888
   46DOPE  C310 5908   4.485   6.760   4.079
   46DOPE  H10X 5909   4.387   6.748   4.127
   46DOPE  C311 5910   4.604   6.748   4.171
   46DOPE  H11X 5911   4.699   6.734   4.114
   46DOPE  H11Y 5912   4.616   6.840   4.232
   46DOPE  C312 5913   4.589   6.630   4.268
   46DOPE  H12X 5914   4.571   6.535   4.213
   46DOPE  H12Y 5915   4.501   6.649   4.334
   46DOPE  C313 5916   4.713   6.611   4.357
   46DOPE  H13X 5917   4.749   6.710   4.392
   46DOPE  H13Y 5918   4.684   6.553   4.447
   46DOPE  C314 5919   4.826   6.537   4.285
   46DOPE  H14X 5920   4.837   6.576   4.183
   46DOPE  H14Y 5921   4.797   6.430   4.274
   46DOPE  C315 5922   4.959   6.545   4.361
   46DOPE  H15X 5923   4.983   6.649   4.389
   46DOPE  H15Y 5924   5.042   6.508   4.297
   46DOPE  C316 5925   4.948   6.463   4.489
   46DOPE  H16X 5926   4.907   6.365   4.456
   46DOPE  H16Y 5927   4.876   6.511   4.558
   46DOPE  C317 5928   5.077   6.433   4.563
   46DOPE  H17X 5929   5.050   6.362   4.644
   46DOPE  H17Y 5930   5.148   6.381   4.496
   46DOPE  C318 5931   5.141   6.557   4.624
   46DOPE  H18X 5932   5.063   6.604   4.687
   46DOPE  H18Y 5933   5.228   6.533   4.688
   46DOPE  H18Z 5934   5.173   6.630   4.547
   47DOPE     N 5935   1.528   6.163   3.138
   47DOPE   HN1 5936   1.542   6.265   3.128
   47DOPE   HN2 5937   1.426   6.147   3.157
   47DOPE   HN3 5938   1.582   6.123   3.217
   47DOPE   C12 5939   1.550   6.085   3.014
   47DOPE  H12A 5940   1.652   6.040   3.016
   47DOPE  H12B 5941   1.541   6.155   2.929
   47DOPE   C11 5942   1.448   5.972   3.016
   47DOPE  H11A 5943   1.465   5.925   3.112
   47DOPE  H11B 5944   1.464   5.898   2.938
   47DOPE     P 5945   1.198   5.911   3.062
   47DOPE   O13 5946   1.109   5.889   2.947
   47DOPE   O14 5947   1.146   5.964   3.188
   47DOPE   O11 5948   1.277   5.780   3.096
   47DOPE   O12 5949   1.314   6.012   3.017
   47DOPE    C1 5950   1.303   5.684   2.993
   47DOPE    HA 5951   1.340   5.731   2.900
   47DOPE    HB 5952   1.208   5.633   2.968
   47DOPE    C2 5953   1.408   5.579   3.040
   47DOPE    HS 5954   1.433   5.511   2.956
   47DOPE   O21 5955   1.359   5.501   3.150
   47DOPE   C21 5956   1.230   5.480   3.168
   47DOPE   O22 5957   1.153   5.430   3.088
   47DOPE   C22 5958   1.213   5.498   3.320
   47DOPE   H2R 5959   1.303   5.552   3.359
   47DOPE   H2S 5960   1.217   5.396   3.364
   47DOPE    C3 5961   1.541   5.643   3.091
   47DOPE    HX 5962   1.619   5.672   3.018
   47DOPE    HY 5963   1.577   5.553   3.140
   47DOPE   O31 5964   1.516   5.738   3.195
   47DOPE   C31 5965   1.602   5.807   3.265
   47DOPE   O32 5966   1.715   5.839   3.231
   47DOPE   C32 5967   1.510   5.877   3.371
   47DOPE   H2X 5968   1.568   5.962   3.408
   47DOPE   H2Y 5969   1.422   5.918   3.317
   47DOPE   C23 5970   1.088   5.573   3.372
   47DOPE   H3R 5971   0.996   5.519   3.344
   47DOPE   H3S 5972   1.082   5.675   3.327
   47DOPE   C24 5973   1.099   5.583   3.525
   47DOPE   H4R 5974   1.201   5.621   3.549
   47DOPE   H4S 5975   1.096   5.480   3.565
   47DOPE   C25 5976   0.997   5.673   3.598
   47DOPE   H5R 5977   0.895   5.654   3.558
   47DOPE   H5S 5978   1.022   5.779   3.577
   47DOPE   C26 5979   0.999   5.649   3.751
   47DOPE   H6R 5980   1.103   5.636   3.787
   47DOPE   H6S 5981   0.943   5.555   3.773
   47DOPE   C27 5982   0.933   5.760   3.833
   47DOPE   H7R 5983   0.844   5.791   3.773
   47DOPE   H7S 5984   1.001   5.848   3.839
   47DOPE   C28 5985   0.883   5.724   3.976
   47DOPE   H8R 5986   0.790   5.663   3.963
   47DOPE   H8S 5987   0.849   5.820   4.021
   47DOPE   C29 5988   0.976   5.653   4.071
   47DOPE   H9R 5989   0.983   5.546   4.052
   47DOPE  C210 5990   1.056   5.706   4.167
   47DOPE  H10R 5991   1.112   5.639   4.234
   47DOPE  C211 5992   1.062   5.854   4.190
   47DOPE  H11R 5993   0.960   5.893   4.209
   47DOPE  H11S 5994   1.092   5.892   4.090
   47DOPE  C212 5995   1.160   5.935   4.282
   47DOPE  H12R 5996   1.134   6.040   4.257
   47DOPE  H12S 5997   1.266   5.920   4.256
   47DOPE  C213 5998   1.135   5.942   4.432
   47DOPE  H13R 5999   1.176   5.853   4.484
   47DOPE  H13S 6000   1.025   5.941   4.445
   47DOPE  C214 6001   1.191   6.072   4.497
   47DOPE  H14R 6002   1.105   6.133   4.532
   47DOPE  H14S 6003   1.246   6.134   4.424
   47DOPE  C215 6004   1.279   6.045   4.618
   47DOPE  H15R 6005   1.383   6.029   4.583
   47DOPE  H15S 6006   1.243   5.951   4.667
   47DOPE  C216 6007   1.277   6.153   4.727
   47DOPE  H16R 6008   1.257   6.254   4.685
   47DOPE  H16S 6009   1.377   6.156   4.777
   47DOPE  C217 6010   1.175   6.117   4.835
   47DOPE  H17R 6011   1.187   6.010   4.864
   47DOPE  H17S 6012   1.073   6.127   4.793
   47DOPE  C218 6013   1.184   6.205   4.957
   47DOPE  H18R 6014   1.192   6.312   4.930
   47DOPE  H18S 6015   1.271   6.176   5.019
   47DOPE  H18T 6016   1.090   6.194   5.015
   47DOPE   C33 6017   1.449   5.797   3.492
   47DOPE   H3X 6018   1.501   5.701   3.506
   47DOPE   H3Y 6019   1.342   5.775   3.472
   47DOPE   C34 6020   1.462   5.861   3.632
   47DOPE   H4X 6021   1.570   5.870   3.658
   47DOPE   H4Y 6022   1.418   5.962   3.633
   47DOPE   C35 6023   1.389   5.776   3.739
   47DOPE   H5X 6024   1.447   5.683   3.759
   47DOPE   H5Y 6025   1.291   5.743   3.697
   47DOPE   C36 6026   1.356   5.850   3.869
   47DOPE   H6X 6027   1.312   5.781   3.945
   47DOPE   H6Y 6028   1.274   5.921   3.845
   47DOPE   C37 6029   1.473   5.927   3.933
   47DOPE   H7X 6030   1.540   5.971   3.857
   47DOPE   H7Y 6031   1.430   6.012   3.991
   47DOPE   C38 6032   1.553   5.841   4.031
   47DOPE   H8X 6033   1.480   5.799   4.104
   47DOPE   H8Y 6034   1.623   5.905   4.090
   47DOPE   C39 6035   1.630   5.734   3.957
   47DOPE   H9X 6036   1.707   5.772   3.888
   47DOPE  C310 6037   1.607   5.602   3.965
   47DOPE  H10X 6038   1.665   5.533   3.902
   47DOPE  C311 6039   1.501   5.537   4.051
   47DOPE  H11X 6040   1.403   5.587   4.035
   47DOPE  H11Y 6041   1.488   5.430   4.022
   47DOPE  C312 6042   1.536   5.544   4.201
   47DOPE  H12X 6043   1.548   5.650   4.232
   47DOPE  H12Y 6044   1.633   5.493   4.219
   47DOPE  C313 6045   1.428   5.481   4.289
   47DOPE  H13X 6046   1.331   5.534   4.271
   47DOPE  H13Y 6047   1.415   5.375   4.259
   47DOPE  C314 6048   1.459   5.487   4.440
   47DOPE  H14X 6049   1.557   5.436   4.459
   47DOPE  H14Y 6050   1.380   5.429   4.494
   47DOPE  C315 6051   1.463   5.629   4.497
   47DOPE  H15X 6052   1.377   5.687   4.455
   47DOPE  H15Y 6053   1.556   5.680   4.463
   47DOPE  C316 6054   1.455   5.636   4.651
   47DOPE  H16X 6055   1.527   5.565   4.697
   47DOPE  H16Y 6056   1.352   5.606   4.682
   47DOPE  C317 6057   1.484   5.777   4.703
   47DOPE  H17X 6058   1.591   5.801   4.686
   47DOPE  H17Y 6059   1.426   5.845   4.639
   47DOPE  C318 6060   1.449   5.804   4.850
   47DOPE  H18X 6061   1.461   5.912   4.873
   47DOPE  H18Y 6062   1.344   5.776   4.871
   47DOPE  H18Z 6063   1.516   5.746   4.917
   48DOPE     N 6064   6.385   1.781   2.812
   48DOPE   HN1 6065   6.286   1.771   2.788
   48DOPE   HN2 6066   6.393   1.869   2.868
   48DOPE   HN3 6067   6.443   1.796   2.726
   48DOPE   C12 6068   6.440   1.677   2.902
   48DOPE  H12A 6069   6.483   1.593   2.843
   48DOPE  H12B 6070   6.358   1.640   2.967
   48DOPE   C11 6071   6.546   1.749   2.985
   48DOPE  H11A 6072   6.637   1.760   2.925
   48DOPE  H11B 6073   6.575   1.686   3.072
   48DOPE     P 6074   6.409   1.898   3.145
   48DOPE   O13 6075   6.289   1.817   3.122
   48DOPE   O14 6076   6.393   2.043   3.172
   48DOPE   O11 6077   6.505   1.832   3.251
   48DOPE   O12 6078   6.502   1.882   3.019
   48DOPE    C1 6079   6.639   1.885   3.249
   48DOPE    HA 6080   6.641   1.996   3.238
   48DOPE    HB 6081   6.700   1.842   3.166
   48DOPE    C2 6082   6.711   1.854   3.380
   48DOPE    HS 6083   6.821   1.872   3.364
   48DOPE   O21 6084   6.691   1.721   3.428
   48DOPE   C21 6085   6.711   1.628   3.339
   48DOPE   O22 6086   6.784   1.636   3.241
   48DOPE   C22 6087   6.636   1.503   3.388
   48DOPE   H2R 6088   6.676   1.481   3.489
   48DOPE   H2S 6089   6.659   1.419   3.319
   48DOPE    C3 6090   6.664   1.952   3.489
   48DOPE    HX 6091   6.696   2.054   3.462
   48DOPE    HY 6092   6.718   1.916   3.577
   48DOPE   O31 6093   6.522   1.956   3.512
   48DOPE   C31 6094   6.478   1.881   3.612
   48DOPE   O32 6095   6.540   1.793   3.668
   48DOPE   C32 6096   6.342   1.933   3.656
   48DOPE   H2X 6097   6.310   2.014   3.586
   48DOPE   H2Y 6098   6.269   1.850   3.649
   48DOPE   C23 6099   6.482   1.514   3.407
   48DOPE   H3R 6100   6.435   1.535   3.308
   48DOPE   H3S 6101   6.457   1.599   3.474
   48DOPE   C24 6102   6.422   1.383   3.464
   48DOPE   H4R 6103   6.464   1.298   3.407
   48DOPE   H4S 6104   6.313   1.384   3.445
   48DOPE   C25 6105   6.446   1.357   3.614
   48DOPE   H5R 6106   6.554   1.341   3.632
   48DOPE   H5S 6107   6.394   1.262   3.640
   48DOPE   C26 6108   6.396   1.467   3.710
   48DOPE   H6R 6109   6.291   1.492   3.681
   48DOPE   H6S 6110   6.455   1.560   3.696
   48DOPE   C27 6111   6.397   1.422   3.858
   48DOPE   H7R 6112   6.373   1.314   3.859
   48DOPE   H7S 6113   6.315   1.473   3.914
   48DOPE   C28 6114   6.532   1.443   3.932
   48DOPE   H8R 6115   6.609   1.388   3.874
   48DOPE   H8S 6116   6.525   1.393   4.031
   48DOPE   C29 6117   6.577   1.587   3.948
   48DOPE   H9R 6118   6.579   1.642   3.852
   48DOPE  C210 6119   6.618   1.655   4.057
   48DOPE  H10R 6120   6.641   1.761   4.044
   48DOPE  C211 6121   6.634   1.609   4.200
   48DOPE  H11R 6122   6.735   1.581   4.226
   48DOPE  H11S 6123   6.591   1.509   4.211
   48DOPE  C212 6124   6.601   1.707   4.316
   48DOPE  H12R 6125   6.634   1.659   4.410
   48DOPE  H12S 6126   6.492   1.721   4.330
   48DOPE  C213 6127   6.664   1.847   4.305
   48DOPE  H13R 6128   6.637   1.893   4.208
   48DOPE  H13S 6129   6.775   1.835   4.310
   48DOPE  C214 6130   6.620   1.943   4.417
   48DOPE  H14R 6131   6.509   1.949   4.419
   48DOPE  H14S 6132   6.659   2.045   4.394
   48DOPE  C215 6133   6.673   1.901   4.554
   48DOPE  H15R 6134   6.782   1.884   4.546
   48DOPE  H15S 6135   6.626   1.804   4.583
   48DOPE  C216 6136   6.644   2.005   4.663
   48DOPE  H16R 6137   6.536   2.031   4.656
   48DOPE  H16S 6138   6.702   2.097   4.641
   48DOPE  C217 6139   6.675   1.959   4.807
   48DOPE  H17R 6140   6.592   1.897   4.846
   48DOPE  H17S 6141   6.677   2.050   4.872
   48DOPE  C218 6142   6.803   1.879   4.826
   48DOPE  H18R 6143   6.820   1.806   4.745
   48DOPE  H18S 6144   6.800   1.822   4.921
   48DOPE  H18T 6145   6.890   1.948   4.828
   48DOPE   C33 6146   6.344   1.991   3.800
   48DOPE   H3X 6147   6.254   2.055   3.815
   48DOPE   H3Y 6148   6.433   2.056   3.816
   48DOPE   C34 6149   6.340   1.883   3.908
   48DOPE   H4X 6150   6.257   1.813   3.885
   48DOPE   H4Y 6151   6.434   1.824   3.905
   48DOPE   C35 6152   6.321   1.940   4.049
   48DOPE   H5X 6153   6.221   1.988   4.057
   48DOPE   H5Y 6154   6.398   2.018   4.069
   48DOPE   C36 6155   6.335   1.831   4.155
   48DOPE   H6X 6156   6.306   1.868   4.255
   48DOPE   H6Y 6157   6.443   1.810   4.158
   48DOPE   C37 6158   6.263   1.699   4.121
   48DOPE   H7X 6159   6.169   1.726   4.070
   48DOPE   H7Y 6160   6.319   1.645   4.043
   48DOPE   C38 6161   6.229   1.611   4.245
   48DOPE   H8X 6162   6.142   1.546   4.225
   48DOPE   H8Y 6163   6.206   1.673   4.334
   48DOPE   C39 6164   6.347   1.523   4.262
   48DOPE   H9X 6165   6.400   1.511   4.167
   48DOPE  C310 6166   6.404   1.466   4.369
   48DOPE  H10X 6167   6.492   1.403   4.353
   48DOPE  C311 6168   6.362   1.475   4.511
   48DOPE  H11X 6169   6.259   1.515   4.522
   48DOPE  H11Y 6170   6.367   1.374   4.558
   48DOPE  C312 6171   6.458   1.558   4.592
   48DOPE  H12X 6172   6.457   1.661   4.551
   48DOPE  H12Y 6173   6.562   1.521   4.581
   48DOPE  C313 6174   6.411   1.552   4.736
   48DOPE  H13X 6175   6.300   1.541   4.736
   48DOPE  H13Y 6176   6.454   1.463   4.787
   48DOPE  C314 6177   6.442   1.682   4.807
   48DOPE  H14X 6178   6.551   1.701   4.791
   48DOPE  H14Y 6179   6.426   1.669   4.916
   48DOPE  C315 6180   6.357   1.798   4.752
   48DOPE  H15X 6181   6.339   1.793   4.642
   48DOPE  H15Y 6182   6.412   1.892   4.769
   48DOPE  C316 6183   6.223   1.812   4.824
   48DOPE  H16X 6184   6.253   1.789   4.928
   48DOPE  H16Y 6185   6.147   1.738   4.794
   48DOPE  C317 6186   6.169   1.956   4.833
   48DOPE  H17X 6187   6.118   1.970   4.930
   48DOPE  H17Y 6188   6.259   2.018   4.834
   48DOPE  C318 6189   6.082   2.012   4.722
   48DOPE  H18X 6190   5.987   1.958   4.717
   48DOPE  H18Y 6191   6.058   2.119   4.739
   48DOPE  H18Z 6192   6.134   2.002   4.624
   49DOPE     N 6193   1.801   6.291   2.822
   49DOPE   HN1 6194   1.819   6.209   2.882
   49DOPE   HN2 6195   1.738   6.264   2.743
   49DOPE   HN3 6196   1.896   6.318   2.785
   49DOPE   C12 6197   1.751   6.414   2.894
   49DOPE  H12A 6198   1.649   6.394   2.932
   49DOPE  H12B 6199   1.745   6.497   2.820
   49DOPE   C11 6200   1.842   6.454   3.010
   49DOPE  H11A 6201   1.946   6.472   2.973
   49DOPE  H11B 6202   1.842   6.373   3.085
   49DOPE     P 6203   1.828   6.643   3.199
   49DOPE   O13 6204   1.703   6.668   3.274
   49DOPE   O14 6205   1.914   6.760   3.167
   49DOPE   O11 6206   1.912   6.533   3.275
   49DOPE   O12 6207   1.789   6.573   3.064
   49DOPE    C1 6208   2.055   6.540   3.277
   49DOPE    HA 6209   2.089   6.640   3.312
   49DOPE    HB 6210   2.096   6.524   3.175
   49DOPE    C2 6211   2.121   6.433   3.371
   49DOPE    HS 6212   2.211   6.392   3.320
   49DOPE   O21 6213   2.031   6.324   3.402
   49DOPE   C21 6214   1.983   6.263   3.296
   49DOPE   O22 6215   2.031   6.264   3.184
   49DOPE   C22 6216   1.849   6.194   3.331
   49DOPE   H2R 6217   1.874   6.105   3.392
   49DOPE   H2S 6218   1.804   6.159   3.236
   49DOPE    C3 6219   2.167   6.498   3.505
   49DOPE    HX 6220   2.262   6.552   3.483
   49DOPE    HY 6221   2.193   6.418   3.579
   49DOPE   O31 6222   2.071   6.592   3.556
   49DOPE   C31 6223   1.965   6.539   3.618
   49DOPE   O32 6224   1.960   6.426   3.663
   49DOPE   C32 6225   1.855   6.644   3.636
   49DOPE   H2X 6226   1.870   6.685   3.737
   49DOPE   H2Y 6227   1.867   6.725   3.562
   49DOPE   C23 6228   1.749   6.283   3.410
   49DOPE   H3R 6229   1.721   6.376   3.355
   49DOPE   H3S 6230   1.800   6.316   3.503
   49DOPE   C24 6231   1.625   6.204   3.452
   49DOPE   H4R 6232   1.662   6.109   3.497
   49DOPE   H4S 6233   1.556   6.183   3.370
   49DOPE   C25 6234   1.536   6.269   3.555
   49DOPE   H5R 6235   1.436   6.218   3.555
   49DOPE   H5S 6236   1.518   6.377   3.533
   49DOPE   C26 6237   1.596   6.248   3.692
   49DOPE   H6R 6238   1.700   6.288   3.694
   49DOPE   H6S 6239   1.605   6.140   3.716
   49DOPE   C27 6240   1.504   6.315   3.792
   49DOPE   H7R 6241   1.410   6.261   3.781
   49DOPE   H7S 6242   1.485   6.421   3.767
   49DOPE   C28 6243   1.548   6.299   3.935
   49DOPE   H8R 6244   1.548   6.190   3.959
   49DOPE   H8S 6245   1.476   6.350   4.002
   49DOPE   C29 6246   1.687   6.351   3.949
   49DOPE   H9R 6247   1.728   6.419   3.873
   49DOPE  C210 6248   1.752   6.334   4.063
   49DOPE  H10R 6249   1.852   6.377   4.074
   49DOPE  C211 6250   1.693   6.264   4.182
   49DOPE  H11R 6251   1.718   6.156   4.191
   49DOPE  H11S 6252   1.582   6.273   4.189
   49DOPE  C212 6253   1.750   6.347   4.296
   49DOPE  H12R 6254   1.687   6.438   4.304
   49DOPE  H12S 6255   1.857   6.376   4.278
   49DOPE  C213 6256   1.755   6.278   4.428
   49DOPE  H13R 6257   1.801   6.180   4.402
   49DOPE  H13S 6258   1.652   6.260   4.465
   49DOPE  C214 6259   1.841   6.357   4.530
   49DOPE  H14R 6260   1.851   6.461   4.493
   49DOPE  H14S 6261   1.944   6.319   4.540
   49DOPE  C215 6262   1.783   6.358   4.672
   49DOPE  H15R 6263   1.696   6.289   4.679
   49DOPE  H15S 6264   1.749   6.461   4.687
   49DOPE  C216 6265   1.878   6.334   4.791
   49DOPE  H16R 6266   1.896   6.225   4.804
   49DOPE  H16S 6267   1.824   6.369   4.881
   49DOPE  C217 6268   2.014   6.405   4.785
   49DOPE  H17R 6269   2.078   6.348   4.714
   49DOPE  H17S 6270   2.060   6.396   4.886
   49DOPE  C218 6271   2.017   6.553   4.741
   49DOPE  H18R 6272   2.120   6.593   4.753
   49DOPE  H18S 6273   1.948   6.615   4.802
   49DOPE  H18T 6274   1.989   6.563   4.634
   49DOPE   C33 6275   1.715   6.578   3.622
   49DOPE   H3X 6276   1.717   6.480   3.671
   49DOPE   H3Y 6277   1.695   6.562   3.513
   49DOPE   C34 6278   1.594   6.653   3.682
   49DOPE   H4X 6279   1.585   6.744   3.618
   49DOPE   H4Y 6280   1.500   6.596   3.670
   49DOPE   C35 6281   1.611   6.700   3.827
   49DOPE   H5X 6282   1.589   6.806   3.812
   49DOPE   H5Y 6283   1.714   6.688   3.864
   49DOPE   C36 6284   1.510   6.666   3.937
   49DOPE   H6X 6285   1.527   6.565   3.979
   49DOPE   H6Y 6286   1.407   6.669   3.897
   49DOPE   C37 6287   1.519   6.770   4.052
   49DOPE   H7X 6288   1.477   6.867   4.018
   49DOPE   H7Y 6289   1.455   6.735   4.135
   49DOPE   C38 6290   1.658   6.800   4.113
   49DOPE   H8X 6291   1.635   6.856   4.206
   49DOPE   H8Y 6292   1.716   6.876   4.060
   49DOPE   C39 6293   1.750   6.681   4.133
   49DOPE   H9X 6294   1.765   6.615   4.046
   49DOPE  C310 6295   1.807   6.647   4.249
   49DOPE  H10X 6296   1.885   6.570   4.251
   49DOPE  C311 6297   1.787   6.724   4.374
   49DOPE  H11X 6298   1.854   6.693   4.457
   49DOPE  H11Y 6299   1.821   6.823   4.341
   49DOPE  C312 6300   1.642   6.735   4.427
   49DOPE  H12X 6301   1.569   6.728   4.344
   49DOPE  H12Y 6302   1.623   6.830   4.480
   49DOPE  C313 6303   1.603   6.625   4.523
   49DOPE  H13X 6304   1.496   6.601   4.504
   49DOPE  H13Y 6305   1.661   6.535   4.499
   49DOPE  C314 6306   1.617   6.664   4.670
   49DOPE  H14X 6307   1.582   6.768   4.690
   49DOPE  H14Y 6308   1.724   6.662   4.699
   49DOPE  C315 6309   1.534   6.564   4.750
   49DOPE  H15X 6310   1.545   6.464   4.701
   49DOPE  H15Y 6311   1.426   6.586   4.744
   49DOPE  C316 6312   1.580   6.551   4.893
   49DOPE  H16X 6313   1.534   6.632   4.953
   49DOPE  H16Y 6314   1.691   6.564   4.900
   49DOPE  C317 6315   1.545   6.415   4.953
   49DOPE  H17X 6316   1.435   6.400   4.949
   49DOPE  H17Y 6317   1.591   6.333   4.893
   49DOPE  C318 6318   1.595   6.411   5.096
   49DOPE  H18X 6319   1.537   6.341   5.158
   49DOPE  H18Y 6320   1.703   6.386   5.099
   49DOPE  H18Z 6321   1.583   6.512   5.139
   50DOPE     N 6322   0.326   4.296   2.992
   50DOPE   HN1 6323   0.334   4.196   3.017
   50DOPE   HN2 6324   0.255   4.309   2.916
   50DOPE   HN3 6325   0.418   4.333   2.958
   50DOPE   C12 6326   0.291   4.386   3.106
   50DOPE  H12A 6327   0.363   4.368   3.189
   50DOPE  H12B 6328   0.188   4.365   3.140
   50DOPE   C11 6329   0.303   4.529   3.056
   50DOPE  H11A 6330   0.282   4.603   3.138
   50DOPE  H11B 6331   0.226   4.543   2.978
   50DOPE     P 6332   0.557   4.571   3.087
   50DOPE   O13 6333   0.512   4.621   3.217
   50DOPE   O14 6334   0.657   4.652   3.015
   50DOPE   O11 6335   0.603   4.420   3.098
   50DOPE   O12 6336   0.429   4.553   2.996
   50DOPE    C1 6337   0.708   4.371   3.181
   50DOPE    HA 6338   0.805   4.423   3.164
   50DOPE    HB 6339   0.725   4.266   3.149
   50DOPE    C2 6340   0.678   4.362   3.336
   50DOPE    HS 6341   0.728   4.268   3.371
   50DOPE   O21 6342   0.539   4.367   3.370
   50DOPE   C21 6343   0.491   4.250   3.393
   50DOPE   O22 6344   0.518   4.148   3.332
   50DOPE   C22 6345   0.398   4.254   3.513
   50DOPE   H2R 6346   0.373   4.150   3.532
   50DOPE   H2S 6347   0.305   4.307   3.485
   50DOPE    C3 6348   0.745   4.474   3.420
   50DOPE    HX 6349   0.724   4.571   3.370
   50DOPE    HY 6350   0.849   4.441   3.410
   50DOPE   O31 6351   0.715   4.477   3.561
   50DOPE   C31 6352   0.700   4.595   3.624
   50DOPE   O32 6353   0.702   4.704   3.572
   50DOPE   C32 6354   0.681   4.563   3.774
   50DOPE   H2X 6355   0.588   4.505   3.783
   50DOPE   H2Y 6356   0.770   4.503   3.801
   50DOPE   C23 6357   0.459   4.315   3.642
   50DOPE   H3R 6358   0.380   4.314   3.720
   50DOPE   H3S 6359   0.484   4.421   3.621
   50DOPE   C24 6360   0.583   4.241   3.698
   50DOPE   H4R 6361   0.673   4.271   3.641
   50DOPE   H4S 6362   0.574   4.133   3.679
   50DOPE   C25 6363   0.611   4.262   3.848
   50DOPE   H5R 6364   0.531   4.318   3.901
   50DOPE   H5S 6365   0.706   4.319   3.854
   50DOPE   C26 6366   0.637   4.133   3.925
   50DOPE   H6R 6367   0.718   4.076   3.874
   50DOPE   H6S 6368   0.546   4.070   3.926
   50DOPE   C27 6369   0.679   4.163   4.069
   50DOPE   H7R 6370   0.696   4.273   4.083
   50DOPE   H7S 6371   0.776   4.114   4.086
   50DOPE   C28 6372   0.582   4.107   4.173
   50DOPE   H8R 6373   0.578   3.997   4.161
   50DOPE   H8S 6374   0.480   4.147   4.155
   50DOPE   C29 6375   0.629   4.142   4.310
   50DOPE   H9R 6376   0.701   4.074   4.354
   50DOPE  C210 6377   0.600   4.252   4.377
   50DOPE  H10R 6378   0.644   4.263   4.476
   50DOPE  C211 6379   0.514   4.367   4.335
   50DOPE  H11R 6380   0.430   4.332   4.272
   50DOPE  H11S 6381   0.571   4.437   4.270
   50DOPE  C212 6382   0.457   4.439   4.458
   50DOPE  H12R 6383   0.533   4.500   4.511
   50DOPE  H12S 6384   0.420   4.365   4.532
   50DOPE  C213 6385   0.342   4.529   4.417
   50DOPE  H13R 6386   0.268   4.542   4.499
   50DOPE  H13S 6387   0.289   4.476   4.335
   50DOPE  C214 6388   0.389   4.665   4.365
   50DOPE  H14R 6389   0.304   4.726   4.330
   50DOPE  H14S 6390   0.449   4.644   4.274
   50DOPE  C215 6391   0.455   4.759   4.467
   50DOPE  H15R 6392   0.466   4.860   4.421
   50DOPE  H15S 6393   0.556   4.724   4.495
   50DOPE  C216 6394   0.367   4.764   4.591
   50DOPE  H16R 6395   0.379   4.670   4.649
   50DOPE  H16S 6396   0.263   4.765   4.550
   50DOPE  C217 6397   0.374   4.883   4.684
   50DOPE  H17R 6398   0.369   4.978   4.627
   50DOPE  H17S 6399   0.466   4.887   4.746
   50DOPE  C218 6400   0.257   4.867   4.779
   50DOPE  H18R 6401   0.285   4.791   4.854
   50DOPE  H18S 6402   0.170   4.825   4.724
   50DOPE  H18T 6403   0.227   4.962   4.828
   50DOPE   C33 6404   0.671   4.677   3.878
   50DOPE   H3X 6405   0.581   4.739   3.862
   50DOPE   H3Y 6406   0.759   4.743   3.862
   50DOPE   C34 6407   0.676   4.630   4.026
   50DOPE   H4X 6408   0.578   4.589   4.059
   50DOPE   H4Y 6409   0.754   4.551   4.039
   50DOPE   C35 6410   0.716   4.754   4.106
   50DOPE   H5X 6411   0.648   4.834   4.069
   50DOPE   H5Y 6412   0.822   4.772   4.080
   50DOPE   C36 6413   0.711   4.768   4.256
   50DOPE   H6X 6414   0.619   4.724   4.291
   50DOPE   H6Y 6415   0.706   4.875   4.285
   50DOPE   C37 6416   0.828   4.703   4.327
   50DOPE   H7X 6417   0.918   4.701   4.262
   50DOPE   H7Y 6418   0.854   4.764   4.417
   50DOPE   C38 6419   0.778   4.563   4.363
   50DOPE   H8X 6420   0.755   4.522   4.262
   50DOPE   H8Y 6421   0.682   4.580   4.415
   50DOPE   C39 6422   0.845   4.449   4.432
   50DOPE   H9X 6423   0.916   4.397   4.367
   50DOPE  C310 6424   0.825   4.395   4.553
   50DOPE  H10X 6425   0.886   4.307   4.569
   50DOPE  C311 6426   0.733   4.420   4.672
   50DOPE  H11X 6427   0.642   4.356   4.660
   50DOPE  H11Y 6428   0.784   4.376   4.760
   50DOPE  C312 6429   0.681   4.561   4.716
   50DOPE  H12X 6430   0.572   4.548   4.737
   50DOPE  H12Y 6431   0.692   4.631   4.632
   50DOPE  C313 6432   0.736   4.623   4.847
   50DOPE  H13X 6433   0.842   4.655   4.836
   50DOPE  H13Y 6434   0.676   4.714   4.870
   50DOPE  C314 6435   0.719   4.525   4.964
   50DOPE  H14X 6436   0.796   4.447   4.955
   50DOPE  H14Y 6437   0.619   4.479   4.950
   50DOPE  C315 6438   0.730   4.571   5.108
   50DOPE  H15X 6439   0.730   4.480   5.174
   50DOPE  H15Y 6440   0.639   4.627   5.136
   50DOPE  C316 6441   0.857   4.650   5.137
   50DOPE  H16X 6442   0.827   4.733   5.207
   50DOPE  H16Y 6443   0.897   4.698   5.045
   50DOPE  C317 6444   0.967   4.570   5.207
   50DOPE  H17X 6445   1.045   4.645   5.228
   50DOPE  H17Y 6446   0.929   4.526   5.302
   50DOPE  C318 6447   1.042   4.465   5.126
   50DOPE  H18X 6448   0.974   4.388   5.084
   50DOPE  H18Y 6449   1.096   4.517   5.045
   50DOPE  H18Z 6450   1.117   4.413   5.190
   51DOPE     N 6451   2.741   7.177   2.900
   51DOPE   HN1 6452   2.793   7.174   2.810
   51DOPE   HN2 6453   2.702   7.082   2.916
   51DOPE   HN3 6454   2.664   7.247   2.886
   51DOPE   C12 6455   2.838   7.219   3.009
   51DOPE  H12A 6456   2.784   7.216   3.106
   51DOPE  H12B 6457   2.870   7.323   2.989
   51DOPE   C11 6458   2.964   7.129   3.018
   51DOPE  H11A 6459   3.026   7.136   2.926
   51DOPE  H11B 6460   2.933   7.023   3.030
   51DOPE     P 6461   3.168   7.256   3.143
   51DOPE   O13 6462   3.157   7.338   3.266
   51DOPE   O14 6463   3.186   7.322   3.012
   51DOPE   O11 6464   3.284   7.149   3.163
   51DOPE   O12 6465   3.038   7.165   3.134
   51DOPE    C1 6466   3.264   7.019   3.216
   51DOPE    HA 6467   3.364   6.970   3.224
   51DOPE    HB 6468   3.203   6.957   3.147
   51DOPE    C2 6469   3.203   7.019   3.360
   51DOPE    HS 6470   3.096   7.048   3.347
   51DOPE   O21 6471   3.277   7.115   3.437
   51DOPE   C21 6472   3.202   7.180   3.524
   51DOPE   O22 6473   3.089   7.149   3.558
   51DOPE   C22 6474   3.281   7.296   3.580
   51DOPE   H2R 6475   3.300   7.364   3.494
   51DOPE   H2S 6476   3.378   7.259   3.620
   51DOPE    C3 6477   3.208   6.879   3.426
   51DOPE    HX 6478   3.314   6.860   3.456
   51DOPE    HY 6479   3.182   6.805   3.347
   51DOPE   O31 6480   3.113   6.862   3.533
   51DOPE   C31 6481   3.159   6.888   3.654
   51DOPE   O32 6482   3.274   6.920   3.681
   51DOPE   C32 6483   3.051   6.865   3.760
   51DOPE   H2X 6484   2.963   6.926   3.733
   51DOPE   H2Y 6485   3.022   6.758   3.760
   51DOPE   C23 6486   3.203   7.374   3.688
   51DOPE   H3R 6487   3.224   7.332   3.787
   51DOPE   H3S 6488   3.093   7.365   3.674
   51DOPE   C24 6489   3.235   7.524   3.682
   51DOPE   H4R 6490   3.172   7.575   3.757
   51DOPE   H4S 6491   3.204   7.561   3.582
   51DOPE   C25 6492   3.382   7.565   3.701
   51DOPE   H5R 6493   3.388   7.676   3.705
   51DOPE   H5S 6494   3.439   7.531   3.612
   51DOPE   C26 6495   3.449   7.507   3.825
   51DOPE   H6R 6496   3.549   7.553   3.841
   51DOPE   H6S 6497   3.466   7.399   3.803
   51DOPE   C27 6498   3.367   7.518   3.955
   51DOPE   H7R 6499   3.264   7.554   3.937
   51DOPE   H7S 6500   3.415   7.594   4.021
   51DOPE   C28 6501   3.361   7.382   4.024
   51DOPE   H8R 6502   3.316   7.310   3.954
   51DOPE   H8S 6503   3.290   7.376   4.108
   51DOPE   C29 6504   3.503   7.349   4.064
   51DOPE   H9R 6505   3.549   7.415   4.139
   51DOPE  C210 6506   3.563   7.235   4.029
   51DOPE  H10R 6507   3.664   7.211   4.066
   51DOPE  C211 6508   3.489   7.132   3.949
   51DOPE  H11R 6509   3.550   7.053   3.902
   51DOPE  H11S 6510   3.432   7.176   3.863
   51DOPE  C212 6511   3.396   7.076   4.058
   51DOPE  H12R 6512   3.314   7.020   4.008
   51DOPE  H12S 6513   3.345   7.153   4.120
   51DOPE  C213 6514   3.466   6.982   4.156
   51DOPE  H13R 6515   3.573   6.976   4.125
   51DOPE  H13S 6516   3.421   6.887   4.130
   51DOPE  C214 6517   3.462   7.011   4.309
   51DOPE  H14R 6518   3.506   7.113   4.323
   51DOPE  H14S 6519   3.528   6.939   4.362
   51DOPE  C215 6520   3.328   7.011   4.386
   51DOPE  H15R 6521   3.253   7.063   4.325
   51DOPE  H15S 6522   3.341   7.074   4.477
   51DOPE  C216 6523   3.268   6.876   4.435
   51DOPE  H16R 6524   3.244   6.812   4.347
   51DOPE  H16S 6525   3.169   6.902   4.479
   51DOPE  C217 6526   3.344   6.791   4.539
   51DOPE  H17R 6527   3.416   6.725   4.487
   51DOPE  H17S 6528   3.270   6.721   4.585
   51DOPE  C218 6529   3.424   6.860   4.651
   51DOPE  H18R 6530   3.472   6.783   4.715
   51DOPE  H18S 6531   3.360   6.922   4.716
   51DOPE  H18T 6532   3.503   6.925   4.609
   51DOPE   C33 6533   3.109   6.908   3.896
   51DOPE   H3X 6534   3.136   7.016   3.886
   51DOPE   H3Y 6535   3.203   6.852   3.916
   51DOPE   C34 6536   3.020   6.893   4.019
   51DOPE   H4X 6537   2.920   6.936   3.997
   51DOPE   H4Y 6538   3.007   6.785   4.044
   51DOPE   C35 6539   3.080   6.967   4.140
   51DOPE   H5X 6540   3.184   6.930   4.155
   51DOPE   H5Y 6541   3.025   6.939   4.233
   51DOPE   C36 6542   3.082   7.120   4.124
   51DOPE   H6X 6543   3.152   7.152   4.045
   51DOPE   H6Y 6544   3.116   7.168   4.219
   51DOPE   C37 6545   2.946   7.180   4.087
   51DOPE   H7X 6546   2.952   7.291   4.083
   51DOPE   H7Y 6547   2.920   7.146   3.985
   51DOPE   C38 6548   2.841   7.134   4.186
   51DOPE   H8X 6549   2.838   7.023   4.195
   51DOPE   H8Y 6550   2.741   7.160   4.149
   51DOPE   C39 6551   2.862   7.199   4.318
   51DOPE   H9X 6552   2.934   7.283   4.323
   51DOPE  C310 6553   2.801   7.158   4.428
   51DOPE  H10X 6554   2.816   7.214   4.521
   51DOPE  C311 6555   2.704   7.042   4.435
   51DOPE  H11X 6556   2.616   7.068   4.497
   51DOPE  H11Y 6557   2.665   7.009   4.336
   51DOPE  C312 6558   2.782   6.928   4.497
   51DOPE  H12X 6559   2.851   6.884   4.421
   51DOPE  H12Y 6560   2.712   6.848   4.531
   51DOPE  C313 6561   2.867   6.977   4.614
   51DOPE  H13X 6562   2.960   7.024   4.574
   51DOPE  H13Y 6563   2.811   7.056   4.670
   51DOPE  C314 6564   2.905   6.871   4.713
   51DOPE  H14X 6565   2.957   6.786   4.665
   51DOPE  H14Y 6566   2.811   6.834   4.761
   51DOPE  C315 6567   2.991   6.934   4.820
   51DOPE  H15X 6568   3.012   6.851   4.891
   51DOPE  H15Y 6569   2.930   7.014   4.870
   51DOPE  C316 6570   3.126   6.993   4.775
   51DOPE  H16X 6571   3.145   6.956   4.673
   51DOPE  H16Y 6572   3.204   6.948   4.840
   51DOPE  C317 6573   3.145   7.146   4.778
   51DOPE  H17X 6574   3.250   7.166   4.745
   51DOPE  H17Y 6575   3.079   7.188   4.699
   51DOPE  C318 6576   3.123   7.219   4.911
   51DOPE  H18X 6577   3.017   7.212   4.943
   51DOPE  H18Y 6578   3.188   7.179   4.991
   51DOPE  H18Z 6579   3.148   7.327   4.901
   52DOPE     N 6580   7.187   4.792   2.975
   52DOPE   HN1 6581   7.111   4.826   2.911
   52DOPE   HN2 6582   7.254   4.872   2.990
   52DOPE   HN3 6583   7.245   4.720   2.927
   52DOPE   C12 6584   7.150   4.725   3.104
   52DOPE  H12A 6585   7.068   4.653   3.081
   52DOPE  H12B 6586   7.119   4.800   3.179
   52DOPE   C11 6587   7.266   4.641   3.152
   52DOPE  H11A 6588   7.227   4.574   3.233
   52DOPE  H11B 6589   7.349   4.702   3.192
   52DOPE     P 6590   7.398   4.442   3.056
   52DOPE   O13 6591   7.533   4.498   3.082
   52DOPE   O14 6592   7.376   4.363   2.935
   52DOPE   O11 6593   7.333   4.377   3.182
   52DOPE   O12 6594   7.306   4.567   3.037
   52DOPE    C1 6595   7.392   4.281   3.270
   52DOPE    HA 6596   7.503   4.283   3.262
   52DOPE    HB 6597   7.355   4.180   3.244
   52DOPE    C2 6598   7.349   4.315   3.416
   52DOPE    HS 6599   7.238   4.302   3.419
   52DOPE   O21 6600   7.390   4.449   3.439
   52DOPE   C21 6601   7.303   4.528   3.498
   52DOPE   O22 6602   7.183   4.512   3.509
   52DOPE   C22 6603   7.385   4.640   3.558
   52DOPE   H2R 6604   7.409   4.711   3.476
   52DOPE   H2S 6605   7.480   4.592   3.591
   52DOPE    C3 6606   7.411   4.232   3.533
   52DOPE    HX 6607   7.522   4.244   3.523
   52DOPE    HY 6608   7.389   4.123   3.527
   52DOPE   O31 6609   7.381   4.287   3.663
   52DOPE   C31 6610   7.254   4.284   3.703
   52DOPE   O32 6611   7.165   4.218   3.654
   52DOPE   C32 6612   7.244   4.383   3.820
   52DOPE   H2X 6613   7.302   4.339   3.903
   52DOPE   H2Y 6614   7.299   4.472   3.787
   52DOPE   C23 6615   7.327   4.718   3.677
   52DOPE   H3R 6616   7.306   4.658   3.767
   52DOPE   H3S 6617   7.231   4.767   3.651
   52DOPE   C24 6618   7.434   4.820   3.716
   52DOPE   H4R 6619   7.393   4.894   3.788
   52DOPE   H4S 6620   7.461   4.876   3.625
   52DOPE   C25 6621   7.562   4.753   3.772
   52DOPE   H5R 6622   7.634   4.831   3.802
   52DOPE   H5S 6623   7.616   4.697   3.693
   52DOPE   C26 6624   7.541   4.666   3.896
   52DOPE   H6R 6625   7.643   4.639   3.930
   52DOPE   H6S 6626   7.489   4.572   3.872
   52DOPE   C27 6627   7.468   4.743   4.006
   52DOPE   H7R 6628   7.381   4.800   3.968
   52DOPE   H7S 6629   7.540   4.819   4.042
   52DOPE   C28 6630   7.413   4.652   4.117
   52DOPE   H8R 6631   7.477   4.561   4.125
   52DOPE   H8S 6632   7.310   4.619   4.093
   52DOPE   C29 6633   7.425   4.730   4.243
   52DOPE   H9R 6634   7.519   4.784   4.247
   52DOPE  C210 6635   7.338   4.753   4.342
   52DOPE  H10R 6636   7.373   4.808   4.429
   52DOPE  C211 6637   7.199   4.706   4.358
   52DOPE  H11R 6638   7.163   4.649   4.269
   52DOPE  H11S 6639   7.128   4.791   4.373
   52DOPE  C212 6640   7.195   4.616   4.482
   52DOPE  H12R 6641   7.249   4.520   4.467
   52DOPE  H12S 6642   7.087   4.598   4.484
   52DOPE  C213 6643   7.212   4.671   4.624
   52DOPE  H13R 6644   7.165   4.596   4.689
   52DOPE  H13S 6645   7.148   4.759   4.638
   52DOPE  C214 6646   7.356   4.688   4.673
   52DOPE  H14R 6647   7.395   4.787   4.649
   52DOPE  H14S 6648   7.418   4.616   4.614
   52DOPE  C215 6649   7.380   4.661   4.823
   52DOPE  H15R 6650   7.325   4.570   4.853
   52DOPE  H15S 6651   7.341   4.735   4.894
   52DOPE  C216 6652   7.531   4.645   4.843
   52DOPE  H16R 6653   7.577   4.598   4.753
   52DOPE  H16S 6654   7.548   4.575   4.928
   52DOPE  C217 6655   7.603   4.776   4.871
   52DOPE  H17R 6656   7.532   4.847   4.919
   52DOPE  H17S 6657   7.637   4.822   4.776
   52DOPE  C218 6658   7.721   4.749   4.967
   52DOPE  H18R 6659   7.820   4.783   4.995
   52DOPE  H18S 6660   7.774   4.680   4.897
   52DOPE  H18T 6661   7.731   4.861   4.967
   52DOPE   C33 6662   7.104   4.421   3.875
   52DOPE   H3X 6663   7.023   4.381   3.810
   52DOPE   H3Y 6664   7.090   4.532   3.878
   52DOPE   C34 6665   7.095   4.369   4.020
   52DOPE   H4X 6666   7.113   4.260   4.018
   52DOPE   H4Y 6667   7.179   4.415   4.079
   52DOPE   C35 6668   6.963   4.399   4.091
   52DOPE   H5X 6669   6.882   4.356   4.027
   52DOPE   H5Y 6670   6.949   4.509   4.095
   52DOPE   C36 6671   6.943   4.339   4.233
   52DOPE   H6X 6672   6.984   4.237   4.237
   52DOPE   H6Y 6673   6.833   4.331   4.249
   52DOPE   C37 6674   7.001   4.423   4.348
   52DOPE   H7X 6675   7.110   4.412   4.348
   52DOPE   H7Y 6676   6.977   4.529   4.318
   52DOPE   C38 6677   6.938   4.407   4.492
   52DOPE   H8X 6678   6.836   4.408   4.455
   52DOPE   H8Y 6679   6.943   4.501   4.550
   52DOPE   C39 6680   6.933   4.293   4.592
   52DOPE   H9X 6681   6.861   4.217   4.560
   52DOPE  C310 6682   6.993   4.269   4.711
   52DOPE  H10X 6683   6.961   4.176   4.760
   52DOPE  C311 6684   7.092   4.341   4.801
   52DOPE  H11X 6685   7.146   4.423   4.750
   52DOPE  H11Y 6686   7.046   4.383   4.892
   52DOPE  C312 6687   7.202   4.243   4.845
   52DOPE  H12X 6688   7.161   4.139   4.845
   52DOPE  H12Y 6689   7.241   4.263   4.947
   52DOPE  C313 6690   7.315   4.253   4.742
   52DOPE  H13X 6691   7.357   4.153   4.722
   52DOPE  H13Y 6692   7.264   4.287   4.649
   52DOPE  C314 6693   7.426   4.354   4.776
   52DOPE  H14X 6694   7.421   4.380   4.884
   52DOPE  H14Y 6695   7.396   4.442   4.717
   52DOPE  C315 6696   7.573   4.332   4.734
   52DOPE  H15X 6697   7.638   4.388   4.806
   52DOPE  H15Y 6698   7.590   4.379   4.635
   52DOPE  C316 6699   7.617   4.187   4.728
   52DOPE  H16X 6700   7.725   4.186   4.702
   52DOPE  H16Y 6701   7.565   4.136   4.645
   52DOPE  C317 6702   7.594   4.109   4.858
   52DOPE  H17X 6703   7.492   4.067   4.856
   52DOPE  H17Y 6704   7.663   4.021   4.856
   52DOPE  C318 6705   7.611   4.188   4.989
   52DOPE  H18X 6706   7.617   4.119   5.075
   52DOPE  H18Y 6707   7.704   4.250   4.988
   52DOPE  H18Z 6708   7.526   4.256   5.006
   53DOPE     N 6709   6.122   6.539   2.810
   53DOPE   HN1 6710   6.163   6.449   2.777
   53DOPE   HN2 6711   6.077   6.525   2.904
   53DOPE   HN3 6712   6.047   6.572   2.744
   53DOPE   C12 6713   6.227   6.645   2.834
   53DOPE  H12A 6714   6.183   6.742   2.802
   53DOPE  H12B 6715   6.317   6.622   2.773
   53DOPE   C11 6716   6.259   6.653   2.983
   53DOPE  H11A 6717   6.316   6.747   3.003
   53DOPE  H11B 6718   6.319   6.565   3.017
   53DOPE     P 6719   6.115   6.694   3.201
   53DOPE   O13 6720   6.098   6.565   3.270
   53DOPE   O14 6721   6.005   6.792   3.206
   53DOPE   O11 6722   6.255   6.757   3.243
   53DOPE   O12 6723   6.135   6.654   3.049
   53DOPE    C1 6724   6.255   6.860   3.343
   53DOPE    HA 6725   6.179   6.938   3.322
   53DOPE    HB 6726   6.353   6.911   3.340
   53DOPE    C2 6727   6.234   6.799   3.485
   53DOPE    HS 6728   6.294   6.707   3.486
   53DOPE   O21 6729   6.095   6.773   3.504
   53DOPE   C21 6730   6.063   6.657   3.555
   53DOPE   O22 6731   6.137   6.566   3.589
   53DOPE   C22 6732   5.917   6.670   3.596
   53DOPE   H2R 6733   5.870   6.570   3.590
   53DOPE   H2S 6734   5.864   6.738   3.525
   53DOPE    C3 6735   6.285   6.888   3.602
   53DOPE    HX 6736   6.226   6.979   3.620
   53DOPE    HY 6737   6.381   6.925   3.565
   53DOPE   O31 6738   6.302   6.812   3.723
   53DOPE   C31 6739   6.238   6.854   3.831
   53DOPE   O32 6740   6.179   6.959   3.841
   53DOPE   C32 6741   6.246   6.744   3.939
   53DOPE   H2X 6742   6.154   6.683   3.936
   53DOPE   H2Y 6743   6.332   6.679   3.913
   53DOPE   C23 6744   5.920   6.728   3.738
   53DOPE   H3R 6745   5.890   6.835   3.739
   53DOPE   H3S 6746   6.022   6.725   3.780
   53DOPE   C24 6747   5.838   6.646   3.835
   53DOPE   H4R 6748   5.849   6.538   3.810
   53DOPE   H4S 6749   5.731   6.674   3.823
   53DOPE   C25 6750   5.879   6.662   3.982
   53DOPE   H5R 6751   5.920   6.763   4.003
   53DOPE   H5S 6752   5.957   6.587   4.008
   53DOPE   C26 6753   5.755   6.638   4.065
   53DOPE   H6R 6754   5.676   6.704   4.025
   53DOPE   H6S 6755   5.769   6.662   4.173
   53DOPE   C27 6756   5.708   6.494   4.051
   53DOPE   H7R 6757   5.708   6.461   3.944
   53DOPE   H7S 6758   5.604   6.483   4.086
   53DOPE   C28 6759   5.797   6.399   4.129
   53DOPE   H8R 6760   5.902   6.403   4.092
   53DOPE   H8S 6761   5.748   6.305   4.099
   53DOPE   C29 6762   5.788   6.399   4.278
   53DOPE   H9R 6763   5.712   6.329   4.316
   53DOPE  C210 6764   5.869   6.457   4.366
   53DOPE  H10R 6765   5.838   6.454   4.472
   53DOPE  C211 6766   5.993   6.539   4.339
   53DOPE  H11R 6767   5.972   6.648   4.349
   53DOPE  H11S 6768   6.030   6.522   4.236
   53DOPE  C212 6769   6.102   6.498   4.439
   53DOPE  H12R 6770   6.200   6.540   4.408
   53DOPE  H12S 6771   6.113   6.387   4.434
   53DOPE  C213 6772   6.079   6.539   4.586
   53DOPE  H13R 6773   5.971   6.539   4.611
   53DOPE  H13S 6774   6.115   6.644   4.598
   53DOPE  C214 6775   6.152   6.443   4.680
   53DOPE  H14R 6776   6.255   6.427   4.641
   53DOPE  H14S 6777   6.100   6.346   4.675
   53DOPE  C215 6778   6.161   6.484   4.828
   53DOPE  H15R 6779   6.061   6.504   4.871
   53DOPE  H15S 6780   6.220   6.579   4.833
   53DOPE  C216 6781   6.230   6.380   4.918
   53DOPE  H16R 6782   6.302   6.318   4.861
   53DOPE  H16S 6783   6.151   6.310   4.956
   53DOPE  C217 6784   6.294   6.451   5.038
   53DOPE  H17R 6785   6.218   6.449   5.118
   53DOPE  H17S 6786   6.311   6.557   5.011
   53DOPE  C218 6787   6.426   6.395   5.092
   53DOPE  H18R 6788   6.424   6.284   5.095
   53DOPE  H18S 6789   6.443   6.433   5.194
   53DOPE  H18T 6790   6.512   6.428   5.030
   53DOPE   C33 6791   6.268   6.798   4.082
   53DOPE   H3X 6792   6.335   6.885   4.075
   53DOPE   H3Y 6793   6.319   6.719   4.143
   53DOPE   C34 6794   6.144   6.844   4.159
   53DOPE   H4X 6795   6.113   6.942   4.115
   53DOPE   H4Y 6796   6.060   6.772   4.152
   53DOPE   C35 6797   6.178   6.865   4.307
   53DOPE   H5X 6798   6.276   6.913   4.308
   53DOPE   H5Y 6799   6.184   6.770   4.364
   53DOPE   C36 6800   6.098   6.969   4.381
   53DOPE   H6X 6801   6.103   7.063   4.325
   53DOPE   H6Y 6802   6.147   6.989   4.479
   53DOPE   C37 6803   5.953   6.938   4.405
   53DOPE   H7X 6804   5.896   6.920   4.313
   53DOPE   H7Y 6805   5.942   6.843   4.460
   53DOPE   C38 6806   5.905   7.065   4.476
   53DOPE   H8X 6807   5.939   7.153   4.418
   53DOPE   H8Y 6808   5.959   7.075   4.572
   53DOPE   C39 6809   5.756   7.069   4.490
   53DOPE   H9X 6810   5.700   7.064   4.395
   53DOPE  C310 6811   5.693   7.082   4.606
   53DOPE  H10X 6812   5.583   7.081   4.609
   53DOPE  C311 6813   5.762   7.094   4.739
   53DOPE  H11X 6814   5.847   7.166   4.736
   53DOPE  H11Y 6815   5.688   7.138   4.808
   53DOPE  C312 6816   5.809   6.962   4.802
   53DOPE  H12X 6817   5.725   6.892   4.808
   53DOPE  H12Y 6818   5.840   6.986   4.905
   53DOPE  C313 6819   5.923   6.882   4.738
   53DOPE  H13X 6820   5.881   6.835   4.646
   53DOPE  H13Y 6821   6.007   6.946   4.709
   53DOPE  C314 6822   5.974   6.770   4.830
   53DOPE  H14X 6823   6.060   6.722   4.780
   53DOPE  H14Y 6824   5.894   6.694   4.844
   53DOPE  C315 6825   6.022   6.814   4.970
   53DOPE  H15X 6826   6.067   6.726   5.021
   53DOPE  H15Y 6827   5.932   6.842   5.027
   53DOPE  C316 6828   6.122   6.930   4.965
   53DOPE  H16X 6829   6.074   7.018   4.917
   53DOPE  H16Y 6830   6.207   6.898   4.899
   53DOPE  C317 6831   6.180   6.976   5.100
   53DOPE  H17X 6832   6.266   7.044   5.079
   53DOPE  H17Y 6833   6.104   7.039   5.152
   53DOPE  C318 6834   6.227   6.865   5.195
   53DOPE  H18X 6835   6.299   6.798   5.143
   53DOPE  H18Y 6836   6.276   6.908   5.284
   53DOPE  H18Z 6837   6.141   6.804   5.229
   54DOPE     N 6838   0.302   3.612   2.988
   54DOPE   HN1 6839   0.401   3.602   2.956
   54DOPE   HN2 6840   0.249   3.524   2.973
   54DOPE   HN3 6841   0.256   3.686   2.928
   54DOPE   C12 6842   0.282   3.660   3.128
   54DOPE  H12A 6843   0.352   3.744   3.146
   54DOPE  H12B 6844   0.301   3.578   3.199
   54DOPE   C11 6845   0.138   3.710   3.134
   54DOPE  H11A 6846   0.123   3.766   3.229
   54DOPE  H11B 6847   0.070   3.622   3.140
   54DOPE     P 6848  -0.036   3.849   3.007
   54DOPE   O13 6849  -0.128   3.734   3.019
   54DOPE   O14 6850  -0.048   3.938   2.889
   54DOPE   O11 6851  -0.038   3.932   3.142
   54DOPE   O12 6852   0.113   3.793   3.017
   54DOPE    C1 6853   0.041   4.049   3.161
   54DOPE    HA 6854  -0.024   4.137   3.142
   54DOPE    HB 6855   0.129   4.055   3.092
   54DOPE    C2 6856   0.096   4.061   3.307
   54DOPE    HS 6857   0.148   4.158   3.318
   54DOPE   O21 6858   0.190   3.954   3.330
   54DOPE   C21 6859   0.224   3.931   3.456
   54DOPE   O22 6860   0.201   4.005   3.550
   54DOPE   C22 6861   0.306   3.804   3.465
   54DOPE   H2R 6862   0.300   3.747   3.370
   54DOPE   H2S 6863   0.267   3.740   3.545
   54DOPE    C3 6864  -0.025   4.058   3.407
   54DOPE    HX 6865  -0.097   4.128   3.363
   54DOPE    HY 6866   0.002   4.100   3.507
   54DOPE   O31 6867  -0.090   3.930   3.416
   54DOPE   C31 6868  -0.091   3.864   3.528
   54DOPE   O32 6869  -0.047   3.900   3.636
   54DOPE   C32 6870  -0.164   3.734   3.501
   54DOPE   H2X 6871  -0.272   3.754   3.515
   54DOPE   H2Y 6872  -0.147   3.703   3.396
   54DOPE   C23 6873   0.450   3.846   3.496
   54DOPE   H3R 6874   0.483   3.921   3.421
   54DOPE   H3S 6875   0.518   3.760   3.484
   54DOPE   C24 6876   0.469   3.906   3.636
   54DOPE   H4R 6877   0.413   4.000   3.642
   54DOPE   H4S 6878   0.575   3.938   3.642
   54DOPE   C25 6879   0.431   3.825   3.762
   54DOPE   H5R 6880   0.505   3.851   3.841
   54DOPE   H5S 6881   0.441   3.716   3.742
   54DOPE   C26 6882   0.294   3.861   3.821
   54DOPE   H6R 6883   0.279   3.802   3.914
   54DOPE   H6S 6884   0.216   3.828   3.747
   54DOPE   C27 6885   0.268   4.009   3.853
   54DOPE   H7R 6886   0.168   4.037   3.812
   54DOPE   H7S 6887   0.343   4.074   3.803
   54DOPE   C28 6888   0.273   4.043   4.002
   54DOPE   H8R 6889   0.369   4.002   4.041
   54DOPE   H8S 6890   0.192   3.990   4.054
   54DOPE   C29 6891   0.261   4.192   4.024
   54DOPE   H9R 6892   0.294   4.254   3.939
   54DOPE  C210 6893   0.205   4.252   4.132
   54DOPE  H10R 6894   0.211   4.361   4.140
   54DOPE  C211 6895   0.144   4.185   4.253
   54DOPE  H11R 6896   0.074   4.104   4.225
   54DOPE  H11S 6897   0.083   4.260   4.308
   54DOPE  C212 6898   0.247   4.131   4.355
   54DOPE  H12R 6899   0.313   4.214   4.385
   54DOPE  H12S 6900   0.309   4.052   4.309
   54DOPE  C213 6901   0.174   4.078   4.480
   54DOPE  H13R 6902   0.116   3.989   4.450
   54DOPE  H13S 6903   0.100   4.156   4.508
   54DOPE  C214 6904   0.253   4.040   4.607
   54DOPE  H14R 6905   0.335   3.968   4.588
   54DOPE  H14S 6906   0.177   3.988   4.670
   54DOPE  C215 6907   0.312   4.152   4.691
   54DOPE  H15R 6908   0.282   4.248   4.645
   54DOPE  H15S 6909   0.423   4.146   4.687
   54DOPE  C216 6910   0.269   4.159   4.840
   54DOPE  H16R 6911   0.180   4.226   4.844
   54DOPE  H16S 6912   0.348   4.222   4.881
   54DOPE  C217 6913   0.228   4.034   4.925
   54DOPE  H17R 6914   0.187   3.955   4.861
   54DOPE  H17S 6915   0.145   4.071   4.988
   54DOPE  C218 6916   0.311   3.964   5.035
   54DOPE  H18R 6917   0.405   3.921   4.996
   54DOPE  H18S 6918   0.252   3.882   5.081
   54DOPE  H18T 6919   0.336   4.035   5.116
   54DOPE   C33 6920  -0.118   3.624   3.597
   54DOPE   H3X 6921  -0.180   3.533   3.580
   54DOPE   H3Y 6922  -0.131   3.656   3.703
   54DOPE   C34 6923   0.028   3.585   3.572
   54DOPE   H4X 6924   0.045   3.564   3.464
   54DOPE   H4Y 6925   0.094   3.668   3.603
   54DOPE   C35 6926   0.062   3.460   3.651
   54DOPE   H5X 6927   0.161   3.419   3.620
   54DOPE   H5Y 6928  -0.017   3.387   3.624
   54DOPE   C36 6929   0.058   3.477   3.802
   54DOPE   H6X 6930   0.092   3.382   3.848
   54DOPE   H6Y 6931  -0.045   3.498   3.839
   54DOPE   C37 6932   0.154   3.579   3.860
   54DOPE   H7X 6933   0.251   3.575   3.805
   54DOPE   H7Y 6934   0.109   3.680   3.848
   54DOPE   C38 6935   0.182   3.548   4.008
   54DOPE   H8X 6936   0.256   3.625   4.040
   54DOPE   H8Y 6937   0.236   3.453   4.016
   54DOPE   C39 6938   0.057   3.541   4.093
   54DOPE   H9X 6939   0.005   3.445   4.095
   54DOPE  C310 6940   0.013   3.644   4.167
   54DOPE  H10X 6941  -0.075   3.633   4.232
   54DOPE  C311 6942   0.086   3.774   4.170
   54DOPE  H11X 6943   0.118   3.802   4.067
   54DOPE  H11Y 6944   0.020   3.857   4.205
   54DOPE  C312 6945   0.209   3.761   4.261
   54DOPE  H12X 6946   0.262   3.858   4.265
   54DOPE  H12Y 6947   0.283   3.688   4.222
   54DOPE  C313 6948   0.173   3.715   4.402
   54DOPE  H13X 6949   0.093   3.782   4.441
   54DOPE  H13Y 6950   0.131   3.612   4.401
   54DOPE  C314 6951   0.292   3.718   4.497
   54DOPE  H14X 6952   0.350   3.810   4.478
   54DOPE  H14Y 6953   0.361   3.633   4.475
   54DOPE  C315 6954   0.240   3.708   4.640
   54DOPE  H15X 6955   0.186   3.611   4.647
   54DOPE  H15Y 6956   0.163   3.786   4.658
   54DOPE  C316 6957   0.345   3.716   4.751
   54DOPE  H16X 6958   0.388   3.819   4.757
   54DOPE  H16Y 6959   0.428   3.647   4.727
   54DOPE  C317 6960   0.285   3.676   4.886
   54DOPE  H17X 6961   0.354   3.701   4.968
   54DOPE  H17Y 6962   0.191   3.733   4.904
   54DOPE  C318 6963   0.258   3.526   4.891
   54DOPE  H18X 6964   0.343   3.470   4.848
   54DOPE  H18Y 6965   0.244   3.491   4.996
   54DOPE  H18Z 6966   0.167   3.501   4.832
   55DOPE     N 6967   0.358   5.696   3.223
   55DOPE   HN1 6968   0.297   5.611   3.205
   55DOPE   HN2 6969   0.445   5.655   3.261
   55DOPE   HN3 6970   0.310   5.756   3.295
   55DOPE   C12 6971   0.395   5.773   3.098
   55DOPE  H12A 6972   0.303   5.799   3.042
   55DOPE  H12B 6973   0.457   5.706   3.035
   55DOPE   C11 6974   0.475   5.902   3.128
   55DOPE  H11A 6975   0.536   5.889   3.221
   55DOPE  H11B 6976   0.405   5.985   3.148
   55DOPE     P 6977   0.712   5.897   3.017
   55DOPE   O13 6978   0.777   5.954   2.896
   55DOPE   O14 6979   0.717   5.750   3.044
   55DOPE   O11 6980   0.747   5.983   3.148
   55DOPE   O12 6981   0.557   5.937   3.016
   55DOPE    C1 6982   0.759   6.124   3.120
   55DOPE    HA 6983   0.680   6.160   3.051
   55DOPE    HB 6984   0.858   6.137   3.072
   55DOPE    C2 6985   0.758   6.222   3.243
   55DOPE    HS 6986   0.813   6.314   3.218
   55DOPE   O21 6987   0.817   6.160   3.358
   55DOPE   C21 6988   0.948   6.138   3.337
   55DOPE   O22 6989   1.012   6.186   3.245
   55DOPE   C22 6990   1.001   6.057   3.459
   55DOPE   H2R 6991   1.081   5.989   3.426
   55DOPE   H2S 6992   0.916   5.995   3.496
   55DOPE    C3 6993   0.614   6.274   3.277
   55DOPE    HX 6994   0.569   6.315   3.183
   55DOPE    HY 6995   0.623   6.362   3.344
   55DOPE   O31 6996   0.525   6.174   3.327
   55DOPE   C31 6997   0.519   6.169   3.459
   55DOPE   O32 6998   0.559   6.253   3.537
   55DOPE   C32 6999   0.461   6.035   3.499
   55DOPE   H2X 7000   0.352   6.040   3.480
   55DOPE   H2Y 7001   0.508   5.957   3.436
   55DOPE   C23 7002   1.051   6.146   3.577
   55DOPE   H3R 7003   0.962   6.175   3.638
   55DOPE   H3S 7004   1.098   6.238   3.535
   55DOPE   C24 7005   1.156   6.084   3.670
   55DOPE   H4R 7006   1.251   6.078   3.612
   55DOPE   H4S 7007   1.125   5.981   3.696
   55DOPE   C25 7008   1.183   6.163   3.800
   55DOPE   H5R 7009   1.220   6.264   3.775
   55DOPE   H5S 7010   1.269   6.118   3.853
   55DOPE   C26 7011   1.063   6.170   3.895
   55DOPE   H6R 7012   0.997   6.084   3.868
   55DOPE   H6S 7013   1.000   6.260   3.877
   55DOPE   C27 7014   1.099   6.149   4.043
   55DOPE   H7R 7015   1.193   6.089   4.048
   55DOPE   H7S 7016   1.017   6.087   4.087
   55DOPE   C28 7017   1.117   6.270   4.136
   55DOPE   H8R 7018   1.190   6.335   4.084
   55DOPE   H8S 7019   1.165   6.244   4.232
   55DOPE   C29 7020   0.979   6.330   4.158
   55DOPE   H9R 7021   0.933   6.363   4.064
   55DOPE  C210 7022   0.908   6.352   4.271
   55DOPE  H10R 7023   0.808   6.392   4.258
   55DOPE  C211 7024   0.940   6.326   4.416
   55DOPE  H11R 7025   0.928   6.422   4.470
   55DOPE  H11S 7026   1.045   6.296   4.429
   55DOPE  C212 7027   0.845   6.227   4.486
   55DOPE  H12R 7028   0.867   6.125   4.447
   55DOPE  H12S 7029   0.739   6.251   4.462
   55DOPE  C213 7030   0.859   6.227   4.640
   55DOPE  H13R 7031   0.797   6.309   4.682
   55DOPE  H13S 7032   0.964   6.248   4.666
   55DOPE  C214 7033   0.820   6.096   4.711
   55DOPE  H14R 7034   0.711   6.080   4.695
   55DOPE  H14S 7035   0.837   6.111   4.820
   55DOPE  C215 7036   0.899   5.972   4.665
   55DOPE  H15R 7037   1.003   6.006   4.648
   55DOPE  H15S 7038   0.859   5.934   4.570
   55DOPE  C216 7039   0.913   5.857   4.766
   55DOPE  H16R 7040   0.819   5.799   4.762
   55DOPE  H16S 7041   0.928   5.901   4.867
   55DOPE  C217 7042   1.024   5.755   4.737
   55DOPE  H17R 7043   1.118   5.788   4.787
   55DOPE  H17S 7044   1.042   5.754   4.628
   55DOPE  C218 7045   0.992   5.610   4.780
   55DOPE  H18R 7046   1.070   5.541   4.743
   55DOPE  H18S 7047   0.894   5.578   4.738
   55DOPE  H18T 7048   0.987   5.600   4.891
   55DOPE   C33 7049   0.486   6.004   3.648
   55DOPE   H3X 7050   0.430   5.913   3.677
   55DOPE   H3Y 7051   0.445   6.088   3.709
   55DOPE   C34 7052   0.635   5.983   3.677
   55DOPE   H4X 7053   0.672   5.894   3.621
   55DOPE   H4Y 7054   0.693   6.071   3.639
   55DOPE   C35 7055   0.666   5.968   3.826
   55DOPE   H5X 7056   0.777   5.974   3.839
   55DOPE   H5Y 7057   0.633   5.867   3.860
   55DOPE   C36 7058   0.605   6.076   3.915
   55DOPE   H6X 7059   0.495   6.065   3.920
   55DOPE   H6Y 7060   0.630   6.175   3.872
   55DOPE   C37 7061   0.661   6.068   4.058
   55DOPE   H7X 7062   0.772   6.070   4.052
   55DOPE   H7Y 7063   0.629   6.159   4.113
   55DOPE   C38 7064   0.614   5.943   4.134
   55DOPE   H8X 7065   0.637   5.850   4.077
   55DOPE   H8Y 7066   0.503   5.947   4.142
   55DOPE   C39 7067   0.678   5.938   4.269
   55DOPE   H9X 7068   0.770   5.878   4.278
   55DOPE  C310 7069   0.627   5.996   4.379
   55DOPE  H10X 7070   0.681   5.988   4.474
   55DOPE  C311 7071   0.499   6.074   4.385
   55DOPE  H11X 7072   0.509   6.161   4.453
   55DOPE  H11Y 7073   0.470   6.114   4.286
   55DOPE  C312 7074   0.386   5.981   4.434
   55DOPE  H12X 7075   0.370   5.901   4.358
   55DOPE  H12Y 7076   0.291   6.040   4.439
   55DOPE  C313 7077   0.413   5.916   4.570
   55DOPE  H13X 7078   0.328   5.848   4.595
   55DOPE  H13Y 7079   0.504   5.853   4.565
   55DOPE  C314 7080   0.429   6.018   4.684
   55DOPE  H14X 7081   0.332   6.072   4.691
   55DOPE  H14Y 7082   0.505   6.094   4.660
   55DOPE  C315 7083   0.458   5.954   4.821
   55DOPE  H15X 7084   0.392   5.865   4.831
   55DOPE  H15Y 7085   0.431   6.029   4.899
   55DOPE  C316 7086   0.604   5.910   4.848
   55DOPE  H16X 7087   0.661   5.998   4.883
   55DOPE  H16Y 7088   0.643   5.876   4.750
   55DOPE  C317 7089   0.623   5.799   4.954
   55DOPE  H17X 7090   0.566   5.834   5.041
   55DOPE  H17Y 7091   0.579   5.704   4.915
   55DOPE  C318 7092   0.759   5.768   5.019
   55DOPE  H18X 7093   0.810   5.861   5.053
   55DOPE  H18Y 7094   0.745   5.702   5.108
   55DOPE  H18Z 7095   0.824   5.712   4.951
   56DOPE     N 7096   0.904   6.407   2.812
   56DOPE   HN1 7097   0.858   6.497   2.791
   56DOPE   HN2 7098   1.008   6.415   2.798
   56DOPE   HN3 7099   0.871   6.331   2.748
   56DOPE   C12 7100   0.890   6.370   2.955
   56DOPE  H12A 7101   0.964   6.291   2.978
   56DOPE  H12B 7102   0.787   6.331   2.969
   56DOPE   C11 7103   0.910   6.491   3.046
   56DOPE  H11A 7104   0.918   6.456   3.152
   56DOPE  H11B 7105   0.820   6.555   3.034
   56DOPE     P 7106   1.048   6.693   3.111
   56DOPE   O13 7107   1.155   6.777   3.054
   56DOPE   O14 7108   1.061   6.642   3.249
   56DOPE   O11 7109   0.907   6.767   3.093
   56DOPE   O12 7110   1.026   6.566   3.013
   56DOPE    C1 7111   0.882   6.819   2.960
   56DOPE    HA 7112   0.879   6.737   2.885
   56DOPE    HB 7113   0.965   6.889   2.932
   56DOPE    C2 7114   0.751   6.904   2.940
   56DOPE    HS 7115   0.775   6.974   2.858
   56DOPE   O21 7116   0.709   6.976   3.055
   56DOPE   C21 7117   0.799   7.047   3.113
   56DOPE   O22 7118   0.887   7.114   3.058
   56DOPE   C22 7119   0.773   7.033   3.262
   56DOPE   H2R 7120   0.814   6.934   3.290
   56DOPE   H2S 7121   0.665   7.034   3.283
   56DOPE    C3 7122   0.629   6.821   2.895
   56DOPE    HX 7123   0.644   6.789   2.790
   56DOPE    HY 7124   0.538   6.885   2.896
   56DOPE   O31 7125   0.613   6.705   2.978
   56DOPE   C31 7126   0.563   6.728   3.098
   56DOPE   O32 7127   0.501   6.826   3.135
   56DOPE   C32 7128   0.585   6.607   3.184
   56DOPE   H2X 7129   0.488   6.553   3.189
   56DOPE   H2Y 7130   0.660   6.538   3.142
   56DOPE   C23 7131   0.846   7.143   3.337
   56DOPE   H3R 7132   0.799   7.238   3.308
   56DOPE   H3S 7133   0.948   7.145   3.297
   56DOPE   C24 7134   0.846   7.130   3.490
   56DOPE   H4R 7135   0.737   7.126   3.516
   56DOPE   H4S 7136   0.888   7.221   3.539
   56DOPE   C25 7137   0.908   7.003   3.548
   56DOPE   H5R 7138   1.010   7.020   3.589
   56DOPE   H5S 7139   0.921   6.926   3.468
   56DOPE   C26 7140   0.814   6.946   3.655
   56DOPE   H6R 7141   0.854   6.849   3.693
   56DOPE   H6S 7142   0.715   6.927   3.608
   56DOPE   C27 7143   0.799   7.038   3.775
   56DOPE   H7R 7144   0.807   7.145   3.746
   56DOPE   H7S 7145   0.888   7.011   3.836
   56DOPE   C28 7146   0.670   7.020   3.856
   56DOPE   H8R 7147   0.582   7.045   3.793
   56DOPE   H8S 7148   0.672   7.090   3.943
   56DOPE   C29 7149   0.665   6.877   3.899
   56DOPE   H9R 7150   0.607   6.811   3.833
   56DOPE  C210 7151   0.719   6.827   4.011
   56DOPE  H10R 7152   0.718   6.719   4.026
   56DOPE  C211 7153   0.795   6.902   4.117
   56DOPE  H11R 7154   0.763   7.008   4.124
   56DOPE  H11S 7155   0.903   6.906   4.093
   56DOPE  C212 7156   0.775   6.828   4.250
   56DOPE  H12R 7157   0.815   6.725   4.240
   56DOPE  H12S 7158   0.667   6.814   4.271
   56DOPE  C213 7159   0.845   6.895   4.370
   56DOPE  H13R 7160   0.952   6.889   4.347
   56DOPE  H13S 7161   0.827   6.834   4.462
   56DOPE  C214 7162   0.809   7.041   4.403
   56DOPE  H14R 7163   0.712   7.040   4.456
   56DOPE  H14S 7164   0.800   7.103   4.312
   56DOPE  C215 7165   0.911   7.105   4.497
   56DOPE  H15R 7166   1.000   7.132   4.439
   56DOPE  H15S 7167   0.941   7.033   4.576
   56DOPE  C216 7168   0.872   7.238   4.559
   56DOPE  H16R 7169   0.865   7.316   4.479
   56DOPE  H16S 7170   0.954   7.267   4.629
   56DOPE  C217 7171   0.742   7.239   4.637
   56DOPE  H17R 7172   0.657   7.211   4.572
   56DOPE  H17S 7173   0.728   7.344   4.663
   56DOPE  C218 7174   0.742   7.157   4.764
   56DOPE  H18R 7175   0.736   7.049   4.741
   56DOPE  H18S 7176   0.654   7.185   4.827
   56DOPE  H18T 7177   0.833   7.177   4.825
   56DOPE   C33 7178   0.627   6.648   3.325
   56DOPE   H3X 7179   0.608   6.556   3.384
   56DOPE   H3Y 7180   0.567   6.731   3.369
   56DOPE   C34 7181   0.772   6.654   3.361
   56DOPE   H4X 7182   0.823   6.565   3.320
   56DOPE   H4Y 7183   0.826   6.741   3.319
   56DOPE   C35 7184   0.777   6.655   3.514
   56DOPE   H5X 7185   0.684   6.698   3.558
   56DOPE   H5Y 7186   0.860   6.724   3.538
   56DOPE   C36 7187   0.806   6.519   3.574
   56DOPE   H6X 7188   0.734   6.442   3.539
   56DOPE   H6Y 7189   0.797   6.524   3.685
   56DOPE   C37 7190   0.949   6.481   3.540
   56DOPE   H7X 7191   0.956   6.373   3.558
   56DOPE   H7Y 7192   0.972   6.494   3.432
   56DOPE   C38 7193   1.050   6.566   3.620
   56DOPE   H8X 7194   1.013   6.666   3.645
   56DOPE   H8Y 7195   1.141   6.579   3.556
   56DOPE   C39 7196   1.084   6.489   3.742
   56DOPE   H9X 7197   1.103   6.387   3.713
   56DOPE  C310 7198   1.071   6.518   3.873
   56DOPE  H10X 7199   1.105   6.441   3.943
   56DOPE  C311 7200   1.016   6.640   3.940
   56DOPE  H11X 7201   0.987   6.718   3.866
   56DOPE  H11Y 7202   0.923   6.611   3.994
   56DOPE  C312 7203   1.112   6.700   4.045
   56DOPE  H12X 7204   1.060   6.789   4.084
   56DOPE  H12Y 7205   1.207   6.731   3.997
   56DOPE  C313 7206   1.137   6.610   4.167
   56DOPE  H13X 7207   1.037   6.587   4.210
   56DOPE  H13Y 7208   1.184   6.517   4.132
   56DOPE  C314 7209   1.229   6.661   4.278
   56DOPE  H14X 7210   1.235   6.771   4.272
   56DOPE  H14Y 7211   1.332   6.624   4.258
   56DOPE  C315 7212   1.188   6.614   4.419
   56DOPE  H15X 7213   1.269   6.643   4.489
   56DOPE  H15Y 7214   1.183   6.504   4.419
   56DOPE  C316 7215   1.055   6.672   4.468
   56DOPE  H16X 7216   0.974   6.639   4.400
   56DOPE  H16Y 7217   1.064   6.783   4.461
   56DOPE  C317 7218   1.011   6.642   4.613
   56DOPE  H17X 7219   1.026   6.734   4.673
   56DOPE  H17Y 7220   0.901   6.624   4.613
   56DOPE  C318 7221   1.081   6.525   4.683
   56DOPE  H18X 7222   1.053   6.522   4.791
   56DOPE  H18Y 7223   1.054   6.428   4.638
   56DOPE  H18Z 7224   1.191   6.536   4.677
   57DOPE     N 7225  -0.021   2.083   2.986
   57DOPE   HN1 7226   0.048   2.042   2.920
   57DOPE   HN2 7227   0.033   2.139   3.057
   57DOPE   HN3 7228  -0.082   2.012   3.031
   57DOPE   C12 7229  -0.104   2.191   2.924
   57DOPE  H12A 7230  -0.211   2.161   2.922
   57DOPE  H12B 7231  -0.065   2.209   2.822
   57DOPE   C11 7232  -0.081   2.316   3.007
   57DOPE  H11A 7233  -0.123   2.301   3.109
   57DOPE  H11B 7234  -0.139   2.400   2.959
   57DOPE     P 7235   0.092   2.495   3.054
   57DOPE   O13 7236  -0.017   2.537   3.143
   57DOPE   O14 7237   0.106   2.570   2.927
   57DOPE   O11 7238   0.232   2.498   3.132
   57DOPE   O12 7239   0.061   2.343   3.017
   57DOPE    C1 7240   0.343   2.578   3.084
   57DOPE    HA 7241   0.308   2.678   3.053
   57DOPE    HB 7242   0.384   2.528   2.993
   57DOPE    C2 7243   0.466   2.594   3.184
   57DOPE    HS 7244   0.559   2.585   3.124
   57DOPE   O21 7245   0.467   2.491   3.283
   57DOPE   C21 7246   0.449   2.366   3.247
   57DOPE   O22 7247   0.461   2.319   3.134
   57DOPE   C22 7248   0.440   2.281   3.377
   57DOPE   H2R 7249   0.490   2.338   3.458
   57DOPE   H2S 7250   0.503   2.192   3.358
   57DOPE    C3 7251   0.483   2.733   3.265
   57DOPE    HX 7252   0.539   2.804   3.203
   57DOPE    HY 7253   0.553   2.706   3.347
   57DOPE   O31 7254   0.362   2.799   3.318
   57DOPE   C31 7255   0.380   2.870   3.436
   57DOPE   O32 7256   0.490   2.886   3.484
   57DOPE   C32 7257   0.246   2.918   3.507
   57DOPE   H2X 7258   0.269   3.022   3.539
   57DOPE   H2Y 7259   0.173   2.929   3.427
   57DOPE   C23 7260   0.302   2.229   3.430
   57DOPE   H3R 7261   0.262   2.156   3.356
   57DOPE   H3S 7262   0.222   2.300   3.451
   57DOPE   C24 7263   0.317   2.161   3.566
   57DOPE   H4R 7264   0.417   2.118   3.560
   57DOPE   H4S 7265   0.239   2.083   3.577
   57DOPE   C25 7266   0.324   2.246   3.694
   57DOPE   H5R 7267   0.238   2.315   3.700
   57DOPE   H5S 7268   0.416   2.307   3.695
   57DOPE   C26 7269   0.327   2.152   3.816
   57DOPE   H6R 7270   0.434   2.142   3.848
   57DOPE   H6S 7271   0.294   2.054   3.778
   57DOPE   C27 7272   0.236   2.182   3.938
   57DOPE   H7R 7273   0.280   2.271   3.988
   57DOPE   H7S 7274   0.240   2.099   4.011
   57DOPE   C28 7275   0.088   2.209   3.902
   57DOPE   H8R 7276   0.085   2.223   3.792
   57DOPE   H8S 7277   0.063   2.309   3.940
   57DOPE   C29 7278  -0.028   2.118   3.934
   57DOPE   H9R 7279  -0.057   2.057   3.847
   57DOPE  C210 7280  -0.093   2.091   4.048
   57DOPE  H10R 7281  -0.183   2.029   4.037
   57DOPE  C211 7282  -0.080   2.136   4.191
   57DOPE  H11R 7283   0.025   2.146   4.224
   57DOPE  H11S 7284  -0.113   2.042   4.241
   57DOPE  C212 7285  -0.177   2.236   4.261
   57DOPE  H12R 7286  -0.274   2.232   4.207
   57DOPE  H12S 7287  -0.148   2.342   4.266
   57DOPE  C213 7288  -0.200   2.193   4.407
   57DOPE  H13R 7289  -0.252   2.098   4.388
   57DOPE  H13S 7290  -0.271   2.259   4.460
   57DOPE  C214 7291  -0.075   2.161   4.493
   57DOPE  H14R 7292   0.014   2.140   4.430
   57DOPE  H14S 7293  -0.092   2.066   4.548
   57DOPE  C215 7294  -0.040   2.266   4.598
   57DOPE  H15R 7295  -0.116   2.347   4.595
   57DOPE  H15S 7296   0.057   2.315   4.577
   57DOPE  C216 7297  -0.019   2.212   4.739
   57DOPE  H16R 7298   0.091   2.206   4.760
   57DOPE  H16S 7299  -0.058   2.110   4.750
   57DOPE  C217 7300  -0.087   2.302   4.841
   57DOPE  H17R 7301  -0.047   2.405   4.832
   57DOPE  H17S 7302  -0.058   2.263   4.941
   57DOPE  C218 7303  -0.239   2.305   4.826
   57DOPE  H18R 7304  -0.286   2.358   4.911
   57DOPE  H18S 7305  -0.278   2.201   4.825
   57DOPE  H18T 7306  -0.272   2.354   4.732
   57DOPE   C33 7307   0.182   2.839   3.632
   57DOPE   H3X 7308   0.218   2.879   3.729
   57DOPE   H3Y 7309   0.228   2.745   3.627
   57DOPE   C34 7310   0.034   2.782   3.647
   57DOPE   H4X 7311  -0.033   2.811   3.566
   57DOPE   H4Y 7312   0.041   2.671   3.645
   57DOPE   C35 7313  -0.031   2.808   3.784
   57DOPE   H5X 7314  -0.053   2.915   3.786
   57DOPE   H5Y 7315   0.048   2.785   3.858
   57DOPE   C36 7316  -0.165   2.748   3.837
   57DOPE   H6X 7317  -0.162   2.638   3.845
   57DOPE   H6Y 7318  -0.249   2.776   3.770
   57DOPE   C37 7319  -0.180   2.818   3.975
   57DOPE   H7X 7320  -0.074   2.835   4.008
   57DOPE   H7Y 7321  -0.225   2.918   3.955
   57DOPE   C38 7322  -0.246   2.756   4.100
   57DOPE   H8X 7323  -0.200   2.659   4.129
   57DOPE   H8Y 7324  -0.354   2.738   4.081
   57DOPE   C39 7325  -0.220   2.865   4.203
   57DOPE   H9X 7326  -0.307   2.930   4.222
   57DOPE  C310 7327  -0.106   2.888   4.275
   57DOPE  H10X 7328  -0.107   2.973   4.345
   57DOPE  C311 7329   0.025   2.809   4.276
   57DOPE  H11X 7330   0.006   2.777   4.378
   57DOPE  H11Y 7331   0.016   2.721   4.214
   57DOPE  C312 7332   0.177   2.860   4.283
   57DOPE  H12X 7333   0.175   2.921   4.373
   57DOPE  H12Y 7334   0.185   2.928   4.196
   57DOPE  C313 7335   0.324   2.788   4.288
   57DOPE  H13X 7336   0.354   2.786   4.181
   57DOPE  H13Y 7337   0.388   2.867   4.334
   57DOPE  C314 7338   0.389   2.652   4.345
   57DOPE  H14X 7339   0.491   2.646   4.300
   57DOPE  H14Y 7340   0.334   2.566   4.310
   57DOPE  C315 7341   0.412   2.625   4.496
   57DOPE  H15X 7342   0.308   2.638   4.518
   57DOPE  H15Y 7343   0.470   2.705   4.546
   57DOPE  C316 7344   0.446   2.483   4.559
   57DOPE  H16X 7345   0.553   2.462   4.540
   57DOPE  H16Y 7346   0.389   2.404   4.506
   57DOPE  C317 7347   0.422   2.459   4.714
   57DOPE  H17X 7348   0.468   2.360   4.740
   57DOPE  H17Y 7349   0.480   2.534   4.771
   57DOPE  C318 7350   0.278   2.452   4.769
   57DOPE  H18X 7351   0.260   2.433   4.875
   57DOPE  H18Y 7352   0.229   2.550   4.762
   57DOPE  H18Z 7353   0.219   2.375   4.715
   58DOPE     N 7354   7.496   5.884   2.802
   58DOPE   HN1 7355   7.417   5.828   2.843
   58DOPE   HN2 7356   7.483   5.880   2.698
   58DOPE   HN3 7357   7.587   5.840   2.821
   58DOPE   C12 7358   7.496   6.022   2.864
   58DOPE  H12A 7359   7.418   6.081   2.813
   58DOPE  H12B 7360   7.595   6.068   2.846
   58DOPE   C11 7361   7.468   6.019   3.016
   58DOPE  H11A 7362   7.453   6.122   3.055
   58DOPE  H11B 7363   7.560   5.983   3.067
   58DOPE     P 7364   7.291   5.927   3.187
   58DOPE   O13 7365   7.157   5.866   3.179
   58DOPE   O14 7366   7.311   6.056   3.256
   58DOPE   O11 7367   7.388   5.821   3.252
   58DOPE   O12 7368   7.353   5.936   3.040
   58DOPE    C1 7369   7.480   5.739   3.179
   58DOPE    HA 7370   7.551   5.798   3.118
   58DOPE    HB 7371   7.426   5.675   3.107
   58DOPE    C2 7372   7.575   5.655   3.271
   58DOPE    HS 7373   7.593   5.556   3.222
   58DOPE   O21 7374   7.527   5.648   3.408
   58DOPE   C21 7375   7.476   5.529   3.434
   58DOPE   O22 7376   7.462   5.441   3.352
   58DOPE   C22 7377   7.459   5.501   3.586
   58DOPE   H2R 7378   7.554   5.525   3.636
   58DOPE   H2S 7379   7.441   5.391   3.591
   58DOPE    C3 7380   7.715   5.721   3.272
   58DOPE    HX 7381   7.762   5.707   3.173
   58DOPE    HY 7382   7.775   5.665   3.349
   58DOPE   O31 7383   7.701   5.862   3.299
   58DOPE   C31 7384   7.788   5.910   3.384
   58DOPE   O32 7385   7.898   5.859   3.405
   58DOPE   C32 7386   7.730   6.039   3.446
   58DOPE   H2X 7387   7.810   6.114   3.460
   58DOPE   H2Y 7388   7.654   6.081   3.376
   58DOPE   C23 7389   7.340   5.563   3.661
   58DOPE   H3R 7390   7.307   5.493   3.741
   58DOPE   H3S 7391   7.254   5.575   3.593
   58DOPE   C24 7392   7.372   5.696   3.727
   58DOPE   H4R 7393   7.429   5.762   3.657
   58DOPE   H4S 7394   7.434   5.681   3.817
   58DOPE   C25 7395   7.243   5.768   3.765
   58DOPE   H5R 7396   7.178   5.702   3.827
   58DOPE   H5S 7397   7.188   5.794   3.672
   58DOPE   C26 7398   7.272   5.895   3.843
   58DOPE   H6R 7399   7.348   5.954   3.788
   58DOPE   H6S 7400   7.315   5.865   3.942
   58DOPE   C27 7401   7.147   5.980   3.867
   58DOPE   H7R 7402   7.059   5.913   3.877
   58DOPE   H7S 7403   7.130   6.045   3.778
   58DOPE   C28 7404   7.161   6.064   3.995
   58DOPE   H8R 7405   7.175   5.994   4.080
   58DOPE   H8S 7406   7.066   6.120   4.012
   58DOPE   C29 7407   7.280   6.157   3.984
   58DOPE   H9R 7408   7.361   6.122   3.920
   58DOPE  C210 7409   7.298   6.273   4.049
   58DOPE  H10R 7410   7.391   6.329   4.031
   58DOPE  C211 7411   7.205   6.337   4.147
   58DOPE  H11R 7412   7.117   6.274   4.171
   58DOPE  H11S 7413   7.166   6.428   4.099
   58DOPE  C212 7414   7.281   6.380   4.274
   58DOPE  H12R 7415   7.207   6.424   4.345
   58DOPE  H12S 7416   7.354   6.459   4.248
   58DOPE  C213 7417   7.349   6.264   4.349
   58DOPE  H13R 7418   7.414   6.305   4.429
   58DOPE  H13S 7419   7.413   6.206   4.280
   58DOPE  C214 7420   7.240   6.176   4.410
   58DOPE  H14R 7421   7.163   6.159   4.332
   58DOPE  H14S 7422   7.191   6.233   4.492
   58DOPE  C215 7423   7.281   6.037   4.456
   58DOPE  H15R 7424   7.340   6.042   4.550
   58DOPE  H15S 7425   7.344   5.986   4.379
   58DOPE  C216 7426   7.152   5.956   4.475
   58DOPE  H16R 7427   7.172   5.849   4.484
   58DOPE  H16S 7428   7.085   5.969   4.386
   58DOPE  C217 7429   7.079   5.996   4.600
   58DOPE  H17R 7430   6.984   5.938   4.600
   58DOPE  H17S 7431   7.057   6.105   4.597
   58DOPE  C218 7432   7.146   5.963   4.730
   58DOPE  H18R 7433   7.121   5.859   4.761
   58DOPE  H18S 7434   7.112   6.034   4.808
   58DOPE  H18T 7435   7.256   5.973   4.723
   58DOPE   C33 7436   7.657   6.012   3.579
   58DOPE   H3X 7437   7.561   5.958   3.562
   58DOPE   H3Y 7438   7.630   6.110   3.625
   58DOPE   C34 7439   7.742   5.933   3.679
   58DOPE   H4X 7440   7.736   5.825   3.655
   58DOPE   H4Y 7441   7.849   5.964   3.673
   58DOPE   C35 7442   7.691   5.958   3.821
   58DOPE   H5X 7443   7.586   5.923   3.825
   58DOPE   H5Y 7444   7.693   6.067   3.842
   58DOPE   C36 7445   7.775   5.887   3.926
   58DOPE   H6X 7446   7.882   5.917   3.916
   58DOPE   H6Y 7447   7.771   5.777   3.907
   58DOPE   C37 7448   7.728   5.918   4.069
   58DOPE   H7X 7449   7.794   5.864   4.139
   58DOPE   H7Y 7450   7.741   6.027   4.088
   58DOPE   C38 7451   7.581   5.882   4.095
   58DOPE   H8X 7452   7.512   5.935   4.026
   58DOPE   H8Y 7453   7.553   5.915   4.197
   58DOPE   C39 7454   7.569   5.733   4.078
   58DOPE   H9X 7455   7.574   5.696   3.975
   58DOPE  C310 7456   7.561   5.645   4.179
   58DOPE  H10X 7457   7.566   5.538   4.155
   58DOPE  C311 7458   7.562   5.681   4.324
   58DOPE  H11X 7459   7.484   5.757   4.347
   58DOPE  H11Y 7460   7.537   5.590   4.381
   58DOPE  C312 7461   7.698   5.732   4.378
   58DOPE  H12X 7462   7.716   5.834   4.339
   58DOPE  H12Y 7463   7.779   5.667   4.338
   58DOPE  C313 7464   7.702   5.735   4.532
   58DOPE  H13X 7465   7.623   5.668   4.569
   58DOPE  H13Y 7466   7.799   5.695   4.567
   58DOPE  C314 7467   7.683   5.879   4.585
   58DOPE  H14X 7468   7.581   5.914   4.559
   58DOPE  H14Y 7469   7.755   5.944   4.531
   58DOPE  C315 7470   7.707   5.902   4.736
   58DOPE  H15X 7471   7.801   5.854   4.769
   58DOPE  H15Y 7472   7.626   5.859   4.798
   58DOPE  C316 7473   7.709   6.053   4.768
   58DOPE  H16X 7474   7.653   6.106   4.687
   58DOPE  H16Y 7475   7.814   6.089   4.766
   58DOPE  C317 7476   7.642   6.093   4.901
   58DOPE  H17X 7477   7.644   6.204   4.910
   58DOPE  H17Y 7478   7.535   6.063   4.896
   58DOPE  C318 7479   7.707   6.033   5.026
   58DOPE  H18X 7480   7.652   6.064   5.118
   58DOPE  H18Y 7481   7.705   5.922   5.020
   58DOPE  H18Z 7482   7.812   6.065   5.034
   59DOPE     N 7483  -0.175   0.989   2.844
   59DOPE   HN1 7484  -0.222   1.001   2.936
   59DOPE   HN2 7485  -0.205   1.066   2.781
   59DOPE   HN3 7486  -0.197   0.894   2.806
   59DOPE   C12 7487  -0.032   1.006   2.883
   59DOPE  H12A 7488   0.031   1.012   2.792
   59DOPE  H12B 7489  -0.005   0.917   2.942
   59DOPE   C11 7490  -0.019   1.134   2.966
   59DOPE  H11A 7491  -0.030   1.221   2.897
   59DOPE  H11B 7492   0.083   1.142   3.011
   59DOPE     P 7493  -0.101   1.073   3.207
   59DOPE   O13 7494  -0.053   0.936   3.180
   59DOPE   O14 7495  -0.226   1.093   3.282
   59DOPE   O11 7496   0.018   1.158   3.269
   59DOPE   O12 7497  -0.122   1.142   3.065
   59DOPE    C1 7498   0.031   1.299   3.256
   59DOPE    HA 7499  -0.054   1.344   3.199
   59DOPE    HB 7500   0.125   1.321   3.201
   59DOPE    C2 7501   0.041   1.377   3.392
   59DOPE    HS 7502   0.069   1.482   3.367
   59DOPE   O21 7503   0.136   1.316   3.483
   59DOPE   C21 7504   0.250   1.378   3.505
   59DOPE   O22 7505   0.289   1.479   3.450
   59DOPE   C22 7506   0.332   1.296   3.605
   59DOPE   H2R 7507   0.439   1.314   3.584
   59DOPE   H2S 7508   0.309   1.190   3.584
   59DOPE    C3 7509  -0.099   1.386   3.461
   59DOPE    HX 7510  -0.172   1.417   3.384
   59DOPE    HY 7511  -0.097   1.466   3.539
   59DOPE   O31 7512  -0.142   1.259   3.513
   59DOPE   C31 7513  -0.098   1.230   3.634
   59DOPE   O32 7514  -0.048   1.310   3.712
   59DOPE   C32 7515  -0.132   1.087   3.671
   59DOPE   H2X 7516  -0.141   1.082   3.781
   59DOPE   H2Y 7517  -0.232   1.066   3.626
   59DOPE   C23 7518   0.298   1.327   3.753
   59DOPE   H3R 7519   0.188   1.337   3.765
   59DOPE   H3S 7520   0.345   1.423   3.783
   59DOPE   C24 7521   0.346   1.215   3.845
   59DOPE   H4R 7522   0.453   1.201   3.822
   59DOPE   H4S 7523   0.291   1.122   3.820
   59DOPE   C25 7524   0.331   1.237   3.996
   59DOPE   H5R 7525   0.334   1.138   4.047
   59DOPE   H5S 7526   0.232   1.284   4.017
   59DOPE   C26 7527   0.445   1.320   4.056
   59DOPE   H6R 7528   0.463   1.409   3.992
   59DOPE   H6S 7529   0.540   1.262   4.052
   59DOPE   C27 7530   0.421   1.362   4.202
   59DOPE   H7R 7531   0.314   1.377   4.226
   59DOPE   H7S 7532   0.470   1.458   4.217
   59DOPE   C28 7533   0.506   1.292   4.307
   59DOPE   H8R 7534   0.561   1.368   4.367
   59DOPE   H8S 7535   0.584   1.237   4.253
   59DOPE   C29 7536   0.432   1.204   4.401
   59DOPE   H9R 7537   0.322   1.200   4.393
   59DOPE  C210 7538   0.497   1.134   4.495
   59DOPE  H10R 7539   0.436   1.067   4.557
   59DOPE  C211 7540   0.648   1.133   4.519
   59DOPE  H11R 7541   0.698   1.218   4.466
   59DOPE  H11S 7542   0.691   1.040   4.477
   59DOPE  C212 7543   0.692   1.141   4.667
   59DOPE  H12R 7544   0.662   1.240   4.707
   59DOPE  H12S 7545   0.802   1.134   4.674
   59DOPE  C213 7546   0.627   1.031   4.751
   59DOPE  H13R 7547   0.664   0.931   4.724
   59DOPE  H13S 7548   0.523   1.031   4.719
   59DOPE  C214 7549   0.617   1.049   4.903
   59DOPE  H14R 7550   0.610   1.158   4.927
   59DOPE  H14S 7551   0.709   1.010   4.953
   59DOPE  C215 7552   0.494   0.976   4.961
   59DOPE  H15R 7553   0.490   0.990   5.070
   59DOPE  H15S 7554   0.514   0.869   4.954
   59DOPE  C216 7555   0.357   1.013   4.900
   59DOPE  H16R 7556   0.352   1.006   4.789
   59DOPE  H16S 7557   0.336   1.118   4.925
   59DOPE  C217 7558   0.243   0.923   4.945
   59DOPE  H17R 7559   0.253   0.907   5.054
   59DOPE  H17S 7560   0.256   0.829   4.890
   59DOPE  C218 7561   0.101   0.969   4.913
   59DOPE  H18R 7562   0.027   0.898   4.957
   59DOPE  H18S 7563   0.084   0.975   4.804
   59DOPE  H18T 7564   0.081   1.068   4.959
   59DOPE   C33 7565  -0.032   0.982   3.615
   59DOPE   H3X 7566   0.006   1.013   3.515
   59DOPE   H3Y 7567  -0.090   0.888   3.599
   59DOPE   C34 7568   0.086   0.945   3.707
   59DOPE   H4X 7569   0.127   0.850   3.668
   59DOPE   H4Y 7570   0.165   1.023   3.695
   59DOPE   C35 7571   0.054   0.923   3.855
   59DOPE   H5X 7572   0.028   1.021   3.901
   59DOPE   H5Y 7573   0.145   0.886   3.908
   59DOPE   C36 7574  -0.062   0.824   3.877
   59DOPE   H6X 7575  -0.040   0.727   3.829
   59DOPE   H6Y 7576  -0.153   0.861   3.825
   59DOPE   C37 7577  -0.097   0.800   4.024
   59DOPE   H7X 7578  -0.160   0.708   4.030
   59DOPE   H7Y 7579  -0.004   0.781   4.083
   59DOPE   C38 7580  -0.173   0.920   4.079
   59DOPE   H8X 7581  -0.253   0.948   4.006
   59DOPE   H8Y 7582  -0.100   1.004   4.081
   59DOPE   C39 7583  -0.236   0.896   4.214
   59DOPE   H9X 7584  -0.271   0.793   4.234
   59DOPE  C310 7585  -0.255   0.992   4.305
   59DOPE  H10X 7586  -0.300   0.967   4.402
   59DOPE  C311 7587  -0.217   1.137   4.285
   59DOPE  H11X 7588  -0.167   1.157   4.188
   59DOPE  H11Y 7589  -0.308   1.200   4.285
   59DOPE  C312 7590  -0.126   1.187   4.396
   59DOPE  H12X 7591  -0.082   1.284   4.363
   59DOPE  H12Y 7592  -0.041   1.118   4.415
   59DOPE  C313 7593  -0.204   1.213   4.524
   59DOPE  H13X 7594  -0.305   1.252   4.499
   59DOPE  H13Y 7595  -0.220   1.117   4.579
   59DOPE  C314 7596  -0.134   1.315   4.612
   59DOPE  H14X 7597  -0.194   1.324   4.704
   59DOPE  H14Y 7598  -0.134   1.416   4.567
   59DOPE  C315 7599   0.011   1.283   4.636
   59DOPE  H15X 7600   0.070   1.292   4.542
   59DOPE  H15Y 7601   0.017   1.177   4.669
   59DOPE  C316 7602   0.074   1.374   4.741
   59DOPE  H16X 7603   0.000   1.399   4.820
   59DOPE  H16Y 7604   0.108   1.470   4.697
   59DOPE  C317 7605   0.188   1.299   4.806
   59DOPE  H17X 7606   0.217   1.351   4.899
   59DOPE  H17Y 7607   0.151   1.199   4.833
   59DOPE  C318 7608   0.305   1.286   4.712
   59DOPE  H18X 7609   0.331   1.387   4.681
   59DOPE  H18Y 7610   0.394   1.240   4.760
   59DOPE  H18Z 7611   0.276   1.228   4.622
   60DOPE     N 7612   7.693   7.618   3.237
   60DOPE   HN1 7613   7.712   7.551   3.159
   60DOPE   HN2 7614   7.700   7.715   3.201
   60DOPE   HN3 7615   7.761   7.599   3.314
   60DOPE   C12 7616   7.551   7.585   3.270
   60DOPE  H12A 7617   7.485   7.644   3.203
   60DOPE  H12B 7618   7.529   7.610   3.376
   60DOPE   C11 7619   7.533   7.438   3.239
   60DOPE  H11A 7620   7.423   7.422   3.238
   60DOPE  H11B 7621   7.577   7.377   3.322
   60DOPE     P 7622   7.593   7.247   3.077
   60DOPE   O13 7623   7.708   7.182   3.138
   60DOPE   O14 7624   7.571   7.221   2.934
   60DOPE   O11 7625   7.465   7.208   3.151
   60DOPE   O12 7626   7.593   7.404   3.112
   60DOPE    C1 7627   7.341   7.227   3.084
   60DOPE    HA 7628   7.343   7.197   2.976
   60DOPE    HB 7629   7.310   7.333   3.090
   60DOPE    C2 7630   7.247   7.134   3.157
   60DOPE    HS 7631   7.143   7.151   3.121
   60DOPE   O21 7632   7.254   7.155   3.298
   60DOPE   C21 7633   7.219   7.277   3.334
   60DOPE   O22 7634   7.163   7.359   3.263
   60DOPE   C22 7635   7.242   7.293   3.482
   60DOPE   H2R 7636   7.295   7.204   3.523
   60DOPE   H2S 7637   7.141   7.298   3.529
   60DOPE    C3 7638   7.292   6.990   3.122
   60DOPE    HX 7639   7.291   6.987   3.011
   60DOPE    HY 7640   7.211   6.927   3.161
   60DOPE   O31 7641   7.425   6.951   3.166
   60DOPE   C31 7642   7.423   6.896   3.288
   60DOPE   O32 7643   7.327   6.835   3.332
   60DOPE   C32 7644   7.551   6.917   3.367
   60DOPE   H2X 7645   7.633   6.860   3.318
   60DOPE   H2Y 7646   7.579   7.024   3.364
   60DOPE   C23 7647   7.320   7.419   3.515
   60DOPE   H3R 7648   7.272   7.511   3.475
   60DOPE   H3S 7649   7.424   7.414   3.475
   60DOPE   C24 7650   7.324   7.429   3.666
   60DOPE   H4R 7651   7.253   7.357   3.712
   60DOPE   H4S 7652   7.285   7.529   3.694
   60DOPE   C25 7653   7.463   7.399   3.720
   60DOPE   H5R 7654   7.539   7.456   3.662
   60DOPE   H5S 7655   7.484   7.291   3.706
   60DOPE   C26 7656   7.473   7.438   3.867
   60DOPE   H6R 7657   7.568   7.402   3.912
   60DOPE   H6S 7658   7.390   7.382   3.916
   60DOPE   C27 7659   7.462   7.590   3.884
   60DOPE   H7R 7660   7.392   7.635   3.811
   60DOPE   H7S 7661   7.561   7.635   3.862
   60DOPE   C28 7662   7.412   7.636   4.022
   60DOPE   H8R 7663   7.394   7.746   4.016
   60DOPE   H8S 7664   7.492   7.623   4.097
   60DOPE   C29 7665   7.284   7.564   4.059
   60DOPE   H9R 7666   7.196   7.583   3.995
   60DOPE  C210 7667   7.271   7.467   4.149
   60DOPE  H10R 7668   7.172   7.422   4.164
   60DOPE  C211 7669   7.384   7.411   4.230
   60DOPE  H11R 7670   7.481   7.436   4.183
   60DOPE  H11S 7671   7.376   7.301   4.229
   60DOPE  C212 7672   7.392   7.455   4.377
   60DOPE  H12R 7673   7.434   7.558   4.382
   60DOPE  H12S 7674   7.463   7.387   4.427
   60DOPE  C213 7675   7.258   7.448   4.452
   60DOPE  H13R 7676   7.213   7.349   4.440
   60DOPE  H13S 7677   7.188   7.523   4.409
   60DOPE  C214 7678   7.274   7.463   4.603
   60DOPE  H14R 7679   7.360   7.400   4.635
   60DOPE  H14S 7680   7.183   7.422   4.652
   60DOPE  C215 7681   7.296   7.608   4.643
   60DOPE  H15R 7682   7.376   7.650   4.578
   60DOPE  H15S 7683   7.332   7.612   4.748
   60DOPE  C216 7684   7.170   7.694   4.629
   60DOPE  H16R 7685   7.111   7.684   4.723
   60DOPE  H16S 7686   7.106   7.657   4.546
   60DOPE  C217 7687   7.201   7.841   4.603
   60DOPE  H17R 7688   7.105   7.898   4.596
   60DOPE  H17S 7689   7.252   7.850   4.504
   60DOPE  C218 7690   7.290   7.903   4.711
   60DOPE  H18R 7691   7.297   8.013   4.700
   60DOPE  H18S 7692   7.392   7.861   4.709
   60DOPE  H18T 7693   7.246   7.881   4.809
   60DOPE   C33 7694   7.540   6.866   3.514
   60DOPE   H3X 7695   7.643   6.875   3.551
   60DOPE   H3Y 7696   7.512   6.758   3.521
   60DOPE   C34 7697   7.469   6.946   3.625
   60DOPE   H4X 7698   7.485   7.055   3.608
   60DOPE   H4Y 7699   7.360   6.926   3.625
   60DOPE   C35 7700   7.530   6.905   3.761
   60DOPE   H5X 7701   7.639   6.924   3.753
   60DOPE   H5Y 7702   7.518   6.795   3.775
   60DOPE   C36 7703   7.485   6.977   3.889
   60DOPE   H6X 7704   7.396   6.925   3.930
   60DOPE   H6Y 7705   7.458   7.083   3.866
   60DOPE   C37 7706   7.601   6.971   3.989
   60DOPE   H7X 7707   7.635   6.866   3.990
   60DOPE   H7Y 7708   7.684   7.032   3.948
   60DOPE   C38 7709   7.577   7.014   4.134
   60DOPE   H8X 7710   7.655   6.966   4.197
   60DOPE   H8Y 7711   7.478   6.976   4.169
   60DOPE   C39 7712   7.586   7.164   4.142
   60DOPE   H9X 7713   7.513   7.215   4.077
   60DOPE  C310 7714   7.665   7.242   4.219
   60DOPE  H10X 7715   7.658   7.351   4.206
   60DOPE  C311 7716   7.770   7.205   4.320
   60DOPE  H11X 7717   7.809   7.102   4.305
   60DOPE  H11Y 7718   7.855   7.276   4.309
   60DOPE  C312 7719   7.717   7.211   4.463
   60DOPE  H12X 7720   7.646   7.295   4.476
   60DOPE  H12Y 7721   7.802   7.232   4.531
   60DOPE  C313 7722   7.659   7.077   4.511
   60DOPE  H13X 7723   7.550   7.074   4.492
   60DOPE  H13Y 7724   7.705   6.996   4.451
   60DOPE  C314 7725   7.691   7.047   4.658
   60DOPE  H14X 7726   7.801   7.063   4.674
   60DOPE  H14Y 7727   7.670   6.940   4.677
   60DOPE  C315 7728   7.613   7.130   4.761
   60DOPE  H15X 7729   7.648   7.098   4.862
   60DOPE  H15Y 7730   7.505   7.105   4.754
   60DOPE  C316 7731   7.631   7.282   4.751
   60DOPE  H16X 7732   7.569   7.323   4.668
   60DOPE  H16Y 7733   7.738   7.305   4.729
   60DOPE  C317 7734   7.595   7.353   4.881
   60DOPE  H17X 7735   7.491   7.325   4.909
   60DOPE  H17Y 7736   7.666   7.313   4.957
   60DOPE  C318 7737   7.610   7.505   4.882
   60DOPE  H18X 7738   7.716   7.534   4.866
   60DOPE  H18Y 7739   7.548   7.552   4.803
   60DOPE  H18Z 7740   7.578   7.546   4.981
   6123SM     N 7741   3.236   4.336   7.724
   6123SM   C15 7742   3.123   4.310   7.629
   6123SM  H15A 7743   3.026   4.314   7.676
   6123SM  H15B 7744   3.138   4.212   7.582
   6123SM  H15C 7745   3.126   4.382   7.548
   6123SM   C14 7746   3.202   4.451   7.813
   6123SM  H14A 7747   3.192   4.543   7.756
   6123SM  H14B 7748   3.277   4.464   7.891
   6123SM  H14C 7749   3.106   4.433   7.860
   6123SM   C13 7750   3.259   4.213   7.807
   6123SM  H13A 7751   3.174   4.183   7.866
   6123SM  H13B 7752   3.345   4.223   7.873
   6123SM  H13C 7753   3.281   4.130   7.741
   6123SM   C12 7754   3.361   4.369   7.644
   6123SM  H12A 7755   3.445   4.366   7.713
   6123SM  H12B 7756   3.354   4.470   7.605
   6123SM   C11 7757   3.398   4.274   7.528
   6123SM  H11A 7758   3.487   4.313   7.474
   6123SM  H11B 7759   3.315   4.269   7.453
   6123SM     P 7760   3.385   4.010   7.522
   6123SM   O13 7761   3.477   3.901   7.561
   6123SM   O14 7762   3.242   3.994   7.557
   6123SM   O11 7763   3.404   4.045   7.370
   6123SM   O12 7764   3.432   4.147   7.583
   6123SM   C1S 7765   3.305   4.038   7.270
   6123SM   H1S 7766   3.251   4.135   7.261
   6123SM   H1T 7767   3.229   3.960   7.293
   6123SM    NF 7768   3.478   4.102   7.104
   6123SM   HNF 7769   3.450   4.196   7.088
   6123SM   C2S 7770   3.373   4.006   7.134
   6123SM   H2S 7771   3.418   3.904   7.141
   6123SM   C3S 7772   3.264   4.006   7.026
   6123SM   H3S 7773   3.202   4.098   7.031
   6123SM    O3 7774   3.179   3.892   7.047
   6123SM   HO3 7775   3.208   3.858   7.132
   6123SM   C4S 7776   3.331   3.993   6.891
   6123SM   H4S 7777   3.368   3.892   6.874
   6123SM   C5S 7778   3.353   4.090   6.800
   6123SM   H5S 7779   3.316   4.191   6.822
   6123SM   C6S 7780   3.421   4.072   6.665
   6123SM   H6S 7781   3.363   4.129   6.591
   6123SM   H6T 7782   3.418   3.967   6.633
   6123SM   C7S 7783   3.570   4.110   6.647
   6123SM   H7S 7784   3.633   4.035   6.698
   6123SM   H7T 7785   3.589   4.208   6.697
   6123SM   C8S 7786   3.611   4.130   6.499
   6123SM   H8S 7787   3.719   4.155   6.493
   6123SM   H8T 7788   3.557   4.222   6.466
   6123SM   C9S 7789   3.578   4.021   6.393
   6123SM   H9S 7790   3.473   3.985   6.409
   6123SM   H9T 7791   3.645   3.934   6.406
   6123SM  C10S 7792   3.589   4.076   6.248
   6123SM  H10S 7793   3.693   4.112   6.232
   6123SM  H10T 7794   3.523   4.165   6.241
   6123SM  C11S 7795   3.551   3.980   6.131
   6123SM  H11S 7796   3.444   3.951   6.142
   6123SM  H11T 7797   3.609   3.887   6.140
   6123SM  C12S 7798   3.576   4.039   5.989
   6123SM  H12S 7799   3.673   4.091   5.988
   6123SM  H12T 7800   3.499   4.114   5.962
   6123SM  C13S 7801   3.576   3.934   5.876
   6123SM  H13S 7802   3.490   3.868   5.891
   6123SM  H13T 7803   3.668   3.871   5.886
   6123SM  C14S 7804   3.572   3.992   5.732
   6123SM  H14S 7805   3.637   3.930   5.667
   6123SM  H14T 7806   3.617   4.094   5.734
   6123SM  C15S 7807   3.431   4.002   5.667
   6123SM  H15S 7808   3.408   4.110   5.653
   6123SM  H15T 7809   3.354   3.962   5.736
   6123SM  C16S 7810   3.427   3.933   5.529
   6123SM  H16S 7811   3.479   3.836   5.545
   6123SM  H16T 7812   3.486   3.996   5.459
   6123SM  C17S 7813   3.293   3.898   5.459
   6123SM  H17S 7814   3.218   3.977   5.474
   6123SM  H17T 7815   3.252   3.805   5.504
   6123SM  C18S 7816   3.309   3.879   5.307
   6123SM  H18S 7817   3.337   3.975   5.259
   6123SM  H18T 7818   3.214   3.844   5.261
   6123SM  H18U 7819   3.389   3.806   5.283
   6123SM   C1F 7820   3.607   4.079   7.119
   6123SM    OF 7821   3.652   3.967   7.140
   6123SM   C2F 7822   3.696   4.197   7.096
   6123SM   H2F 7823   3.718   4.202   6.988
   6123SM   H2G 7824   3.793   4.176   7.147
   6123SM   C3F 7825   3.640   4.334   7.145
   6123SM   H3F 7826   3.725   4.406   7.140
   6123SM   H3G 7827   3.612   4.326   7.253
   6123SM   C4F 7828   3.524   4.399   7.067
   6123SM   H4F 7829   3.516   4.505   7.100
   6123SM   H4G 7830   3.427   4.352   7.093
   6123SM   C5F 7831   3.538   4.396   6.914
   6123SM   H5F 7832   3.545   4.291   6.881
   6123SM   H5G 7833   3.631   4.449   6.884
   6123SM   C6F 7834   3.418   4.460   6.840
   6123SM   H6F 7835   3.410   4.568   6.867
   6123SM   H6G 7836   3.323   4.411   6.872
   6123SM   C7F 7837   3.430   4.447   6.687
   6123SM   H7F 7838   3.425   4.341   6.658
   6123SM   H7G 7839   3.529   4.485   6.656
   6123SM   C8F 7840   3.321   4.521   6.607
   6123SM   H8F 7841   3.329   4.629   6.630
   6123SM   H8G 7842   3.221   4.486   6.639
   6123SM   C9F 7843   3.335   4.500   6.455
   6123SM   H9F 7844   3.442   4.503   6.426
   6123SM   H9G 7845   3.284   4.584   6.402
   6123SM  C10F 7846   3.271   4.370   6.408
   6123SM  H10F 7847   3.163   4.370   6.436
   6123SM  H10G 7848   3.320   4.285   6.461
   6123SM  C11F 7849   3.283   4.346   6.258
   6123SM  H11F 7850   3.391   4.343   6.231
   6123SM  H11G 7851   3.236   4.429   6.201
   6123SM  C12F 7852   3.217   4.213   6.220
   6123SM  H12F 7853   3.108   4.216   6.240
   6123SM  H12G 7854   3.262   4.133   6.284
   6123SM  C13F 7855   3.244   4.177   6.074
   6123SM  H13F 7856   3.229   4.067   6.061
   6123SM  H13G 7857   3.350   4.201   6.053
   6123SM  C14F 7858   3.158   4.252   5.972
   6123SM  H14F 7859   3.184   4.360   5.972
   6123SM  H14G 7860   3.051   4.242   6.000
   6123SM  C15F 7861   3.179   4.193   5.832
   6123SM  H15F 7862   3.171   4.082   5.841
   6123SM  H15G 7863   3.282   4.216   5.798
   6123SM  C16F 7864   3.077   4.239   5.728
   6123SM  H16F 7865   3.095   4.346   5.702
   6123SM  H16G 7866   2.975   4.232   5.772
   6123SM  C17F 7867   3.082   4.152   5.602
   6123SM  H17F 7868   3.073   4.045   5.635
   6123SM  H17G 7869   3.180   4.165   5.552
   6123SM  C18F 7870   2.969   4.182   5.503
   6123SM  H18F 7871   2.992   4.275   5.447
   6123SM  H18G 7872   2.877   4.203   5.563
   6123SM  C19F 7873   2.933   4.065   5.408
   6123SM  H19F 7874   2.823   4.069   5.390
   6123SM  H19G 7875   2.954   3.968   5.459
   6123SM  C20F 7876   3.000   4.067   5.269
   6123SM  H20F 7877   2.957   3.985   5.207
   6123SM  H20G 7878   3.109   4.049   5.280
   6123SM  C21F 7879   2.982   4.200   5.196
   6123SM  H21F 7880   3.055   4.271   5.243
   6123SM  H21G 7881   2.879   4.237   5.211
   6123SM  C22F 7882   3.014   4.198   5.046
   6123SM  H22F 7883   2.952   4.121   4.996
   6123SM  H22G 7884   3.119   4.167   5.037
   6123SM  C23F 7885   3.000   4.334   4.976
   6123SM  H23F 7886   3.051   4.332   4.876
   6123SM  H23G 7887   3.049   4.413   5.036
   6123SM  H23H 7888   2.894   4.361   4.961
   6223SM     N 7889   3.422   3.245   7.764
   6223SM   C15 7890   3.314   3.144   7.744
   6223SM  H15A 7891   3.218   3.184   7.775
   6223SM  H15B 7892   3.332   3.049   7.792
   6223SM  H15C 7893   3.305   3.128   7.636
   6223SM   C14 7894   3.443   3.267   7.911
   6223SM  H14A 7895   3.491   3.178   7.953
   6223SM  H14B 7896   3.350   3.284   7.964
   6223SM  H14C 7897   3.507   3.351   7.934
   6223SM   C13 7898   3.551   3.193   7.709
   6223SM  H13A 7899   3.632   3.263   7.724
   6223SM  H13B 7900   3.542   3.178   7.602
   6223SM  H13C 7901   3.577   3.098   7.754
   6223SM   C12 7902   3.385   3.374   7.690
   6223SM  H12A 7903   3.460   3.449   7.713
   6223SM  H12B 7904   3.288   3.413   7.722
   6223SM   C11 7905   3.375   3.367   7.534
   6223SM  H11A 7906   3.475   3.343   7.492
   6223SM  H11B 7907   3.350   3.469   7.496
   6223SM     P 7908   3.127   3.301   7.473
   6223SM   O13 7909   3.057   3.170   7.475
   6223SM   O14 7910   3.095   3.400   7.578
   6223SM   O11 7911   3.118   3.366   7.327
   6223SM   O12 7912   3.282   3.269   7.489
   6223SM   C1S 7913   3.191   3.305   7.221
   6223SM   H1S 7914   3.176   3.194   7.223
   6223SM   H1T 7915   3.301   3.323   7.231
   6223SM    NF 7916   3.206   3.469   7.024
   6223SM   HNF 7917   3.146   3.539   6.989
   6223SM   C2S 7918   3.142   3.348   7.078
   6223SM   H2S 7919   3.165   3.264   7.009
   6223SM   C3S 7920   2.987   3.367   7.081
   6223SM   H3S 7921   2.959   3.443   7.157
   6223SM    O3 7922   2.911   3.250   7.112
   6223SM   HO3 7923   2.967   3.194   7.166
   6223SM   C4S 7924   2.947   3.419   6.945
   6223SM   H4S 7925   2.958   3.527   6.935
   6223SM   C5S 7926   2.897   3.350   6.840
   6223SM   H5S 7927   2.874   3.243   6.853
   6223SM   C6S 7928   2.864   3.410   6.707
   6223SM   H6S 7929   2.883   3.520   6.703
   6223SM   H6T 7930   2.757   3.395   6.679
   6223SM   C7S 7931   2.958   3.339   6.605
   6223SM   H7S 7932   2.923   3.235   6.591
   6223SM   H7T 7933   3.063   3.337   6.643
   6223SM   C8S 7934   2.960   3.414   6.471
   6223SM   H8S 7935   3.021   3.504   6.491
   6223SM   H8T 7936   2.858   3.450   6.454
   6223SM   C9S 7937   3.017   3.340   6.348
   6223SM   H9S 7938   2.976   3.236   6.344
   6223SM   H9T 7939   3.127   3.333   6.360
   6223SM  C10S 7940   2.985   3.407   6.212
   6223SM  H10S 7941   3.000   3.517   6.219
   6223SM  H10T 7942   2.878   3.391   6.189
   6223SM  C11S 7943   3.066   3.356   6.091
   6223SM  H11S 7944   3.077   3.246   6.098
   6223SM  H11T 7945   3.168   3.401   6.096
   6223SM  C12S 7946   3.001   3.392   5.955
   6223SM  H12S 7947   2.951   3.491   5.966
   6223SM  H12T 7948   2.922   3.318   5.931
   6223SM  C13S 7949   3.102   3.403   5.838
   6223SM  H13S 7950   3.142   3.303   5.812
   6223SM  H13T 7951   3.187   3.462   5.880
   6223SM  C14S 7952   3.054   3.477   5.710
   6223SM  H14S 7953   3.143   3.523   5.661
   6223SM  H14T 7954   2.986   3.560   5.739
   6223SM  C15S 7955   2.990   3.389   5.602
   6223SM  H15S 7956   2.910   3.328   5.650
   6223SM  H15T 7957   3.067   3.319   5.563
   6223SM  C16S 7958   2.926   3.465   5.482
   6223SM  H16S 7959   2.839   3.520   5.522
   6223SM  H16T 7960   2.889   3.389   5.410
   6223SM  C17S 7961   3.009   3.569   5.404
   6223SM  H17S 7962   3.107   3.526   5.379
   6223SM  H17T 7963   3.028   3.658   5.468
   6223SM  C18S 7964   2.942   3.615   5.273
   6223SM  H18S 7965   2.916   3.528   5.209
   6223SM  H18T 7966   3.010   3.680   5.213
   6223SM  H18U 7967   2.849   3.672   5.293
   6223SM   C1F 7968   3.334   3.473   6.987
   6223SM    OF 7969   3.415   3.388   7.023
   6223SM   C2F 7970   3.370   3.588   6.896
   6223SM   H2F 7971   3.455   3.556   6.832
   6223SM   H2G 7972   3.404   3.673   6.959
   6223SM   C3F 7973   3.253   3.636   6.805
   6223SM   H3F 7974   3.182   3.697   6.866
   6223SM   H3G 7975   3.196   3.549   6.764
   6223SM   C4F 7976   3.299   3.720   6.684
   6223SM   H4F 7977   3.332   3.652   6.602
   6223SM   H4G 7978   3.390   3.775   6.715
   6223SM   C5F 7979   3.196   3.823   6.631
   6223SM   H5F 7980   3.246   3.900   6.569
   6223SM   H5G 7981   3.147   3.874   6.716
   6223SM   C6F 7982   3.087   3.769   6.536
   6223SM   H6F 7983   3.014   3.850   6.513
   6223SM   H6G 7984   3.030   3.693   6.594
   6223SM   C7F 7985   3.138   3.705   6.405
   6223SM   H7F 7986   3.050   3.655   6.360
   6223SM   H7G 7987   3.212   3.626   6.432
   6223SM   C8F 7988   3.197   3.790   6.290
   6223SM   H8F 7989   3.261   3.872   6.330
   6223SM   H8G 7990   3.112   3.837   6.235
   6223SM   C9F 7991   3.280   3.699   6.195
   6223SM   H9F 7992   3.237   3.596   6.203
   6223SM   H9G 7993   3.384   3.693   6.234
   6223SM  C10F 7994   3.281   3.732   6.044
   6223SM  H10F 7995   3.307   3.838   6.027
   6223SM  H10G 7996   3.178   3.717   6.004
   6223SM  C11F 7997   3.377   3.643   5.961
   6223SM  H11F 7998   3.360   3.536   5.986
   6223SM  H11G 7999   3.483   3.666   5.985
   6223SM  C12F 8000   3.354   3.659   5.810
   6223SM  H12F 8001   3.375   3.761   5.774
   6223SM  H12G 8002   3.246   3.645   5.789
   6223SM  C13F 8003   3.436   3.564   5.722
   6223SM  H13F 8004   3.406   3.589   5.619
   6223SM  H13G 8005   3.408   3.458   5.743
   6223SM  C14F 8006   3.588   3.578   5.739
   6223SM  H14F 8007   3.610   3.517   5.830
   6223SM  H14G 8008   3.616   3.682   5.761
   6223SM  C15F 8009   3.673   3.518   5.624
   6223SM  H15F 8010   3.629   3.421   5.592
   6223SM  H15G 8011   3.772   3.492   5.670
   6223SM  C16F 8012   3.708   3.604   5.501
   6223SM  H16F 8013   3.793   3.552   5.450
   6223SM  H16G 8014   3.747   3.704   5.532
   6223SM  C17F 8015   3.601   3.622   5.390
   6223SM  H17F 8016   3.653   3.636   5.293
   6223SM  H17G 8017   3.545   3.715   5.408
   6223SM  C18F 8018   3.502   3.505   5.374
   6223SM  H18F 8019   3.453   3.479   5.469
   6223SM  H18G 8020   3.560   3.414   5.346
   6223SM  C19F 8021   3.387   3.528   5.274
   6223SM  H19F 8022   3.429   3.558   5.176
   6223SM  H19G 8023   3.319   3.608   5.310
   6223SM  C20F 8024   3.303   3.399   5.260
   6223SM  H20F 8025   3.246   3.380   5.353
   6223SM  H20G 8026   3.377   3.317   5.252
   6223SM  C21F 8027   3.210   3.398   5.138
   6223SM  H21F 8028   3.271   3.417   5.048
   6223SM  H21G 8029   3.138   3.483   5.143
   6223SM  C22F 8030   3.133   3.266   5.117
   6223SM  H22F 8031   3.117   3.253   5.008
   6223SM  H22G 8032   3.032   3.273   5.164
   6223SM  C23F 8033   3.206   3.143   5.172
   6223SM  H23F 8034   3.315   3.150   5.151
   6223SM  H23G 8035   3.170   3.050   5.125
   6223SM  H23H 8036   3.193   3.136   5.282
   6323SM     N 8037   4.744   4.969   7.784
   6323SM   C15 8038   4.655   4.885   7.696
   6323SM  H15A 8039   4.618   4.795   7.740
   6323SM  H15B 8040   4.709   4.861   7.605
   6323SM  H15C 8041   4.570   4.946   7.660
   6323SM   C14 8042   4.662   5.008   7.902
   6323SM  H14A 8043   4.639   4.918   7.959
   6323SM  H14B 8044   4.569   5.053   7.868
   6323SM  H14C 8045   4.716   5.074   7.969
   6323SM   C13 8046   4.863   4.896   7.839
   6323SM  H13A 8047   4.834   4.801   7.882
   6323SM  H13B 8048   4.911   4.954   7.918
   6323SM  H13C 8049   4.939   4.880   7.763
   6323SM   C12 8050   4.785   5.090   7.701
   6323SM  H12A 8051   4.848   5.154   7.760
   6323SM  H12B 8052   4.693   5.144   7.676
   6323SM   C11 8053   4.853   5.065   7.564
   6323SM  H11A 8054   4.933   4.989   7.576
   6323SM  H11B 8055   4.903   5.159   7.530
   6323SM     P 8056   4.642   5.114   7.416
   6323SM   O13 8057   4.536   5.101   7.518
   6323SM   O14 8058   4.699   5.249   7.389
   6323SM   O11 8059   4.595   5.043   7.284
   6323SM   O12 8060   4.762   5.019   7.464
   6323SM   C1S 8061   4.673   5.054   7.167
   6323SM   H1S 8062   4.757   4.981   7.172
   6323SM   H1T 8063   4.716   5.156   7.153
   6323SM    NF 8064   4.668   5.041   6.930
   6323SM   HNF 8065   4.641   5.111   6.864
   6323SM   C2S 8066   4.585   5.023   7.046
   6323SM   H2S 8067   4.553   4.916   7.053
   6323SM   C3S 8068   4.456   5.110   7.041
   6323SM   H3S 8069   4.480   5.217   7.059
   6323SM    O3 8070   4.358   5.070   7.138
   6323SM   HO3 8071   4.413   5.037   7.210
   6323SM   C4S 8072   4.400   5.091   6.902
   6323SM   H4S 8073   4.346   4.997   6.887
   6323SM   C5S 8074   4.412   5.178   6.800
   6323SM   H5S 8075   4.456   5.278   6.818
   6323SM   C6S 8076   4.357   5.155   6.661
   6323SM   H6S 8077   4.293   5.241   6.631
   6323SM   H6T 8078   4.291   5.065   6.659
   6323SM   C7S 8079   4.467   5.137   6.554
   6323SM   H7S 8080   4.531   5.050   6.579
   6323SM   H7T 8081   4.531   5.228   6.551
   6323SM   C8S 8082   4.406   5.116   6.414
   6323SM   H8S 8083   4.351   5.209   6.386
   6323SM   H8T 8084   4.332   5.033   6.418
   6323SM   C9S 8085   4.508   5.085   6.304
   6323SM   H9S 8086   4.576   5.002   6.333
   6323SM   H9T 8087   4.571   5.176   6.292
   6323SM  C10S 8088   4.439   5.051   6.171
   6323SM  H10S 8089   4.357   5.123   6.154
   6323SM  H10T 8090   4.394   4.950   6.179
   6323SM  C11S 8091   4.531   5.058   6.049
   6323SM  H11S 8092   4.622   4.996   6.065
   6323SM  H11T 8093   4.563   5.163   6.038
   6323SM  C12S 8094   4.462   5.016   5.919
   6323SM  H12S 8095   4.367   5.073   5.906
   6323SM  H12T 8096   4.436   4.908   5.925
   6323SM  C13S 8097   4.551   5.041   5.797
   6323SM  H13S 8098   4.652   5.000   5.818
   6323SM  H13T 8099   4.562   5.151   5.781
   6323SM  C14S 8100   4.497   4.976   5.670
   6323SM  H14S 8101   4.400   5.023   5.641
   6323SM  H14T 8102   4.478   4.868   5.690
   6323SM  C15S 8103   4.597   4.989   5.556
   6323SM  H15S 8104   4.697   4.954   5.593
   6323SM  H15T 8105   4.609   5.097   5.532
   6323SM  C16S 8106   4.562   4.908   5.431
   6323SM  H16S 8107   4.560   4.800   5.455
   6323SM  H16T 8108   4.645   4.923   5.359
   6323SM  C17S 8109   4.432   4.946   5.359
   6323SM  H17S 8110   4.410   5.055   5.373
   6323SM  H17T 8111   4.349   4.889   5.404
   6323SM  C18S 8112   4.440   4.918   5.209
   6323SM  H18S 8113   4.482   5.005   5.153
   6323SM  H18T 8114   4.340   4.894   5.167
   6323SM  H18U 8115   4.508   4.832   5.190
   6323SM   C1F 8116   4.770   4.962   6.903
   6323SM    OF 8117   4.786   4.856   6.961
   6323SM   C2F 8118   4.862   5.007   6.795
   6323SM   H2F 8119   4.851   4.939   6.708
   6323SM   H2G 8120   4.964   4.998   6.834
   6323SM   C3F 8121   4.848   5.154   6.748
   6323SM   H3F 8122   4.864   5.224   6.833
   6323SM   H3G 8123   4.748   5.173   6.704
   6323SM   C4F 8124   4.955   5.179   6.640
   6323SM   H4F 8125   4.935   5.102   6.562
   6323SM   H4G 8126   5.056   5.160   6.682
   6323SM   C5F 8127   4.954   5.315   6.571
   6323SM   H5F 8128   5.032   5.380   6.618
   6323SM   H5G 8129   4.856   5.367   6.583
   6323SM   C6F 8130   4.984   5.299   6.420
   6323SM   H6F 8131   5.070   5.231   6.405
   6323SM   H6G 8132   5.014   5.398   6.381
   6323SM   C7F 8133   4.863   5.254   6.338
   6323SM   H7F 8134   4.775   5.314   6.373
   6323SM   H7G 8135   4.839   5.147   6.355
   6323SM   C8F 8136   4.878   5.281   6.187
   6323SM   H8F 8137   4.904   5.187   6.134
   6323SM   H8G 8138   4.962   5.353   6.172
   6323SM   C9F 8139   4.751   5.346   6.129
   6323SM   H9F 8140   4.747   5.451   6.166
   6323SM   H9G 8141   4.661   5.297   6.167
   6323SM  C10F 8142   4.744   5.347   5.977
   6323SM  H10F 8143   4.720   5.247   5.936
   6323SM  H10G 8144   4.846   5.368   5.938
   6323SM  C11F 8145   4.644   5.452   5.924
   6323SM  H11F 8146   4.652   5.545   5.985
   6323SM  H11G 8147   4.540   5.415   5.934
   6323SM  C12F 8148   4.680   5.486   5.780
   6323SM  H12F 8149   4.685   5.393   5.720
   6323SM  H12G 8150   4.779   5.530   5.786
   6323SM  C13F 8151   4.604   5.595   5.704
   6323SM  H13F 8152   4.605   5.691   5.760
   6323SM  H13G 8153   4.500   5.560   5.695
   6323SM  C14F 8154   4.676   5.617   5.568
   6323SM  H14F 8155   4.729   5.523   5.542
   6323SM  H14G 8156   4.756   5.694   5.579
   6323SM  C15F 8157   4.585   5.649   5.449
   6323SM  H15F 8158   4.643   5.635   5.355
   6323SM  H15G 8159   4.553   5.756   5.454
   6323SM  C16F 8160   4.460   5.559   5.445
   6323SM  H16F 8161   4.400   5.579   5.355
   6323SM  H16G 8162   4.395   5.591   5.528
   6323SM  C17F 8163   4.491   5.408   5.446
   6323SM  H17F 8164   4.406   5.347   5.480
   6323SM  H17G 8165   4.573   5.384   5.516
   6323SM  C18F 8166   4.522   5.358   5.305
   6323SM  H18F 8167   4.554   5.445   5.244
   6323SM  H18G 8168   4.430   5.316   5.259
   6323SM  C19F 8169   4.633   5.256   5.300
   6323SM  H19F 8170   4.598   5.159   5.338
   6323SM  H19G 8171   4.717   5.290   5.364
   6323SM  C20F 8172   4.685   5.236   5.158
   6323SM  H20F 8173   4.705   5.335   5.112
   6323SM  H20G 8174   4.612   5.183   5.093
   6323SM  C21F 8175   4.817   5.163   5.162
   6323SM  H21F 8176   4.884   5.208   5.239
   6323SM  H21G 8177   4.862   5.183   5.063
   6323SM  C22F 8178   4.812   5.011   5.179
   6323SM  H22F 8179   4.717   4.968   5.142
   6323SM  H22G 8180   4.823   4.982   5.286
   6323SM  C23F 8181   4.928   4.956   5.100
   6323SM  H23F 8182   4.893   4.923   5.001
   6323SM  H23G 8183   4.984   4.875   5.144
   6323SM  H23H 8184   5.005   5.034   5.091
   6423SM     N 8185   5.455   3.852   7.766
   6423SM   C15 8186   5.355   3.745   7.797
   6423SM  H15A 8187   5.282   3.743   7.714
   6423SM  H15B 8188   5.300   3.761   7.888
   6423SM  H15C 8189   5.402   3.648   7.798
   6423SM   C14 8190   5.385   3.983   7.747
   6423SM  H14A 8191   5.311   3.972   7.667
   6423SM  H14B 8192   5.458   4.057   7.718
   6423SM  H14C 8193   5.338   4.012   7.839
   6423SM   C13 8194   5.550   3.866   7.879
   6423SM  H13A 8195   5.498   3.907   7.967
   6423SM  H13B 8196   5.626   3.941   7.857
   6423SM  H13C 8197   5.595   3.773   7.911
   6423SM   C12 8198   5.529   3.810   7.640
   6423SM  H12A 8199   5.546   3.702   7.644
   6423SM  H12B 8200   5.626   3.859   7.635
   6423SM   C11 8201   5.455   3.837   7.507
   6423SM  H11A 8202   5.516   3.797   7.422
   6423SM  H11B 8203   5.447   3.947   7.490
   6423SM     P 8204   5.304   3.628   7.472
   6423SM   O13 8205   5.419   3.555   7.531
   6423SM   O14 8206   5.168   3.589   7.510
   6423SM   O11 8207   5.324   3.632   7.315
   6423SM   O12 8208   5.323   3.781   7.511
   6423SM   C1S 8209   5.269   3.744   7.244
   6423SM   H1S 8210   5.306   3.841   7.286
   6423SM   H1T 8211   5.158   3.744   7.252
   6423SM    NF 8212   5.283   3.876   7.039
   6423SM   HNF 8213   5.196   3.891   6.991
   6423SM   C2S 8214   5.310   3.744   7.094
   6423SM   H2S 8215   5.420   3.726   7.087
   6423SM   C3S 8216   5.236   3.630   7.019
   6423SM   H3S 8217   5.129   3.628   7.049
   6423SM    O3 8218   5.290   3.500   7.047
   6423SM   HO3 8219   5.314   3.498   7.141
   6423SM   C4S 8220   5.249   3.650   6.871
   6423SM   H4S 8221   5.331   3.591   6.825
   6423SM   C5S 8222   5.169   3.724   6.792
   6423SM   H5S 8223   5.085   3.781   6.835
   6423SM   C6S 8224   5.187   3.740   6.643
   6423SM   H6S 8225   5.139   3.835   6.609
   6423SM   H6T 8226   5.136   3.658   6.590
   6423SM   C7S 8227   5.329   3.732   6.588
   6423SM   H7S 8228   5.377   3.637   6.620
   6423SM   H7T 8229   5.392   3.815   6.627
   6423SM   C8S 8230   5.323   3.730   6.435
   6423SM   H8S 8231   5.270   3.637   6.405
   6423SM   H8T 8232   5.426   3.720   6.395
   6423SM   C9S 8233   5.248   3.848   6.369
   6423SM   H9S 8234   5.270   3.944   6.420
   6423SM   H9T 8235   5.139   3.829   6.382
   6423SM  C10S 8236   5.280   3.859   6.220
   6423SM  H10S 8237   5.287   3.756   6.178
   6423SM  H10T 8238   5.379   3.907   6.207
   6423SM  C11S 8239   5.176   3.935   6.136
   6423SM  H11S 8240   5.174   4.042   6.165
   6423SM  H11T 8241   5.076   3.895   6.158
   6423SM  C12S 8242   5.203   3.920   5.986
   6423SM  H12S 8243   5.199   3.813   5.957
   6423SM  H12T 8244   5.307   3.955   5.968
   6423SM  C13S 8245   5.106   4.000   5.897
   6423SM  H13S 8246   5.082   4.097   5.946
   6423SM  H13T 8247   5.011   3.942   5.889
   6423SM  C14S 8248   5.159   4.024   5.754
   6423SM  H14S 8249   5.198   3.928   5.716
   6423SM  H14T 8250   5.242   4.099   5.757
   6423SM  C15S 8251   5.049   4.060   5.654
   6423SM  H15S 8252   5.015   4.163   5.679
   6423SM  H15T 8253   4.966   3.988   5.668
   6423SM  C16S 8254   5.085   4.053   5.503
   6423SM  H16S 8255   5.195   4.062   5.488
   6423SM  H16T 8256   5.038   4.142   5.457
   6423SM  C17S 8257   5.032   3.929   5.428
   6423SM  H17S 8258   4.923   3.937   5.405
   6423SM  H17T 8259   5.042   3.840   5.494
   6423SM  C18S 8260   5.105   3.905   5.296
   6423SM  H18S 8261   5.074   3.980   5.221
   6423SM  H18T 8262   5.080   3.806   5.253
   6423SM  H18U 8263   5.215   3.913   5.310
   6423SM   C1F 8264   5.362   3.981   7.060
   6423SM    OF 8265   5.454   3.974   7.142
   6423SM   C2F 8266   5.332   4.105   6.982
   6423SM   H2F 8267   5.301   4.182   7.055
   6423SM   H2G 8268   5.246   4.087   6.914
   6423SM   C3F 8269   5.452   4.155   6.897
   6423SM   H3F 8270   5.545   4.157   6.958
   6423SM   H3G 8271   5.430   4.260   6.866
   6423SM   C4F 8272   5.479   4.074   6.769
   6423SM   H4F 8273   5.384   4.059   6.714
   6423SM   H4G 8274   5.518   3.974   6.796
   6423SM   C5F 8275   5.578   4.146   6.675
   6423SM   H5F 8276   5.654   4.197   6.738
   6423SM   H5G 8277   5.525   4.225   6.617
   6423SM   C6F 8278   5.653   4.054   6.576
   6423SM   H6F 8279   5.696   3.967   6.631
   6423SM   H6G 8280   5.737   4.111   6.531
   6423SM   C7F 8281   5.566   4.003   6.460
   6423SM   H7F 8282   5.531   4.089   6.399
   6423SM   H7G 8283   5.476   3.956   6.503
   6423SM   C8F 8284   5.637   3.900   6.370
   6423SM   H8F 8285   5.561   3.836   6.320
   6423SM   H8G 8286   5.700   3.833   6.432
   6423SM   C9F 8287   5.718   3.959   6.254
   6423SM   H9F 8288   5.779   3.878   6.208
   6423SM   H9G 8289   5.786   4.037   6.293
   6423SM  C10F 8290   5.627   4.020   6.145
   6423SM  H10F 8291   5.560   4.096   6.191
   6423SM  H10G 8292   5.562   3.940   6.102
   6423SM  C11F 8293   5.706   4.087   6.032
   6423SM  H11F 8294   5.788   4.146   6.077
   6423SM  H11G 8295   5.639   4.159   5.979
   6423SM  C12F 8296   5.762   3.987   5.931
   6423SM  H12F 8297   5.761   3.885   5.976
   6423SM  H12G 8298   5.868   4.012   5.908
   6423SM  C13F 8299   5.683   3.982   5.799
   6423SM  H13F 8300   5.735   3.913   5.729
   6423SM  H13G 8301   5.681   4.083   5.752
   6423SM  C14F 8302   5.540   3.933   5.823
   6423SM  H14F 8303   5.486   4.010   5.883
   6423SM  H14G 8304   5.543   3.839   5.882
   6423SM  C15F 8305   5.458   3.905   5.697
   6423SM  H15F 8306   5.429   4.000   5.646
   6423SM  H15G 8307   5.368   3.852   5.733
   6423SM  C16F 8308   5.522   3.810   5.596
   6423SM  H16F 8309   5.557   3.719   5.651
   6423SM  H16G 8310   5.609   3.860   5.550
   6423SM  C17F 8311   5.421   3.766   5.490
   6423SM  H17F 8312   5.374   3.856   5.445
   6423SM  H17G 8313   5.338   3.709   5.537
   6423SM  C18F 8314   5.487   3.679   5.382
   6423SM  H18F 8315   5.410   3.636   5.315
   6423SM  H18G 8316   5.540   3.595   5.432
   6423SM  C19F 8317   5.585   3.758   5.295
   6423SM  H19F 8318   5.634   3.688   5.223
   6423SM  H19G 8319   5.665   3.803   5.357
   6423SM  C20F 8320   5.514   3.868   5.216
   6423SM  H20F 8321   5.467   3.942   5.284
   6423SM  H20G 8322   5.434   3.823   5.154
   6423SM  C21F 8323   5.610   3.943   5.125
   6423SM  H21F 8324   5.643   3.873   5.045
   6423SM  H21G 8325   5.701   3.975   5.181
   6423SM  C22F 8326   5.542   4.064   5.063
   6423SM  H22F 8327   5.542   4.150   5.134
   6423SM  H22G 8328   5.436   4.038   5.042
   6423SM  C23F 8329   5.609   4.102   4.932
   6423SM  H23F 8330   5.699   4.164   4.951
   6423SM  H23G 8331   5.538   4.156   4.868
   6423SM  H23H 8332   5.642   4.011   4.878
   6523SM     N 8333   5.344   4.489   7.795
   6523SM   C15 8334   5.227   4.519   7.707
   6523SM  H15A 8335   5.131   4.495   7.749
   6523SM  H15B 8336   5.239   4.471   7.610
   6523SM  H15C 8337   5.230   4.625   7.681
   6523SM   C14 8338   5.322   4.562   7.924
   6523SM  H14A 8339   5.234   4.524   7.975
   6523SM  H14B 8340   5.309   4.668   7.906
   6523SM  H14C 8341   5.405   4.545   7.991
   6523SM   C13 8342   5.358   4.344   7.827
   6523SM  H13A 8343   5.446   4.327   7.891
   6523SM  H13B 8344   5.377   4.287   7.736
   6523SM  H13C 8345   5.271   4.306   7.879
   6523SM   C12 8346   5.470   4.543   7.727
   6523SM  H12A 8347   5.554   4.534   7.794
   6523SM  H12B 8348   5.458   4.650   7.709
   6523SM   C11 8349   5.507   4.485   7.588
   6523SM  H11A 8350   5.517   4.375   7.595
   6523SM  H11B 8351   5.609   4.524   7.560
   6523SM     P 8352   5.399   4.670   7.434
   6523SM   O13 8353   5.273   4.675   7.357
   6523SM   O14 8354   5.417   4.761   7.549
   6523SM   O11 8355   5.527   4.666   7.338
   6523SM   O12 8356   5.410   4.520   7.488
   6523SM   C1S 8357   5.580   4.783   7.273
   6523SM   H1S 8358   5.689   4.791   7.293
   6523SM   H1T 8359   5.536   4.878   7.313
   6523SM    NF 8360   5.417   4.774   7.094
   6523SM   HNF 8361   5.377   4.683   7.085
   6523SM   C2S 8362   5.557   4.780   7.118
   6523SM   H2S 8363   5.597   4.875   7.076
   6523SM   C3S 8364   5.631   4.663   7.048
   6523SM   H3S 8365   5.592   4.566   7.085
   6523SM    O3 8366   5.771   4.662   7.072
   6523SM   HO3 8367   5.785   4.727   7.142
   6523SM   C4S 8368   5.602   4.667   6.898
   6523SM   H4S 8369   5.520   4.601   6.866
   6523SM   C5S 8370   5.665   4.740   6.804
   6523SM   H5S 8371   5.748   4.805   6.835
   6523SM   C6S 8372   5.634   4.744   6.655
   6523SM   H6S 8373   5.729   4.732   6.597
   6523SM   H6T 8374   5.593   4.844   6.631
   6523SM   C7S 8375   5.532   4.649   6.589
   6523SM   H7S 8376   5.436   4.657   6.645
   6523SM   H7T 8377   5.567   4.544   6.595
   6523SM   C8S 8378   5.504   4.687   6.442
   6523SM   H8S 8379   5.486   4.796   6.432
   6523SM   H8T 8380   5.412   4.633   6.411
   6523SM   C9S 8381   5.611   4.643   6.342
   6523SM   H9S 8382   5.631   4.534   6.359
   6523SM   H9T 8383   5.705   4.698   6.362
   6523SM  C10S 8384   5.568   4.659   6.195
   6523SM  H10S 8385   5.568   4.768   6.168
   6523SM  H10T 8386   5.466   4.619   6.177
   6523SM  C11S 8387   5.665   4.582   6.105
   6523SM  H11S 8388   5.659   4.474   6.125
   6523SM  H11T 8389   5.762   4.615   6.145
   6523SM  C12S 8390   5.650   4.610   5.954
   6523SM  H12S 8391   5.684   4.713   5.934
   6523SM  H12T 8392   5.542   4.604   5.929
   6523SM  C13S 8393   5.729   4.513   5.865
   6523SM  H13S 8394   5.692   4.410   5.884
   6523SM  H13T 8395   5.836   4.516   5.896
   6523SM  C14S 8396   5.722   4.541   5.713
   6523SM  H14S 8397   5.795   4.474   5.663
   6523SM  H14T 8398   5.754   4.646   5.692
   6523SM  C15S 8399   5.583   4.517   5.650
   6523SM  H15S 8400   5.531   4.614   5.649
   6523SM  H15T 8401   5.525   4.447   5.714
   6523SM  C16S 8402   5.588   4.459   5.506
   6523SM  H16S 8403   5.495   4.402   5.483
   6523SM  H16T 8404   5.673   4.388   5.498
   6523SM  C17S 8405   5.606   4.570   5.402
   6523SM  H17S 8406   5.699   4.620   5.434
   6523SM  H17T 8407   5.525   4.645   5.411
   6523SM  C18S 8408   5.621   4.525   5.255
   6523SM  H18S 8409   5.723   4.486   5.238
   6523SM  H18T 8410   5.608   4.615   5.190
   6523SM  H18U 8411   5.549   4.448   5.224
   6523SM   C1F 8412   5.335   4.873   7.120
   6523SM    OF 8413   5.375   4.984   7.155
   6523SM   C2F 8414   5.191   4.838   7.109
   6523SM   H2F 8415   5.134   4.896   7.185
   6523SM   H2G 8416   5.179   4.729   7.132
   6523SM   C3F 8417   5.139   4.868   6.968
   6523SM   H3F 8418   5.142   4.978   6.949
   6523SM   H3G 8419   5.032   4.836   6.972
   6523SM   C4F 8420   5.203   4.794   6.848
   6523SM   H4F 8421   5.215   4.686   6.871
   6523SM   H4G 8422   5.304   4.836   6.827
   6523SM   C5F 8423   5.111   4.810   6.725
   6523SM   H5F 8424   5.108   4.917   6.697
   6523SM   H5G 8425   5.009   4.781   6.760
   6523SM   C6F 8426   5.141   4.725   6.602
   6523SM   H6F 8427   5.047   4.679   6.565
   6523SM   H6G 8428   5.209   4.642   6.632
   6523SM   C7F 8429   5.203   4.804   6.486
   6523SM   H7F 8430   5.240   4.731   6.411
   6523SM   H7G 8431   5.290   4.859   6.527
   6523SM   C8F 8432   5.111   4.902   6.410
   6523SM   H8F 8433   5.171   4.948   6.327
   6523SM   H8G 8434   5.079   4.984   6.477
   6523SM   C9F 8435   4.994   4.839   6.335
   6523SM   H9F 8436   4.942   4.920   6.278
   6523SM   H9G 8437   4.920   4.796   6.406
   6523SM  C10F 8438   5.040   4.731   6.235
   6523SM  H10F 8439   5.077   4.642   6.291
   6523SM  H10G 8440   5.125   4.771   6.176
   6523SM  C11F 8441   4.929   4.687   6.140
   6523SM  H11F 8442   4.899   4.773   6.076
   6523SM  H11G 8443   4.840   4.659   6.200
   6523SM  C12F 8444   4.968   4.567   6.052
   6523SM  H12F 8445   4.883   4.542   5.985
   6523SM  H12G 8446   4.987   4.479   6.118
   6523SM  C13F 8447   5.092   4.590   5.965
   6523SM  H13F 8448   5.110   4.497   5.905
   6523SM  H13G 8449   5.182   4.605   6.028
   6523SM  C14F 8450   5.076   4.709   5.870
   6523SM  H14F 8451   5.052   4.801   5.929
   6523SM  H14G 8452   4.992   4.690   5.801
   6523SM  C15F 8453   5.203   4.739   5.791
   6523SM  H15F 8454   5.287   4.759   5.862
   6523SM  H15G 8455   5.187   4.831   5.730
   6523SM  C16F 8456   5.245   4.627   5.697
   6523SM  H16F 8457   5.266   4.533   5.752
   6523SM  H16G 8458   5.340   4.660   5.648
   6523SM  C17F 8459   5.145   4.602   5.584
   6523SM  H17F 8460   5.131   4.699   5.531
   6523SM  H17G 8461   5.046   4.568   5.622
   6523SM  C18F 8462   5.202   4.499   5.487
   6523SM  H18F 8463   5.176   4.396   5.517
   6523SM  H18G 8464   5.313   4.508   5.494
   6523SM  C19F 8465   5.166   4.527   5.342
   6523SM  H19F 8466   5.171   4.637   5.325
   6523SM  H19G 8467   5.063   4.492   5.323
   6523SM  C20F 8468   5.267   4.463   5.248
   6523SM  H20F 8469   5.365   4.498   5.285
   6523SM  H20G 8470   5.255   4.501   5.145
   6523SM  C21F 8471   5.261   4.309   5.248
   6523SM  H21F 8472   5.273   4.269   5.350
   6523SM  H21G 8473   5.347   4.272   5.189
   6523SM  C22F 8474   5.132   4.255   5.185
   6523SM  H22F 8475   5.065   4.338   5.156
   6523SM  H22G 8476   5.077   4.195   5.260
   6523SM  C23F 8477   5.158   4.168   5.062
   6523SM  H23F 8478   5.213   4.226   4.984
   6523SM  H23G 8479   5.063   4.131   5.019
   6523SM  H23H 8480   5.221   4.081   5.090
   6623SM     N 8481   4.131   1.979   7.768
   6623SM   C15 8482   4.216   2.070   7.686
   6623SM  H15A 8483   4.295   2.016   7.633
   6623SM  H15B 8484   4.267   2.138   7.751
   6623SM  H15C 8485   4.153   2.121   7.614
   6623SM   C14 8486   4.215   1.918   7.876
   6623SM  H14A 8487   4.299   1.865   7.833
   6623SM  H14B 8488   4.154   1.846   7.931
   6623SM  H14C 8489   4.250   1.992   7.947
   6623SM   C13 8490   4.022   2.058   7.829
   6623SM  H13A 8491   3.951   2.089   7.752
   6623SM  H13B 8492   4.061   2.145   7.881
   6623SM  H13C 8493   3.968   1.999   7.902
   6623SM   C12 8494   4.076   1.869   7.679
   6623SM  H12A 8495   3.996   1.816   7.731
   6623SM  H12B 8496   4.153   1.794   7.663
   6623SM   C11 8497   4.020   1.909   7.542
   6623SM  H11A 8498   4.015   1.817   7.481
   6623SM  H11B 8499   4.094   1.975   7.490
   6623SM     P 8500   3.842   2.091   7.468
   6623SM   O13 8501   3.721   2.051   7.391
   6623SM   O14 8502   3.829   2.205   7.562
   6623SM   O11 8503   3.965   2.119   7.370
   6623SM   O12 8504   3.890   1.966   7.555
   6623SM   C1S 8505   3.988   2.041   7.252
   6623SM   H1S 8506   3.901   1.979   7.224
   6623SM   H1T 8507   4.073   1.972   7.270
   6623SM    NF 8508   3.908   2.136   7.043
   6623SM   HNF 8509   3.910   2.086   6.957
   6623SM   C2S 8510   4.021   2.133   7.131
   6623SM   H2S 8511   4.040   2.236   7.169
   6623SM   C3S 8512   4.148   2.086   7.056
   6623SM   H3S 8513   4.138   1.979   7.028
   6623SM    O3 8514   4.264   2.094   7.137
   6623SM   HO3 8515   4.231   2.097   7.228
   6623SM   C4S 8516   4.158   2.168   6.928
   6623SM   H4S 8517   4.152   2.276   6.946
   6623SM   C5S 8518   4.161   2.121   6.802
   6623SM   H5S 8519   4.164   2.013   6.781
   6623SM   C6S 8520   4.169   2.209   6.679
   6623SM   H6S 8521   4.268   2.258   6.673
   6623SM   H6T 8522   4.090   2.287   6.684
   6623SM   C7S 8523   4.152   2.128   6.549
   6623SM   H7S 8524   4.053   2.080   6.549
   6623SM   H7T 8525   4.221   2.042   6.544
   6623SM   C8S 8526   4.168   2.212   6.420
   6623SM   H8S 8527   4.269   2.256   6.413
   6623SM   H8T 8528   4.091   2.292   6.425
   6623SM   C9S 8529   4.135   2.132   6.294
   6623SM   H9S 8530   4.062   2.056   6.324
   6623SM   H9T 8531   4.222   2.076   6.255
   6623SM  C10S 8532   4.079   2.216   6.178
   6623SM  H10S 8533   4.163   2.269   6.128
   6623SM  H10T 8534   4.011   2.295   6.217
   6623SM  C11S 8535   4.002   2.130   6.076
   6623SM  H11S 8536   3.901   2.106   6.116
   6623SM  H11T 8537   4.056   2.035   6.060
   6623SM  C12S 8538   3.986   2.202   5.943
   6623SM  H12S 8539   4.089   2.222   5.904
   6623SM  H12T 8540   3.935   2.299   5.958
   6623SM  C13S 8541   3.911   2.122   5.835
   6623SM  H13S 8542   3.806   2.102   5.864
   6623SM  H13T 8543   3.963   2.026   5.819
   6623SM  C14S 8544   3.915   2.202   5.705
   6623SM  H14S 8545   4.017   2.248   5.704
   6623SM  H14T 8546   3.842   2.286   5.708
   6623SM  C15S 8547   3.905   2.124   5.574
   6623SM  H15S 8548   3.799   2.122   5.538
   6623SM  H15T 8549   3.937   2.018   5.589
   6623SM  C16S 8550   3.996   2.188   5.469
   6623SM  H16S 8551   3.987   2.138   5.370
   6623SM  H16T 8552   4.102   2.175   5.503
   6623SM  C17S 8553   3.970   2.337   5.454
   6623SM  H17S 8554   3.935   2.385   5.548
   6623SM  H17T 8555   3.889   2.352   5.380
   6623SM  C18S 8556   4.093   2.414   5.410
   6623SM  H18S 8557   4.065   2.521   5.400
   6623SM  H18T 8558   4.126   2.377   5.311
   6623SM  H18U 8559   4.177   2.406   5.483
   6623SM   C1F 8560   3.795   2.199   7.075
   6623SM    OF 8561   3.790   2.288   7.160
   6623SM   C2F 8562   3.678   2.156   6.996
   6623SM   H2F 8563   3.597   2.124   7.066
   6623SM   H2G 8564   3.703   2.069   6.932
   6623SM   C3F 8565   3.629   2.273   6.910
   6623SM   H3F 8566   3.576   2.340   6.981
   6623SM   H3G 8567   3.556   2.231   6.838
   6623SM   C4F 8568   3.732   2.358   6.834
   6623SM   H4F 8569   3.800   2.409   6.906
   6623SM   H4G 8570   3.677   2.439   6.780
   6623SM   C5F 8571   3.814   2.279   6.732
   6623SM   H5F 8572   3.873   2.202   6.786
   6623SM   H5G 8573   3.888   2.347   6.685
   6623SM   C6F 8574   3.731   2.207   6.623
   6623SM   H6F 8575   3.652   2.271   6.581
   6623SM   H6G 8576   3.680   2.122   6.674
   6623SM   C7F 8577   3.824   2.151   6.515
   6623SM   H7F 8578   3.859   2.053   6.553
   6623SM   H7G 8579   3.910   2.222   6.512
   6623SM   C8F 8580   3.785   2.130   6.367
   6623SM   H8F 8581   3.863   2.185   6.310
   6623SM   H8G 8582   3.692   2.178   6.334
   6623SM   C9F 8583   3.800   1.981   6.324
   6623SM   H9F 8584   3.788   1.915   6.412
   6623SM   H9G 8585   3.902   1.962   6.286
   6623SM  C10F 8586   3.704   1.938   6.214
   6623SM  H10F 8587   3.688   2.025   6.147
   6623SM  H10G 8588   3.608   1.910   6.260
   6623SM  C11F 8589   3.746   1.818   6.131
   6623SM  H11F 8590   3.657   1.752   6.121
   6623SM  H11G 8591   3.827   1.758   6.178
   6623SM  C12F 8592   3.781   1.859   5.989
   6623SM  H12F 8593   3.886   1.895   5.983
   6623SM  H12G 8594   3.714   1.942   5.957
   6623SM  C13F 8595   3.756   1.743   5.894
   6623SM  H13F 8596   3.756   1.783   5.791
   6623SM  H13G 8597   3.655   1.701   5.911
   6623SM  C14F 8598   3.859   1.631   5.910
   6623SM  H14F 8599   3.818   1.548   5.971
   6623SM  H14G 8600   3.948   1.667   5.966
   6623SM  C15F 8601   3.899   1.582   5.772
   6623SM  H15F 8602   3.806   1.554   5.718
   6623SM  H15G 8603   3.963   1.491   5.782
   6623SM  C16F 8604   3.974   1.686   5.687
   6623SM  H16F 8605   3.904   1.762   5.646
   6623SM  H16G 8606   4.016   1.633   5.600
   6623SM  C17F 8607   4.082   1.757   5.770
   6623SM  H17F 8608   4.136   1.681   5.831
   6623SM  H17G 8609   4.032   1.827   5.841
   6623SM  C18F 8610   4.183   1.835   5.688
   6623SM  H18F 8611   4.250   1.893   5.756
   6623SM  H18G 8612   4.126   1.910   5.629
   6623SM  C19F 8613   4.266   1.742   5.599
   6623SM  H19F 8614   4.200   1.675   5.540
   6623SM  H19G 8615   4.328   1.675   5.665
   6623SM  C20F 8616   4.355   1.814   5.498
   6623SM  H20F 8617   4.394   1.739   5.425
   6623SM  H20G 8618   4.443   1.856   5.551
   6623SM  C21F 8619   4.284   1.928   5.423
   6623SM  H21F 8620   4.349   1.955   5.338
   6623SM  H21G 8621   4.277   2.016   5.491
   6623SM  C22F 8622   4.147   1.903   5.358
   6623SM  H22F 8623   4.125   1.994   5.297
   6623SM  H22G 8624   4.066   1.896   5.434
   6623SM  C23F 8625   4.141   1.781   5.268
   6623SM  H23F 8626   4.066   1.795   5.187
   6623SM  H23G 8627   4.116   1.691   5.327
   6623SM  H23H 8628   4.240   1.763   5.223
   6723SM     N 8629   3.342   5.985   7.758
   6723SM   C15 8630   3.358   6.132   7.750
   6723SM  H15A 8631   3.456   6.159   7.787
   6723SM  H15B 8632   3.284   6.180   7.814
   6723SM  H15C 8633   3.346   6.165   7.647
   6723SM   C14 8634   3.451   5.923   7.675
   6723SM  H14A 8635   3.434   5.947   7.569
   6723SM  H14B 8636   3.443   5.815   7.681
   6723SM  H14C 8637   3.549   5.957   7.703
   6723SM   C13 8638   3.351   5.945   7.902
   6723SM  H13A 8639   3.443   5.977   7.950
   6723SM  H13B 8640   3.345   5.837   7.909
   6723SM  H13C 8641   3.268   5.986   7.958
   6723SM   C12 8642   3.208   5.939   7.703
   6723SM  H12A 8643   3.127   5.977   7.764
   6723SM  H12B 8644   3.203   5.830   7.710
   6723SM   C11 8645   3.174   5.969   7.555
   6723SM  H11A 8646   3.184   6.077   7.536
   6723SM  H11B 8647   3.066   5.945   7.538
   6723SM     P 8648   3.219   5.738   7.449
   6723SM   O13 8649   3.340   5.667   7.401
   6723SM   O14 8650   3.162   5.690   7.577
   6723SM   O11 8651   3.112   5.740   7.332
   6723SM   O12 8652   3.257   5.894   7.466
   6723SM   C1S 8653   3.082   5.855   7.253
   6723SM   H1S 8654   3.121   5.949   7.296
   6723SM   H1T 8655   2.972   5.867   7.250
   6723SM    NF 8656   3.144   5.986   7.055
   6723SM   HNF 8657   3.087   6.016   6.980
   6723SM   C2S 8658   3.132   5.848   7.105
   6723SM   H2S 8659   3.232   5.799   7.100
   6723SM   C3S 8660   3.034   5.761   7.024
   6723SM   H3S 8661   2.928   5.789   7.046
   6723SM    O3 8662   3.053   5.624   7.058
   6723SM   HO3 8663   3.103   5.629   7.140
   6723SM   C4S 8664   3.057   5.769   6.877
   6723SM   H4S 8665   3.146   5.714   6.845
   6723SM   C5S 8666   2.980   5.831   6.785
   6723SM   H5S 8667   2.888   5.882   6.816
   6723SM   C6S 8668   3.009   5.835   6.637
   6723SM   H6S 8669   3.038   5.939   6.608
   6723SM   H6T 8670   2.918   5.811   6.578
   6723SM   C7S 8671   3.118   5.736   6.590
   6723SM   H7S 8672   3.082   5.632   6.602
   6723SM   H7T 8673   3.209   5.750   6.652
   6723SM   C8S 8674   3.162   5.761   6.446
   6723SM   H8S 8675   3.257   5.706   6.425
   6723SM   H8T 8676   3.185   5.869   6.440
   6723SM   C9S 8677   3.060   5.728   6.336
   6723SM   H9S 8678   2.968   5.786   6.357
   6723SM   H9T 8679   3.033   5.620   6.339
   6723SM  C10S 8680   3.112   5.768   6.197
   6723SM  H10S 8681   3.198   5.838   6.208
   6723SM  H10T 8682   3.029   5.824   6.148
   6723SM  C11S 8683   3.153   5.654   6.103
   6723SM  H11S 8684   3.080   5.571   6.114
   6723SM  H11T 8685   3.253   5.614   6.131
   6723SM  C12S 8686   3.155   5.698   5.955
   6723SM  H12S 8687   3.248   5.756   5.935
   6723SM  H12T 8688   3.070   5.767   5.937
   6723SM  C13S 8689   3.142   5.580   5.857
   6723SM  H13S 8690   3.044   5.582   5.807
   6723SM  H13T 8691   3.143   5.485   5.914
   6723SM  C14S 8692   3.249   5.573   5.748
   6723SM  H14S 8693   3.286   5.468   5.743
   6723SM  H14T 8694   3.336   5.637   5.775
   6723SM  C15S 8695   3.201   5.606   5.607
   6723SM  H15S 8696   3.171   5.713   5.599
   6723SM  H15T 8697   3.111   5.544   5.583
   6723SM  C16S 8698   3.312   5.572   5.508
   6723SM  H16S 8699   3.345   5.467   5.523
   6723SM  H16T 8700   3.399   5.638   5.528
   6723SM  C17S 8701   3.268   5.587   5.363
   6723SM  H17S 8702   3.232   5.691   5.349
   6723SM  H17T 8703   3.186   5.513   5.344
   6723SM  C18S 8704   3.375   5.561   5.260
   6723SM  H18S 8705   3.456   5.635   5.273
   6723SM  H18T 8706   3.336   5.570   5.156
   6723SM  H18U 8707   3.416   5.458   5.274
   6723SM   C1F 8708   3.249   6.056   7.101
   6723SM    OF 8709   3.343   5.999   7.155
   6723SM   C2F 8710   3.250   6.205   7.086
   6723SM   H2F 8711   3.322   6.247   7.160
   6723SM   H2G 8712   3.150   6.248   7.106
   6723SM   C3F 8713   3.303   6.241   6.948
   6723SM   H3F 8714   3.399   6.187   6.930
   6723SM   H3G 8715   3.330   6.349   6.942
   6723SM   C4F 8716   3.206   6.203   6.838
   6723SM   H4F 8717   3.104   6.245   6.853
   6723SM   H4G 8718   3.195   6.092   6.835
   6723SM   C5F 8719   3.265   6.243   6.706
   6723SM   H5F 8720   3.376   6.232   6.712
   6723SM   H5G 8721   3.243   6.349   6.681
   6723SM   C6F 8722   3.220   6.150   6.595
   6723SM   H6F 8723   3.110   6.163   6.580
   6723SM   H6G 8724   3.238   6.043   6.622
   6723SM   C7F 8725   3.299   6.185   6.472
   6723SM   H7F 8726   3.407   6.164   6.488
   6723SM   H7G 8727   3.287   6.295   6.459
   6723SM   C8F 8728   3.252   6.114   6.347
   6723SM   H8F 8729   3.285   6.008   6.349
   6723SM   H8G 8730   3.305   6.159   6.260
   6723SM   C9F 8731   3.100   6.123   6.323
   6723SM   H9F 8732   3.061   6.221   6.359
   6723SM   H9G 8733   3.047   6.043   6.380
   6723SM  C10F 8734   3.078   6.112   6.172
   6723SM  H10F 8735   3.131   6.021   6.138
   6723SM  H10G 8736   3.129   6.198   6.125
   6723SM  C11F 8737   2.936   6.106   6.117
   6723SM  H11F 8738   2.886   6.203   6.134
   6723SM  H11G 8739   2.877   6.028   6.170
   6723SM  C12F 8740   2.942   6.073   5.966
   6723SM  H12F 8741   2.841   6.050   5.928
   6723SM  H12G 8742   3.003   5.980   5.953
   6723SM  C13F 8743   3.005   6.185   5.881
   6723SM  H13F 8744   3.111   6.195   5.908
   6723SM  H13G 8745   2.952   6.279   5.909
   6723SM  C14F 8746   2.990   6.167   5.727
   6723SM  H14F 8747   2.994   6.267   5.679
   6723SM  H14G 8748   2.887   6.128   5.712
   6723SM  C15F 8749   3.087   6.071   5.656
   6723SM  H15F 8750   3.025   5.995   5.604
   6723SM  H15G 8751   3.151   6.018   5.730
   6723SM  C16F 8752   3.177   6.128   5.543
   6723SM  H16F 8753   3.260   6.186   5.585
   6723SM  H16G 8754   3.120   6.198   5.478
   6723SM  C17F 8755   3.240   6.018   5.455
   6723SM  H17F 8756   3.163   5.945   5.420
   6723SM  H17G 8757   3.310   5.961   5.521
   6723SM  C18F 8758   3.321   6.074   5.336
   6723SM  H18F 8759   3.377   5.989   5.290
   6723SM  H18G 8760   3.396   6.146   5.376
   6723SM  C19F 8761   3.241   6.140   5.221
   6723SM  H19F 8762   3.305   6.217   5.171
   6723SM  H19G 8763   3.156   6.198   5.261
   6723SM  C20F 8764   3.206   6.030   5.119
   6723SM  H20F 8765   3.190   5.938   5.180
   6723SM  H20G 8766   3.297   6.012   5.058
   6723SM  C21F 8767   3.082   6.030   5.026
   6723SM  H21F 8768   3.000   5.983   5.085
   6723SM  H21G 8769   3.106   5.961   4.942
   6723SM  C22F 8770   3.016   6.156   4.967
   6723SM  H22F 8771   3.036   6.157   4.857
   6723SM  H22G 8772   3.056   6.250   5.010
   6723SM  C23F 8773   2.863   6.145   4.984
   6723SM  H23F 8774   2.807   6.222   4.929
   6723SM  H23G 8775   2.833   6.155   5.090
   6723SM  H23H 8776   2.828   6.045   4.951
   6823SM     N 8777   3.398   1.427   7.697
   6823SM   C15 8778   3.329   1.455   7.828
   6823SM  H15A 8779   3.291   1.364   7.874
   6823SM  H15B 8780   3.245   1.523   7.816
   6823SM  H15C 8781   3.396   1.500   7.901
   6823SM   C14 8782   3.502   1.322   7.718
   6823SM  H14A 8783   3.558   1.304   7.626
   6823SM  H14B 8784   3.456   1.228   7.748
   6823SM  H14C 8785   3.570   1.350   7.797
   6823SM   C13 8786   3.295   1.374   7.600
   6823SM  H13A 8787   3.231   1.457   7.569
   6823SM  H13B 8788   3.236   1.295   7.643
   6823SM  H13C 8789   3.339   1.335   7.508
   6823SM   C12 8790   3.465   1.549   7.636
   6823SM  H12A 8791   3.503   1.525   7.536
   6823SM  H12B 8792   3.553   1.577   7.692
   6823SM   C11 8793   3.378   1.675   7.619
   6823SM  H11A 8794   3.444   1.759   7.588
   6823SM  H11B 8795   3.333   1.699   7.718
   6823SM     P 8796   3.168   1.764   7.506
   6823SM   O13 8797   3.088   1.771   7.629
   6823SM   O14 8798   3.227   1.890   7.460
   6823SM   O11 8799   3.074   1.709   7.393
   6823SM   O12 8800   3.279   1.650   7.519
   6823SM   C1S 8801   3.110   1.605   7.303
   6823SM   H1S 8802   3.067   1.509   7.340
   6823SM   H1T 8803   3.220   1.591   7.293
   6823SM    NF 8804   3.064   1.525   7.074
   6823SM   HNF 8805   3.111   1.545   6.988
   6823SM   C2S 8806   3.051   1.637   7.164
   6823SM   H2S 8807   2.942   1.659   7.176
   6823SM   C3S 8808   3.118   1.764   7.104
   6823SM   H3S 8809   3.228   1.750   7.104
   6823SM    O3 8810   3.093   1.884   7.175
   6823SM   HO3 8811   3.076   1.857   7.266
   6823SM   C4S 8812   3.071   1.773   6.960
   6823SM   H4S 8813   3.145   1.733   6.890
   6823SM   C5S 8814   2.956   1.823   6.913
   6823SM   H5S 8815   2.888   1.873   6.985
   6823SM   C6S 8816   2.913   1.826   6.768
   6823SM   H6S 8817   2.900   1.932   6.736
   6823SM   H6T 8818   2.812   1.779   6.765
   6823SM   C7S 8819   2.997   1.754   6.659
   6823SM   H7S 8820   2.996   1.644   6.678
   6823SM   H7T 8821   3.103   1.787   6.664
   6823SM   C8S 8822   2.943   1.781   6.517
   6823SM   H8S 8823   2.948   1.891   6.499
   6823SM   H8T 8824   2.835   1.751   6.515
   6823SM   C9S 8825   3.014   1.711   6.399
   6823SM   H9S 8826   3.002   1.602   6.412
   6823SM   H9T 8827   3.123   1.732   6.403
   6823SM  C10S 8828   2.960   1.756   6.259
   6823SM  H10S 8829   3.009   1.850   6.228
   6823SM  H10T 8830   2.852   1.773   6.275
   6823SM  C11S 8831   2.960   1.650   6.147
   6823SM  H11S 8832   2.870   1.591   6.167
   6823SM  H11T 8833   3.046   1.581   6.158
   6823SM  C12S 8834   2.940   1.687   5.998
   6823SM  H12S 8835   3.002   1.774   5.970
   6823SM  H12T 8836   2.834   1.714   5.983
   6823SM  C13S 8837   2.969   1.563   5.910
   6823SM  H13S 8838   2.922   1.474   5.956
   6823SM  H13T 8839   3.078   1.547   5.909
   6823SM  C14S 8840   2.925   1.572   5.763
   6823SM  H14S 8841   2.963   1.669   5.723
   6823SM  H14T 8842   2.815   1.574   5.755
   6823SM  C15S 8843   2.982   1.458   5.673
   6823SM  H15S 8844   2.920   1.367   5.686
   6823SM  H15T 8845   3.086   1.433   5.704
   6823SM  C16S 8846   2.983   1.503   5.526
   6823SM  H16S 8847   3.059   1.583   5.514
   6823SM  H16T 8848   2.883   1.546   5.505
   6823SM  C17S 8849   3.012   1.400   5.415
   6823SM  H17S 8850   2.942   1.314   5.424
   6823SM  H17T 8851   3.116   1.362   5.427
   6823SM  C18S 8852   2.997   1.463   5.276
   6823SM  H18S 8853   3.031   1.395   5.195
   6823SM  H18T 8854   3.056   1.557   5.269
   6823SM  H18U 8855   2.891   1.490   5.256
   6823SM   C1F 8856   3.001   1.410   7.088
   6823SM    OF 8857   2.930   1.388   7.185
   6823SM   C2F 8858   3.012   1.317   6.972
   6823SM   H2F 8859   3.013   1.376   6.877
   6823SM   H2G 8860   2.920   1.254   6.971
   6823SM   C3F 8861   3.134   1.222   6.976
   6823SM   H3F 8862   3.142   1.176   6.875
   6823SM   H3G 8863   3.109   1.139   7.047
   6823SM   C4F 8864   3.271   1.280   7.015
   6823SM   H4F 8865   3.343   1.195   7.006
   6823SM   H4G 8866   3.270   1.311   7.122
   6823SM   C5F 8867   3.323   1.394   6.927
   6823SM   H5F 8868   3.280   1.491   6.958
   6823SM   H5G 8869   3.291   1.375   6.821
   6823SM   C6F 8870   3.476   1.409   6.932
   6823SM   H6F 8871   3.522   1.312   6.906
   6823SM   H6G 8872   3.506   1.434   7.037
   6823SM   C7F 8873   3.529   1.517   6.837
   6823SM   H7F 8874   3.635   1.534   6.863
   6823SM   H7G 8875   3.476   1.613   6.853
   6823SM   C8F 8876   3.519   1.477   6.688
   6823SM   H8F 8877   3.413   1.492   6.657
   6823SM   H8G 8878   3.543   1.369   6.676
   6823SM   C9F 8879   3.611   1.557   6.595
   6823SM   H9F 8880   3.716   1.525   6.611
   6823SM   H9G 8881   3.605   1.665   6.620
   6823SM  C10F 8882   3.587   1.535   6.446
   6823SM  H10F 8883   3.609   1.429   6.420
   6823SM  H10G 8884   3.658   1.600   6.389
   6823SM  C11F 8885   3.446   1.561   6.397
   6823SM  H11F 8886   3.410   1.659   6.434
   6823SM  H11G 8887   3.376   1.483   6.434
   6823SM  C12F 8888   3.444   1.562   6.244
   6823SM  H12F 8889   3.474   1.462   6.203
   6823SM  H12G 8890   3.518   1.636   6.208
   6823SM  C13F 8891   3.306   1.601   6.197
   6823SM  H13F 8892   3.281   1.700   6.241
   6823SM  H13G 8893   3.232   1.530   6.241
   6823SM  C14F 8894   3.284   1.611   6.046
   6823SM  H14F 8895   3.191   1.670   6.040
   6823SM  H14G 8896   3.266   1.511   6.002
   6823SM  C15F 8897   3.382   1.690   5.961
   6823SM  H15F 8898   3.462   1.624   5.922
   6823SM  H15G 8899   3.430   1.771   6.022
   6823SM  C16F 8900   3.308   1.759   5.845
   6823SM  H16F 8901   3.367   1.849   5.817
   6823SM  H16G 8902   3.208   1.794   5.876
   6823SM  C17F 8903   3.296   1.676   5.717
   6823SM  H17F 8904   3.209   1.608   5.723
   6823SM  H17G 8905   3.387   1.614   5.704
   6823SM  C18F 8906   3.281   1.767   5.595
   6823SM  H18F 8907   3.335   1.863   5.609
   6823SM  H18G 8908   3.173   1.792   5.584
   6823SM  C19F 8909   3.330   1.702   5.466
   6823SM  H19F 8910   3.295   1.596   5.466
   6823SM  H19G 8911   3.441   1.701   5.465
   6823SM  C20F 8912   3.277   1.770   5.340
   6823SM  H20F 8913   3.166   1.774   5.342
   6823SM  H20G 8914   3.306   1.703   5.257
   6823SM  C21F 8915   3.331   1.912   5.317
   6823SM  H21F 8916   3.441   1.914   5.331
   6823SM  H21G 8917   3.286   1.982   5.391
   6823SM  C22F 8918   3.299   1.961   5.175
   6823SM  H22F 8919   3.336   2.066   5.164
   6823SM  H22G 8920   3.189   1.962   5.162
   6823SM  C23F 8921   3.363   1.876   5.065
   6823SM  H23F 8922   3.327   1.906   4.966
   6823SM  H23G 8923   3.336   1.769   5.074
   6823SM  H23H 8924   3.473   1.886   5.067
   6923SM     N 8925   5.430   2.091   7.810
   6923SM   C15 8926   5.284   2.057   7.811
   6923SM  H15A 8927   5.232   2.102   7.894
   6923SM  H15B 8928   5.272   1.950   7.817
   6923SM  H15C 8929   5.240   2.088   7.716
   6923SM   C14 8930   5.451   2.239   7.821
   6923SM  H14A 8931   5.403   2.291   7.738
   6923SM  H14B 8932   5.557   2.265   7.827
   6923SM  H14C 8933   5.409   2.279   7.913
   6923SM   C13 8934   5.492   2.026   7.929
   6923SM  H13A 8935   5.441   2.061   8.019
   6923SM  H13B 8936   5.595   2.059   7.943
   6923SM  H13C 8937   5.492   1.918   7.926
   6923SM   C12 8938   5.490   2.034   7.682
   6923SM  H12A 8939   5.455   1.931   7.671
   6923SM  H12B 8940   5.598   2.031   7.690
   6923SM   C11 8941   5.452   2.104   7.550
   6923SM  H11A 8942   5.509   2.050   7.470
   6923SM  H11B 8943   5.491   2.208   7.553
   6923SM     P 8944   5.243   1.993   7.435
   6923SM   O13 8945   5.255   1.866   7.510
   6923SM   O14 8946   5.107   2.034   7.397
   6923SM   O11 8947   5.334   1.991   7.304
   6923SM   O12 8948   5.312   2.107   7.525
   6923SM   C1S 8949   5.377   2.115   7.245
   6923SM   H1S 8950   5.486   2.130   7.266
   6923SM   H1T 8951   5.322   2.204   7.284
   6923SM    NF 8952   5.217   2.112   7.062
   6923SM   HNF 8953   5.169   2.026   7.067
   6923SM   C2S 8954   5.360   2.115   7.091
   6923SM   H2S 8955   5.402   2.210   7.051
   6923SM   C3S 8956   5.437   1.997   7.026
   6923SM   H3S 8957   5.405   1.900   7.067
   6923SM    O3 8958   5.580   2.002   7.042
   6923SM   HO3 8959   5.599   2.079   7.096
   6923SM   C4S 8960   5.411   2.006   6.878
   6923SM   H4S 8961   5.462   2.089   6.828
   6923SM   C5S 8962   5.340   1.919   6.804
   6923SM   H5S 8963   5.294   1.831   6.851
   6923SM   C6S 8964   5.317   1.937   6.656
   6923SM   H6S 8965   5.321   2.046   6.630
   6923SM   H6T 8966   5.214   1.901   6.634
   6923SM   C7S 8967   5.410   1.867   6.557
   6923SM   H7S 8968   5.412   1.759   6.582
   6923SM   H7T 8969   5.512   1.909   6.572
   6923SM   C8S 8970   5.375   1.882   6.407
   6923SM   H8S 8971   5.400   1.984   6.372
   6923SM   H8T 8972   5.267   1.865   6.387
   6923SM   C9S 8973   5.461   1.779   6.333
   6923SM   H9S 8974   5.441   1.677   6.371
   6923SM   H9T 8975   5.563   1.805   6.359
   6923SM  C10S 8976   5.464   1.781   6.181
   6923SM  H10S 8977   5.572   1.778   6.149
   6923SM  H10T 8978   5.421   1.877   6.144
   6923SM  C11S 8979   5.396   1.659   6.120
   6923SM  H11S 8980   5.323   1.618   6.191
   6923SM  H11T 8981   5.474   1.581   6.103
   6923SM  C12S 8982   5.326   1.694   5.990
   6923SM  H12S 8983   5.251   1.774   6.011
   6923SM  H12T 8984   5.272   1.606   5.948
   6923SM  C13S 8985   5.427   1.749   5.891
   6923SM  H13S 8986   5.505   1.673   5.873
   6923SM  H13T 8987   5.477   1.839   5.934
   6923SM  C14S 8988   5.367   1.792   5.759
   6923SM  H14S 8989   5.294   1.876   5.775
   6923SM  H14T 8990   5.311   1.708   5.712
   6923SM  C15S 8991   5.481   1.838   5.668
   6923SM  H15S 8992   5.556   1.757   5.658
   6923SM  H15T 8993   5.531   1.925   5.715
   6923SM  C16S 8994   5.427   1.875   5.532
   6923SM  H16S 8995   5.363   1.965   5.547
   6923SM  H16T 8996   5.362   1.792   5.496
   6923SM  C17S 8997   5.532   1.904   5.426
   6923SM  H17S 8998   5.590   1.813   5.401
   6923SM  H17T 8999   5.602   1.983   5.462
   6923SM  C18S 9000   5.462   1.952   5.301
   6923SM  H18S 9001   5.419   1.869   5.241
   6923SM  H18T 9002   5.529   2.011   5.235
   6923SM  H18U 9003   5.380   2.017   5.334
   6923SM   C1F 9004   5.149   2.227   7.066
   6923SM    OF 9005   5.201   2.330   7.108
   6923SM   C2F 9006   5.011   2.225   7.011
   6923SM   H2F 9007   4.936   2.261   7.085
   6923SM   H2G 9008   4.980   2.124   6.976
   6923SM   C3F 9009   5.006   2.319   6.890
   6923SM   H3F 9010   5.022   2.426   6.915
   6923SM   H3G 9011   4.898   2.311   6.869
   6923SM   C4F 9012   5.092   2.274   6.772
   6923SM   H4F 9013   5.199   2.265   6.803
   6923SM   H4G 9014   5.089   2.351   6.691
   6923SM   C5F 9015   5.046   2.140   6.714
   6923SM   H5F 9016   4.936   2.131   6.723
   6923SM   H5G 9017   5.091   2.057   6.773
   6923SM   C6F 9018   5.083   2.130   6.566
   6923SM   H6F 9019   5.095   2.026   6.530
   6923SM   H6G 9020   5.181   2.183   6.552
   6923SM   C7F 9021   4.980   2.198   6.477
   6923SM   H7F 9022   4.927   2.273   6.538
   6923SM   H7G 9023   4.904   2.124   6.444
   6923SM   C8F 9024   5.045   2.274   6.363
   6923SM   H8F 9025   5.109   2.354   6.405
   6923SM   H8G 9026   4.966   2.324   6.304
   6923SM   C9F 9027   5.128   2.182   6.275
   6923SM   H9F 9028   5.196   2.121   6.339
   6923SM   H9G 9029   5.192   2.241   6.206
   6923SM  C10F 9030   5.038   2.088   6.196
   6923SM  H10F 9031   4.968   2.035   6.264
   6923SM  H10G 9032   5.100   2.011   6.144
   6923SM  C11F 9033   4.956   2.161   6.091
   6923SM  H11F 9034   4.887   2.237   6.133
   6923SM  H11G 9035   4.891   2.081   6.050
   6923SM  C12F 9036   5.045   2.227   5.986
   6923SM  H12F 9037   5.136   2.164   5.971
   6923SM  H12G 9038   5.081   2.326   6.023
   6923SM  C13F 9039   4.975   2.245   5.852
   6923SM  H13F 9040   5.047   2.283   5.776
   6923SM  H13G 9041   4.895   2.322   5.863
   6923SM  C14F 9042   4.910   2.115   5.802
   6923SM  H14F 9043   4.859   2.136   5.707
   6923SM  H14G 9044   4.828   2.083   5.869
   6923SM  C15F 9045   5.001   1.994   5.788
   6923SM  H15F 9046   4.940   1.907   5.821
   6923SM  H15G 9047   5.091   1.999   5.852
   6923SM  C16F 9048   5.037   1.970   5.643
   6923SM  H16F 9049   4.942   1.962   5.587
   6923SM  H16G 9050   5.092   1.874   5.628
   6923SM  C17F 9051   5.115   2.085   5.579
   6923SM  H17F 9052   5.213   2.096   5.628
   6923SM  H17G 9053   5.058   2.179   5.589
   6923SM  C18F 9054   5.124   2.048   5.433
   6923SM  H18F 9055   5.022   2.018   5.401
   6923SM  H18G 9056   5.188   1.957   5.424
   6923SM  C19F 9057   5.169   2.152   5.332
   6923SM  H19F 9058   5.270   2.188   5.363
   6923SM  H19G 9059   5.102   2.240   5.329
   6923SM  C20F 9060   5.172   2.076   5.199
   6923SM  H20F 9061   5.219   1.977   5.215
   6923SM  H20G 9062   5.233   2.124   5.121
   6923SM  C21F 9063   5.036   2.048   5.138
   6923SM  H21F 9064   4.980   2.145   5.137
   6923SM  H21G 9065   4.979   1.976   5.199
   6923SM  C22F 9066   5.055   2.003   4.993
   6923SM  H22F 9067   5.096   2.096   4.950
   6923SM  H22G 9068   4.961   1.990   4.940
   6923SM  C23F 9069   5.153   1.888   4.958
   6923SM  H23F 9070   5.227   1.924   4.884
   6923SM  H23G 9071   5.101   1.801   4.912
   6923SM  H23H 9072   5.207   1.852   5.048
   7023SM     N 9073   4.765   1.611   7.805
   7023SM   C15 9074   4.825   1.484   7.753
   7023SM  H15A 9075   4.794   1.467   7.649
   7023SM  H15B 9076   4.793   1.396   7.810
   7023SM  H15C 9077   4.933   1.489   7.757
   7023SM   C14 9078   4.620   1.584   7.829
   7023SM  H14A 9079   4.576   1.542   7.738
   7023SM  H14B 9080   4.565   1.673   7.851
   7023SM  H14C 9081   4.606   1.512   7.908
   7023SM   C13 9082   4.836   1.641   7.931
   7023SM  H13A 9083   4.939   1.668   7.911
   7023SM  H13B 9084   4.841   1.553   7.995
   7023SM  H13C 9085   4.787   1.720   7.987
   7023SM   C12 9086   4.787   1.722   7.704
   7023SM  H12A 9087   4.889   1.712   7.667
   7023SM  H12B 9088   4.777   1.820   7.750
   7023SM   C11 9089   4.698   1.721   7.578
   7023SM  H11A 9090   4.730   1.804   7.510
   7023SM  H11B 9091   4.593   1.742   7.607
   7023SM     P 9092   4.594   1.529   7.437
   7023SM   O13 9093   4.626   1.386   7.416
   7023SM   O14 9094   4.471   1.563   7.510
   7023SM   O11 9095   4.596   1.606   7.298
   7023SM   O12 9096   4.717   1.596   7.511
   7023SM   C1S 9097   4.722   1.653   7.248
   7023SM   H1S 9098   4.808   1.587   7.277
   7023SM   H1T 9099   4.742   1.755   7.288
   7023SM    NF 9100   4.837   1.588   7.038
   7023SM   HNF 9101   4.920   1.642   7.024
   7023SM   C2S 9102   4.723   1.662   7.093
   7023SM   H2S 9103   4.628   1.617   7.054
   7023SM   C3S 9104   4.726   1.811   7.050
   7023SM   H3S 9105   4.816   1.861   7.092
   7023SM    O3 9106   4.614   1.890   7.092
   7023SM   HO3 9107   4.579   1.847   7.171
   7023SM   C4S 9108   4.729   1.813   6.901
   7023SM   H4S 9109   4.631   1.792   6.855
   7023SM   C5S 9110   4.834   1.842   6.823
   7023SM   H5S 9111   4.931   1.868   6.868
   7023SM   C6S 9112   4.827   1.840   6.673
   7023SM   H6S 9113   4.843   1.942   6.632
   7023SM   H6T 9114   4.727   1.807   6.636
   7023SM   C7S 9115   4.932   1.745   6.615
   7023SM   H7S 9116   4.919   1.642   6.652
   7023SM   H7T 9117   5.033   1.779   6.645
   7023SM   C8S 9118   4.922   1.746   6.462
   7023SM   H8S 9119   4.925   1.854   6.432
   7023SM   H8T 9120   4.825   1.705   6.428
   7023SM   C9S 9121   5.037   1.677   6.390
   7023SM   H9S 9122   5.023   1.566   6.386
   7023SM   H9T 9123   5.132   1.698   6.443
   7023SM  C10S 9124   5.049   1.735   6.249
   7023SM  H10S 9125   5.142   1.699   6.202
   7023SM  H10T 9126   5.058   1.845   6.259
   7023SM  C11S 9127   4.934   1.702   6.154
   7023SM  H11S 9128   4.842   1.760   6.177
   7023SM  H11T 9129   4.910   1.594   6.164
   7023SM  C12S 9130   4.982   1.727   6.010
   7023SM  H12S 9131   5.074   1.668   5.997
   7023SM  H12T 9132   5.006   1.835   5.998
   7023SM  C13S 9133   4.881   1.674   5.910
   7023SM  H13S 9134   4.786   1.732   5.920
   7023SM  H13T 9135   4.865   1.571   5.948
   7023SM  C14S 9136   4.918   1.656   5.761
   7023SM  H14S 9137   4.949   1.550   5.743
   7023SM  H14T 9138   5.006   1.718   5.734
   7023SM  C15S 9139   4.795   1.689   5.675
   7023SM  H15S 9140   4.753   1.785   5.714
   7023SM  H15T 9141   4.716   1.613   5.688
   7023SM  C16S 9142   4.809   1.712   5.525
   7023SM  H16S 9143   4.831   1.820   5.512
   7023SM  H16T 9144   4.711   1.695   5.475
   7023SM  C17S 9145   4.916   1.644   5.441
   7023SM  H17S 9146   4.887   1.540   5.415
   7023SM  H17T 9147   5.015   1.642   5.492
   7023SM  C18S 9148   4.922   1.729   5.316
   7023SM  H18S 9149   4.973   1.679   5.232
   7023SM  H18T 9150   4.979   1.822   5.340
   7023SM  H18U 9151   4.820   1.758   5.282
   7023SM   C1F 9152   4.828   1.457   7.016
   7023SM    OF 9153   4.746   1.387   7.073
   7023SM   C2F 9154   4.917   1.398   6.911
   7023SM   H2F 9155   4.983   1.322   6.958
   7023SM   H2G 9156   4.979   1.478   6.865
   7023SM   C3F 9157   4.828   1.331   6.803
   7023SM   H3F 9158   4.776   1.243   6.847
   7023SM   H3G 9159   4.895   1.292   6.723
   7023SM   C4F 9160   4.721   1.426   6.745
   7023SM   H4F 9161   4.769   1.517   6.704
   7023SM   H4G 9162   4.653   1.460   6.826
   7023SM   C5F 9163   4.632   1.365   6.637
   7023SM   H5F 9164   4.548   1.434   6.615
   7023SM   H5G 9165   4.589   1.270   6.677
   7023SM   C6F 9166   4.706   1.337   6.507
   7023SM   H6F 9167   4.799   1.283   6.535
   7023SM   H6G 9168   4.737   1.430   6.455
   7023SM   C7F 9169   4.624   1.246   6.416
   7023SM   H7F 9170   4.579   1.171   6.484
   7023SM   H7G 9171   4.691   1.194   6.343
   7023SM   C8F 9172   4.506   1.310   6.342
   7023SM   H8F 9173   4.439   1.360   6.416
   7023SM   H8G 9174   4.447   1.230   6.292
   7023SM   C9F 9175   4.549   1.411   6.237
   7023SM   H9F 9176   4.632   1.474   6.276
   7023SM   H9G 9177   4.465   1.478   6.213
   7023SM  C10F 9178   4.595   1.342   6.108
   7023SM  H10F 9179   4.512   1.287   6.063
   7023SM  H10G 9180   4.676   1.269   6.129
   7023SM  C11F 9181   4.646   1.448   6.012
   7023SM  H11F 9182   4.724   1.504   6.069
   7023SM  H11G 9183   4.565   1.521   5.987
   7023SM  C12F 9184   4.707   1.389   5.885
   7023SM  H12F 9185   4.796   1.328   5.911
   7023SM  H12G 9186   4.743   1.473   5.824
   7023SM  C13F 9187   4.614   1.311   5.794
   7023SM  H13F 9188   4.517   1.367   5.786
   7023SM  H13G 9189   4.593   1.211   5.836
   7023SM  C14F 9190   4.672   1.301   5.652
   7023SM  H14F 9191   4.677   1.404   5.609
   7023SM  H14G 9192   4.600   1.241   5.592
   7023SM  C15F 9193   4.814   1.239   5.640
   7023SM  H15F 9194   4.808   1.131   5.666
   7023SM  H15G 9195   4.884   1.287   5.711
   7023SM  C16F 9196   4.875   1.253   5.499
   7023SM  H16F 9197   4.965   1.189   5.489
   7023SM  H16G 9198   4.909   1.358   5.489
   7023SM  C17F 9199   4.776   1.221   5.387
   7023SM  H17F 9200   4.678   1.269   5.407
   7023SM  H17G 9201   4.760   1.111   5.385
   7023SM  C18F 9202   4.811   1.272   5.249
   7023SM  H18F 9203   4.906   1.228   5.211
   7023SM  H18G 9204   4.823   1.383   5.253
   7023SM  C19F 9205   4.696   1.241   5.154
   7023SM  H19F 9206   4.599   1.277   5.196
   7023SM  H19G 9207   4.687   1.133   5.144
   7023SM  C20F 9208   4.714   1.297   5.015
   7023SM  H20F 9209   4.809   1.259   4.971
   7023SM  H20G 9210   4.726   1.406   5.022
   7023SM  C21F 9211   4.594   1.261   4.927
   7023SM  H21F 9212   4.499   1.278   4.982
   7023SM  H21G 9213   4.599   1.153   4.900
   7023SM  C22F 9214   4.596   1.346   4.801
   7023SM  H22F 9215   4.529   1.301   4.724
   7023SM  H22G 9216   4.700   1.344   4.765
   7023SM  C23F 9217   4.562   1.494   4.818
   7023SM  H23F 9218   4.586   1.553   4.728
   7023SM  H23G 9219   4.616   1.539   4.904
   7023SM  H23H 9220   4.454   1.500   4.840
   7123SM     N 9221   4.602   6.566   7.712
   7123SM   C15 9222   4.742   6.584   7.763
   7123SM  H15A 9223   4.777   6.685   7.738
   7123SM  H15B 9224   4.810   6.517   7.713
   7123SM  H15C 9225   4.750   6.569   7.870
   7123SM   C14 9226   4.549   6.433   7.755
   7123SM  H14A 9227   4.605   6.352   7.709
   7123SM  H14B 9228   4.444   6.419   7.733
   7123SM  H14C 9229   4.566   6.416   7.861
   7123SM   C13 9230   4.517   6.676   7.767
   7123SM  H13A 9231   4.550   6.770   7.722
   7123SM  H13B 9232   4.524   6.686   7.875
   7123SM  H13C 9233   4.414   6.662   7.739
   7123SM   C12 9234   4.604   6.578   7.560
   7123SM  H12A 9235   4.508   6.549   7.520
   7123SM  H12B 9236   4.680   6.512   7.520
   7123SM   C11 9237   4.639   6.716   7.499
   7123SM  H11A 9238   4.574   6.796   7.541
   7123SM  H11B 9239   4.618   6.711   7.389
   7123SM     P 9240   4.836   6.886   7.490
   7123SM   O13 9241   4.737   6.985   7.538
   7123SM   O14 9242   4.973   6.897   7.546
   7123SM   O11 9243   4.848   6.893   7.330
   7123SM   O12 9244   4.777   6.742   7.521
   7123SM   C1S 9245   4.896   6.777   7.262
   7123SM   H1S 9246   4.859   6.683   7.309
   7123SM   H1T 9247   5.007   6.774   7.264
   7123SM    NF 9248   4.838   6.638   7.059
   7123SM   HNF 9249   4.878   6.628   6.969
   7123SM   C2S 9250   4.845   6.774   7.115
   7123SM   H2S 9251   4.742   6.816   7.114
   7123SM   C3S 9252   4.935   6.863   7.024
   7123SM   H3S 9253   5.039   6.824   7.028
   7123SM    O3 9254   4.942   7.002   7.059
   7123SM   HO3 9255   4.914   7.006   7.152
   7123SM   C4S 9256   4.880   6.846   6.884
   7123SM   H4S 9257   4.780   6.889   6.871
   7123SM   C5S 9258   4.938   6.785   6.779
   7123SM   H5S 9259   5.041   6.746   6.786
   7123SM   C6S 9260   4.870   6.773   6.645
   7123SM   H6S 9261   4.760   6.789   6.654
   7123SM   H6T 9262   4.883   6.670   6.605
   7123SM   C7S 9263   4.921   6.872   6.541
   7123SM   H7S 9264   5.029   6.852   6.524
   7123SM   H7T 9265   4.908   6.976   6.578
   7123SM   C8S 9266   4.847   6.858   6.407
   7123SM   H8S 9267   4.738   6.870   6.424
   7123SM   H8T 9268   4.864   6.756   6.366
   7123SM   C9S 9269   4.894   6.962   6.306
   7123SM   H9S 9270   5.003   6.950   6.286
   7123SM   H9T 9271   4.878   7.064   6.348
   7123SM  C10S 9272   4.820   6.950   6.173
   7123SM  H10S 9273   4.719   6.906   6.191
   7123SM  H10T 9274   4.879   6.878   6.112
   7123SM  C11S 9275   4.802   7.084   6.103
   7123SM  H11S 9276   4.893   7.145   6.125
   7123SM  H11T 9277   4.717   7.138   6.150
   7123SM  C12S 9278   4.783   7.084   5.950
   7123SM  H12S 9279   4.825   7.180   5.915
   7123SM  H12T 9280   4.675   7.084   5.923
   7123SM  C13S 9281   4.855   6.974   5.873
   7123SM  H13S 9282   4.795   6.883   5.861
   7123SM  H13T 9283   4.948   6.944   5.925
   7123SM  C14S 9284   4.891   7.024   5.733
   7123SM  H14S 9285   4.920   7.131   5.736
   7123SM  H14T 9286   4.803   7.014   5.667
   7123SM  C15S 9287   5.010   6.949   5.675
   7123SM  H15S 9288   4.999   6.840   5.688
   7123SM  H15T 9289   5.099   6.972   5.733
   7123SM  C16S 9290   5.022   6.984   5.527
   7123SM  H16S 9291   5.129   6.989   5.498
   7123SM  H16T 9292   4.972   7.080   5.505
   7123SM  C17S 9293   4.955   6.871   5.453
   7123SM  H17S 9294   4.861   6.848   5.509
   7123SM  H17T 9295   5.030   6.792   5.467
   7123SM  C18S 9296   4.919   6.879   5.307
   7123SM  H18S 9297   4.924   6.982   5.268
   7123SM  H18T 9298   4.818   6.837   5.289
   7123SM  H18U 9299   4.989   6.811   5.253
   7123SM   C1F 9300   4.761   6.538   7.102
   7123SM    OF 9301   4.691   6.545   7.201
   7123SM   C2F 9302   4.763   6.419   7.014
   7123SM   H2F 9303   4.791   6.329   7.073
   7123SM   H2G 9304   4.839   6.435   6.934
   7123SM   C3F 9305   4.624   6.401   6.951
   7123SM   H3F 9306   4.589   6.493   6.900
   7123SM   H3G 9307   4.550   6.377   7.031
   7123SM   C4F 9308   4.626   6.286   6.851
   7123SM   H4F 9309   4.523   6.265   6.814
   7123SM   H4G 9310   4.658   6.196   6.908
   7123SM   C5F 9311   4.722   6.302   6.731
   7123SM   H5F 9312   4.705   6.216   6.662
   7123SM   H5G 9313   4.827   6.293   6.767
   7123SM   C6F 9314   4.707   6.435   6.656
   7123SM   H6F 9315   4.787   6.441   6.579
   7123SM   H6G 9316   4.722   6.519   6.727
   7123SM   C7F 9317   4.572   6.457   6.585
   7123SM   H7F 9318   4.488   6.439   6.656
   7123SM   H7G 9319   4.563   6.383   6.503
   7123SM   C8F 9320   4.565   6.600   6.529
   7123SM   H8F 9321   4.658   6.620   6.472
   7123SM   H8G 9322   4.564   6.671   6.615
   7123SM   C9F 9323   4.443   6.628   6.439
   7123SM   H9F 9324   4.429   6.737   6.427
   7123SM   H9G 9325   4.353   6.587   6.491
   7123SM  C10F 9326   4.454   6.562   6.301
   7123SM  H10F 9327   4.358   6.574   6.246
   7123SM  H10G 9328   4.468   6.453   6.320
   7123SM  C11F 9329   4.568   6.608   6.207
   7123SM  H11F 9330   4.599   6.518   6.151
   7123SM  H11G 9331   4.656   6.642   6.265
   7123SM  C12F 9332   4.532   6.714   6.102
   7123SM  H12F 9333   4.518   6.813   6.153
   7123SM  H12G 9334   4.436   6.691   6.051
   7123SM  C13F 9335   4.642   6.734   5.996
   7123SM  H13F 9336   4.737   6.750   6.050
   7123SM  H13G 9337   4.618   6.824   5.936
   7123SM  C14F 9338   4.676   6.618   5.903
   7123SM  H14F 9339   4.705   6.532   5.966
   7123SM  H14G 9340   4.767   6.645   5.843
   7123SM  C15F 9341   4.563   6.578   5.808
   7123SM  H15F 9342   4.472   6.558   5.866
   7123SM  H15G 9343   4.587   6.481   5.764
   7123SM  C16F 9344   4.532   6.676   5.694
   7123SM  H16F 9345   4.486   6.765   5.742
   7123SM  H16G 9346   4.457   6.631   5.626
   7123SM  C17F 9347   4.651   6.727   5.609
   7123SM  H17F 9348   4.723   6.780   5.675
   7123SM  H17G 9349   4.611   6.804   5.539
   7123SM  C18F 9350   4.728   6.624   5.523
   7123SM  H18F 9351   4.748   6.675   5.426
   7123SM  H18G 9352   4.667   6.536   5.494
   7123SM  C19F 9353   4.868   6.591   5.581
   7123SM  H19F 9354   4.870   6.520   5.665
   7123SM  H19G 9355   4.901   6.684   5.629
   7123SM  C20F 9356   4.975   6.564   5.476
   7123SM  H20F 9357   5.073   6.605   5.510
   7123SM  H20G 9358   4.944   6.617   5.383
   7123SM  C21F 9359   5.005   6.422   5.439
   7123SM  H21F 9360   4.910   6.368   5.429
   7123SM  H21G 9361   5.071   6.371   5.513
   7123SM  C22F 9362   5.060   6.419   5.300
   7123SM  H22F 9363   5.163   6.462   5.292
   7123SM  H22G 9364   4.992   6.479   5.234
   7123SM  C23F 9365   5.054   6.277   5.254
   7123SM  H23F 9366   5.149   6.225   5.275
   7123SM  H23G 9367   5.030   6.275   5.146
   7123SM  H23H 9368   4.972   6.223   5.304
   7223SM     N 9369   6.733   2.680   7.692
   7223SM   C15 9370   6.759   2.783   7.798
   7223SM  H15A 9371   6.671   2.794   7.861
   7223SM  H15B 9372   6.773   2.879   7.749
   7223SM  H15C 9373   6.846   2.757   7.855
   7223SM   C14 9374   6.849   2.671   7.601
   7223SM  H14A 9375   6.941   2.653   7.655
   7223SM  H14B 9376   6.858   2.764   7.545
   7223SM  H14C 9377   6.834   2.593   7.527
   7223SM   C13 9378   6.711   2.548   7.754
   7223SM  H13A 9379   6.704   2.474   7.674
   7223SM  H13B 9380   6.619   2.545   7.810
   7223SM  H13C 9381   6.795   2.520   7.816
   7223SM   C12 9382   6.616   2.723   7.603
   7223SM  H12A 9383   6.523   2.682   7.641
   7223SM  H12B 9384   6.631   2.681   7.504
   7223SM   C11 9385   6.595   2.874   7.584
   7223SM  H11A 9386   6.548   2.915   7.677
   7223SM  H11B 9387   6.523   2.888   7.499
   7223SM     P 9388   6.717   3.094   7.533
   7223SM   O13 9389   6.604   3.135   7.448
   7223SM   O14 9390   6.736   3.160   7.665
   7223SM   O11 9391   6.848   3.119   7.448
   7223SM   O12 9392   6.718   2.939   7.555
   7223SM   C1S 9393   6.902   3.025   7.355
   7223SM   H1S 9394   6.906   2.923   7.399
   7223SM   H1T 9395   7.007   3.054   7.332
   7223SM    NF 9396   6.884   2.898   7.144
   7223SM   HNF 9397   6.937   2.922   7.063
   7223SM   C2S 9398   6.826   3.011   7.218
   7223SM   H2S 9399   6.719   2.992   7.240
   7223SM   C3S 9400   6.830   3.141   7.131
   7223SM   H3S 9401   6.936   3.168   7.111
   7223SM    O3 9402   6.769   3.259   7.182
   7223SM   HO3 9403   6.750   3.239   7.274
   7223SM   C4S 9404   6.771   3.098   6.998
   7223SM   H4S 9405   6.850   3.066   6.929
   7223SM   C5S 9406   6.643   3.086   6.957
   7223SM   H5S 9407   6.561   3.116   7.026
   7223SM   C6S 9408   6.602   3.039   6.819
   7223SM   H6S 9409   6.502   3.080   6.793
   7223SM   H6T 9410   6.593   2.928   6.817
   7223SM   C7S 9411   6.700   3.085   6.710
   7223SM   H7S 9412   6.808   3.069   6.734
   7223SM   H7T 9413   6.683   3.193   6.703
   7223SM   C8S 9414   6.680   3.030   6.569
   7223SM   H8S 9415   6.574   3.041   6.536
   7223SM   H8T 9416   6.708   2.923   6.564
   7223SM   C9S 9417   6.773   3.104   6.473
   7223SM   H9S 9418   6.878   3.080   6.499
   7223SM   H9T 9419   6.763   3.214   6.487
   7223SM  C10S 9420   6.752   3.062   6.327
   7223SM  H10S 9421   6.646   3.034   6.308
   7223SM  H10T 9422   6.814   2.972   6.311
   7223SM  C11S 9423   6.794   3.177   6.234
   7223SM  H11S 9424   6.899   3.203   6.261
   7223SM  H11T 9425   6.729   3.263   6.258
   7223SM  C12S 9426   6.788   3.151   6.083
   7223SM  H12S 9427   6.684   3.130   6.050
   7223SM  H12T 9428   6.847   3.060   6.060
   7223SM  C13S 9429   6.846   3.270   6.004
   7223SM  H13S 9430   6.932   3.312   6.061
   7223SM  H13T 9431   6.770   3.351   5.996
   7223SM  C14S 9432   6.894   3.223   5.866
   7223SM  H14S 9433   6.806   3.182   5.813
   7223SM  H14T 9434   6.965   3.139   5.883
   7223SM  C15S 9435   6.965   3.322   5.771
   7223SM  H15S 9436   7.056   3.365   5.818
   7223SM  H15T 9437   6.897   3.407   5.747
   7223SM  C16S 9438   6.999   3.242   5.644
   7223SM  H16S 9439   6.915   3.172   5.627
   7223SM  H16T 9440   7.090   3.180   5.662
   7223SM  C17S 9441   7.016   3.320   5.513
   7223SM  H17S 9442   7.123   3.346   5.506
   7223SM  H17T 9443   6.962   3.416   5.514
   7223SM  C18S 9444   6.968   3.238   5.392
   7223SM  H18S 9445   7.043   3.161   5.363
   7223SM  H18T 9446   6.948   3.302   5.303
   7223SM  H18U 9447   6.873   3.185   5.415
   7223SM   C1F 9448   6.828   2.778   7.153
   7223SM    OF 9449   6.732   2.757   7.225
   7223SM   C2F 9450   6.878   2.669   7.061
   7223SM   H2F 9451   6.822   2.576   7.086
   7223SM   H2G 9452   6.985   2.649   7.079
   7223SM   C3F 9453   6.851   2.705   6.913
   7223SM   H3F 9454   6.905   2.798   6.884
   7223SM   H3G 9455   6.742   2.725   6.899
   7223SM   C4F 9456   6.891   2.591   6.818
   7223SM   H4F 9457   6.827   2.503   6.843
   7223SM   H4G 9458   6.995   2.558   6.836
   7223SM   C5F 9459   6.872   2.623   6.669
   7223SM   H5F 9460   6.765   2.651   6.652
   7223SM   H5G 9461   6.891   2.529   6.611
   7223SM   C6F 9462   6.962   2.732   6.609
   7223SM   H6F 9463   7.069   2.710   6.631
   7223SM   H6G 9464   6.938   2.831   6.654
   7223SM   C7F 9465   6.944   2.742   6.456
   7223SM   H7F 9466   6.842   2.780   6.434
   7223SM   H7G 9467   6.951   2.640   6.413
   7223SM   C8F 9468   7.047   2.831   6.384
   7223SM   H8F 9469   7.150   2.805   6.415
   7223SM   H8G 9470   7.029   2.937   6.413
   7223SM   C9F 9471   7.035   2.818   6.231
   7223SM   H9F 9472   6.927   2.816   6.205
   7223SM   H9G 9473   7.078   2.720   6.199
   7223SM  C10F 9474   7.101   2.933   6.153
   7223SM  H10F 9475   7.105   3.023   6.219
   7223SM  H10G 9476   7.037   2.960   6.066
   7223SM  C11F 9477   7.241   2.900   6.101
   7223SM  H11F 9478   7.297   2.850   6.184
   7223SM  H11G 9479   7.294   2.995   6.076
   7223SM  C12F 9480   7.244   2.808   5.978
   7223SM  H12F 9481   7.190   2.714   6.000
   7223SM  H12G 9482   7.351   2.781   5.958
   7223SM  C13F 9483   7.186   2.872   5.851
   7223SM  H13F 9484   7.232   2.972   5.835
   7223SM  H13G 9485   7.076   2.886   5.864
   7223SM  C14F 9486   7.213   2.785   5.728
   7223SM  H14F 9487   7.173   2.682   5.745
   7223SM  H14G 9488   7.323   2.776   5.714
   7223SM  C15F 9489   7.151   2.841   5.599
   7223SM  H15F 9490   7.192   2.784   5.513
   7223SM  H15G 9491   7.181   2.947   5.586
   7223SM  C16F 9492   6.998   2.832   5.596
   7223SM  H16F 9493   6.958   2.896   5.678
   7223SM  H16G 9494   6.966   2.728   5.618
   7223SM  C17F 9495   6.937   2.881   5.464
   7223SM  H17F 9496   6.982   2.981   5.443
   7223SM  H17G 9497   6.828   2.896   5.476
   7223SM  C18F 9498   6.963   2.791   5.342
   7223SM  H18F 9499   7.073   2.788   5.325
   7223SM  H18G 9500   6.919   2.837   5.251
   7223SM  C19F 9501   6.910   2.648   5.359
   7223SM  H19F 9502   6.955   2.605   5.451
   7223SM  H19G 9503   6.942   2.585   5.274
   7223SM  C20F 9504   6.758   2.635   5.370
   7223SM  H20F 9505   6.712   2.718   5.427
   7223SM  H20G 9506   6.740   2.542   5.429
   7223SM  C21F 9507   6.691   2.615   5.234
   7223SM  H21F 9508   6.603   2.549   5.247
   7223SM  H21G 9509   6.762   2.561   5.167
   7223SM  C22F 9510   6.643   2.741   5.163
   7223SM  H22F 9511   6.723   2.819   5.163
   7223SM  H22G 9512   6.556   2.783   5.217
   7223SM  C23F 9513   6.605   2.709   5.018
   7223SM  H23F 9514   6.536   2.622   5.016
   7223SM  H23G 9515   6.696   2.682   4.960
   7223SM  H23H 9516   6.556   2.795   4.969
   7323SM     N 9517   5.344   1.086   7.791
   7323SM   C15 9518   5.425   1.210   7.775
   7323SM  H15A 9519   5.487   1.229   7.862
   7323SM  H15B 9520   5.365   1.298   7.757
   7323SM  H15C 9521   5.487   1.199   7.686
   7323SM   C14 9522   5.442   0.978   7.823
   7323SM  H14A 9523   5.498   1.003   7.913
   7323SM  H14B 9524   5.513   0.969   7.742
   7323SM  H14C 9525   5.394   0.881   7.837
   7323SM   C13 9526   5.244   1.099   7.902
   7323SM  H13A 9527   5.290   1.074   7.997
   7323SM  H13B 9528   5.160   1.031   7.886
   7323SM  H13C 9529   5.204   1.200   7.906
   7323SM   C12 9530   5.271   1.053   7.661
   7323SM  H12A 9531   5.204   1.136   7.636
   7323SM  H12B 9532   5.204   0.968   7.680
   7323SM   C11 9533   5.360   1.025   7.537
   7323SM  H11A 9534   5.298   0.979   7.457
   7323SM  H11B 9535   5.437   0.949   7.563
   7323SM     P 9536   5.342   1.263   7.433
   7323SM   O13 9537   5.206   1.216   7.396
   7323SM   O14 9538   5.350   1.375   7.528
   7323SM   O11 9539   5.423   1.296   7.302
   7323SM   O12 9540   5.427   1.141   7.487
   7323SM   C1S 9541   5.450   1.191   7.209
   7323SM   H1S 9542   5.414   1.091   7.242
   7323SM   H1T 9543   5.560   1.181   7.194
   7323SM    NF 9544   5.405   1.109   6.979
   7323SM   HNF 9545   5.465   1.127   6.901
   7323SM   C2S 9546   5.386   1.220   7.071
   7323SM   H2S 9547   5.276   1.235   7.084
   7323SM   C3S 9548   5.447   1.352   7.017
   7323SM   H3S 9549   5.558   1.345   7.023
   7323SM    O3 9550   5.411   1.466   7.093
   7323SM   HO3 9551   5.418   1.435   7.185
   7323SM   C4S 9552   5.409   1.371   6.874
   7323SM   H4S 9553   5.493   1.357   6.804
   7323SM   C5S 9554   5.288   1.405   6.826
   7323SM   H5S 9555   5.206   1.423   6.898
   7323SM   C6S 9556   5.254   1.424   6.682
   7323SM   H6S 9557   5.235   1.532   6.664
   7323SM   H6T 9558   5.159   1.370   6.659
   7323SM   C7S 9559   5.360   1.378   6.579
   7323SM   H7S 9560   5.371   1.268   6.582
   7323SM   H7T 9561   5.458   1.425   6.601
   7323SM   C8S 9562   5.317   1.425   6.440
   7323SM   H8S 9563   5.297   1.534   6.444
   7323SM   H8T 9564   5.222   1.377   6.413
   7323SM   C9S 9565   5.417   1.398   6.327
   7323SM   H9S 9566   5.504   1.466   6.338
   7323SM   H9T 9567   5.364   1.423   6.232
   7323SM  C10S 9568   5.465   1.255   6.312
   7323SM  H10S 9569   5.379   1.186   6.300
   7323SM  H10T 9570   5.521   1.222   6.402
   7323SM  C11S 9571   5.554   1.242   6.189
   7323SM  H11S 9572   5.591   1.137   6.184
   7323SM  H11T 9573   5.643   1.309   6.199
   7323SM  C12S 9574   5.485   1.280   6.058
   7323SM  H12S 9575   5.505   1.387   6.033
   7323SM  H12T 9576   5.375   1.266   6.064
   7323SM  C13S 9577   5.538   1.201   5.941
   7323SM  H13S 9578   5.496   1.246   5.849
   7323SM  H13T 9579   5.508   1.094   5.944
   7323SM  C14S 9580   5.690   1.209   5.937
   7323SM  H14S 9581   5.738   1.174   6.031
   7323SM  H14T 9582   5.721   1.314   5.922
   7323SM  C15S 9583   5.743   1.123   5.825
   7323SM  H15S 9584   5.722   1.016   5.842
   7323SM  H15T 9585   5.850   1.142   5.840
   7323SM  C16S 9586   5.697   1.171   5.688
   7323SM  H16S 9587   5.746   1.268   5.670
   7323SM  H16T 9588   5.588   1.186   5.686
   7323SM  C17S 9589   5.728   1.084   5.568
   7323SM  H17S 9590   5.734   0.976   5.593
   7323SM  H17T 9591   5.823   1.118   5.526
   7323SM  C18S 9592   5.637   1.112   5.452
   7323SM  H18S 9593   5.670   1.205   5.403
   7323SM  H18T 9594   5.531   1.123   5.481
   7323SM  H18U 9595   5.649   1.029   5.379
   7323SM   C1F 9596   5.355   0.988   6.995
   7323SM    OF 9597   5.281   0.958   7.089
   7323SM   C2F 9598   5.405   0.888   6.896
   7323SM   H2F 9599   5.467   0.815   6.950
   7323SM   H2G 9600   5.471   0.940   6.823
   7323SM   C3F 9601   5.292   0.820   6.817
   7323SM   H3F 9602   5.223   0.765   6.885
   7323SM   H3G 9603   5.337   0.746   6.746
   7323SM   C4F 9604   5.209   0.919   6.734
   7323SM   H4F 9605   5.277   0.987   6.679
   7323SM   H4G 9606   5.147   0.982   6.802
   7323SM   C5F 9607   5.117   0.846   6.636
   7323SM   H5F 9608   5.016   0.892   6.642
   7323SM   H5G 9609   5.104   0.740   6.668
   7323SM   C6F 9610   5.167   0.851   6.492
   7323SM   H6F 9611   5.103   0.785   6.428
   7323SM   H6G 9612   5.271   0.810   6.488
   7323SM   C7F 9613   5.165   0.992   6.430
   7323SM   H7F 9614   5.209   0.985   6.328
   7323SM   H7G 9615   5.230   1.060   6.489
   7323SM   C8F 9616   5.024   1.053   6.421
   7323SM   H8F 9617   4.974   1.049   6.521
   7323SM   H8G 9618   4.963   0.995   6.350
   7323SM   C9F 9619   5.025   1.201   6.382
   7323SM   H9F 9620   5.080   1.255   6.462
   7323SM   H9G 9621   4.922   1.242   6.381
   7323SM  C10F 9622   5.085   1.230   6.244
   7323SM  H10F 9623   5.179   1.173   6.230
   7323SM  H10G 9624   5.111   1.338   6.235
   7323SM  C11F 9625   4.986   1.196   6.132
   7323SM  H11F 9626   4.897   1.263   6.142
   7323SM  H11G 9627   4.952   1.091   6.144
   7323SM  C12F 9628   5.047   1.215   5.994
   7323SM  H12F 9629   5.092   1.316   5.984
   7323SM  H12G 9630   4.966   1.206   5.918
   7323SM  C13F 9631   5.150   1.107   5.962
   7323SM  H13F 9632   5.105   1.007   5.981
   7323SM  H13G 9633   5.240   1.115   6.027
   7323SM  C14F 9634   5.193   1.113   5.815
   7323SM  H14F 9635   5.257   1.203   5.799
   7323SM  H14G 9636   5.102   1.124   5.751
   7323SM  C15F 9637   5.266   0.986   5.775
   7323SM  H15F 9638   5.193   0.902   5.776
   7323SM  H15G 9639   5.346   0.962   5.849
   7323SM  C16F 9640   5.329   0.997   5.637
   7323SM  H16F 9641   5.425   1.052   5.646
   7323SM  H16G 9642   5.262   1.056   5.570
   7323SM  C17F 9643   5.351   0.858   5.579
   7323SM  H17F 9644   5.251   0.810   5.564
   7323SM  H17G 9645   5.407   0.798   5.653
   7323SM  C18F 9646   5.426   0.854   5.446
   7323SM  H18F 9647   5.425   0.748   5.417
   7323SM  H18G 9648   5.532   0.880   5.464
   7323SM  C19F 9649   5.367   0.944   5.335
   7323SM  H19F 9650   5.364   1.048   5.373
   7323SM  H19G 9651   5.262   0.916   5.315
   7323SM  C20F 9652   5.445   0.951   5.202
   7323SM  H20F 9653   5.552   0.967   5.221
   7323SM  H20G 9654   5.407   1.039   5.145
   7323SM  C21F 9655   5.434   0.830   5.108
   7323SM  H21F 9656   5.492   0.859   5.018
   7323SM  H21G 9657   5.329   0.813   5.078
   7323SM  C22F 9658   5.495   0.701   5.165
   7323SM  H22F 9659   5.428   0.665   5.246
   7323SM  H22G 9660   5.595   0.723   5.207
   7323SM  C23F 9661   5.504   0.584   5.066
   7323SM  H23F 9662   5.578   0.606   4.986
   7323SM  H23G 9663   5.405   0.565   5.020
   7323SM  H23H 9664   5.536   0.493   5.120
   7423SM     N 9665   0.499   4.479   7.716
   7423SM   C15 9666   0.566   4.491   7.849
   7423SM  H15A 9667   0.658   4.546   7.846
   7423SM  H15B 9668   0.589   4.393   7.890
   7423SM  H15C 9669   0.501   4.540   7.922
   7423SM   C14 9670   0.381   4.389   7.726
   7423SM  H14A 9671   0.410   4.285   7.736
   7423SM  H14B 9672   0.327   4.390   7.630
   7423SM  H14C 9673   0.312   4.414   7.804
   7423SM   C13 9674   0.450   4.612   7.665
   7423SM  H13A 9675   0.409   4.600   7.565
   7423SM  H13B 9676   0.528   4.688   7.663
   7423SM  H13C 9677   0.368   4.651   7.724
   7423SM   C12 9678   0.592   4.422   7.611
   7423SM  H12A 9679   0.653   4.341   7.653
   7423SM  H12B 9680   0.660   4.501   7.582
   7423SM   C11 9681   0.521   4.360   7.488
   7423SM  H11A 9682   0.593   4.353   7.403
   7423SM  H11B 9683   0.441   4.428   7.452
   7423SM     P 9684   0.559   4.111   7.531
   7423SM   O13 9685   0.659   4.148   7.631
   7423SM   O14 9686   0.487   3.982   7.550
   7423SM   O11 9687   0.630   4.107   7.388
   7423SM   O12 9688   0.460   4.233   7.520
   7423SM   C1S 9689   0.538   4.078   7.281
   7423SM   H1S 9690   0.448   4.141   7.292
   7423SM   H1T 9691   0.504   3.971   7.283
   7423SM    NF 9692   0.499   4.109   7.039
   7423SM   HNF 9693   0.529   4.067   6.953
   7423SM   C2S 9694   0.602   4.109   7.144
   7423SM   H2S 9695   0.646   4.211   7.148
   7423SM   C3S 9696   0.716   4.006   7.112
   7423SM   H3S 9697   0.673   3.903   7.121
   7423SM    O3 9698   0.829   4.005   7.202
   7423SM   HO3 9699   0.800   4.057   7.277
   7423SM   C4S 9700   0.758   4.031   6.970
   7423SM   H4S 9701   0.809   4.127   6.952
   7423SM   C5S 9702   0.737   3.944   6.869
   7423SM   H5S 9703   0.698   3.844   6.892
   7423SM   C6S 9704   0.773   3.960   6.724
   7423SM   H6S 9705   0.691   3.918   6.661
   7423SM   H6T 9706   0.862   3.898   6.699
   7423SM   C7S 9707   0.803   4.102   6.676
   7423SM   H7S 9708   0.889   4.140   6.736
   7423SM   H7T 9709   0.717   4.170   6.694
   7423SM   C8S 9710   0.842   4.104   6.528
   7423SM   H8S 9711   0.911   4.020   6.507
   7423SM   H8T 9712   0.898   4.196   6.502
   7423SM   C9S 9713   0.722   4.096   6.433
   7423SM   H9S 9714   0.656   4.185   6.445
   7423SM   H9T 9715   0.663   4.006   6.459
   7423SM  C10S 9716   0.768   4.085   6.288
   7423SM  H10S 9717   0.841   4.001   6.280
   7423SM  H10T 9718   0.821   4.178   6.257
   7423SM  C11S 9719   0.651   4.058   6.194
   7423SM  H11S 9720   0.580   4.143   6.198
   7423SM  H11T 9721   0.598   3.966   6.228
   7423SM  C12S 9722   0.701   4.038   6.051
   7423SM  H12S 9723   0.771   3.951   6.049
   7423SM  H12T 9724   0.758   4.128   6.019
   7423SM  C13S 9725   0.587   4.013   5.953
   7423SM  H13S 9726   0.513   4.097   5.959
   7423SM  H13T 9727   0.534   3.920   5.981
   7423SM  C14S 9728   0.638   4.004   5.809
   7423SM  H14S 9729   0.720   3.930   5.802
   7423SM  H14T 9730   0.681   4.101   5.778
   7423SM  C15S 9731   0.529   3.959   5.712
   7423SM  H15S 9732   0.443   4.029   5.718
   7423SM  H15T 9733   0.490   3.860   5.744
   7423SM  C16S 9734   0.582   3.954   5.569
   7423SM  H16S 9735   0.663   3.878   5.561
   7423SM  H16T 9736   0.629   4.051   5.545
   7423SM  C17S 9737   0.475   3.921   5.464
   7423SM  H17S 9738   0.390   3.993   5.473
   7423SM  H17T 9739   0.432   3.821   5.483
   7423SM  C18S 9740   0.532   3.926   5.323
   7423SM  H18S 9741   0.620   3.859   5.313
   7423SM  H18T 9742   0.566   4.029   5.299
   7423SM  H18U 9743   0.456   3.895   5.248
   7423SM   C1F 9744   0.384   4.180   7.036
   7423SM    OF 9745   0.344   4.252   7.127
   7423SM   C2F 9746   0.304   4.163   6.910
   7423SM   H2F 9747   0.230   4.081   6.930
   7423SM   H2G 9748   0.370   4.130   6.827
   7423SM   C3F 9749   0.228   4.291   6.868
   7423SM   H3F 9750   0.298   4.363   6.821
   7423SM   H3G 9751   0.187   4.342   6.958
   7423SM   C4F 9752   0.110   4.260   6.775
   7423SM   H4F 9753   0.043   4.349   6.771
   7423SM   H4G 9754   0.052   4.176   6.820
   7423SM   C5F 9755   0.143   4.214   6.633
   7423SM   H5F 9756   0.047   4.199   6.579
   7423SM   H5G 9757   0.195   4.116   6.638
   7423SM   C6F 9758   0.230   4.312   6.553
   7423SM   H6F 9759   0.245   4.268   6.451
   7423SM   H6G 9760   0.330   4.321   6.601
   7423SM   C7F 9761   0.170   4.452   6.538
   7423SM   H7F 9762   0.143   4.492   6.638
   7423SM   H7G 9763   0.076   4.446   6.479
   7423SM   C8F 9764   0.270   4.550   6.474
   7423SM   H8F 9765   0.360   4.558   6.539
   7423SM   H8G 9766   0.226   4.650   6.467
   7423SM   C9F 9767   0.312   4.516   6.331
   7423SM   H9F 9768   0.353   4.413   6.325
   7423SM   H9G 9769   0.392   4.587   6.300
   7423SM  C10F 9770   0.193   4.532   6.236
   7423SM  H10F 9771   0.152   4.636   6.243
   7423SM  H10G 9772   0.112   4.462   6.267
   7423SM  C11F 9773   0.229   4.504   6.091
   7423SM  H11F 9774   0.136   4.494   6.031
   7423SM  H11G 9775   0.283   4.407   6.087
   7423SM  C12F 9776   0.316   4.612   6.027
   7423SM  H12F 9777   0.417   4.612   6.074
   7423SM  H12G 9778   0.270   4.712   6.044
   7423SM  C13F 9779   0.332   4.588   5.877
   7423SM  H13F 9780   0.398   4.665   5.832
   7423SM  H13G 9781   0.232   4.596   5.828
   7423SM  C14F 9782   0.387   4.449   5.848
   7423SM  H14F 9783   0.313   4.371   5.879
   7423SM  H14G 9784   0.481   4.430   5.904
   7423SM  C15F 9785   0.411   4.431   5.700
   7423SM  H15F 9786   0.496   4.494   5.666
   7423SM  H15G 9787   0.320   4.467   5.646
   7423SM  C16F 9788   0.435   4.286   5.664
   7423SM  H16F 9789   0.354   4.221   5.704
   7423SM  H16G 9790   0.531   4.253   5.711
   7423SM  C17F 9791   0.442   4.276   5.514
   7423SM  H17F 9792   0.494   4.184   5.483
   7423SM  H17G 9793   0.503   4.362   5.478
   7423SM  C18F 9794   0.305   4.277   5.447
   7423SM  H18F 9795   0.252   4.372   5.468
   7423SM  H18G 9796   0.242   4.194   5.488
   7423SM  C19F 9797   0.314   4.258   5.296
   7423SM  H19F 9798   0.232   4.315   5.248
   7423SM  H19G 9799   0.296   4.150   5.275
   7423SM  C20F 9800   0.451   4.300   5.238
   7423SM  H20F 9801   0.533   4.237   5.280
   7423SM  H20G 9802   0.472   4.406   5.267
   7423SM  C21F 9803   0.453   4.287   5.087
   7423SM  H21F 9804   0.470   4.386   5.039
   7423SM  H21G 9805   0.348   4.261   5.065
   7423SM  C22F 9806   0.548   4.179   5.029
   7423SM  H22F 9807   0.486   4.105   4.977
   7423SM  H22G 9808   0.603   4.124   5.107
   7423SM  C23F 9809   0.637   4.216   4.912
   7423SM  H23F 9810   0.729   4.263   4.949
   7423SM  H23G 9811   0.583   4.287   4.846
   7423SM  H23H 9812   0.665   4.127   4.852
   7523SM     N 9813   6.771   5.450   7.709
   7523SM   C15 9814   6.707   5.409   7.836
   7523SM  H15A 9815   6.607   5.372   7.820
   7523SM  H15B 9816   6.699   5.493   7.905
   7523SM  H15C 9817   6.764   5.332   7.887
   7523SM   C14 9818   6.793   5.335   7.616
   7523SM  H14A 9819   6.820   5.372   7.517
   7523SM  H14B 9820   6.702   5.279   7.601
   7523SM  H14C 9821   6.876   5.272   7.646
   7523SM   C13 9822   6.677   5.539   7.634
   7523SM  H13A 9823   6.661   5.635   7.683
   7523SM  H13B 9824   6.581   5.490   7.622
   7523SM  H13C 9825   6.717   5.559   7.535
   7523SM   C12 9826   6.903   5.517   7.740
   7523SM  H12A 9827   6.965   5.443   7.792
   7523SM  H12B 9828   6.886   5.601   7.806
   7523SM   C11 9829   6.990   5.560   7.623
   7523SM  H11A 9830   7.061   5.638   7.662
   7523SM  H11B 9831   6.929   5.607   7.542
   7523SM     P 9832   7.177   5.477   7.476
   7523SM   O13 9833   7.267   5.575   7.540
   7523SM   O14 9834   7.238   5.351   7.426
   7523SM   O11 9835   7.094   5.549   7.366
   7523SM   O12 9836   7.060   5.444   7.577
   7523SM   C1S 9837   6.997   5.483   7.285
   7523SM   H1S 9838   6.901   5.533   7.303
   7523SM   H1T 9839   6.981   5.377   7.314
   7523SM    NF 9840   7.120   5.382   7.100
   7523SM   HNF 9841   7.217   5.384   7.118
   7523SM   C2S 9842   7.041   5.498   7.136
   7523SM   H2S 9843   6.950   5.502   7.071
   7523SM   C3S 9844   7.117   5.633   7.123
   7523SM   H3S 9845   7.214   5.627   7.176
   7523SM    O3 9846   7.044   5.740   7.183
   7523SM   HO3 9847   7.003   5.696   7.258
   7523SM   C4S 9848   7.140   5.675   6.981
   7523SM   H4S 9849   7.089   5.765   6.945
   7523SM   C5S 9850   7.235   5.618   6.906
   7523SM   H5S 9851   7.296   5.540   6.953
   7523SM   C6S 9852   7.279   5.650   6.767
   7523SM   H6S 9853   7.366   5.584   6.749
   7523SM   H6T 9854   7.331   5.748   6.762
   7523SM   C7S 9855   7.169   5.654   6.662
   7523SM   H7S 9856   7.110   5.737   6.700
   7523SM   H7T 9857   7.103   5.565   6.658
   7523SM   C8S 9858   7.209   5.700   6.522
   7523SM   H8S 9859   7.315   5.688   6.500
   7523SM   H8T 9860   7.201   5.811   6.528
   7523SM   C9S 9861   7.112   5.669   6.405
   7523SM   H9S 9862   7.156   5.752   6.349
   7523SM   H9T 9863   7.010   5.703   6.426
   7523SM  C10S 9864   7.110   5.559   6.293
   7523SM  H10S 9865   7.018   5.496   6.303
   7523SM  H10T 9866   7.191   5.485   6.278
   7523SM  C11S 9867   7.105   5.635   6.160
   7523SM  H11S 9868   7.138   5.741   6.169
   7523SM  H11T 9869   6.997   5.639   6.133
   7523SM  C12S 9870   7.197   5.597   6.044
   7523SM  H12S 9871   7.195   5.488   6.028
   7523SM  H12T 9872   7.303   5.627   6.063
   7523SM  C13S 9873   7.139   5.683   5.931
   7523SM  H13S 9874   7.146   5.790   5.964
   7523SM  H13T 9875   7.032   5.654   5.920
   7523SM  C14S 9876   7.207   5.681   5.798
   7523SM  H14S 9877   7.213   5.578   5.761
   7523SM  H14T 9878   7.308   5.724   5.818
   7523SM  C15S 9879   7.139   5.762   5.686
   7523SM  H15S 9880   7.082   5.847   5.729
   7523SM  H15T 9881   7.069   5.694   5.632
   7523SM  C16S 9882   7.242   5.815   5.587
   7523SM  H16S 9883   7.271   5.729   5.526
   7523SM  H16T 9884   7.332   5.850   5.643
   7523SM  C17S 9885   7.199   5.928   5.493
   7523SM  H17S 9886   7.143   6.005   5.550
   7523SM  H17T 9887   7.131   5.887   5.415
   7523SM  C18S 9888   7.320   5.998   5.432
   7523SM  H18S 9889   7.386   6.035   5.513
   7523SM  H18T 9890   7.287   6.085   5.372
   7523SM  H18U 9891   7.380   5.932   5.366
   7523SM   C1F 9892   7.054   5.267   7.092
   7523SM    OF 9893   6.933   5.263   7.112
   7523SM   C2F 9894   7.129   5.144   7.053
   7523SM   H2F 9895   7.155   5.087   7.144
   7523SM   H2G 9896   7.221   5.172   6.998
   7523SM   C3F 9897   7.030   5.065   6.965
   7523SM   H3F 9898   6.989   5.138   6.891
   7523SM   H3G 9899   6.948   5.029   7.031
   7523SM   C4F 9900   7.075   4.948   6.878
   7523SM   H4F 9901   6.980   4.900   6.844
   7523SM   H4G 9902   7.128   4.870   6.933
   7523SM   C5F 9903   7.139   4.993   6.747
   7523SM   H5F 9904   7.075   5.072   6.702
   7523SM   H5G 9905   7.137   4.906   6.677
   7523SM   C6F 9906   7.280   5.052   6.751
   7523SM   H6F 9907   7.332   5.033   6.847
   7523SM   H6G 9908   7.271   5.163   6.746
   7523SM   C7F 9909   7.359   5.005   6.628
   7523SM   H7F 9910   7.360   4.894   6.625
   7523SM   H7G 9911   7.464   5.042   6.632
   7523SM   C8F 9912   7.289   5.062   6.503
   7523SM   H8F 9913   7.274   5.165   6.525
   7523SM   H8G 9914   7.186   5.023   6.495
   7523SM   C9F 9915   7.352   5.063   6.362
   7523SM   H9F 9916   7.277   5.115   6.298
   7523SM   H9G 9917   7.365   4.959   6.329
   7523SM  C10F 9918   7.486   5.131   6.336
   7523SM  H10F 9919   7.561   5.049   6.337
   7523SM  H10G 9920   7.510   5.194   6.423
   7523SM  C11F 9921   7.506   5.224   6.214
   7523SM  H11F 9922   7.609   5.206   6.179
   7523SM  H11G 9923   7.494   5.331   6.239
   7523SM  C12F 9924   7.433   5.214   6.082
   7523SM  H12F 9925   7.323   5.225   6.086
   7523SM  H12G 9926   7.458   5.116   6.041
   7523SM  C13F 9927   7.488   5.317   5.985
   7523SM  H13F 9928   7.601   5.309   5.993
   7523SM  H13G 9929   7.448   5.417   6.020
   7523SM  C14F 9930   7.439   5.281   5.843
   7523SM  H14F 9931   7.453   5.172   5.840
   7523SM  H14G 9932   7.504   5.330   5.766
   7523SM  C15F 9933   7.288   5.318   5.824
   7523SM  H15F 9934   7.301   5.428   5.824
   7523SM  H15G 9935   7.225   5.296   5.912
   7523SM  C16F 9936   7.207   5.277   5.696
   7523SM  H16F 9937   7.276   5.235   5.620
   7523SM  H16G 9938   7.164   5.370   5.653
   7523SM  C17F 9939   7.089   5.178   5.722
   7523SM  H17F 9940   7.054   5.192   5.826
   7523SM  H17G 9941   7.130   5.076   5.711
   7523SM  C18F 9942   6.961   5.159   5.635
   7523SM  H18F 9943   6.888   5.102   5.697
   7523SM  H18G 9944   6.983   5.090   5.551
   7523SM  C19F 9945   6.894   5.284   5.580
   7523SM  H19F 9946   6.963   5.370   5.589
   7523SM  H19G 9947   6.802   5.308   5.639
   7523SM  C20F 9948   6.858   5.263   5.433
   7523SM  H20F 9949   6.795   5.348   5.399
   7523SM  H20G 9950   6.795   5.172   5.421
   7523SM  C21F 9951   6.983   5.250   5.344
   7523SM  H21F 9952   7.047   5.165   5.376
   7523SM  H21G 9953   7.045   5.342   5.354
   7523SM  C22F 9954   6.942   5.228   5.199
   7523SM  H22F 9955   6.907   5.327   5.165
   7523SM  H22G 9956   6.853   5.161   5.193
   7523SM  C23F 9957   7.050   5.172   5.106
   7523SM  H23F 9958   7.009   5.152   5.004
   7523SM  H23G 9959   7.087   5.075   5.146
   7523SM  H23H 9960   7.134   5.243   5.096
   7623SM     N 9961   0.593   5.969   7.759
   7623SM   C15 9962   0.522   5.841   7.797
   7623SM  H15A 9963   0.447   5.818   7.721
   7623SM  H15B 9964   0.478   5.844   7.895
   7623SM  H15C 9965   0.592   5.758   7.790
   7623SM   C14 9966   0.489   6.076   7.751
   7623SM  H14A 9967   0.422   6.076   7.837
   7623SM  H14B 9968   0.425   6.056   7.665
   7623SM  H14C 9969   0.530   6.175   7.737
   7623SM   C13 9970   0.697   5.996   7.862
   7623SM  H13A 9971   0.758   5.906   7.877
   7623SM  H13B 9972   0.650   6.020   7.957
   7623SM  H13C 9973   0.762   6.078   7.833
   7623SM   C12 9974   0.659   5.944   7.625
   7623SM  H12A 9975   0.715   5.849   7.629
   7623SM  H12B 9976   0.732   6.020   7.600
   7623SM   C11 9977   0.564   5.929   7.506
   7623SM  H11A 9978   0.633   5.933   7.418
   7623SM  H11B 9979   0.497   6.016   7.495
   7623SM     P 9980   0.564   5.674   7.475
   7623SM   O13 9981   0.682   5.660   7.563
   7623SM   O14 9982   0.473   5.557   7.471
   7623SM   O11 9983   0.614   5.708   7.330
   7623SM   O12 9984   0.486   5.808   7.515
   7623SM   C1S 9985   0.531   5.789   7.244
   7623SM   H1S 9986   0.577   5.889   7.230
   7623SM   H1T 9987   0.428   5.806   7.283
   7623SM    NF 9988   0.484   5.584   7.130
   7623SM   HNF 9989   0.553   5.515   7.108
   7623SM   C2S 9990   0.518   5.722   7.108
   7623SM   H2S 9991   0.435   5.770   7.051
   7623SM   C3S 9992   0.651   5.743   7.031
   7623SM   H3S 9993   0.737   5.719   7.096
   7623SM    O3 9994   0.673   5.878   6.992
   7623SM   HO3 9995   0.636   5.930   7.064
   7623SM   C4S 9996   0.656   5.660   6.907
   7623SM   H4S 9997   0.576   5.676   6.833
   7623SM   C5S 9998   0.753   5.571   6.883
   7623SM   H5S 9999   0.835   5.562   6.957
   7623SM   C6S10000   0.771   5.482   6.764
   7623SM   H6S10001   0.737   5.378   6.786
   7623SM   H6T10002   0.881   5.474   6.749
   7623SM   C7S10003   0.711   5.529   6.631
   7623SM   H7S10004   0.700   5.640   6.629
   7623SM   H7T10005   0.610   5.485   6.618
   7623SM   C8S10006   0.805   5.492   6.515
   7623SM   H8S10007   0.836   5.387   6.519
   7623SM   H8T10008   0.894   5.549   6.545
   7623SM   C9S10009   0.757   5.542   6.377
   7623SM   H9S10010   0.806   5.640   6.361
   7623SM   H9T10011   0.650   5.567   6.389
   7623SM  C10S10012   0.777   5.455   6.247
   7623SM  H10S10013   0.710   5.371   6.251
   7623SM  H10T10014   0.876   5.408   6.247
   7623SM  C11S10015   0.742   5.537   6.119
   7623SM  H11S10016   0.774   5.640   6.147
   7623SM  H11T10017   0.633   5.529   6.103
   7623SM  C12S10018   0.801   5.523   5.976
   7623SM  H12S10019   0.892   5.461   5.976
   7623SM  H12T10020   0.828   5.627   5.946
   7623SM  C13S10021   0.711   5.479   5.859
   7623SM  H13S10022   0.623   5.546   5.847
   7623SM  H13T10023   0.670   5.378   5.874
   7623SM  C14S10024   0.792   5.480   5.727
   7623SM  H14S10025   0.867   5.399   5.728
   7623SM  H14T10026   0.848   5.577   5.720
   7623SM  C15S10027   0.703   5.468   5.603
   7623SM  H15S10028   0.642   5.560   5.599
   7623SM  H15T10029   0.633   5.382   5.615
   7623SM  C16S10030   0.783   5.454   5.473
   7623SM  H16S10031   0.832   5.354   5.470
   7623SM  H16T10032   0.864   5.531   5.474
   7623SM  C17S10033   0.699   5.476   5.347
   7623SM  H17S10034   0.733   5.569   5.297
   7623SM  H17T10035   0.594   5.492   5.378
   7623SM  C18S10036   0.699   5.360   5.247
   7623SM  H18S10037   0.658   5.393   5.149
   7623SM  H18T10038   0.633   5.279   5.285
   7623SM  H18U10039   0.801   5.320   5.232
   7623SM   C1F10040   0.367   5.546   7.178
   7623SM    OF10041   0.284   5.624   7.224
   7623SM   C2F10042   0.337   5.402   7.157
   7623SM   H2F10043   0.306   5.350   7.250
   7623SM   H2G10044   0.424   5.347   7.123
   7623SM   C3F10045   0.230   5.399   7.048
   7623SM   H3F10046   0.142   5.455   7.088
   7623SM   H3G10047   0.196   5.296   7.030
   7623SM   C4F10048   0.278   5.465   6.916
   7623SM   H4F10049   0.368   5.527   6.927
   7623SM   H4G10050   0.202   5.539   6.883
   7623SM   C5F10051   0.303   5.368   6.803
   7623SM   H5F10052   0.274   5.264   6.830
   7623SM   H5G10053   0.412   5.369   6.782
   7623SM   C6F10054   0.225   5.410   6.679
   7623SM   H6F10055   0.237   5.520   6.666
   7623SM   H6G10056   0.117   5.388   6.693
   7623SM   C7F10057   0.274   5.336   6.555
   7623SM   H7F10058   0.222   5.238   6.553
   7623SM   H7G10059   0.382   5.319   6.568
   7623SM   C8F10060   0.265   5.410   6.422
   7623SM   H8F10061   0.162   5.451   6.410
   7623SM   H8G10062   0.283   5.340   6.339
   7623SM   C9F10063   0.374   5.518   6.418
   7623SM   H9F10064   0.465   5.485   6.472
   7623SM   H9G10065   0.336   5.604   6.475
   7623SM  C10F10066   0.420   5.564   6.279
   7623SM  H10F10067   0.349   5.529   6.201
   7623SM  H10G10068   0.511   5.507   6.255
   7623SM  C11F10069   0.440   5.718   6.274
   7623SM  H11F10070   0.439   5.759   6.378
   7623SM  H11G10071   0.356   5.763   6.220
   7623SM  C12F10072   0.563   5.767   6.200
   7623SM  H12F10073   0.563   5.706   6.110
   7623SM  H12G10074   0.651   5.749   6.264
   7623SM  C13F10075   0.569   5.912   6.150
   7623SM  H13F10076   0.669   5.952   6.178
   7623SM  H13G10077   0.493   5.973   6.203
   7623SM  C14F10078   0.555   5.929   5.996
   7623SM  H14F10079   0.578   6.034   5.971
   7623SM  H14G10080   0.449   5.909   5.968
   7623SM  C15F10081   0.647   5.839   5.910
   7623SM  H15F10082   0.621   5.733   5.928
   7623SM  H15G10083   0.751   5.852   5.945
   7623SM  C16F10084   0.639   5.857   5.757
   7623SM  H16F10085   0.728   5.806   5.713
   7623SM  H16G10086   0.644   5.964   5.729
   7623SM  C17F10087   0.514   5.789   5.699
   7623SM  H17F10088   0.423   5.839   5.739
   7623SM  H17G10089   0.512   5.684   5.735
   7623SM  C18F10090   0.505   5.784   5.545
   7623SM  H18F10091   0.604   5.764   5.500
   7623SM  H18G10092   0.470   5.883   5.508
   7623SM  C19F10093   0.407   5.675   5.499
   7623SM  H19F10094   0.321   5.671   5.571
   7623SM  H19G10095   0.454   5.575   5.503
   7623SM  C20F10096   0.348   5.699   5.361
   7623SM  H20F10097   0.295   5.797   5.363
   7623SM  H20G10098   0.274   5.618   5.341
   7623SM  C21F10099   0.442   5.703   5.242
   7623SM  H21F10100   0.495   5.606   5.232
   7623SM  H21G10101   0.517   5.784   5.254
   7623SM  C22F10102   0.356   5.726   5.117
   7623SM  H22F10103   0.263   5.667   5.126
   7623SM  H22G10104   0.407   5.685   5.028
   7623SM  C23F10105   0.321   5.874   5.098
   7623SM  H23F10106   0.259   5.886   5.007
   7623SM  H23G10107   0.411   5.938   5.087
   7623SM  H23H10108   0.268   5.915   5.185
   7723SM     N10109   0.296   1.967   7.804
   7723SM   C1510110   0.335   1.831   7.754
   7723SM  H15A10111   0.247   1.767   7.740
   7723SM  H15B10112   0.398   1.779   7.825
   7723SM  H15C10113   0.388   1.838   7.661
   7723SM   C1410114   0.209   1.948   7.925
   7723SM  H14A10115   0.268   1.910   8.008
   7723SM  H14B10116   0.131   1.875   7.903
   7723SM  H14C10117   0.162   2.040   7.955
   7723SM   C1310118   0.421   2.037   7.843
   7723SM  H13A10119   0.481   1.978   7.912
   7723SM  H13B10120   0.401   2.134   7.889
   7723SM  H13C10121   0.482   2.056   7.754
   7723SM   C1210122   0.222   2.043   7.696
   7723SM  H12A10123   0.229   2.148   7.722
   7723SM  H12B10124   0.118   2.013   7.696
   7723SM   C1110125   0.271   2.034   7.551
   7723SM  H11A10126   0.202   2.098   7.490
   7723SM  H11B10127   0.264   1.929   7.515
   7723SM     P10128   0.473   2.098   7.397
   7723SM   O1310129   0.441   2.230   7.340
   7723SM   O1410130   0.615   2.062   7.408
   7723SM   O1110131   0.399   1.989   7.305
   7723SM   O1210132   0.404   2.083   7.540
   7723SM   C1S10133   0.290   2.025   7.220
   7723SM   H1S10134   0.230   2.108   7.262
   7723SM   H1T10135   0.221   1.938   7.211
   7723SM    NF10136   0.224   2.098   6.986
   7723SM   HNF10137   0.218   2.051   6.898
   7723SM   C2S10138   0.335   2.060   7.074
   7723SM   H2S10139   0.405   2.147   7.079
   7723SM   C3S10140   0.414   1.936   7.019
   7723SM   H3S10141   0.350   1.846   7.031
   7723SM    O310142   0.533   1.911   7.092
   7723SM   HO310143   0.511   1.951   7.178
   7723SM   C4S10144   0.451   1.955   6.874
   7723SM   H4S10145   0.525   2.034   6.854
   7723SM   C5S10146   0.406   1.880   6.771
   7723SM   H5S10147   0.340   1.793   6.791
   7723SM   C6S10148   0.440   1.895   6.625
   7723SM   H6S10149   0.345   1.895   6.567
   7723SM   H6T10150   0.495   1.804   6.591
   7723SM   C7S10151   0.520   2.020   6.583
   7723SM   H7S10152   0.617   2.025   6.636
   7723SM   H7T10153   0.460   2.110   6.612
   7723SM   C8S10154   0.545   2.028   6.430
   7723SM   H8S10155   0.566   2.133   6.401
   7723SM   H8T10156   0.450   1.998   6.379
   7723SM   C9S10157   0.660   1.938   6.381
   7723SM   H9S10158   0.663   1.854   6.454
   7723SM   H9T10159   0.758   1.989   6.390
   7723SM  C10S10160   0.639   1.872   6.243
   7723SM  H10S10161   0.530   1.860   6.229
   7723SM  H10T10162   0.688   1.771   6.248
   7723SM  C11S10163   0.688   1.939   6.115
   7723SM  H11S10164   0.798   1.956   6.118
   7723SM  H11T10165   0.640   2.039   6.108
   7723SM  C12S10166   0.652   1.854   5.990
   7723SM  H12S10167   0.546   1.823   5.996
   7723SM  H12T10168   0.716   1.764   5.985
   7723SM  C13S10169   0.668   1.941   5.866
   7723SM  H13S10170   0.773   1.973   5.865
   7723SM  H13T10171   0.604   2.028   5.893
   7723SM  C14S10172   0.623   1.901   5.724
   7723SM  H14S10173   0.559   1.986   5.692
   7723SM  H14T10174   0.558   1.814   5.726
   7723SM  C15S10175   0.727   1.904   5.608
   7723SM  H15S10176   0.807   1.828   5.619
   7723SM  H15T10177   0.775   2.004   5.608
   7723SM  C16S10178   0.655   1.888   5.473
   7723SM  H16S10179   0.548   1.906   5.496
   7723SM  H16T10180   0.664   1.784   5.434
   7723SM  C17S10181   0.680   1.988   5.360
   7723SM  H17S10182   0.788   2.011   5.349
   7723SM  H17T10183   0.627   2.082   5.389
   7723SM  C18S10184   0.622   1.939   5.227
   7723SM  H18S10185   0.701   1.897   5.161
   7723SM  H18T10186   0.570   2.021   5.174
   7723SM  H18U10187   0.546   1.859   5.245
   7723SM   C1F10188   0.151   2.208   7.003
   7723SM    OF10189   0.136   2.264   7.110
   7723SM   C2F10190   0.088   2.261   6.879
   7723SM   H2F10191  -0.016   2.287   6.902
   7723SM   H2G10192   0.087   2.181   6.802
   7723SM   C3F10193   0.162   2.388   6.832
   7723SM   H3F10194   0.269   2.361   6.818
   7723SM   H3G10195   0.157   2.466   6.911
   7723SM   C4F10196   0.108   2.443   6.700
   7723SM   H4F10197   0.165   2.533   6.669
   7723SM   H4G10198   0.000   2.470   6.709
   7723SM   C5F10199   0.122   2.336   6.591
   7723SM   H5F10200   0.045   2.259   6.609
   7723SM   H5G10201   0.223   2.290   6.602
   7723SM   C6F10202   0.106   2.386   6.448
   7723SM   H6F10203   0.179   2.465   6.424
   7723SM   H6G10204   0.009   2.438   6.437
   7723SM   C7F10205   0.114   2.270   6.346
   7723SM   H7F10206   0.174   2.301   6.258
   7723SM   H7G10207   0.011   2.252   6.308
   7723SM   C8F10208   0.167   2.136   6.401
   7723SM   H8F10209   0.106   2.106   6.488
   7723SM   H8G10210   0.273   2.145   6.434
   7723SM   C9F10211   0.153   2.024   6.299
   7723SM   H9F10212   0.238   2.026   6.228
   7723SM   H9G10213   0.059   2.043   6.241
   7723SM  C10F10214   0.139   1.885   6.363
   7723SM  H10F10215   0.078   1.891   6.456
   7723SM  H10G10216   0.239   1.845   6.390
   7723SM  C11F10217   0.069   1.790   6.267
   7723SM  H11F10218  -0.027   1.836   6.235
   7723SM  H11G10219   0.046   1.693   6.316
   7723SM  C12F10220   0.155   1.763   6.143
   7723SM  H12F10221   0.236   1.694   6.169
   7723SM  H12G10222   0.202   1.857   6.106
   7723SM  C13F10223   0.070   1.708   6.032
   7723SM  H13F10224  -0.035   1.702   6.069
   7723SM  H13G10225   0.100   1.603   6.007
   7723SM  C14F10226   0.072   1.803   5.911
   7723SM  H14F10227   0.171   1.852   5.900
   7723SM  H14G10228  -0.004   1.881   5.931
   7723SM  C15F10229   0.047   1.722   5.785
   7723SM  H15F10230  -0.054   1.676   5.791
   7723SM  H15G10231   0.118   1.638   5.795
   7723SM  C16F10232   0.071   1.773   5.642
   7723SM  H16F10233  -0.024   1.795   5.591
   7723SM  H16G10234   0.111   1.683   5.591
   7723SM  C17F10235   0.173   1.883   5.606
   7723SM  H17F10236   0.263   1.882   5.670
   7723SM  H17G10237   0.125   1.981   5.622
   7723SM  C18F10238   0.212   1.863   5.457
   7723SM  H18F10239   0.118   1.848   5.401
   7723SM  H18G10240   0.267   1.767   5.446
   7723SM  C19F10241   0.292   1.976   5.392
   7723SM  H19F10242   0.397   1.945   5.377
   7723SM  H19G10243   0.289   2.058   5.465
   7723SM  C20F10244   0.243   2.042   5.261
   7723SM  H20F10245   0.320   2.112   5.223
   7723SM  H20G10246   0.157   2.106   5.292
   7723SM  C21F10247   0.194   1.952   5.147
   7723SM  H21F10248   0.094   1.993   5.121
   7723SM  H21G10249   0.181   1.847   5.179
   7723SM  C22F10250   0.270   1.959   5.014
   7723SM  H22F10251   0.358   1.892   5.017
   7723SM  H22G10252   0.306   2.063   4.999
   7723SM  C23F10253   0.179   1.922   4.895
   7723SM  H23F10254   0.143   1.818   4.905
   7723SM  H23G10255   0.233   1.932   4.799
   7723SM  H23H10256   0.090   1.989   4.892
   7823SM     N10257   1.245   7.111   7.793
   7823SM   C1510258   1.355   7.011   7.773
   7823SM  H15A10259   1.369   6.993   7.666
   7823SM  H15B10260   1.330   6.916   7.818
   7823SM  H15C10261   1.448   7.046   7.817
   7823SM   C1410262   1.116   7.057   7.739
   7823SM  H14A10263   1.125   7.046   7.631
   7823SM  H14B10264   1.033   7.123   7.758
   7823SM  H14C10265   1.093   6.958   7.778
   7823SM   C1310266   1.231   7.134   7.940
   7823SM  H13A10267   1.192   7.044   7.988
   7823SM  H13B10268   1.164   7.215   7.965
   7823SM  H13C10269   1.329   7.153   7.983
   7823SM   C1210270   1.279   7.240   7.719
   7823SM  H12A10271   1.363   7.289   7.766
   7823SM  H12B10272   1.195   7.308   7.724
   7823SM   C1110273   1.314   7.227   7.568
   7823SM  H11A10274   1.409   7.168   7.559
   7823SM  H11B10275   1.338   7.330   7.531
   7823SM     P10276   1.230   7.061   7.385
   7823SM   O1310277   1.280   6.944   7.460
   7823SM   O1410278   1.111   7.039   7.300
   7823SM   O1110279   1.343   7.121   7.291
   7823SM   O1210280   1.206   7.177   7.491
   7823SM   C1S10281   1.340   7.259   7.253
   7823SM   H1S10282   1.433   7.306   7.293
   7823SM   H1T10283   1.254   7.316   7.297
   7823SM    NF10284   1.206   7.264   7.044
   7823SM   HNF10285   1.192   7.181   6.991
   7823SM   C2S10286   1.340   7.279   7.099
   7823SM   H2S10287   1.373   7.384   7.079
   7823SM   C3S10288   1.441   7.181   7.032
   7823SM   H3S10289   1.411   7.075   7.048
   7823SM    O310290   1.578   7.195   7.075
   7823SM   HO310291   1.583   7.284   7.110
   7823SM   C4S10292   1.441   7.211   6.884
   7823SM   H4S10293   1.469   7.315   6.862
   7823SM   C5S10294   1.414   7.127   6.782
   7823SM   H5S10295   1.390   7.021   6.804
   7823SM   C6S10296   1.415   7.164   6.635
   7823SM   H6S10297   1.322   7.125   6.587
   7823SM   H6T10298   1.500   7.117   6.583
   7823SM   C7S10299   1.416   7.315   6.601
   7823SM   H7S10300   1.510   7.363   6.636
   7823SM   H7T10301   1.333   7.366   6.655
   7823SM   C8S10302   1.398   7.340   6.450
   7823SM   H8S10303   1.300   7.301   6.418
   7823SM   H8T10304   1.476   7.290   6.389
   7823SM   C9S10305   1.403   7.490   6.422
   7823SM   H9S10306   1.507   7.525   6.433
   7823SM   H9T10307   1.346   7.542   6.502
   7823SM  C10S10308   1.345   7.534   6.288
   7823SM  H10S10309   1.364   7.641   6.283
   7823SM  H10T10310   1.236   7.521   6.281
   7823SM  C11S10311   1.397   7.479   6.157
   7823SM  H11S10312   1.358   7.377   6.136
   7823SM  H11T10313   1.507   7.474   6.156
   7823SM  C12S10314   1.354   7.578   6.050
   7823SM  H12S10315   1.393   7.679   6.076
   7823SM  H12T10316   1.243   7.585   6.044
   7823SM  C13S10317   1.414   7.541   5.917
   7823SM  H13S10318   1.373   7.443   5.885
   7823SM  H13T10319   1.524   7.532   5.928
   7823SM  C14S10320   1.385   7.645   5.810
   7823SM  H14S10321   1.420   7.746   5.841
   7823SM  H14T10322   1.274   7.651   5.798
   7823SM  C15S10323   1.455   7.602   5.682
   7823SM  H15S10324   1.490   7.497   5.697
   7823SM  H15T10325   1.545   7.664   5.663
   7823SM  C16S10326   1.358   7.601   5.564
   7823SM  H16S10327   1.383   7.686   5.497
   7823SM  H16T10328   1.255   7.618   5.601
   7823SM  C17S10329   1.352   7.468   5.486
   7823SM  H17S10330   1.272   7.404   5.529
   7823SM  H17T10331   1.448   7.412   5.491
   7823SM  C18S10332   1.324   7.497   5.341
   7823SM  H18S10333   1.327   7.410   5.273
   7823SM  H18T10334   1.410   7.558   5.312
   7823SM  H18U10335   1.230   7.555   5.328
   7823SM   C1F10336   1.101   7.340   7.070
   7823SM    OF10337   1.104   7.437   7.146
   7823SM   C2F10338   0.972   7.292   7.006
   7823SM   H2F10339   0.903   7.267   7.089
   7823SM   H2G10340   0.992   7.198   6.951
   7823SM   C3F10341   0.905   7.391   6.908
   7823SM   H3F10342   0.889   7.489   6.956
   7823SM   H3G10343   0.806   7.349   6.877
   7823SM   C4F10344   0.982   7.413   6.777
   7823SM   H4F10345   1.001   7.315   6.726
   7823SM   H4G10346   1.082   7.458   6.800
   7823SM   C5F10347   0.906   7.506   6.682
   7823SM   H5F10348   0.856   7.586   6.741
   7823SM   H5G10349   0.827   7.448   6.628
   7823SM   C6F10350   0.999   7.576   6.583
   7823SM   H6F10351   1.084   7.620   6.639
   7823SM   H6G10352   0.946   7.659   6.531
   7823SM   C7F10353   1.054   7.481   6.477
   7823SM   H7F10354   1.093   7.387   6.522
   7823SM   H7G10355   1.140   7.538   6.438
   7823SM   C8F10356   0.955   7.453   6.364
   7823SM   H8F10357   0.917   7.550   6.325
   7823SM   H8G10358   0.869   7.397   6.408
   7823SM   C9F10359   1.008   7.371   6.244
   7823SM   H9F10360   1.094   7.420   6.196
   7823SM   H9G10361   0.931   7.365   6.164
   7823SM  C10F10362   1.042   7.228   6.284
   7823SM  H10F10363   0.948   7.175   6.313
   7823SM  H10G10364   1.108   7.229   6.374
   7823SM  C11F10365   1.112   7.149   6.175
   7823SM  H11F10366   1.206   7.202   6.147
   7823SM  H11G10367   1.049   7.146   6.083
   7823SM  C12F10368   1.143   7.008   6.225
   7823SM  H12F10369   1.050   6.951   6.245
   7823SM  H12G10370   1.198   7.019   6.321
   7823SM  C13F10371   1.233   6.930   6.130
   7823SM  H13F10372   1.299   6.861   6.188
   7823SM  H13G10373   1.298   7.004   6.082
   7823SM  C14F10374   1.160   6.848   6.023
   7823SM  H14F10375   1.099   6.771   6.075
   7823SM  H14G10376   1.238   6.795   5.963
   7823SM  C15F10377   1.071   6.924   5.924
   7823SM  H15F10378   1.129   7.004   5.875
   7823SM  H15G10379   0.984   6.970   5.976
   7823SM  C16F10380   1.019   6.827   5.817
   7823SM  H16F10381   0.951   6.753   5.865
   7823SM  H16G10382   1.106   6.768   5.781
   7823SM  C17F10383   0.945   6.895   5.701
   7823SM  H17F10384   0.894   6.987   5.737
   7823SM  H17G10385   0.866   6.825   5.666
   7823SM  C18F10386   1.034   6.926   5.579
   7823SM  H18F10387   1.113   6.999   5.605
   7823SM  H18G10388   0.971   6.970   5.499
   7823SM  C19F10389   1.096   6.795   5.529
   7823SM  H19F10390   1.015   6.718   5.530
   7823SM  H19G10391   1.178   6.762   5.596
   7823SM  C20F10392   1.153   6.795   5.388
   7823SM  H20F10393   1.238   6.865   5.378
   7823SM  H20G10394   1.074   6.827   5.316
   7823SM  C21F10395   1.196   6.651   5.357
   7823SM  H21F10396   1.121   6.578   5.394
   7823SM  H21G10397   1.293   6.630   5.406
   7823SM  C22F10398   1.207   6.635   5.207
   7823SM  H22F10399   1.275   6.718   5.182
   7823SM  H22G10400   1.111   6.659   5.157
   7823SM  C23F10401   1.260   6.502   5.155
   7823SM  H23F10402   1.185   6.422   5.170
   7823SM  H23G10403   1.354   6.472   5.207
   7823SM  H23H10404   1.281   6.510   5.047
   7923SM     N10405   6.854   0.513   7.800
   7923SM   C1510406   6.799   0.645   7.846
   7923SM  H15A10407   6.714   0.635   7.911
   7923SM  H15B10408   6.774   0.705   7.759
   7923SM  H15C10409   6.871   0.705   7.901
   7923SM   C1410410   6.960   0.535   7.697
   7923SM  H14A10411   6.975   0.442   7.641
   7923SM  H14B10412   7.057   0.565   7.734
   7923SM  H14C10413   6.925   0.604   7.620
   7923SM   C1310414   6.910   0.438   7.916
   7923SM  H13A10415   6.964   0.350   7.879
   7923SM  H13B10416   6.833   0.400   7.983
   7923SM  H13C10417   6.980   0.497   7.973
   7923SM   C1210418   6.743   0.430   7.735
   7923SM  H12A10419   6.674   0.396   7.810
   7923SM  H12B10420   6.788   0.339   7.693
   7923SM   C1110421   6.665   0.495   7.619
   7923SM  H11A10422   6.636   0.599   7.646
   7923SM  H11B10423   6.569   0.441   7.601
   7923SM     P10424   6.761   0.364   7.418
   7923SM   O1310425   6.792   0.253   7.512
   7923SM   O1410426   6.642   0.349   7.331
   7923SM   O1110427   6.892   0.383   7.333
   7923SM   O1210428   6.745   0.498   7.501
   7923SM   C1S10429   6.939   0.509   7.283
   7923SM   H1S10430   7.050   0.509   7.287
   7923SM   H1T10431   6.907   0.595   7.347
   7923SM    NF10432   6.757   0.572   7.135
   7923SM   HNF10433   6.691   0.500   7.155
   7923SM   C2S10434   6.896   0.532   7.135
   7923SM   H2S10435   6.958   0.613   7.092
   7923SM   C3S10436   6.927   0.403   7.053
   7923SM   H3S10437   6.879   0.315   7.100
   7923SM    O310438   7.067   0.375   7.045
   7923SM   HO310439   7.107   0.420   7.119
   7923SM   C4S10440   6.878   0.411   6.910
   7923SM   H4S10441   6.786   0.354   6.892
   7923SM   C5S10442   6.935   0.475   6.806
   7923SM   H5S10443   7.029   0.531   6.821
   7923SM   C6S10444   6.880   0.473   6.666
   7923SM   H6S10445   6.818   0.563   6.647
   7923SM   H6T10446   6.816   0.383   6.649
   7923SM   C7S10447   6.997   0.467   6.566
   7923SM   H7S10448   7.053   0.371   6.578
   7923SM   H7T10449   7.067   0.550   6.589
   7923SM   C8S10450   6.956   0.480   6.418
   7923SM   H8S10451   6.858   0.532   6.414
   7923SM   H8T10452   6.943   0.380   6.370
   7923SM   C9S10453   7.058   0.566   6.341
   7923SM   H9S10454   7.158   0.517   6.336
   7923SM   H9T10455   7.070   0.657   6.406
   7923SM  C10S10456   7.013   0.615   6.202
   7923SM  H10S10457   7.034   0.724   6.197
   7923SM  H10T10458   6.903   0.604   6.192
   7923SM  C11S10459   7.077   0.551   6.077
   7923SM  H11S10460   7.041   0.446   6.072
   7923SM  H11T10461   7.188   0.549   6.081
   7923SM  C12S10462   7.033   0.631   5.952
   7923SM  H12S10463   7.112   0.697   5.913
   7923SM  H12T10464   6.956   0.702   5.987
   7923SM  C13S10465   6.975   0.542   5.841
   7923SM  H13S10466   6.913   0.472   5.898
   7923SM  H13T10467   7.056   0.487   5.789
   7923SM  C14S10468   6.883   0.611   5.739
   7923SM  H14S10469   6.952   0.653   5.665
   7923SM  H14T10470   6.830   0.694   5.787
   7923SM  C15S10471   6.785   0.530   5.652
   7923SM  H15S10472   6.709   0.476   5.713
   7923SM  H15T10473   6.838   0.455   5.590
   7923SM  C16S10474   6.717   0.626   5.554
   7923SM  H16S10475   6.794   0.692   5.509
   7923SM  H16T10476   6.651   0.693   5.613
   7923SM  C17S10477   6.642   0.554   5.440
   7923SM  H17S10478   6.566   0.486   5.484
   7923SM  H17T10479   6.715   0.491   5.385
   7923SM  C18S10480   6.575   0.647   5.340
   7923SM  H18S10481   6.650   0.716   5.295
   7923SM  H18T10482   6.497   0.712   5.384
   7923SM  H18U10483   6.526   0.589   5.259
   7923SM   C1F10484   6.733   0.697   7.175
   7923SM    OF10485   6.825   0.772   7.202
   7923SM   C2F10486   6.592   0.742   7.185
   7923SM   H2F10487   6.576   0.792   7.283
   7923SM   H2G10488   6.522   0.657   7.175
   7923SM   C3F10489   6.574   0.844   7.072
   7923SM   H3F10490   6.639   0.932   7.091
   7923SM   H3G10491   6.471   0.882   7.074
   7923SM   C4F10492   6.610   0.788   6.933
   7923SM   H4F10493   6.720   0.779   6.920
   7923SM   H4G10494   6.573   0.860   6.857
   7923SM   C5F10495   6.543   0.656   6.897
   7923SM   H5F10496   6.447   0.650   6.952
   7923SM   H5G10497   6.604   0.569   6.928
   7923SM   C6F10498   6.517   0.649   6.747
   7923SM   H6F10499   6.613   0.662   6.693
   7923SM   H6G10500   6.450   0.734   6.718
   7923SM   C7F10501   6.454   0.518   6.700
   7923SM   H7F10502   6.351   0.508   6.740
   7923SM   H7G10503   6.512   0.432   6.740
   7923SM   C8F10504   6.451   0.515   6.547
   7923SM   H8F10505   6.453   0.618   6.507
   7923SM   H8G10506   6.356   0.470   6.511
   7923SM   C9F10507   6.569   0.437   6.489
   7923SM   H9F10508   6.616   0.375   6.569
   7923SM   H9G10509   6.647   0.510   6.457
   7923SM  C10F10510   6.530   0.344   6.373
   7923SM  H10F10511   6.434   0.293   6.393
   7923SM  H10G10512   6.609   0.266   6.362
   7923SM  C11F10513   6.527   0.429   6.246
   7923SM  H11F10514   6.632   0.461   6.237
   7923SM  H11G10515   6.459   0.515   6.267
   7923SM  C12F10516   6.487   0.368   6.112
   7923SM  H12F10517   6.457   0.452   6.044
   7923SM  H12G10518   6.396   0.306   6.128
   7923SM  C13F10519   6.592   0.284   6.036
   7923SM  H13F10520   6.560   0.286   5.930
   7923SM  H13G10521   6.586   0.180   6.075
   7923SM  C14F10522   6.739   0.325   6.027
   7923SM  H14F10523   6.779   0.351   6.127
   7923SM  H14G10524   6.745   0.416   5.964
   7923SM  C15F10525   6.824   0.213   5.961
   7923SM  H15F10526   6.761   0.121   5.962
   7923SM  H15G10527   6.912   0.194   6.026
   7923SM  C16F10528   6.871   0.235   5.815
   7923SM  H16F10529   6.952   0.309   5.811
   7923SM  H16G10530   6.786   0.269   5.752
   7923SM  C17F10531   6.944   0.119   5.746
   7923SM  H17F10532   6.877   0.032   5.755
   7923SM  H17G10533   7.039   0.099   5.801
   7923SM  C18F10534   6.975   0.134   5.594
   7923SM  H18F10535   6.877   0.136   5.541
   7923SM  H18G10536   7.029   0.042   5.564
   7923SM  C19F10537   7.054   0.257   5.543
   7923SM  H19F10538   7.131   0.289   5.617
   7923SM  H19G10539   6.983   0.341   5.530
   7923SM  C20F10540   7.120   0.240   5.403
   7923SM  H20F10541   7.203   0.166   5.409
   7923SM  H20G10542   7.165   0.337   5.373
   7923SM  C21F10543   7.021   0.197   5.294
   7923SM  H21F10544   6.944   0.276   5.278
   7923SM  H21G10545   6.969   0.108   5.334
   7923SM  C22F10546   7.084   0.156   5.159
   7923SM  H22F10547   7.011   0.091   5.106
   7923SM  H22G10548   7.174   0.094   5.177
   7923SM  C23F10549   7.118   0.272   5.065
   7923SM  H23F10550   7.161   0.232   4.972
   7923SM  H23G10551   7.193   0.341   5.109
   7923SM  H23H10552   7.027   0.329   5.037
   8023SM     N10553   0.596   0.524   7.732
   8023SM   C1510554   0.702   0.570   7.827
   8023SM  H15A10555   0.758   0.484   7.863
   8023SM  H15B10556   0.659   0.619   7.915
   8023SM  H15C10557   0.771   0.639   7.780
   8023SM   C1410558   0.654   0.446   7.616
   8023SM  H14A10559   0.717   0.504   7.551
   8023SM  H14B10560   0.572   0.411   7.551
   8023SM  H14C10561   0.707   0.356   7.648
   8023SM   C1310562   0.506   0.426   7.799
   8023SM  H13A10563   0.560   0.332   7.814
   8023SM  H13B10564   0.422   0.399   7.733
   8023SM  H13C10565   0.467   0.459   7.893
   8023SM   C1210566   0.524   0.643   7.675
   8023SM  H12A10567   0.588   0.690   7.601
   8023SM  H12B10568   0.507   0.717   7.753
   8023SM   C1110569   0.389   0.615   7.607
   8023SM  H11A10570   0.362   0.711   7.559
   8023SM  H11B10571   0.312   0.591   7.683
   8023SM     P10572   0.310   0.390   7.492
   8023SM   O1310573   0.397   0.275   7.477
   8023SM   O1410574   0.216   0.386   7.606
   8023SM   O1110575   0.227   0.420   7.359
   8023SM   O1210576   0.400   0.517   7.507
   8023SM   C1S10577   0.294   0.486   7.251
   8023SM   H1S10578   0.378   0.551   7.282
   8023SM   H1T10579   0.223   0.555   7.201
   8023SM    NF10580   0.470   0.417   7.087
   8023SM   HNF10581   0.475   0.408   6.988
   8023SM   C2S10582   0.343   0.380   7.149
   8023SM   H2S10583   0.360   0.283   7.200
   8023SM   C3S10584   0.226   0.365   7.046
   8023SM   H3S10585   0.195   0.464   7.008
   8023SM    O310586   0.110   0.312   7.112
   8023SM   HO310587   0.108   0.361   7.196
   8023SM   C4S10588   0.266   0.277   6.929
   8023SM   H4S10589   0.294   0.174   6.955
   8023SM   C5S10590   0.270   0.314   6.798
   8023SM   H5S10591   0.242   0.418   6.769
   8023SM   C6S10592   0.311   0.225   6.682
   8023SM   H6S10593   0.221   0.179   6.636
   8023SM   H6T10594   0.376   0.142   6.717
   8023SM   C7S10595   0.386   0.297   6.567
   8023SM   H7S10596   0.479   0.343   6.607
   8023SM   H7T10597   0.320   0.376   6.526
   8023SM   C8S10598   0.426   0.209   6.447
   8023SM   H8S10599   0.341   0.141   6.425
   8023SM   H8T10600   0.516   0.151   6.477
   8023SM   C9S10601   0.460   0.283   6.316
   8023SM   H9S10602   0.537   0.361   6.335
   8023SM   H9T10603   0.369   0.334   6.279
   8023SM  C10S10604   0.514   0.189   6.207
   8023SM  H10S10605   0.452   0.097   6.203
   8023SM  H10T10606   0.618   0.160   6.235
   8023SM  C11S10607   0.520   0.251   6.066
   8023SM  H11S10608   0.574   0.347   6.076
   8023SM  H11T10609   0.416   0.269   6.028
   8023SM  C12S10610   0.600   0.172   5.962
   8023SM  H12S10611   0.639   0.081   6.012
   8023SM  H12T10612   0.688   0.232   5.928
   8023SM  C13S10613   0.520   0.129   5.840
   8023SM  H13S10614   0.416   0.102   5.868
   8023SM  H13T10615   0.570   0.036   5.804
   8023SM  C14S10616   0.518   0.222   5.719
   8023SM  H14S10617   0.613   0.279   5.712
   8023SM  H14T10618   0.434   0.295   5.728
   8023SM  C15S10619   0.502   0.134   5.593
   8023SM  H15S10620   0.410   0.073   5.607
   8023SM  H15T10621   0.589   0.066   5.586
   8023SM  C16S10622   0.484   0.208   5.461
   8023SM  H16S10623   0.560   0.288   5.448
   8023SM  H16T10624   0.383   0.251   5.469
   8023SM  C17S10625   0.479   0.114   5.340
   8023SM  H17S10626   0.404   0.035   5.361
   8023SM  H17T10627   0.578   0.066   5.329
   8023SM  C18S10628   0.440   0.184   5.210
   8023SM  H18S10629   0.478   0.126   5.123
   8023SM  H18T10630   0.480   0.287   5.206
   8023SM  H18U10631   0.330   0.190   5.199
   8023SM   C1F10632   0.584   0.444   7.151
   8023SM    OF10633   0.595   0.455   7.272
   8023SM   C2F10634   0.705   0.464   7.066
   8023SM   H2F10635   0.681   0.441   6.960
   8023SM   H2G10636   0.784   0.395   7.100
   8023SM   C3F10637   0.753   0.610   7.080
   8023SM   H3F10638   0.835   0.626   7.007
   8023SM   H3G10639   0.796   0.625   7.182
   8023SM   C4F10640   0.642   0.715   7.058
   8023SM   H4F10641   0.689   0.816   7.059
   8023SM   H4G10642   0.571   0.711   7.144
   8023SM   C5F10643   0.563   0.698   6.926
   8023SM   H5F10644   0.483   0.774   6.920
   8023SM   H5G10645   0.508   0.602   6.924
   8023SM   C6F10646   0.655   0.708   6.803
   8023SM   H6F10647   0.717   0.617   6.795
   8023SM   H6G10648   0.724   0.795   6.818
   8023SM   C7F10649   0.577   0.728   6.673
   8023SM   H7F10650   0.646   0.762   6.593
   8023SM   H7G10651   0.503   0.810   6.692
   8023SM   C8F10652   0.504   0.602   6.625
   8023SM   H8F10653   0.455   0.553   6.713
   8023SM   H8G10654   0.575   0.529   6.581
   8023SM   C9F10655   0.391   0.635   6.525
   8023SM   H9F10656   0.362   0.735   6.556
   8023SM   H9G10657   0.302   0.571   6.541
   8023SM  C10F10658   0.427   0.643   6.376
   8023SM  H10F10659   0.500   0.563   6.352
   8023SM  H10G10660   0.477   0.741   6.360
   8023SM  C11F10661   0.305   0.633   6.281
   8023SM  H11F10662   0.229   0.708   6.312
   8023SM  H11G10663   0.257   0.533   6.290
   8023SM  C12F10664   0.337   0.659   6.131
   8023SM  H12F10665   0.407   0.744   6.131
   8023SM  H12G10666   0.244   0.689   6.078
   8023SM  C13F10667   0.399   0.538   6.061
   8023SM  H13F10668   0.324   0.456   6.061
   8023SM  H13G10669   0.481   0.510   6.130
   8023SM  C14F10670   0.461   0.548   5.919
   8023SM  H14F10671   0.521   0.456   5.900
   8023SM  H14G10672   0.532   0.631   5.912
   8023SM  C15F10673   0.367   0.562   5.799
   8023SM  H15F10674   0.312   0.657   5.811
   8023SM  H15G10675   0.296   0.477   5.797
   8023SM  C16F10676   0.440   0.573   5.663
   8023SM  H16F10677   0.507   0.487   5.646
   8023SM  H16G10678   0.502   0.665   5.667
   8023SM  C17F10679   0.340   0.591   5.547
   8023SM  H17F10680   0.395   0.622   5.455
   8023SM  H17G10681   0.277   0.675   5.578
   8023SM  C18F10682   0.255   0.467   5.513
   8023SM  H18F10683   0.249   0.399   5.601
   8023SM  H18G10684   0.313   0.418   5.432
   8023SM  C19F10685   0.113   0.481   5.451
   8023SM  H19F10686   0.117   0.522   5.351
   8023SM  H19G10687   0.045   0.548   5.504
   8023SM  C20F10688   0.035   0.349   5.441
   8023SM  H20F10689  -0.072   0.375   5.428
   8023SM  H20G10690   0.048   0.295   5.536
   8023SM  C21F10691   0.081   0.265   5.321
   8023SM  H21F10692   0.052   0.159   5.336
   8023SM  H21G10693   0.192   0.270   5.319
   8023SM  C22F10694   0.023   0.314   5.187
   8023SM  H22F10695   0.014   0.425   5.192
   8023SM  H22G10696  -0.081   0.276   5.176
   8023SM  C23F10697   0.105   0.277   5.063
   8023SM  H23F10698   0.208   0.317   5.069
   8023SM  H23G10699   0.058   0.320   4.972
   8023SM  H23H10700   0.112   0.167   5.050
   8123SM     N10701   3.413   3.757   2.204
   8123SM   C1510702   3.325   3.636   2.210
   8123SM  H15A10703   3.374   3.552   2.160
   8123SM  H15B10704   3.229   3.655   2.166
   8123SM  H15C10705   3.310   3.606   2.314
   8123SM   C1410706   3.443   3.790   2.061
   8123SM  H14A10707   3.524   3.861   2.051
   8123SM  H14B10708   3.357   3.829   2.008
   8123SM  H14C10709   3.467   3.699   2.006
   8123SM   C1310710   3.346   3.872   2.272
   8123SM  H13A10711   3.249   3.893   2.229
   8123SM  H13B10712   3.408   3.960   2.267
   8123SM  H13C10713   3.334   3.851   2.378
   8123SM   C1210714   3.543   3.726   2.278
   8123SM  H12A10715   3.602   3.817   2.286
   8123SM  H12B10716   3.600   3.654   2.220
   8123SM   C1110717   3.532   3.671   2.423
   8123SM  H11A10718   3.636   3.649   2.460
   8123SM  H11B10719   3.479   3.574   2.422
   8123SM     P10720   3.544   3.884   2.570
   8123SM   O1310721   3.669   3.900   2.492
   8123SM   O1410722   3.458   4.005   2.572
   8123SM   O1110723   3.574   3.833   2.718
   8123SM   O1210724   3.463   3.763   2.508
   8123SM   C1S10725   3.479   3.747   2.785
   8123SM   H1S10726   3.473   3.648   2.734
   8123SM   H1T10727   3.377   3.792   2.783
   8123SM    NF10728   3.394   3.663   3.007
   8123SM   HNF10729   3.360   3.720   3.081
   8123SM   C2S10730   3.511   3.717   2.936
   8123SM   H2S10731   3.592   3.641   2.940
   8123SM   C3S10732   3.563   3.847   3.007
   8123SM   H3S10733   3.481   3.923   3.006
   8123SM    O310734   3.678   3.908   2.950
   8123SM   HO310735   3.684   3.867   2.863
   8123SM   C4S10736   3.594   3.818   3.152
   8123SM   H4S10737   3.526   3.871   3.220
   8123SM   C5S10738   3.692   3.742   3.205
   8123SM   H5S10739   3.761   3.688   3.138
   8123SM   C6S10740   3.713   3.722   3.354
   8123SM   H6S10741   3.823   3.720   3.374
   8123SM   H6T10742   3.674   3.623   3.386
   8123SM   C7S10743   3.652   3.833   3.443
   8123SM   H7S10744   3.542   3.838   3.429
   8123SM   H7T10745   3.696   3.931   3.412
   8123SM   C8S10746   3.678   3.815   3.593
   8123SM   H8S10747   3.786   3.795   3.610
   8123SM   H8T10748   3.620   3.728   3.630
   8123SM   C9S10749   3.638   3.941   3.672
   8123SM   H9S10750   3.534   3.970   3.645
   8123SM   H9T10751   3.706   4.024   3.641
   8123SM  C10S10752   3.647   3.926   3.825
   8123SM  H10S10753   3.661   4.027   3.870
   8123SM  H10T10754   3.735   3.864   3.853
   8123SM  C11S10755   3.519   3.866   3.885
   8123SM  H11S10756   3.521   3.756   3.867
   8123SM  H11T10757   3.430   3.907   3.833
   8123SM  C12S10758   3.500   3.890   4.035
   8123SM  H12S10759   3.404   3.842   4.066
   8123SM  H12T10760   3.489   3.999   4.055
   8123SM  C13S10761   3.614   3.834   4.121
   8123SM  H13S10762   3.705   3.895   4.106
   8123SM  H13T10763   3.637   3.730   4.087
   8123SM  C14S10764   3.575   3.830   4.269
   8123SM  H14S10765   3.491   3.758   4.281
   8123SM  H14T10766   3.540   3.930   4.302
   8123SM  C15S10767   3.691   3.784   4.357
   8123SM  H15S10768   3.769   3.863   4.365
   8123SM  H15T10769   3.738   3.695   4.307
   8123SM  C16S10770   3.645   3.737   4.495
   8123SM  H16S10771   3.727   3.675   4.538
   8123SM  H16T10772   3.555   3.673   4.481
   8123SM  C17S10773   3.610   3.845   4.597
   8123SM  H17S10774   3.522   3.904   4.560
   8123SM  H17T10775   3.696   3.915   4.608
   8123SM  C18S10776   3.577   3.782   4.732
   8123SM  H18S10777   3.666   3.727   4.771
   8123SM  H18T10778   3.495   3.708   4.721
   8123SM  H18U10779   3.546   3.858   4.807
   8123SM   C1F10780   3.327   3.548   2.987
   8123SM    OF10781   3.348   3.478   2.889
   8123SM   C2F10782   3.218   3.517   3.087
   8123SM   H2F10783   3.134   3.469   3.032
   8123SM   H2G10784   3.178   3.611   3.130
   8123SM   C3F10785   3.262   3.423   3.202
   8123SM   H3F10786   3.310   3.332   3.162
   8123SM   H3G10787   3.172   3.390   3.259
   8123SM   C4F10788   3.361   3.481   3.304
   8123SM   H4F10789   3.450   3.525   3.253
   8123SM   H4G10790   3.399   3.396   3.365
   8123SM   C5F10791   3.297   3.581   3.399
   8123SM   H5F10792   3.193   3.548   3.424
   8123SM   H5G10793   3.290   3.681   3.350
   8123SM   C6F10794   3.375   3.592   3.530
   8123SM   H6F10795   3.483   3.605   3.504
   8123SM   H6G10796   3.368   3.496   3.587
   8123SM   C7F10797   3.329   3.709   3.616
   8123SM   H7F10798   3.326   3.801   3.554
   8123SM   H7G10799   3.405   3.726   3.694
   8123SM   C8F10800   3.192   3.688   3.684
   8123SM   H8F10801   3.116   3.669   3.606
   8123SM   H8G10802   3.164   3.783   3.736
   8123SM   C9F10803   3.190   3.575   3.788
   8123SM   H9F10804   3.210   3.477   3.739
   8123SM   H9G10805   3.089   3.571   3.834
   8123SM  C10F10806   3.292   3.594   3.901
   8123SM  H10F10807   3.273   3.695   3.943
   8123SM  H10G10808   3.395   3.591   3.861
   8123SM  C11F10809   3.282   3.491   4.014
   8123SM  H11F10810   3.356   3.410   3.998
   8123SM  H11G10811   3.181   3.444   4.015
   8123SM  C12F10812   3.303   3.559   4.149
   8123SM  H12F10813   3.370   3.646   4.136
   8123SM  H12G10814   3.353   3.492   4.222
   8123SM  C13F10815   3.167   3.605   4.203
   8123SM  H13F10816   3.104   3.516   4.222
   8123SM  H13G10817   3.117   3.664   4.123
   8123SM  C14F10818   3.176   3.692   4.329
   8123SM  H14F10819   3.078   3.741   4.347
   8123SM  H14G10820   3.251   3.772   4.310
   8123SM  C15F10821   3.216   3.614   4.453
   8123SM  H15F10822   3.316   3.568   4.433
   8123SM  H15G10823   3.145   3.531   4.474
   8123SM  C16F10824   3.232   3.704   4.576
   8123SM  H16F10825   3.286   3.795   4.543
   8123SM  H16G10826   3.296   3.652   4.650
   8123SM  C17F10827   3.102   3.742   4.650
   8123SM  H17F10828   3.040   3.651   4.665
   8123SM  H17G10829   3.044   3.812   4.586
   8123SM  C18F10830   3.132   3.808   4.786
   8123SM  H18F10831   3.176   3.732   4.855
   8123SM  H18G10832   3.037   3.842   4.832
   8123SM  C19F10833   3.226   3.928   4.772
   8123SM  H19F10834   3.173   4.004   4.711
   8123SM  H19G10835   3.318   3.899   4.716
   8123SM  C20F10836   3.277   3.994   4.901
   8123SM  H20F10837   3.360   3.934   4.944
   8123SM  H20G10838   3.197   3.996   4.977
   8123SM  C21F10839   3.328   4.135   4.865
   8123SM  H21F10840   3.241   4.201   4.843
   8123SM  H21G10841   3.385   4.125   4.769
   8123SM  C22F10842   3.422   4.205   4.965
   8123SM  H22F10843   3.458   4.299   4.917
   8123SM  H22G10844   3.511   4.140   4.981
   8123SM  C23F10845   3.359   4.241   5.099
   8123SM  H23F10846   3.434   4.282   5.169
   8123SM  H23G10847   3.314   4.151   5.146
   8123SM  H23H10848   3.279   4.316   5.086
   8223SM     N10849   3.947   4.341   2.294
   8223SM   C1510850   3.827   4.426   2.263
   8223SM  H15A10851   3.809   4.435   2.157
   8223SM  H15B10852   3.846   4.527   2.300
   8223SM  H15C10853   3.739   4.392   2.316
   8223SM   C1410854   3.916   4.198   2.267
   8223SM  H14A10855   4.002   4.135   2.290
   8223SM  H14B10856   3.887   4.183   2.164
   8223SM  H14C10857   3.832   4.166   2.328
   8223SM   C1310858   4.063   4.387   2.214
   8223SM  H13A10859   4.046   4.381   2.108
   8223SM  H13B10860   4.154   4.333   2.239
   8223SM  H13C10861   4.085   4.492   2.238
   8223SM   C1210862   3.978   4.352   2.443
   8223SM  H12A10863   4.050   4.274   2.469
   8223SM  H12B10864   3.887   4.329   2.498
   8223SM   C1110865   4.025   4.486   2.499
   8223SM  H11A10866   4.122   4.510   2.448
   8223SM  H11B10867   4.046   4.476   2.608
   8223SM     P10868   3.970   4.733   2.470
   8223SM   O1310869   4.087   4.741   2.377
   8223SM   O1410870   3.852   4.819   2.440
   8223SM   O1110871   4.019   4.755   2.622
   8223SM   O1210872   3.923   4.584   2.477
   8223SM   C1S10873   3.910   4.742   2.716
   8223SM   H1S10874   3.840   4.658   2.688
   8223SM   H1T10875   3.851   4.836   2.718
   8223SM    NF10876   3.823   4.682   2.930
   8223SM   HNF10877   3.772   4.761   2.964
   8223SM   C2S10878   3.948   4.706   2.863
   8223SM   H2S10879   4.010   4.614   2.862
   8223SM   C3S10880   4.031   4.816   2.931
   8223SM   H3S10881   3.979   4.914   2.920
   8223SM    O310882   4.160   4.829   2.871
   8223SM   HO310883   4.140   4.823   2.776
   8223SM   C4S10884   4.043   4.789   3.080
   8223SM   H4S10885   3.989   4.862   3.141
   8223SM   C5S10886   4.111   4.691   3.145
   8223SM   H5S10887   4.167   4.616   3.085
   8223SM   C6S10888   4.116   4.672   3.295
   8223SM   H6S10889   4.077   4.570   3.319
   8223SM   H6T10890   4.050   4.744   3.348
   8223SM   C7S10891   4.258   4.683   3.355
   8223SM   H7S10892   4.297   4.786   3.342
   8223SM   H7T10893   4.325   4.615   3.298
   8223SM   C8S10894   4.270   4.642   3.504
   8223SM   H8S10895   4.379   4.631   3.525
   8223SM   H8T10896   4.224   4.543   3.522
   8223SM   C9S10897   4.215   4.745   3.605
   8223SM   H9S10898   4.106   4.731   3.618
   8223SM   H9T10899   4.232   4.846   3.563
   8223SM  C10S10900   4.286   4.742   3.743
   8223SM  H10S10901   4.253   4.833   3.799
   8223SM  H10T10902   4.396   4.752   3.728
   8223SM  C11S10903   4.258   4.619   3.831
   8223SM  H11S10904   4.303   4.529   3.785
   8223SM  H11T10905   4.148   4.603   3.837
   8223SM  C12S10906   4.313   4.638   3.973
   8223SM  H12S10907   4.269   4.732   4.015
   8223SM  H12T10908   4.423   4.653   3.969
   8223SM  C13S10909   4.282   4.523   4.070
   8223SM  H13S10910   4.338   4.432   4.039
   8223SM  H13T10911   4.173   4.499   4.064
   8223SM  C14S10912   4.316   4.558   4.216
   8223SM  H14S10913   4.259   4.649   4.244
   8223SM  H14T10914   4.424   4.581   4.224
   8223SM  C15S10915   4.281   4.446   4.316
   8223SM  H15S10916   4.344   4.357   4.296
   8223SM  H15T10917   4.175   4.417   4.301
   8223SM  C16S10918   4.299   4.490   4.462
   8223SM  H16S10919   4.243   4.585   4.479
   8223SM  H16T10920   4.407   4.511   4.481
   8223SM  C17S10921   4.250   4.385   4.563
   8223SM  H17S10922   4.301   4.289   4.542
   8223SM  H17T10923   4.141   4.369   4.548
   8223SM  C18S10924   4.276   4.425   4.709
   8223SM  H18S10925   4.384   4.443   4.724
   8223SM  H18T10926   4.244   4.343   4.778
   8223SM  H18U10927   4.220   4.517   4.735
   8223SM   C1F10928   3.765   4.563   2.921
   8223SM    OF10929   3.818   4.471   2.861
   8223SM   C2F10930   3.626   4.551   2.974
   8223SM   H2F10931   3.570   4.501   2.892
   8223SM   H2G10932   3.584   4.652   2.987
   8223SM   C3F10933   3.608   4.467   3.104
   8223SM   H3F10934   3.621   4.359   3.079
   8223SM   H3G10935   3.503   4.480   3.137
   8223SM   C4F10936   3.698   4.496   3.226
   8223SM   H4F10937   3.791   4.435   3.219
   8223SM   H4G10938   3.644   4.460   3.317
   8223SM   C5F10939   3.737   4.642   3.251
   8223SM   H5F10940   3.805   4.676   3.171
   8223SM   H5G10941   3.798   4.647   3.344
   8223SM   C6F10942   3.619   4.739   3.264
   8223SM   H6F10943   3.553   4.736   3.175
   8223SM   H6G10944   3.660   4.842   3.270
   8223SM   C7F10945   3.534   4.713   3.389
   8223SM   H7F10946   3.478   4.617   3.380
   8223SM   H7G10947   3.460   4.795   3.393
   8223SM   C8F10948   3.616   4.713   3.519
   8223SM   H8F10949   3.683   4.802   3.516
   8223SM   H8G10950   3.680   4.623   3.522
   8223SM   C9F10951   3.532   4.720   3.647
   8223SM   H9F10952   3.424   4.723   3.619
   8223SM   H9G10953   3.550   4.815   3.700
   8223SM  C10F10954   3.556   4.610   3.751
   8223SM  H10F10955   3.518   4.515   3.709
   8223SM  H10G10956   3.496   4.635   3.841
   8223SM  C11F10957   3.700   4.591   3.804
   8223SM  H11F10958   3.774   4.602   3.722
   8223SM  H11G10959   3.706   4.486   3.841
   8223SM  C12F10960   3.735   4.683   3.923
   8223SM  H12F10961   3.643   4.732   3.961
   8223SM  H12G10962   3.801   4.764   3.885
   8223SM  C13F10963   3.803   4.612   4.044
   8223SM  H13F10964   3.885   4.547   4.007
   8223SM  H13G10965   3.726   4.547   4.092
   8223SM  C14F10966   3.859   4.711   4.148
   8223SM  H14F10967   3.785   4.793   4.153
   8223SM  H14G10968   3.954   4.754   4.107
   8223SM  C15F10969   3.885   4.662   4.293
   8223SM  H15F10970   3.934   4.745   4.348
   8223SM  H15G10971   3.957   4.577   4.292
   8223SM  C16F10972   3.758   4.624   4.373
   8223SM  H16F10973   3.717   4.532   4.326
   8223SM  H16G10974   3.681   4.703   4.360
   8223SM  C17F10975   3.779   4.594   4.524
   8223SM  H17F10976   3.857   4.514   4.529
   8223SM  H17G10977   3.685   4.551   4.565
   8223SM  C18F10978   3.825   4.707   4.620
   8223SM  H18F10979   3.911   4.762   4.576
   8223SM  H18G10980   3.865   4.656   4.711
   8223SM  C19F10981   3.714   4.802   4.672
   8223SM  H19F10982   3.638   4.740   4.724
   8223SM  H19G10983   3.664   4.849   4.584
   8223SM  C20F10984   3.756   4.915   4.770
   8223SM  H20F10985   3.661   4.959   4.810
   8223SM  H20G10986   3.807   4.997   4.716
   8223SM  C21F10987   3.841   4.871   4.891
   8223SM  H21F10988   3.933   4.819   4.859
   8223SM  H21G10989   3.781   4.796   4.947
   8223SM  C22F10990   3.881   4.986   4.987
   8223SM  H22F10991   3.790   5.046   5.005
   8223SM  H22G10992   3.952   5.058   4.944
   8223SM  C23F10993   3.941   4.942   5.121
   8223SM  H23F10994   3.885   4.855   5.157
   8223SM  H23G10995   3.932   5.022   5.198
   8223SM  H23H10996   4.047   4.911   5.110
   8323SM     N10997   4.822   4.577   2.200
   8323SM   C1510998   4.922   4.687   2.180
   8323SM  H15A10999   4.877   4.776   2.136
   8323SM  H15B11000   5.001   4.656   2.112
   8323SM  H15C11001   4.971   4.713   2.274
   8323SM   C1411002   4.766   4.535   2.069
   8323SM  H14A11003   4.718   4.616   2.016
   8323SM  H14B11004   4.693   4.454   2.076
   8323SM  H14C11005   4.846   4.499   2.006
   8323SM   C1311006   4.890   4.458   2.259
   8323SM  H13A11007   4.966   4.416   2.195
   8323SM  H13B11008   4.816   4.381   2.278
   8323SM  H13C11009   4.933   4.484   2.356
   8323SM   C1211010   4.713   4.619   2.298
   8323SM  H12A11011   4.644   4.536   2.311
   8323SM  H12B11012   4.655   4.700   2.257
   8323SM   C1111013   4.760   4.658   2.440
   8323SM  H11A11014   4.678   4.713   2.492
   8323SM  H11B11015   4.845   4.729   2.434
   8323SM     P11016   4.695   4.456   2.588
   8323SM   O1311017   4.572   4.445   2.508
   8323SM   O1411018   4.749   4.324   2.628
   8323SM   O1111019   4.662   4.540   2.717
   8323SM   O1211020   4.803   4.542   2.510
   8323SM   C1S11021   4.766   4.604   2.791
   8323SM   H1S11022   4.725   4.698   2.834
   8323SM   H1T11023   4.848   4.639   2.724
   8323SM    NF11024   4.905   4.410   2.863
   8323SM   HNF11025   4.862   4.323   2.840
   8323SM   C2S11026   4.821   4.519   2.911
   8323SM   H2S11027   4.883   4.585   2.976
   8323SM   C3S11028   4.701   4.470   2.996
   8323SM   H3S11029   4.635   4.404   2.935
   8323SM    O311030   4.624   4.582   3.039
   8323SM   HO311031   4.643   4.654   2.978
   8323SM   C4S11032   4.738   4.400   3.124
   8323SM   H4S11033   4.813   4.454   3.184
   8323SM   C5S11034   4.684   4.285   3.170
   8323SM   H5S11035   4.605   4.236   3.110
   8323SM   C6S11036   4.717   4.215   3.299
   8323SM   H6S11037   4.810   4.154   3.290
   8323SM   H6T11038   4.635   4.142   3.319
   8323SM   C7S11039   4.723   4.307   3.424
   8323SM   H7S11040   4.631   4.370   3.428
   8323SM   H7T11041   4.810   4.375   3.419
   8323SM   C8S11042   4.729   4.222   3.552
   8323SM   H8S11043   4.814   4.151   3.542
   8323SM   H8T11044   4.635   4.162   3.556
   8323SM   C9S11045   4.740   4.293   3.688
   8323SM   H9S11046   4.653   4.360   3.705
   8323SM   H9T11047   4.831   4.357   3.689
   8323SM  C10S11048   4.744   4.185   3.798
   8323SM  H10S11049   4.793   4.094   3.756
   8323SM  H10T11050   4.638   4.164   3.819
   8323SM  C11S11051   4.815   4.214   3.931
   8323SM  H11S11052   4.770   4.305   3.976
   8323SM  H11T11053   4.922   4.230   3.911
   8323SM  C12S11054   4.807   4.104   4.038
   8323SM  H12S11055   4.850   4.008   4.002
   8323SM  H12T11056   4.698   4.098   4.055
   8323SM  C13S11057   4.856   4.139   4.178
   8323SM  H13S11058   4.797   4.231   4.199
   8323SM  H13T11059   4.965   4.160   4.180
   8323SM  C14S11060   4.816   4.040   4.289
   8323SM  H14S11061   4.862   3.941   4.271
   8323SM  H14T11062   4.706   4.028   4.284
   8323SM  C15S11063   4.845   4.086   4.434
   8323SM  H15S11064   4.794   4.014   4.502
   8323SM  H15T11065   4.799   4.186   4.452
   8323SM  C16S11066   4.993   4.091   4.474
   8323SM  H16S11067   5.041   4.178   4.423
   8323SM  H16T11068   5.045   3.998   4.440
   8323SM  C17S11069   5.012   4.105   4.626
   8323SM  H17S11070   4.981   4.010   4.675
   8323SM  H17T11071   4.943   4.185   4.662
   8323SM  C18S11072   5.154   4.140   4.671
   8323SM  H18S11073   5.195   4.224   4.613
   8323SM  H18T11074   5.221   4.053   4.659
   8323SM  H18U11075   5.154   4.169   4.778
   8323SM   C1F11076   5.028   4.449   2.824
   8323SM    OF11077   5.055   4.567   2.808
   8323SM   C2F11078   5.138   4.350   2.811
   8323SM   H2F11079   5.215   4.395   2.745
   8323SM   H2G11080   5.105   4.254   2.767
   8323SM   C3F11081   5.202   4.331   2.949
   8323SM   H3F11082   5.221   4.431   2.996
   8323SM   H3G11083   5.302   4.285   2.937
   8323SM   C4F11084   5.120   4.245   3.045
   8323SM   H4F11085   5.114   4.143   3.001
   8323SM   H4G11086   5.016   4.283   3.058
   8323SM   C5F11087   5.186   4.238   3.182
   8323SM   H5F11088   5.297   4.244   3.171
   8323SM   H5G11089   5.165   4.139   3.226
   8323SM   C6F11090   5.139   4.344   3.283
   8323SM   H6F11091   5.068   4.416   3.238
   8323SM   H6G11092   5.229   4.401   3.314
   8323SM   C7F11093   5.077   4.278   3.408
   8323SM   H7F11094   5.130   4.184   3.430
   8323SM   H7G11095   4.973   4.248   3.386
   8323SM   C8F11096   5.088   4.358   3.537
   8323SM   H8F11097   5.015   4.441   3.535
   8323SM   H8G11098   5.192   4.397   3.543
   8323SM   C9F11099   5.078   4.274   3.664
   8323SM   H9F11100   5.157   4.196   3.658
   8323SM   H9G11101   4.983   4.218   3.669
   8323SM  C10F11102   5.105   4.354   3.793
   8323SM  H10F11103   5.214   4.374   3.785
   8323SM  H10G11104   5.099   4.292   3.883
   8323SM  C11F11105   5.035   4.492   3.811
   8323SM  H11F11106   5.002   4.536   3.715
   8323SM  H11G11107   5.114   4.559   3.848
   8323SM  C12F11108   4.927   4.515   3.919
   8323SM  H12F11109   4.829   4.474   3.887
   8323SM  H12G11110   4.910   4.625   3.923
   8323SM  C13F11111   4.965   4.469   4.061
   8323SM  H13F11112   5.060   4.518   4.091
   8323SM  H13G11113   4.985   4.361   4.062
   8323SM  C14F11114   4.856   4.499   4.166
   8323SM  H14F11115   4.760   4.455   4.132
   8323SM  H14G11116   4.841   4.609   4.173
   8323SM  C15F11117   4.887   4.445   4.307
   8323SM  H15F11118   4.910   4.337   4.306
   8323SM  H15G11119   4.800   4.459   4.374
   8323SM  C16F11120   5.013   4.502   4.369
   8323SM  H16F11121   5.058   4.576   4.300
   8323SM  H16G11122   5.087   4.419   4.380
   8323SM  C17F11123   4.987   4.564   4.505
   8323SM  H17F11124   4.902   4.635   4.500
   8323SM  H17G11125   5.079   4.622   4.530
   8323SM  C18F11126   4.967   4.461   4.616
   8323SM  H18F11127   5.052   4.390   4.607
   8323SM  H18G11128   4.873   4.404   4.603
   8323SM  C19F11129   4.977   4.522   4.757
   8323SM  H19F11130   5.070   4.580   4.759
   8323SM  H19G11131   4.989   4.440   4.832
   8323SM  C20F11132   4.866   4.619   4.800
   8323SM  H20F11133   4.766   4.572   4.794
   8323SM  H20G11134   4.860   4.702   4.727
   8323SM  C21F11135   4.893   4.678   4.940
   8323SM  H21F11136   4.805   4.740   4.966
   8323SM  H21G11137   4.981   4.746   4.929
   8323SM  C22F11138   4.931   4.588   5.062
   8323SM  H22F11139   5.038   4.561   5.051
   8323SM  H22G11140   4.877   4.493   5.070
   8323SM  C23F11141   4.907   4.654   5.198
   8323SM  H23F11142   4.998   4.709   5.229
   8323SM  H23G11143   4.886   4.580   5.277
   8323SM  H23H11144   4.821   4.725   5.195
   8423SM     N11145   4.216   2.295   2.202
   8423SM   C1511146   4.091   2.214   2.194
   8423SM  H15A11147   4.017   2.256   2.127
   8423SM  H15B11148   4.047   2.211   2.295
   8423SM  H15C11149   4.113   2.112   2.166
   8423SM   C1411150   4.310   2.231   2.301
   8423SM  H14A11151   4.268   2.238   2.402
   8423SM  H14B11152   4.405   2.281   2.308
   8423SM  H14C11153   4.330   2.127   2.280
   8423SM   C1311154   4.283   2.304   2.069
   8423SM  H13A11155   4.322   2.208   2.040
   8423SM  H13B11156   4.367   2.374   2.074
   8423SM  H13C11157   4.212   2.340   1.995
   8423SM   C1211158   4.184   2.436   2.249
   8423SM  H12A11159   4.137   2.488   2.166
   8423SM  H12B11160   4.277   2.488   2.270
   8423SM   C1111161   4.095   2.456   2.374
   8423SM  H11A11162   3.990   2.430   2.347
   8423SM  H11B11163   4.094   2.565   2.401
   8423SM     P11164   4.237   2.416   2.597
   8423SM   O1311165   4.355   2.327   2.594
   8423SM   O1411166   4.264   2.561   2.593
   8423SM   O1111167   4.150   2.383   2.724
   8423SM   O1211168   4.134   2.375   2.483
   8423SM   C1S11169   4.074   2.483   2.790
   8423SM   H1S11170   3.968   2.480   2.754
   8423SM   H1T11171   4.112   2.586   2.771
   8423SM    NF11172   4.223   2.450   2.982
   8423SM   HNF11173   4.263   2.359   2.979
   8423SM   C2S11174   4.083   2.460   2.943
   8423SM   H2S11175   4.036   2.550   2.991
   8423SM   C3S11176   4.003   2.335   2.987
   8423SM   H3S11177   4.055   2.244   2.953
   8423SM    O311178   3.870   2.332   2.934
   8423SM   HO311179   3.873   2.391   2.859
   8423SM   C4S11180   3.998   2.340   3.137
   8423SM   H4S11181   3.941   2.425   3.177
   8423SM   C5S11182   4.057   2.255   3.223
   8423SM   H5S11183   4.115   2.170   3.182
   8423SM   C6S11184   4.053   2.262   3.374
   8423SM   H6S11185   4.158   2.263   3.411
   8423SM   H6T11186   4.007   2.170   3.414
   8423SM   C7S11187   3.983   2.384   3.438
   8423SM   H7S11188   3.873   2.376   3.425
   8423SM   H7T11189   4.017   2.477   3.386
   8423SM   C8S11190   4.017   2.403   3.587
   8423SM   H8S11191   3.975   2.500   3.622
   8423SM   H8T11192   4.128   2.411   3.596
   8423SM   C9S11193   3.969   2.293   3.682
   8423SM   H9S11194   3.995   2.193   3.642
   8423SM   H9T11195   3.858   2.298   3.691
   8423SM  C10S11196   4.033   2.310   3.820
   8423SM  H10S11197   4.014   2.414   3.857
   8423SM  H10T11198   4.143   2.298   3.811
   8423SM  C11S11199   3.983   2.210   3.924
   8423SM  H11S11200   3.999   2.106   3.886
   8423SM  H11T11201   3.873   2.224   3.936
   8423SM  C12S11202   4.052   2.225   4.060
   8423SM  H12S11203   4.046   2.330   4.094
   8423SM  H12T11204   4.159   2.197   4.053
   8423SM  C13S11205   3.981   2.135   4.161
   8423SM  H13S11206   3.987   2.029   4.125
   8423SM  H13T11207   3.874   2.165   4.157
   8423SM  C14S11208   4.026   2.141   4.307
   8423SM  H14S11209   4.014   2.245   4.345
   8423SM  H14T11210   4.133   2.114   4.315
   8423SM  C15S11211   3.936   2.046   4.387
   8423SM  H15S11212   3.928   1.948   4.335
   8423SM  H15T11213   3.837   2.094   4.387
   8423SM  C16S11214   3.965   2.023   4.535
   8423SM  H16S11215   4.041   1.946   4.545
   8423SM  H16T11216   3.874   1.979   4.583
   8423SM  C17S11217   4.004   2.149   4.611
   8423SM  H17S11218   3.934   2.232   4.585
   8423SM  H17T11219   4.106   2.180   4.578
   8423SM  C18S11220   4.003   2.125   4.761
   8423SM  H18S11221   4.075   2.045   4.787
   8423SM  H18T11222   3.902   2.092   4.794
   8423SM  H18U11223   4.031   2.218   4.816
   8423SM   C1F11224   4.295   2.561   2.981
   8423SM    OF11225   4.239   2.670   2.975
   8423SM   C2F11226   4.443   2.548   2.995
   8423SM   H2F11227   4.495   2.607   2.918
   8423SM   H2G11228   4.474   2.442   2.985
   8423SM   C3F11229   4.482   2.601   3.134
   8423SM   H3F11230   4.447   2.706   3.144
   8423SM   H3G11231   4.592   2.602   3.144
   8423SM   C4F11232   4.418   2.516   3.244
   8423SM   H4F11233   4.427   2.409   3.214
   8423SM   H4G11234   4.309   2.538   3.252
   8423SM   C5F11235   4.485   2.531   3.380
   8423SM   H5F11236   4.460   2.629   3.425
   8423SM   H5G11237   4.595   2.523   3.370
   8423SM   C6F11238   4.436   2.419   3.472
   8423SM   H6F11239   4.465   2.320   3.430
   8423SM   H6G11240   4.324   2.421   3.475
   8423SM   C7F11241   4.489   2.431   3.614
   8423SM   H7F11242   4.464   2.530   3.657
   8423SM   H7G11243   4.600   2.420   3.612
   8423SM   C8F11244   4.432   2.320   3.702
   8423SM   H8F11245   4.448   2.222   3.650
   8423SM   H8G11246   4.322   2.334   3.713
   8423SM   C9F11247   4.499   2.313   3.839
   8423SM   H9F11248   4.472   2.403   3.899
   8423SM   H9G11249   4.609   2.316   3.823
   8423SM  C10F11250   4.464   2.185   3.915
   8423SM  H10F11251   4.479   2.098   3.847
   8423SM  H10G11252   4.357   2.186   3.944
   8423SM  C11F11253   4.552   2.165   4.039
   8423SM  H11F11254   4.659   2.168   4.009
   8423SM  H11G11255   4.532   2.064   4.081
   8423SM  C12F11256   4.527   2.269   4.148
   8423SM  H12F11257   4.417   2.279   4.165
   8423SM  H12G11258   4.566   2.367   4.114
   8423SM  C13F11259   4.596   2.231   4.279
   8423SM  H13F11260   4.702   2.205   4.256
   8423SM  H13G11261   4.549   2.140   4.323
   8423SM  C14F11262   4.595   2.343   4.382
   8423SM  H14F11263   4.645   2.432   4.338
   8423SM  H14G11264   4.655   2.309   4.469
   8423SM  C15F11265   4.457   2.385   4.434
   8423SM  H15F11266   4.407   2.297   4.480
   8423SM  H15G11267   4.393   2.421   4.349
   8423SM  C16F11268   4.473   2.498   4.537
   8423SM  H16F11269   4.525   2.583   4.487
   8423SM  H16G11270   4.539   2.464   4.619
   8423SM  C17F11271   4.342   2.552   4.598
   8423SM  H17F11272   4.281   2.596   4.515
   8423SM  H17G11273   4.368   2.635   4.668
   8423SM  C18F11274   4.257   2.448   4.671
   8423SM  H18F11275   4.238   2.361   4.604
   8423SM  H18G11276   4.158   2.493   4.694
   8423SM  C19F11277   4.318   2.397   4.803
   8423SM  H19F11278   4.420   2.358   4.788
   8423SM  H19G11279   4.255   2.311   4.835
   8423SM  C20F11280   4.316   2.503   4.914
   8423SM  H20F11281   4.226   2.566   4.898
   8423SM  H20G11282   4.405   2.569   4.909
   8423SM  C21F11283   4.302   2.442   5.055
   8423SM  H21F11284   4.254   2.342   5.047
   8423SM  H21G11285   4.231   2.504   5.114
   8423SM  C22F11286   4.432   2.429   5.135
   8423SM  H22F11287   4.488   2.523   5.145
   8423SM  H22G11288   4.503   2.363   5.081
   8423SM  C23F11289   4.399   2.376   5.274
   8423SM  H23F11290   4.478   2.310   5.316
   8423SM  H23G11291   4.306   2.316   5.268
   8423SM  H23H11292   4.378   2.460   5.343
   8523SM     N11293   5.942   3.624   2.361
   8523SM   C1511294   5.807   3.656   2.302
   8523SM  H15A11295   5.781   3.760   2.323
   8523SM  H15B11296   5.728   3.593   2.342
   8523SM  H15C11297   5.806   3.644   2.194
   8523SM   C1411298   5.930   3.621   2.510
   8523SM  H14A11299   5.842   3.565   2.542
   8523SM  H14B11300   5.916   3.722   2.547
   8523SM  H14C11301   6.018   3.579   2.558
   8523SM   C1311302   5.983   3.488   2.312
   8523SM  H13A11303   5.978   3.479   2.205
   8523SM  H13B11304   5.915   3.413   2.352
   8523SM  H13C11305   6.083   3.464   2.347
   8523SM   C1211306   6.037   3.734   2.318
   8523SM  H12A11307   6.021   3.756   2.213
   8523SM  H12B11308   6.139   3.698   2.327
   8523SM   C1111309   6.027   3.871   2.391
   8523SM  H11A11310   6.099   3.941   2.341
   8523SM  H11B11311   6.059   3.860   2.498
   8523SM     P11312   5.862   4.072   2.420
   8523SM   O1311313   5.940   4.163   2.333
   8523SM   O1411314   5.715   4.089   2.423
   8523SM   O1111315   5.921   4.084   2.569
   8523SM   O1211316   5.894   3.921   2.382
   8523SM   C1S11317   5.817   4.063   2.666
   8523SM   H1S11318   5.765   3.967   2.644
   8523SM   H1T11319   5.742   4.146   2.665
   8523SM    NF11320   5.746   4.026   2.891
   8523SM   HNF11321   5.710   4.103   2.944
   8523SM   C2S11322   5.865   4.048   2.812
   8523SM   H2S11323   5.931   3.959   2.819
   8523SM   C3S11324   5.945   4.171   2.858
   8523SM   H3S11325   5.877   4.257   2.850
   8523SM    O311326   6.063   4.193   2.781
   8523SM   HO311327   6.037   4.163   2.692
   8523SM   C4S11328   5.984   4.155   3.004
   8523SM   H4S11329   6.029   4.059   3.030
   8523SM   C5S11330   5.962   4.249   3.098
   8523SM   H5S11331   5.918   4.344   3.064
   8523SM   C6S11332   5.997   4.242   3.245
   8523SM   H6S11333   5.904   4.240   3.305
   8523SM   H6T11334   6.054   4.334   3.273
   8523SM   C7S11335   6.084   4.124   3.294
   8523SM   H7S11336   6.170   4.108   3.226
   8523SM   H7T11337   6.021   4.033   3.289
   8523SM   C8S11338   6.140   4.140   3.438
   8523SM   H8S11339   6.218   4.219   3.435
   8523SM   H8T11340   6.191   4.046   3.468
   8523SM   C9S11341   6.035   4.177   3.545
   8523SM   H9S11342   5.963   4.093   3.556
   8523SM   H9T11343   5.978   4.266   3.511
   8523SM  C10S11344   6.093   4.214   3.683
   8523SM  H10S11345   6.163   4.300   3.673
   8523SM  H10T11346   6.152   4.128   3.723
   8523SM  C11S11347   5.981   4.251   3.782
   8523SM  H11S11348   5.907   4.168   3.778
   8523SM  H11T11349   5.929   4.342   3.744
   8523SM  C12S11350   6.025   4.275   3.928
   8523SM  H12S11351   6.112   4.344   3.928
   8523SM  H12T11352   6.061   4.179   3.970
   8523SM  C13S11353   5.913   4.333   4.021
   8523SM  H13S11354   5.817   4.287   3.991
   8523SM  H13T11355   5.903   4.442   4.003
   8523SM  C14S11356   5.934   4.306   4.172
   8523SM  H14S11357   5.993   4.384   4.220
   8523SM  H14T11358   5.995   4.215   4.180
   8523SM  C15S11359   5.807   4.299   4.261
   8523SM  H15S11360   5.752   4.207   4.245
   8523SM  H15T11361   5.734   4.377   4.233
   8523SM  C16S11362   5.830   4.285   4.413
   8523SM  H16S11363   5.845   4.385   4.456
   8523SM  H16T11364   5.924   4.231   4.432
   8523SM  C17S11365   5.713   4.211   4.484
   8523SM  H17S11366   5.704   4.107   4.453
   8523SM  H17T11367   5.617   4.254   4.449
   8523SM  C18S11368   5.717   4.204   4.637
   8523SM  H18S11369   5.758   4.296   4.680
   8523SM  H18T11370   5.780   4.120   4.674
   8523SM  H18U11371   5.614   4.188   4.674
   8523SM   C1F11372   5.685   3.909   2.885
   8523SM    OF11373   5.726   3.819   2.814
   8523SM   C2F11374   5.571   3.887   2.973
   8523SM   H2F11375   5.486   3.844   2.917
   8523SM   H2G11376   5.537   3.979   3.024
   8523SM   C3F11377   5.622   3.782   3.072
   8523SM   H3F11378   5.686   3.703   3.026
   8523SM   H3G11379   5.532   3.728   3.106
   8523SM   C4F11380   5.695   3.848   3.188
   8523SM   H4F11381   5.647   3.818   3.282
   8523SM   H4G11382   5.686   3.959   3.184
   8523SM   C5F11383   5.841   3.809   3.204
   8523SM   H5F11384   5.904   3.872   3.137
   8523SM   H5G11385   5.859   3.703   3.176
   8523SM   C6F11386   5.881   3.828   3.350
   8523SM   H6F11387   5.827   3.916   3.393
   8523SM   H6G11388   5.990   3.850   3.354
   8523SM   C7F11389   5.857   3.708   3.441
   8523SM   H7F11390   5.921   3.623   3.409
   8523SM   H7G11391   5.752   3.674   3.437
   8523SM   C8F11392   5.891   3.743   3.586
   8523SM   H8F11393   5.869   3.653   3.648
   8523SM   H8G11394   5.823   3.824   3.620
   8523SM   C9F11395   6.036   3.789   3.601
   8523SM   H9F11396   6.037   3.900   3.599
   8523SM   H9G11397   6.094   3.755   3.512
   8523SM  C10F11398   6.112   3.739   3.724
   8523SM  H10F11399   6.190   3.814   3.749
   8523SM  H10G11400   6.164   3.644   3.698
   8523SM  C11F11401   6.023   3.713   3.846
   8523SM  H11F11402   5.984   3.610   3.838
   8523SM  H11G11403   5.935   3.780   3.841
   8523SM  C12F11404   6.098   3.734   3.978
   8523SM  H12F11405   6.141   3.837   3.977
   8523SM  H12G11406   6.182   3.662   3.984
   8523SM  C13F11407   6.012   3.720   4.104
   8523SM  H13F11408   5.933   3.796   4.101
   8523SM  H13G11409   6.073   3.738   4.196
   8523SM  C14F11410   5.937   3.588   4.117
   8523SM  H14F11411   6.003   3.519   4.171
   8523SM  H14G11412   5.921   3.548   4.016
   8523SM  C15F11413   5.799   3.598   4.188
   8523SM  H15F11414   5.741   3.506   4.171
   8523SM  H15G11415   5.742   3.680   4.140
   8523SM  C16F11416   5.819   3.623   4.338
   8523SM  H16F11417   5.881   3.713   4.341
   8523SM  H16G11418   5.885   3.542   4.374
   8523SM  C17F11419   5.696   3.636   4.433
   8523SM  H17F11420   5.643   3.538   4.434
   8523SM  H17G11421   5.626   3.713   4.393
   8523SM  C18F11422   5.728   3.676   4.580
   8523SM  H18F11423   5.733   3.786   4.588
   8523SM  H18G11424   5.828   3.639   4.608
   8523SM  C19F11425   5.624   3.638   4.686
   8523SM  H19F11426   5.674   3.597   4.777
   8523SM  H19G11427   5.557   3.560   4.645
   8523SM  C20F11428   5.543   3.764   4.724
   8523SM  H20F11429   5.494   3.800   4.631
   8523SM  H20G11430   5.615   3.843   4.757
   8523SM  C21F11431   5.435   3.751   4.832
   8523SM  H21F11432   5.481   3.754   4.934
   8523SM  H21G11433   5.386   3.652   4.821
   8523SM  C22F11434   5.328   3.861   4.818
   8523SM  H22F11435   5.283   3.849   4.717
   8523SM  H22G11436   5.378   3.961   4.820
   8523SM  C23F11437   5.216   3.857   4.922
   8523SM  H23F11438   5.145   3.776   4.902
   8523SM  H23G11439   5.154   3.949   4.916
   8523SM  H23H11440   5.255   3.844   5.024
   8623SM     N11441   3.746   1.672   2.206
   8623SM   C1511442   3.601   1.670   2.242
   8623SM  H15A11443   3.570   1.572   2.277
   8623SM  H15B11444   3.538   1.703   2.161
   8623SM  H15C11445   3.585   1.735   2.329
   8623SM   C1411446   3.771   1.577   2.092
   8623SM  H14A11447   3.764   1.473   2.121
   8623SM  H14B11448   3.869   1.591   2.048
   8623SM  H14C11449   3.700   1.592   2.013
   8623SM   C1311450   3.777   1.810   2.156
   8623SM  H13A11451   3.742   1.884   2.227
   8623SM  H13B11452   3.727   1.829   2.060
   8623SM  H13C11453   3.881   1.826   2.139
   8623SM   C1211454   3.825   1.631   2.329
   8623SM  H12A11455   3.928   1.613   2.303
   8623SM  H12B11456   3.786   1.536   2.367
   8623SM   C1111457   3.822   1.726   2.452
   8623SM  H11A11458   3.855   1.827   2.421
   8623SM  H11B11459   3.895   1.690   2.528
   8623SM     P11460   3.628   1.613   2.592
   8623SM   O1311461   3.484   1.610   2.559
   8623SM   O1411462   3.710   1.493   2.563
   8623SM   O1111463   3.646   1.659   2.743
   8623SM   O1211464   3.690   1.734   2.508
   8623SM   C1S11465   3.648   1.799   2.770
   8623SM   H1S11466   3.548   1.842   2.747
   8623SM   H1T11467   3.724   1.852   2.708
   8623SM    NF11468   3.817   1.776   2.945
   8623SM   HNF11469   3.820   1.678   2.954
   8623SM   C2S11470   3.686   1.833   2.917
   8623SM   H2S11471   3.691   1.944   2.927
   8623SM   C3S11472   3.579   1.783   3.016
   8623SM   H3S11473   3.564   1.674   3.014
   8623SM    O311474   3.453   1.841   2.983
   8623SM   HO311475   3.457   1.854   2.888
   8623SM   C4S11476   3.619   1.830   3.153
   8623SM   H4S11477   3.582   1.929   3.182
   8623SM   C5S11478   3.696   1.761   3.239
   8623SM   H5S11479   3.734   1.661   3.211
   8623SM   C6S11480   3.737   1.809   3.375
   8623SM   H6S11481   3.678   1.897   3.409
   8623SM   H6T11482   3.844   1.840   3.372
   8623SM   C7S11483   3.724   1.695   3.476
   8623SM   H7S11484   3.778   1.604   3.439
   8623SM   H7T11485   3.617   1.669   3.488
   8623SM   C8S11486   3.783   1.730   3.613
   8623SM   H8S11487   3.886   1.768   3.599
   8623SM   H8T11488   3.788   1.638   3.675
   8623SM   C9S11489   3.695   1.833   3.684
   8623SM   H9S11490   3.593   1.789   3.695
   8623SM   H9T11491   3.686   1.925   3.623
   8623SM  C10S11492   3.747   1.871   3.822
   8623SM  H10S11493   3.844   1.924   3.814
   8623SM  H10T11494   3.766   1.777   3.879
   8623SM  C11S11495   3.642   1.957   3.894
   8623SM  H11S11496   3.542   1.910   3.880
   8623SM  H11T11497   3.640   2.058   3.848
   8623SM  C12S11498   3.668   1.967   4.043
   8623SM  H12S11499   3.770   2.007   4.058
   8623SM  H12T11500   3.670   1.865   4.084
   8623SM  C13S11501   3.566   2.051   4.123
   8623SM  H13S11502   3.468   2.000   4.125
   8623SM  H13T11503   3.553   2.150   4.075
   8623SM  C14S11504   3.623   2.067   4.264
   8623SM  H14S11505   3.705   2.141   4.255
   8623SM  H14T11506   3.666   1.968   4.294
   8623SM  C15S11507   3.535   2.115   4.379
   8623SM  H15S11508   3.431   2.081   4.360
   8623SM  H15T11509   3.536   2.227   4.382
   8623SM  C16S11510   3.582   2.055   4.514
   8623SM  H16S11511   3.685   2.016   4.504
   8623SM  H16T11512   3.518   1.967   4.535
   8623SM  C17S11513   3.581   2.148   4.636
   8623SM  H17S11514   3.504   2.228   4.622
   8623SM  H17T11515   3.678   2.200   4.642
   8623SM  C18S11516   3.550   2.074   4.768
   8623SM  H18S11517   3.637   2.019   4.807
   8623SM  H18T11518   3.469   1.999   4.751
   8623SM  H18U11519   3.514   2.144   4.846
   8623SM   C1F11520   3.923   1.838   2.898
   8623SM    OF11521   3.913   1.955   2.861
   8623SM   C2F11522   4.053   1.762   2.892
   8623SM   H2F11523   4.087   1.741   2.995
   8623SM   H2G11524   4.128   1.830   2.844
   8623SM   C3F11525   4.047   1.631   2.810
   8623SM   H3F11526   4.150   1.588   2.808
   8623SM   H3G11527   4.021   1.656   2.705
   8623SM   C4F11528   3.950   1.520   2.856
   8623SM   H4F11529   3.970   1.428   2.797
   8623SM   H4G11530   3.847   1.550   2.829
   8623SM   C5F11531   3.955   1.484   3.005
   8623SM   H5F11532   3.945   1.573   3.070
   8623SM   H5G11533   4.053   1.438   3.026
   8623SM   C6F11534   3.849   1.381   3.045
   8623SM   H6F11535   3.860   1.357   3.153
   8623SM   H6G11536   3.871   1.288   2.988
   8623SM   C7F11537   3.705   1.423   3.014
   8623SM   H7F11538   3.690   1.413   2.904
   8623SM   H7G11539   3.694   1.529   3.040
   8623SM   C8F11540   3.597   1.340   3.085
   8623SM   H8F11541   3.635   1.239   3.110
   8623SM   H8G11542   3.514   1.326   3.012
   8623SM   C9F11543   3.542   1.406   3.213
   8623SM   H9F11544   3.439   1.368   3.227
   8623SM   H9G11545   3.538   1.516   3.201
   8623SM  C10F11546   3.618   1.367   3.341
   8623SM  H10F11547   3.716   1.420   3.344
   8623SM  H10G11548   3.641   1.259   3.337
   8623SM  C11F11549   3.535   1.396   3.467
   8623SM  H11F11550   3.448   1.326   3.471
   8623SM  H11G11551   3.494   1.499   3.458
   8623SM  C12F11552   3.612   1.388   3.600
   8623SM  H12F11553   3.712   1.433   3.588
   8623SM  H12G11554   3.627   1.281   3.629
   8623SM  C13F11555   3.536   1.461   3.713
   8623SM  H13F11556   3.432   1.420   3.714
   8623SM  H13G11557   3.529   1.569   3.688
   8623SM  C14F11558   3.593   1.444   3.854
   8623SM  H14F11559   3.693   1.492   3.863
   8623SM  H14G11560   3.607   1.335   3.872
   8623SM  C15F11561   3.499   1.500   3.963
   8623SM  H15F11562   3.509   1.436   4.053
   8623SM  H15G11563   3.393   1.491   3.931
   8623SM  C16F11564   3.529   1.644   4.008
   8623SM  H16F11565   3.477   1.711   3.936
   8623SM  H16G11566   3.638   1.662   3.998
   8623SM  C17F11567   3.487   1.678   4.152
   8623SM  H17F11568   3.399   1.618   4.181
   8623SM  H17G11569   3.456   1.785   4.156
   8623SM  C18F11570   3.601   1.661   4.255
   8623SM  H18F11571   3.683   1.734   4.236
   8623SM  H18G11572   3.648   1.562   4.241
   8623SM  C19F11573   3.558   1.677   4.401
   8623SM  H19F11574   3.473   1.611   4.424
   8623SM  H19G11575   3.524   1.782   4.417
   8623SM  C20F11576   3.675   1.645   4.497
   8623SM  H20F11577   3.767   1.694   4.457
   8623SM  H20G11578   3.693   1.535   4.497
   8623SM  C21F11579   3.655   1.694   4.641
   8623SM  H21F11580   3.637   1.804   4.640
   8623SM  H21G11581   3.749   1.677   4.698
   8623SM  C22F11582   3.540   1.625   4.714
   8623SM  H22F11583   3.557   1.515   4.715
   8623SM  H22G11584   3.445   1.644   4.659
   8623SM  C23F11585   3.524   1.676   4.857
   8623SM  H23F11586   3.610   1.644   4.920
   8623SM  H23G11587   3.431   1.637   4.904
   8623SM  H23H11588   3.521   1.787   4.858
   8723SM     N11589   4.498   1.678   2.199
   8723SM   C1511590   4.509   1.828   2.196
   8723SM  H15A11591   4.600   1.861   2.145
   8723SM  H15B11592   4.516   1.868   2.298
   8723SM  H15C11593   4.426   1.874   2.146
   8723SM   C1411594   4.380   1.640   2.282
   8723SM  H14A11595   4.380   1.534   2.305
   8723SM  H14B11596   4.285   1.672   2.243
   8723SM  H14C11597   4.392   1.688   2.381
   8723SM   C1311598   4.482   1.628   2.059
   8723SM  H13A11599   4.572   1.641   1.999
   8723SM  H13B11600   4.404   1.683   2.008
   8723SM  H13C11601   4.456   1.523   2.056
   8723SM   C1211602   4.622   1.623   2.269
   8723SM  H12A11603   4.709   1.639   2.206
   8723SM  H12B11604   4.608   1.516   2.283
   8723SM   C1111605   4.657   1.681   2.409
   8723SM  H11A11606   4.683   1.788   2.397
   8723SM  H11B11607   4.750   1.631   2.447
   8723SM     P11608   4.518   1.533   2.577
   8723SM   O1311609   4.374   1.543   2.610
   8723SM   O1411610   4.561   1.423   2.486
   8723SM   O1111611   4.610   1.552   2.706
   8723SM   O1211612   4.550   1.670   2.504
   8723SM   C1S11613   4.586   1.672   2.783
   8723SM   H1S11614   4.478   1.700   2.785
   8723SM   H1T11615   4.643   1.755   2.737
   8723SM    NF11616   4.506   1.628   3.012
   8723SM   HNF11617   4.462   1.701   3.063
   8723SM   C2S11618   4.625   1.662   2.935
   8723SM   H2S11619   4.702   1.582   2.948
   8723SM   C3S11620   4.687   1.798   2.984
   8723SM   H3S11621   4.614   1.879   2.961
   8723SM    O311622   4.809   1.840   2.923
   8723SM   HO311623   4.833   1.768   2.864
   8723SM   C4S11624   4.704   1.788   3.134
   8723SM   H4S11625   4.746   1.691   3.165
   8723SM   C5S11626   4.673   1.878   3.230
   8723SM   H5S11627   4.637   1.978   3.202
   8723SM   C6S11628   4.693   1.852   3.378
   8723SM   H6S11629   4.649   1.935   3.437
   8723SM   H6T11630   4.802   1.849   3.402
   8723SM   C7S11631   4.626   1.721   3.426
   8723SM   H7S11632   4.650   1.638   3.356
   8723SM   H7T11633   4.515   1.734   3.426
   8723SM   C8S11634   4.672   1.674   3.565
   8723SM   H8S11635   4.773   1.716   3.580
   8723SM   H8T11636   4.681   1.563   3.561
   8723SM   C9S11637   4.581   1.706   3.684
   8723SM   H9S11638   4.494   1.639   3.670
   8723SM   H9T11639   4.546   1.811   3.681
   8723SM  C10S11640   4.642   1.673   3.821
   8723SM  H10S11641   4.705   1.759   3.853
   8723SM  H10T11642   4.707   1.583   3.810
   8723SM  C11S11643   4.539   1.638   3.929
   8723SM  H11S11644   4.486   1.545   3.900
   8723SM  H11T11645   4.465   1.720   3.936
   8723SM  C12S11646   4.600   1.616   4.069
   8723SM  H12S11647   4.678   1.537   4.067
   8723SM  H12T11648   4.520   1.582   4.139
   8723SM  C13S11649   4.660   1.744   4.125
   8723SM  H13S11650   4.590   1.829   4.110
   8723SM  H13T11651   4.753   1.770   4.070
   8723SM  C14S11652   4.693   1.731   4.273
   8723SM  H14S11653   4.761   1.644   4.291
   8723SM  H14T11654   4.602   1.717   4.335
   8723SM  C15S11655   4.761   1.859   4.314
   8723SM  H15S11656   4.695   1.947   4.298
   8723SM  H15T11657   4.852   1.871   4.249
   8723SM  C16S11658   4.808   1.860   4.456
   8723SM  H16S11659   4.873   1.773   4.473
   8723SM  H16T11660   4.725   1.855   4.530
   8723SM  C17S11661   4.890   1.987   4.469
   8723SM  H17S11662   4.821   2.074   4.463
   8723SM  H17T11663   4.960   1.993   4.382
   8723SM  C18S11664   4.970   1.983   4.597
   8723SM  H18S11665   4.907   2.018   4.681
   8723SM  H18T11666   5.061   2.046   4.587
   8723SM  H18U11667   5.000   1.879   4.619
   8723SM   C1F11668   4.454   1.505   3.017
   8723SM    OF11669   4.520   1.407   2.987
   8723SM   C2F11670   4.312   1.495   3.064
   8723SM   H2F11671   4.249   1.482   2.973
   8723SM   H2G11672   4.281   1.589   3.114
   8723SM   C3F11673   4.287   1.375   3.159
   8723SM   H3F11674   4.307   1.281   3.102
   8723SM   H3G11675   4.180   1.372   3.188
   8723SM   C4F11676   4.372   1.375   3.288
   8723SM   H4F11677   4.478   1.354   3.261
   8723SM   H4G11678   4.338   1.292   3.354
   8723SM   C5F11679   4.366   1.506   3.370
   8723SM   H5F11680   4.406   1.589   3.307
   8723SM   H5G11681   4.433   1.496   3.458
   8723SM   C6F11682   4.224   1.543   3.417
   8723SM   H6F11683   4.178   1.457   3.469
   8723SM   H6G11684   4.163   1.562   3.326
   8723SM   C7F11685   4.217   1.668   3.506
   8723SM   H7F11686   4.117   1.716   3.496
   8723SM   H7G11687   4.293   1.741   3.467
   8723SM   C8F11688   4.245   1.644   3.655
   8723SM   H8F11689   4.300   1.733   3.693
   8723SM   H8G11690   4.310   1.555   3.668
   8723SM   C9F11691   4.123   1.626   3.747
   8723SM   H9F11692   4.074   1.529   3.722
   8723SM   H9G11693   4.048   1.707   3.729
   8723SM  C10F11694   4.163   1.627   3.896
   8723SM  H10F11695   4.255   1.566   3.908
   8723SM  H10G11696   4.082   1.580   3.956
   8723SM  C11F11697   4.191   1.768   3.950
   8723SM  H11F11698   4.100   1.831   3.940
   8723SM  H11G11699   4.271   1.815   3.889
   8723SM  C12F11700   4.238   1.770   4.097
   8723SM  H12F11701   4.322   1.699   4.109
   8723SM  H12G11702   4.155   1.735   4.163
   8723SM  C13F11703   4.285   1.910   4.140
   8723SM  H13F11704   4.197   1.977   4.146
   8723SM  H13G11705   4.351   1.950   4.060
   8723SM  C14F11706   4.361   1.913   4.273
   8723SM  H14F11707   4.390   2.019   4.293
   8723SM  H14G11708   4.453   1.853   4.265
   8723SM  C15F11709   4.278   1.863   4.391
   8723SM  H15F11710   4.220   1.773   4.364
   8723SM  H15G11711   4.206   1.945   4.412
   8723SM  C16F11712   4.354   1.833   4.521
   8723SM  H16F11713   4.436   1.907   4.537
   8723SM  H16G11714   4.398   1.732   4.518
   8723SM  C17F11715   4.247   1.845   4.630
   8723SM  H17F11716   4.159   1.783   4.602
   8723SM  H17G11717   4.218   1.954   4.629
   8723SM  C18F11718   4.283   1.820   4.775
   8723SM  H18F11719   4.218   1.883   4.838
   8723SM  H18G11720   4.384   1.859   4.789
   8723SM  C19F11721   4.265   1.676   4.826
   8723SM  H19F11722   4.319   1.608   4.758
   8723SM  H19G11723   4.158   1.651   4.818
   8723SM  C20F11724   4.311   1.667   4.973
   8723SM  H20F11725   4.256   1.749   5.023
   8723SM  H20G11726   4.419   1.690   4.977
   8723SM  C21F11727   4.281   1.538   5.052
   8723SM  H21F11728   4.295   1.449   4.988
   8723SM  H21G11729   4.174   1.543   5.079
   8723SM  C22F11730   4.359   1.514   5.185
   8723SM  H22F11731   4.344   1.408   5.215
   8723SM  H22G11732   4.315   1.575   5.267
   8723SM  C23F11733   4.508   1.544   5.177
   8723SM  H23F11734   4.551   1.487   5.093
   8723SM  H23G11735   4.562   1.513   5.270
   8723SM  H23H11736   4.528   1.652   5.160
   8823SM     N11737   1.795   2.333   2.216
   8823SM   C1511738   1.814   2.272   2.082
   8823SM  H15A11739   1.737   2.306   2.015
   8823SM  H15B11740   1.811   2.164   2.087
   8823SM  H15C11741   1.910   2.304   2.040
   8823SM   C1411742   1.901   2.282   2.309
   8823SM  H14A11743   1.897   2.175   2.321
   8823SM  H14B11744   1.884   2.324   2.409
   8823SM  H14C11745   2.000   2.316   2.280
   8823SM   C1311746   1.816   2.481   2.206
   8823SM  H13A11747   1.806   2.526   2.305
   8823SM  H13B11748   1.740   2.528   2.145
   8823SM  H13C11749   1.914   2.508   2.169
   8823SM   C1211750   1.657   2.303   2.275
   8823SM  H12A11751   1.641   2.196   2.281
   8823SM  H12B11752   1.580   2.346   2.211
   8823SM   C1111753   1.628   2.361   2.414
   8823SM  H11A11754   1.708   2.323   2.484
   8823SM  H11B11755   1.532   2.319   2.451
   8823SM     P11756   1.644   2.577   2.546
   8823SM   O1311757   1.771   2.529   2.605
   8823SM   O1411758   1.633   2.723   2.523
   8823SM   O1111759   1.517   2.525   2.630
   8823SM   O1211760   1.621   2.504   2.408
   8823SM   C1S11761   1.535   2.431   2.739
   8823SM   H1S11762   1.631   2.375   2.733
   8823SM   H1T11763   1.455   2.353   2.736
   8823SM    NF11764   1.553   2.394   2.983
   8823SM   HNF11765   1.474   2.357   3.033
   8823SM   C2S11766   1.524   2.495   2.881
   8823SM   H2S11767   1.602   2.575   2.888
   8823SM   C3S11768   1.384   2.560   2.907
   8823SM   H3S11769   1.304   2.483   2.902
   8823SM    O311770   1.344   2.657   2.810
   8823SM   HO311771   1.408   2.647   2.738
   8823SM   C4S11772   1.392   2.615   3.048
   8823SM   H4S11773   1.447   2.710   3.059
   8823SM   C5S11774   1.341   2.556   3.158
   8823SM   H5S11775   1.285   2.461   3.148
   8823SM   C6S11776   1.350   2.606   3.301
   8823SM   H6S11777   1.252   2.604   3.351
   8823SM   H6T11778   1.390   2.710   3.308
   8823SM   C7S11779   1.448   2.509   3.372
   8823SM   H7S11780   1.551   2.527   3.334
   8823SM   H7T11781   1.424   2.403   3.348
   8823SM   C8S11782   1.449   2.517   3.525
   8823SM   H8S11783   1.451   2.623   3.557
   8823SM   H8T11784   1.541   2.467   3.563
   8823SM   C9S11785   1.328   2.444   3.584
   8823SM   H9S11786   1.330   2.337   3.554
   8823SM   H9T11787   1.238   2.491   3.539
   8823SM  C10S11788   1.310   2.455   3.735
   8823SM  H10S11789   1.225   2.389   3.765
   8823SM  H10T11790   1.279   2.560   3.758
   8823SM  C11S11791   1.431   2.421   3.821
   8823SM  H11S11792   1.524   2.469   3.782
   8823SM  H11T11793   1.447   2.311   3.821
   8823SM  C12S11794   1.405   2.472   3.963
   8823SM  H12S11795   1.296   2.465   3.982
   8823SM  H12T11796   1.433   2.579   3.970
   8823SM  C13S11797   1.474   2.392   4.073
   8823SM  H13S11798   1.584   2.409   4.069
   8823SM  H13T11799   1.456   2.283   4.057
   8823SM  C14S11800   1.417   2.434   4.208
   8823SM  H14S11801   1.307   2.418   4.207
   8823SM  H14T11802   1.436   2.543   4.222
   8823SM  C15S11803   1.477   2.358   4.325
   8823SM  H15S11804   1.587   2.371   4.322
   8823SM  H15T11805   1.454   2.249   4.315
   8823SM  C16S11806   1.423   2.409   4.459
   8823SM  H16S11807   1.321   2.370   4.477
   8823SM  H16T11808   1.418   2.520   4.454
   8823SM  C17S11809   1.516   2.371   4.574
   8823SM  H17S11810   1.622   2.380   4.541
   8823SM  H17T11811   1.498   2.265   4.603
   8823SM  C18S11812   1.498   2.462   4.695
   8823SM  H18S11813   1.395   2.450   4.737
   8823SM  H18T11814   1.513   2.568   4.667
   8823SM  H18U11815   1.572   2.434   4.773
   8823SM   C1F11816   1.672   2.339   3.000
   8823SM    OF11817   1.768   2.374   2.935
   8823SM   C2F11818   1.679   2.229   3.099
   8823SM   H2F11819   1.702   2.134   3.045
   8823SM   H2G11820   1.581   2.217   3.150
   8823SM   C3F11821   1.787   2.257   3.204
   8823SM   H3F11822   1.771   2.356   3.252
   8823SM   H3G11823   1.889   2.258   3.158
   8823SM   C4F11824   1.779   2.148   3.312
   8823SM   H4F11825   1.801   2.050   3.262
   8823SM   H4G11826   1.676   2.144   3.352
   8823SM   C5F11827   1.877   2.169   3.426
   8823SM   H5F11828   1.978   2.190   3.383
   8823SM   H5G11829   1.881   2.074   3.484
   8823SM   C6F11830   1.842   2.281   3.524
   8823SM   H6F11831   1.742   2.261   3.567
   8823SM   H6G11832   1.835   2.378   3.471
   8823SM   C7F11833   1.950   2.290   3.632
   8823SM   H7F11834   2.006   2.384   3.623
   8823SM   H7G11835   2.026   2.212   3.612
   8823SM   C8F11836   1.904   2.279   3.777
   8823SM   H8F11837   1.860   2.376   3.809
   8823SM   H8G11838   1.994   2.260   3.840
   8823SM   C9F11839   1.804   2.168   3.806
   8823SM   H9F11840   1.849   2.071   3.775
   8823SM   H9G11841   1.710   2.181   3.749
   8823SM  C10F11842   1.773   2.165   3.954
   8823SM  H10F11843   1.714   2.255   3.981
   8823SM  H10G11844   1.869   2.169   4.010
   8823SM  C11F11845   1.697   2.039   3.992
   8823SM  H11F11846   1.736   1.953   3.932
   8823SM  H11G11847   1.590   2.051   3.966
   8823SM  C12F11848   1.714   2.003   4.139
   8823SM  H12F11849   1.806   1.941   4.150
   8823SM  H12G11850   1.627   1.940   4.166
   8823SM  C13F11851   1.722   2.120   4.240
   8823SM  H13F11852   1.631   2.180   4.230
   8823SM  H13G11853   1.811   2.184   4.221
   8823SM  C14F11854   1.735   2.056   4.379
   8823SM  H14F11855   1.822   1.987   4.366
   8823SM  H14G11856   1.641   1.998   4.397
   8823SM  C15F11857   1.765   2.135   4.506
   8823SM  H15F11858   1.670   2.151   4.561
   8823SM  H15G11859   1.810   2.234   4.483
   8823SM  C16F11860   1.861   2.052   4.595
   8823SM  H16F11861   1.963   2.063   4.551
   8823SM  H16G11862   1.834   1.944   4.586
   8823SM  C17F11863   1.866   2.088   4.744
   8823SM  H17F11864   1.858   2.198   4.757
   8823SM  H17G11865   1.966   2.058   4.782
   8823SM  C18F11866   1.764   2.014   4.834
   8823SM  H18F11867   1.765   1.906   4.809
   8823SM  H18G11868   1.663   2.053   4.811
   8823SM  C19F11869   1.791   2.027   4.987
   8823SM  H19F11870   1.874   1.959   5.015
   8823SM  H19G11871   1.701   1.994   5.043
   8823SM  C20F11872   1.831   2.171   5.026
   8823SM  H20F11873   1.760   2.242   4.978
   8823SM  H20G11874   1.931   2.186   4.979
   8823SM  C21F11875   1.849   2.207   5.175
   8823SM  H21F11876   1.924   2.141   5.224
   8823SM  H21G11877   1.754   2.205   5.234
   8823SM  C22F11878   1.906   2.349   5.184
   8823SM  H22F11879   1.832   2.425   5.154
   8823SM  H22G11880   1.972   2.356   5.099
   8823SM  C23F11881   1.984   2.387   5.309
   8823SM  H23F11882   1.989   2.497   5.321
   8823SM  H23G11883   2.088   2.350   5.302
   8823SM  H23H11884   1.936   2.342   5.398
   8923SM     N11885   6.105   2.634   2.238
   8923SM   C1511886   6.044   2.736   2.146
   8923SM  H15A11887   5.935   2.736   2.151
   8923SM  H15B11888   6.072   2.714   2.043
   8923SM  H15C11889   6.078   2.836   2.168
   8923SM   C1411890   6.044   2.500   2.208
   8923SM  H14A11891   5.942   2.494   2.244
   8923SM  H14B11892   6.098   2.422   2.262
   8923SM  H14C11893   6.044   2.477   2.103
   8923SM   C1311894   6.251   2.624   2.209
   8923SM  H13A11895   6.295   2.548   2.275
   8923SM  H13B11896   6.304   2.717   2.226
   8923SM  H13C11897   6.270   2.595   2.106
   8923SM   C1211898   6.074   2.670   2.383
   8923SM  H12A11899   5.970   2.641   2.403
   8923SM  H12B11900   6.077   2.777   2.395
   8923SM   C1111901   6.155   2.602   2.495
   8923SM  H11A11902   6.129   2.648   2.594
   8923SM  H11B11903   6.264   2.620   2.479
   8923SM     P11904   5.992   2.401   2.543
   8923SM   O1311905   5.889   2.477   2.470
   8923SM   O1411906   6.001   2.254   2.528
   8923SM   O1111907   5.977   2.438   2.695
   8923SM   O1211908   6.133   2.461   2.498
   8923SM   C1S11909   6.086   2.425   2.785
   8923SM   H1S11910   6.179   2.472   2.745
   8923SM   H1T11911   6.107   2.317   2.807
   8923SM    NF11912   6.161   2.499   3.007
   8923SM   HNF11913   6.168   2.430   3.079
   8923SM   C2S11914   6.048   2.497   2.916
   8923SM   H2S11915   6.020   2.602   2.893
   8923SM   C3S11916   5.923   2.425   2.976
   8923SM   H3S11917   5.944   2.316   2.985
   8923SM    O311918   5.805   2.435   2.897
   8923SM   HO311919   5.841   2.443   2.807
   8923SM   C4S11920   5.887   2.482   3.108
   8923SM   H4S11921   5.851   2.585   3.101
   8923SM   C5S11922   5.890   2.421   3.227
   8923SM   H5S11923   5.926   2.317   3.234
   8923SM   C6S11924   5.850   2.489   3.355
   8923SM   H6S11925   5.864   2.599   3.347
   8923SM   H6T11926   5.913   2.451   3.438
   8923SM   C7S11927   5.704   2.465   3.393
   8923SM   H7S11928   5.687   2.356   3.409
   8923SM   H7T11929   5.638   2.497   3.309
   8923SM   C8S11930   5.660   2.540   3.520
   8923SM   H8S11931   5.560   2.586   3.502
   8923SM   H8T11932   5.731   2.622   3.545
   8923SM   C9S11933   5.645   2.445   3.639
   8923SM   H9S11934   5.742   2.395   3.660
   8923SM   H9T11935   5.571   2.366   3.611
   8923SM  C10S11936   5.594   2.512   3.768
   8923SM  H10S11937   5.562   2.432   3.838
   8923SM  H10T11938   5.506   2.577   3.747
   8923SM  C11S11939   5.704   2.593   3.836
   8923SM  H11S11940   5.734   2.678   3.770
   8923SM  H11T11941   5.794   2.529   3.850
   8923SM  C12S11942   5.661   2.649   3.971
   8923SM  H12S11943   5.575   2.718   3.962
   8923SM  H12T11944   5.746   2.709   4.004
   8923SM  C13S11945   5.639   2.545   4.081
   8923SM  H13S11946   5.729   2.479   4.084
   8923SM  H13T11947   5.551   2.482   4.057
   8923SM  C14S11948   5.621   2.611   4.219
   8923SM  H14S11949   5.515   2.643   4.232
   8923SM  H14T11950   5.683   2.703   4.225
   8923SM  C15S11951   5.665   2.518   4.331
   8923SM  H15S11952   5.765   2.475   4.308
   8923SM  H15T11953   5.593   2.435   4.338
   8923SM  C16S11954   5.669   2.584   4.469
   8923SM  H16S11955   5.565   2.614   4.497
   8923SM  H16T11956   5.732   2.675   4.466
   8923SM  C17S11957   5.724   2.487   4.574
   8923SM  H17S11958   5.830   2.462   4.550
   8923SM  H17T11959   5.665   2.392   4.569
   8923SM  C18S11960   5.713   2.544   4.714
   8923SM  H18S11961   5.742   2.469   4.791
   8923SM  H18T11962   5.608   2.574   4.732
   8923SM  H18U11963   5.778   2.634   4.725
   8923SM   C1F11964   6.266   2.578   2.981
   8923SM    OF11965   6.260   2.658   2.889
   8923SM   C2F11966   6.387   2.557   3.067
   8923SM   H2F11967   6.445   2.471   3.027
   8923SM   H2G11968   6.354   2.528   3.169
   8923SM   C3F11969   6.478   2.682   3.075
   8923SM   H3F11970   6.525   2.701   2.976
   8923SM   H3G11971   6.560   2.660   3.147
   8923SM   C4F11972   6.406   2.809   3.123
   8923SM   H4F11973   6.324   2.836   3.053
   8923SM   H4G11974   6.475   2.896   3.123
   8923SM   C5F11975   6.352   2.791   3.266
   8923SM   H5F11976   6.411   2.861   3.330
   8923SM   H5G11977   6.373   2.689   3.303
   8923SM   C6F11978   6.203   2.822   3.284
   8923SM   H6F11979   6.137   2.741   3.248
   8923SM   H6G11980   6.181   2.915   3.225
   8923SM   C7F11981   6.177   2.860   3.429
   8923SM   H7F11982   6.081   2.912   3.437
   8923SM   H7G11983   6.258   2.930   3.461
   8923SM   C8F11984   6.172   2.749   3.532
   8923SM   H8F11985   6.192   2.798   3.630
   8923SM   H8G11986   6.250   2.672   3.515
   8923SM   C9F11987   6.033   2.689   3.544
   8923SM   H9F11988   6.032   2.611   3.467
   8923SM   H9G11989   5.953   2.764   3.524
   8923SM  C10F11990   6.007   2.628   3.681
   8923SM  H10F11991   5.930   2.548   3.671
   8923SM  H10G11992   5.968   2.704   3.752
   8923SM  C11F11993   6.136   2.568   3.735
   8923SM  H11F11994   6.204   2.647   3.773
   8923SM  H11G11995   6.187   2.513   3.652
   8923SM  C12F11996   6.109   2.467   3.844
   8923SM  H12F11997   6.044   2.387   3.801
   8923SM  H12G11998   6.052   2.518   3.926
   8923SM  C13F11999   6.239   2.407   3.895
   8923SM  H13F12000   6.304   2.486   3.939
   8923SM  H13G12001   6.294   2.363   3.809
   8923SM  C14F12002   6.211   2.298   3.998
   8923SM  H14F12003   6.305   2.242   4.019
   8923SM  H14G12004   6.137   2.227   3.954
   8923SM  C15F12005   6.155   2.353   4.130
   8923SM  H15F12006   6.062   2.412   4.109
   8923SM  H15G12007   6.228   2.423   4.175
   8923SM  C16F12008   6.119   2.242   4.229
   8923SM  H16F12009   6.101   2.148   4.172
   8923SM  H16G12010   6.023   2.268   4.280
   8923SM  C17F12011   6.226   2.219   4.336
   8923SM  H17F12012   6.326   2.210   4.289
   8923SM  H17G12013   6.208   2.123   4.388
   8923SM  C18F12014   6.224   2.327   4.444
   8923SM  H18F12015   6.119   2.358   4.464
   8923SM  H18G12016   6.278   2.414   4.403
   8923SM  C19F12017   6.286   2.279   4.576
   8923SM  H19F12018   6.392   2.250   4.561
   8923SM  H19G12019   6.231   2.187   4.605
   8923SM  C20F12020   6.272   2.378   4.692
   8923SM  H20F12021   6.173   2.429   4.685
   8923SM  H20G12022   6.350   2.456   4.685
   8923SM  C21F12023   6.283   2.313   4.830
   8923SM  H21F12024   6.190   2.255   4.850
   8923SM  H21G12025   6.290   2.391   4.908
   8923SM  C22F12026   6.402   2.218   4.845
   8923SM  H22F12027   6.497   2.272   4.824
   8923SM  H22G12028   6.396   2.138   4.769
   8923SM  C23F12029   6.405   2.157   4.984
   8923SM  H23F12030   6.410   2.238   5.059
   8923SM  H23G12031   6.493   2.090   4.995
   8923SM  H23H12032   6.314   2.098   5.008
   9023SM     N12033   5.740   1.892   2.208
   9023SM   C1512034   5.819   1.772   2.170
   9023SM  H15A12035   5.925   1.792   2.174
   9023SM  H15B12036   5.794   1.746   2.067
   9023SM  H15C12037   5.791   1.690   2.235
   9023SM   C1412038   5.767   1.998   2.109
   9023SM  H14A12039   5.872   2.027   2.108
   9023SM  H14B12040   5.712   2.090   2.128
   9023SM  H14C12041   5.742   1.968   2.008
   9023SM   C1312042   5.595   1.854   2.204
   9023SM  H13A12043   5.577   1.778   2.281
   9023SM  H13B12044   5.562   1.820   2.107
   9023SM  H13C12045   5.534   1.938   2.233
   9023SM   C1212046   5.769   1.941   2.350
   9023SM  H12A12047   5.698   2.020   2.375
   9023SM  H12B12048   5.867   1.987   2.356
   9023SM   C1112049   5.751   1.837   2.464
   9023SM  H11A12050   5.794   1.878   2.558
   9023SM  H11B12051   5.808   1.745   2.440
   9023SM     P12052   5.520   1.902   2.559
   9023SM   O1312053   5.559   2.039   2.521
   9023SM   O1412054   5.379   1.865   2.536
   9023SM   O1112055   5.555   1.873   2.711
   9023SM   O1212056   5.613   1.801   2.479
   9023SM   C1S12057   5.563   1.735   2.748
   9023SM   H1S12058   5.633   1.679   2.682
   9023SM   H1T12059   5.464   1.684   2.738
   9023SM    NF12060   5.731   1.635   2.892
   9023SM   HNF12061   5.712   1.542   2.919
   9023SM   C2S12062   5.615   1.724   2.893
   9023SM   H2S12063   5.647   1.825   2.927
   9023SM   C3S12064   5.499   1.675   2.984
   9023SM   H3S12065   5.478   1.568   2.960
   9023SM    O312066   5.378   1.747   2.963
   9023SM   HO312067   5.398   1.813   2.896
   9023SM   C4S12068   5.541   1.683   3.130
   9023SM   H4S12069   5.597   1.597   3.169
   9023SM   C5S12070   5.513   1.787   3.212
   9023SM   H5S12071   5.453   1.871   3.171
   9023SM   C6S12072   5.551   1.804   3.356
   9023SM   H6S12073   5.492   1.888   3.399
   9023SM   H6T12074   5.657   1.836   3.362
   9023SM   C7S12075   5.533   1.685   3.451
   9023SM   H7S12076   5.615   1.690   3.527
   9023SM   H7T12077   5.544   1.586   3.400
   9023SM   C8S12078   5.401   1.689   3.528
   9023SM   H8S12079   5.319   1.649   3.464
   9023SM   H8T12080   5.373   1.793   3.555
   9023SM   C9S12081   5.414   1.606   3.655
   9023SM   H9S12082   5.483   1.521   3.638
   9023SM   H9T12083   5.314   1.563   3.677
   9023SM  C10S12084   5.459   1.684   3.779
   9023SM  H10S12085   5.396   1.775   3.793
   9023SM  H10T12086   5.566   1.717   3.771
   9023SM  C11S12087   5.439   1.588   3.896
   9023SM  H11S12088   5.502   1.498   3.883
   9023SM  H11T12089   5.336   1.552   3.885
   9023SM  C12S12090   5.449   1.645   4.036
   9023SM  H12S12091   5.380   1.589   4.103
   9023SM  H12T12092   5.420   1.753   4.039
   9023SM  C13S12093   5.590   1.625   4.087
   9023SM  H13S12094   5.653   1.702   4.036
   9023SM  H13T12095   5.628   1.525   4.054
   9023SM  C14S12096   5.604   1.634   4.239
   9023SM  H14S12097   5.556   1.724   4.282
   9023SM  H14T12098   5.712   1.647   4.256
   9023SM  C15S12099   5.578   1.505   4.319
   9023SM  H15S12100   5.553   1.424   4.248
   9023SM  H15T12101   5.492   1.522   4.387
   9023SM  C16S12102   5.703   1.466   4.401
   9023SM  H16S12103   5.725   1.556   4.462
   9023SM  H16T12104   5.790   1.453   4.333
   9023SM  C17S12105   5.695   1.347   4.498
   9023SM  H17S12106   5.762   1.266   4.461
   9023SM  H17T12107   5.592   1.307   4.500
   9023SM  C18S12108   5.732   1.381   4.643
   9023SM  H18S12109   5.705   1.296   4.710
   9023SM  H18T12110   5.676   1.471   4.677
   9023SM  H18U12111   5.839   1.403   4.655
   9023SM   C1F12112   5.848   1.670   2.835
   9023SM    OF12113   5.862   1.777   2.780
   9023SM   C2F12114   5.960   1.569   2.830
   9023SM   H2F12115   6.023   1.595   2.743
   9023SM   H2G12116   5.921   1.468   2.813
   9023SM   C3F12117   6.052   1.579   2.954
   9023SM   H3F12118   6.096   1.682   2.957
   9023SM   H3G12119   6.138   1.508   2.944
   9023SM   C4F12120   5.980   1.557   3.086
   9023SM   H4F12121   5.983   1.452   3.120
   9023SM   H4G12122   5.873   1.586   3.081
   9023SM   C5F12123   6.034   1.641   3.199
   9023SM   H5F12124   6.014   1.749   3.178
   9023SM   H5G12125   6.144   1.628   3.207
   9023SM   C6F12126   5.963   1.593   3.325
   9023SM   H6F12127   5.992   1.486   3.341
   9023SM   H6G12128   5.853   1.598   3.311
   9023SM   C7F12129   5.999   1.672   3.449
   9023SM   H7F12130   5.951   1.772   3.445
   9023SM   H7G12131   6.109   1.688   3.453
   9023SM   C8F12132   5.953   1.597   3.575
   9023SM   H8F12133   5.987   1.491   3.571
   9023SM   H8G12134   5.842   1.597   3.579
   9023SM   C9F12135   6.013   1.669   3.695
   9023SM   H9F12136   5.977   1.774   3.690
   9023SM   H9G12137   6.124   1.669   3.686
   9023SM  C10F12138   5.973   1.613   3.832
   9023SM  H10F12139   6.057   1.553   3.874
   9023SM  H10G12140   5.885   1.546   3.824
   9023SM  C11F12141   5.939   1.729   3.927
   9023SM  H11F12142   5.847   1.780   3.892
   9023SM  H11G12143   6.022   1.803   3.927
   9023SM  C12F12144   5.920   1.676   4.068
   9023SM  H12F12145   6.005   1.612   4.097
   9023SM  H12G12146   5.836   1.604   4.066
   9023SM  C13F12147   5.893   1.781   4.178
   9023SM  H13F12148   5.886   1.714   4.266
   9023SM  H13G12149   5.795   1.831   4.165
   9023SM  C14F12150   5.999   1.884   4.217
   9023SM  H14F12151   6.006   1.965   4.142
   9023SM  H14G12152   6.096   1.833   4.220
   9023SM  C15F12153   5.990   1.935   4.362
   9023SM  H15F12154   5.917   2.018   4.370
   9023SM  H15G12155   6.090   1.974   4.387
   9023SM  C16F12156   5.962   1.825   4.466
   9023SM  H16F12157   6.027   1.839   4.553
   9023SM  H16G12158   5.993   1.725   4.430
   9023SM  C17F12159   5.816   1.827   4.510
   9023SM  H17F12160   5.751   1.804   4.423
   9023SM  H17G12161   5.788   1.929   4.544
   9023SM  C18F12162   5.787   1.727   4.622
   9023SM  H18F12163   5.846   1.634   4.606
   9023SM  H18G12164   5.678   1.702   4.620
   9023SM  C19F12165   5.821   1.781   4.759
   9023SM  H19F12166   5.806   1.892   4.755
   9023SM  H19G12167   5.927   1.760   4.784
   9023SM  C20F12168   5.731   1.735   4.872
   9023SM  H20F12169   5.751   1.627   4.894
   9023SM  H20G12170   5.624   1.746   4.842
   9023SM  C21F12171   5.760   1.825   4.992
   9023SM  H21F12172   5.748   1.931   4.962
   9023SM  H21G12173   5.866   1.810   5.023
   9023SM  C22F12174   5.669   1.800   5.110
   9023SM  H22F12175   5.567   1.837   5.084
   9023SM  H22G12176   5.706   1.856   5.199
   9023SM  C23F12177   5.657   1.653   5.145
   9023SM  H23F12178   5.757   1.604   5.145
   9023SM  H23G12179   5.590   1.599   5.075
   9023SM  H23H12180   5.616   1.645   5.246
   9123SM     N12181   6.560   4.401   2.346
   9123SM   C1512182   6.634   4.273   2.325
   9123SM  H15A12183   6.741   4.290   2.324
   9123SM  H15B12184   6.606   4.228   2.233
   9123SM  H15C12185   6.614   4.205   2.408
   9123SM   C1412186   6.603   4.449   2.482
   9123SM  H14A12187   6.552   4.543   2.502
   9123SM  H14B12188   6.710   4.462   2.491
   9123SM  H14C12189   6.572   4.381   2.561
   9123SM   C1312190   6.596   4.506   2.246
   9123SM  H13A12191   6.554   4.602   2.278
   9123SM  H13B12192   6.551   4.484   2.149
   9123SM  H13C12193   6.703   4.517   2.235
   9123SM   C1212194   6.409   4.379   2.345
   9123SM  H12A12195   6.384   4.319   2.432
   9123SM  H12B12196   6.379   4.326   2.256
   9123SM   C1112197   6.317   4.503   2.348
   9123SM  H11A12198   6.211   4.469   2.358
   9123SM  H11B12199   6.324   4.557   2.251
   9123SM     P12200   6.342   4.741   2.453
   9123SM   O1312201   6.441   4.786   2.352
   9123SM   O1412202   6.202   4.785   2.432
   9123SM   O1112203   6.384   4.784   2.601
   9123SM   O1212204   6.349   4.584   2.459
   9123SM   C1S12205   6.444   4.686   2.688
   9123SM   H1S12206   6.552   4.681   2.664
   9123SM   H1T12207   6.403   4.583   2.676
   9123SM    NF12208   6.550   4.698   2.910
   9123SM   HNF12209   6.547   4.641   2.992
   9123SM   C2S12210   6.426   4.721   2.839
   9123SM   H2S12211   6.403   4.829   2.848
   9123SM   C3S12212   6.312   4.639   2.904
   9123SM   H3S12213   6.332   4.530   2.889
   9123SM    O312214   6.183   4.666   2.852
   9123SM   HO312215   6.196   4.703   2.764
   9123SM   C4S12216   6.306   4.668   3.052
   9123SM   H4S12217   6.261   4.764   3.078
   9123SM   C5S12218   6.351   4.585   3.149
   9123SM   H5S12219   6.395   4.488   3.121
   9123SM   C6S12220   6.346   4.612   3.297
   9123SM   H6S12221   6.449   4.613   3.340
   9123SM   H6T12222   6.293   4.527   3.344
   9123SM   C7S12223   6.277   4.743   3.338
   9123SM   H7S12224   6.175   4.748   3.295
   9123SM   H7T12225   6.335   4.831   3.300
   9123SM   C8S12226   6.262   4.757   3.490
   9123SM   H8S12227   6.205   4.850   3.512
   9123SM   H8T12228   6.363   4.768   3.535
   9123SM   C9S12229   6.193   4.636   3.555
   9123SM   H9S12230   6.265   4.551   3.559
   9123SM   H9T12231   6.106   4.606   3.494
   9123SM  C10S12232   6.148   4.666   3.698
   9123SM  H10S12233   6.096   4.577   3.739
   9123SM  H10T12234   6.075   4.751   3.697
   9123SM  C11S12235   6.267   4.703   3.786
   9123SM  H11S12236   6.311   4.799   3.750
   9123SM  H11T12237   6.344   4.624   3.777
   9123SM  C12S12238   6.231   4.718   3.933
   9123SM  H12S12239   6.137   4.776   3.936
   9123SM  H12T12240   6.311   4.772   3.988
   9123SM  C13S12241   6.197   4.588   4.002
   9123SM  H13S12242   6.281   4.515   3.994
   9123SM  H13T12243   6.108   4.546   3.951
   9123SM  C14S12244   6.159   4.611   4.148
   9123SM  H14S12245   6.113   4.518   4.182
   9123SM  H14T12246   6.084   4.692   4.157
   9123SM  C15S12247   6.275   4.635   4.243
   9123SM  H15S12248   6.321   4.734   4.223
   9123SM  H15T12249   6.352   4.556   4.226
   9123SM  C16S12250   6.230   4.624   4.389
   9123SM  H16S12251   6.182   4.524   4.400
   9123SM  H16T12252   6.160   4.706   4.414
   9123SM  C17S12253   6.345   4.631   4.486
   9123SM  H17S12254   6.389   4.734   4.484
   9123SM  H17T12255   6.414   4.560   4.438
   9123SM  C18S12256   6.321   4.585   4.630
   9123SM  H18S12257   6.282   4.481   4.631
   9123SM  H18T12258   6.253   4.652   4.684
   9123SM  H18U12259   6.416   4.587   4.687
   9123SM   C1F12260   6.660   4.765   2.882
   9123SM    OF12261   6.656   4.871   2.820
   9123SM   C2F12262   6.786   4.710   2.936
   9123SM   H2F12263   6.863   4.710   2.856
   9123SM   H2G12264   6.774   4.606   2.975
   9123SM   C3F12265   6.823   4.806   3.049
   9123SM   H3F12266   6.823   4.906   3.004
   9123SM   H3G12267   6.926   4.790   3.079
   9123SM   C4F12268   6.739   4.795   3.176
   9123SM   H4F12269   6.734   4.688   3.207
   9123SM   H4G12270   6.636   4.830   3.159
   9123SM   C5F12271   6.804   4.874   3.291
   9123SM   H5F12272   6.811   4.982   3.272
   9123SM   H5G12273   6.909   4.838   3.305
   9123SM   C6F12274   6.728   4.867   3.422
   9123SM   H6F12275   6.636   4.807   3.410
   9123SM   H6G12276   6.698   4.970   3.453
   9123SM   C7F12277   6.817   4.808   3.532
   9123SM   H7F12278   6.916   4.857   3.530
   9123SM   H7G12279   6.835   4.701   3.510
   9123SM   C8F12280   6.754   4.827   3.671
   9123SM   H8F12281   6.745   4.936   3.691
   9123SM   H8G12282   6.823   4.784   3.747
   9123SM   C9F12283   6.615   4.765   3.685
   9123SM   H9F12284   6.541   4.830   3.634
   9123SM   H9G12285   6.587   4.765   3.793
   9123SM  C10F12286   6.602   4.622   3.628
   9123SM  H10F12287   6.609   4.626   3.518
   9123SM  H10G12288   6.501   4.583   3.651
   9123SM  C11F12289   6.707   4.521   3.679
   9123SM  H11F12290   6.807   4.547   3.637
   9123SM  H11G12291   6.682   4.420   3.640
   9123SM  C12F12292   6.722   4.516   3.831
   9123SM  H12F12293   6.763   4.614   3.866
   9123SM  H12G12294   6.798   4.439   3.855
   9123SM  C13F12295   6.591   4.485   3.904
   9123SM  H13F12296   6.557   4.383   3.876
   9123SM  H13G12297   6.514   4.557   3.869
   9123SM  C14F12298   6.598   4.501   4.057
   9123SM  H14F12299   6.665   4.422   4.098
   9123SM  H14G12300   6.496   4.481   4.096
   9123SM  C15F12301   6.645   4.641   4.103
   9123SM  H15F12302   6.594   4.719   4.042
   9123SM  H15G12303   6.754   4.647   4.081
   9123SM  C16F12304   6.625   4.671   4.253
   9123SM  H16F12305   6.522   4.709   4.270
   9123SM  H16G12306   6.694   4.753   4.284
   9123SM  C17F12307   6.649   4.545   4.337
   9123SM  H17F12308   6.749   4.510   4.305
   9123SM  H17G12309   6.575   4.468   4.308
   9123SM  C18F12310   6.649   4.553   4.492
   9123SM  H18F12311   6.579   4.629   4.531
   9123SM  H18G12312   6.747   4.591   4.526
   9123SM  C19F12313   6.611   4.414   4.553
   9123SM  H19F12314   6.667   4.332   4.504
   9123SM  H19G12315   6.506   4.391   4.529
   9123SM  C20F12316   6.631   4.403   4.705
   9123SM  H20F12317   6.587   4.493   4.752
   9123SM  H20G12318   6.738   4.404   4.732
   9123SM  C21F12319   6.565   4.277   4.766
   9123SM  H21F12320   6.625   4.188   4.738
   9123SM  H21G12321   6.463   4.264   4.723
   9123SM  C22F12322   6.551   4.284   4.919
   9123SM  H22F12323   6.650   4.312   4.963
   9123SM  H22G12324   6.525   4.183   4.958
   9123SM  C23F12325   6.445   4.384   4.963
   9123SM  H23F12326   6.471   4.485   4.925
   9123SM  H23G12327   6.438   4.391   5.073
   9123SM  H23H12328   6.345   4.356   4.923
   9223SM     N12329   5.313   1.197   2.201
   9223SM   C1512330   5.231   1.073   2.205
   9223SM  H15A12331   5.158   1.075   2.125
   9223SM  H15B12332   5.177   1.068   2.300
   9223SM  H15C12333   5.293   0.985   2.196
   9223SM   C1412334   5.419   1.185   2.307
   9223SM  H14A12335   5.503   1.252   2.291
   9223SM  H14B12336   5.465   1.086   2.312
   9223SM  H14C12337   5.378   1.210   2.406
   9223SM   C1312338   5.377   1.204   2.066
   9223SM  H13A12339   5.424   1.301   2.050
   9223SM  H13B12340   5.307   1.193   1.984
   9223SM  H13C12341   5.454   1.129   2.058
   9223SM   C1212342   5.222   1.319   2.216
   9223SM  H12A12343   5.161   1.324   2.126
   9223SM  H12B12344   5.279   1.411   2.222
   9223SM   C1112345   5.120   1.321   2.331
   9223SM  H11A12346   5.061   1.227   2.330
   9223SM  H11B12347   5.047   1.404   2.307
   9223SM     P12348   5.085   1.335   2.578
   9223SM   O1312349   4.978   1.434   2.549
   9223SM   O1412350   5.050   1.192   2.591
   9223SM   O1112351   5.166   1.386   2.705
   9223SM   O1212352   5.187   1.342   2.457
   9223SM   C1S12353   5.097   1.432   2.822
   9223SM   H1S12354   4.988   1.452   2.805
   9223SM   H1T12355   5.141   1.528   2.857
   9223SM    NF12356   5.025   1.365   3.049
   9223SM   HNF12357   5.072   1.396   3.131
   9223SM   C2S12358   5.107   1.326   2.936
   9223SM   H2S12359   5.069   1.230   2.896
   9223SM   C3S12360   5.255   1.306   2.980
   9223SM   H3S12361   5.299   1.404   3.009
   9223SM    O312362   5.343   1.245   2.886
   9223SM   HO312363   5.292   1.237   2.805
   9223SM   C4S12364   5.252   1.216   3.102
   9223SM   H4S12365   5.212   1.115   3.083
   9223SM   C5S12366   5.289   1.251   3.227
   9223SM   H5S12367   5.327   1.353   3.244
   9223SM   C6S12368   5.285   1.163   3.349
   9223SM   H6S12369   5.385   1.117   3.366
   9223SM   H6T12370   5.213   1.080   3.337
   9223SM   C7S12371   5.245   1.241   3.476
   9223SM   H7S12372   5.134   1.247   3.481
   9223SM   H7T12373   5.283   1.346   3.472
   9223SM   C8S12374   5.296   1.180   3.609
   9223SM   H8S12375   5.407   1.186   3.610
   9223SM   H8T12376   5.268   1.073   3.615
   9223SM   C9S12377   5.240   1.254   3.731
   9223SM   H9S12378   5.136   1.222   3.754
   9223SM   H9T12379   5.231   1.361   3.701
   9223SM  C10S12380   5.329   1.255   3.856
   9223SM  H10S12381   5.312   1.354   3.902
   9223SM  H10T12382   5.437   1.253   3.830
   9223SM  C11S12383   5.300   1.157   3.972
   9223SM  H11S12384   5.331   1.054   3.946
   9223SM  H11T12385   5.192   1.157   3.996
   9223SM  C12S12386   5.378   1.208   4.094
   9223SM  H12S12387   5.367   1.319   4.099
   9223SM  H12T12388   5.486   1.188   4.083
   9223SM  C13S12389   5.327   1.155   4.228
   9223SM  H13S12390   5.354   1.048   4.240
   9223SM  H13T12391   5.216   1.165   4.233
   9223SM  C14S12392   5.387   1.235   4.343
   9223SM  H14S12393   5.358   1.343   4.335
   9223SM  H14T12394   5.497   1.231   4.335
   9223SM  C15S12395   5.340   1.184   4.479
   9223SM  H15S12396   5.408   1.100   4.509
   9223SM  H15T12397   5.237   1.143   4.470
   9223SM  C16S12398   5.339   1.293   4.586
   9223SM  H16S12399   5.237   1.336   4.585
   9223SM  H16T12400   5.407   1.377   4.559
   9223SM  C17S12401   5.370   1.236   4.725
   9223SM  H17S12402   5.450   1.160   4.714
   9223SM  H17T12403   5.278   1.183   4.759
   9223SM  C18S12404   5.413   1.336   4.832
   9223SM  H18S12405   5.514   1.376   4.812
   9223SM  H18T12406   5.414   1.285   4.930
   9223SM  H18U12407   5.344   1.423   4.837
   9223SM   C1F12408   4.892   1.355   3.045
   9223SM    OF12409   4.835   1.318   2.945
   9223SM   C2F12410   4.821   1.388   3.172
   9223SM   H2F12411   4.711   1.388   3.153
   9223SM   H2G12412   4.850   1.491   3.200
   9223SM   C3F12413   4.854   1.286   3.283
   9223SM   H3F12414   4.959   1.250   3.278
   9223SM   H3G12415   4.788   1.197   3.271
   9223SM   C4F12416   4.836   1.347   3.423
   9223SM   H4F12417   4.855   1.270   3.500
   9223SM   H4G12418   4.731   1.382   3.436
   9223SM   C5F12419   4.934   1.464   3.444
   9223SM   H5F12420   4.893   1.554   3.392
   9223SM   H5G12421   5.032   1.440   3.399
   9223SM   C6F12422   4.955   1.498   3.591
   9223SM   H6F12423   5.015   1.418   3.639
   9223SM   H6G12424   4.856   1.497   3.639
   9223SM   C7F12425   5.022   1.636   3.611
   9223SM   H7F12426   4.997   1.703   3.526
   9223SM   H7G12427   5.132   1.620   3.608
   9223SM   C8F12428   4.982   1.708   3.742
   9223SM   H8F12429   4.889   1.765   3.727
   9223SM   H8G12430   5.059   1.783   3.771
   9223SM   C9F12431   4.961   1.615   3.860
   9223SM   H9F12432   4.910   1.520   3.833
   9223SM   H9G12433   4.901   1.661   3.941
   9223SM  C10F12434   5.098   1.582   3.910
   9223SM  H10F12435   5.149   1.676   3.945
   9223SM  H10G12436   5.153   1.543   3.821
   9223SM  C11F12437   5.099   1.476   4.016
   9223SM  H11F12438   5.206   1.452   4.038
   9223SM  H11G12439   5.051   1.384   3.977
   9223SM  C12F12440   5.038   1.519   4.148
   9223SM  H12F12441   4.927   1.517   4.142
   9223SM  H12G12442   5.071   1.623   4.172
   9223SM  C13F12443   5.092   1.421   4.251
   9223SM  H13F12444   5.203   1.434   4.253
   9223SM  H13G12445   5.070   1.318   4.214
   9223SM  C14F12446   5.037   1.434   4.392
   9223SM  H14F12447   5.087   1.357   4.455
   9223SM  H14G12448   4.929   1.408   4.388
   9223SM  C15F12449   5.055   1.571   4.457
   9223SM  H15F12450   5.011   1.647   4.389
   9223SM  H15G12451   5.162   1.595   4.471
   9223SM  C16F12452   4.982   1.577   4.592
   9223SM  H16F12453   4.885   1.524   4.585
   9223SM  H16G12454   4.961   1.681   4.624
   9223SM  C17F12455   5.065   1.523   4.706
   9223SM  H17F12456   5.153   1.589   4.723
   9223SM  H17G12457   5.100   1.420   4.687
   9223SM  C18F12458   4.976   1.516   4.828
   9223SM  H18F12459   4.879   1.468   4.801
   9223SM  H18G12460   4.953   1.619   4.863
   9223SM  C19F12461   5.045   1.434   4.935
   9223SM  H19F12462   5.155   1.437   4.916
   9223SM  H19G12463   5.014   1.328   4.924
   9223SM  C20F12464   5.020   1.493   5.073
   9223SM  H20F12465   4.912   1.486   5.096
   9223SM  H20G12466   5.046   1.601   5.065
   9223SM  C21F12467   5.103   1.434   5.186
   9223SM  H21F12468   5.123   1.327   5.163
   9223SM  H21G12469   5.049   1.437   5.283
   9223SM  C22F12470   5.237   1.508   5.201
   9223SM  H22F12471   5.271   1.548   5.104
   9223SM  H22G12472   5.302   1.422   5.222
   9223SM  C23F12473   5.252   1.616   5.310
   9223SM  H23F12474   5.253   1.574   5.413
   9223SM  H23G12475   5.174   1.694   5.304
   9223SM  H23H12476   5.349   1.670   5.298
   9323SM     N12477   6.825   3.768   2.233
   9323SM   C1512478   6.742   3.701   2.338
   9323SM  H15A12479   6.785   3.605   2.363
   9323SM  H15B12480   6.640   3.685   2.305
   9323SM  H15C12481   6.739   3.764   2.427
   9323SM   C1412482   6.823   3.689   2.109
   9323SM  H14A12483   6.873   3.595   2.121
   9323SM  H14B12484   6.868   3.741   2.025
   9323SM  H14C12485   6.721   3.666   2.078
   9323SM   C1312486   6.771   3.904   2.208
   9323SM  H13A12487   6.761   3.956   2.303
   9323SM  H13B12488   6.676   3.905   2.157
   9323SM  H13C12489   6.841   3.965   2.150
   9323SM   C1212490   6.967   3.781   2.287
   9323SM  H12A12491   7.025   3.837   2.215
   9323SM  H12B12492   7.011   3.683   2.298
   9323SM   C1112493   6.986   3.850   2.424
   9323SM  H11A12494   7.095   3.858   2.446
   9323SM  H11B12495   6.943   3.782   2.503
   9323SM     P12496   6.873   4.037   2.563
   9323SM   O1312497   6.885   4.185   2.566
   9323SM   O1412498   6.739   3.980   2.590
   9323SM   O1112499   6.979   3.972   2.664
   9323SM   O1212500   6.928   3.981   2.425
   9323SM   C1S12501   7.011   4.044   2.783
   9323SM   H1S12502   6.921   4.095   2.824
   9323SM   H1T12503   7.088   4.121   2.761
   9323SM    NF12504   6.979   3.841   2.923
   9323SM   HNF12505   6.926   3.848   3.006
   9323SM   C2S12506   7.065   3.955   2.900
   9323SM   H2S12507   7.167   3.920   2.875
   9323SM   C3S12508   7.066   4.042   3.029
   9323SM   H3S12509   6.962   4.077   3.048
   9323SM    O312510   7.146   4.160   3.027
   9323SM   HO312511   7.215   4.150   2.960
   9323SM   C4S12512   7.108   3.954   3.145
   9323SM   H4S12513   7.197   3.893   3.126
   9323SM   C5S12514   7.044   3.941   3.265
   9323SM   H5S12515   6.954   4.000   3.286
   9323SM   C6S12516   7.090   3.849   3.376
   9323SM   H6S12517   7.195   3.816   3.362
   9323SM   H6T12518   7.028   3.757   3.372
   9323SM   C7S12519   7.076   3.901   3.521
   9323SM   H7S12520   6.973   3.940   3.537
   9323SM   H7T12521   7.145   3.986   3.540
   9323SM   C8S12522   7.099   3.788   3.622
   9323SM   H8S12523   7.208   3.767   3.629
   9323SM   H8T12524   7.047   3.698   3.585
   9323SM   C9S12525   7.047   3.818   3.763
   9323SM   H9S12526   7.063   3.728   3.827
   9323SM   H9T12527   6.937   3.836   3.760
   9323SM  C10S12528   7.121   3.939   3.819
   9323SM  H10S12529   7.075   4.031   3.777
   9323SM  H10T12530   7.226   3.933   3.780
   9323SM  C11S12531   7.130   3.949   3.971
   9323SM  H11S12532   7.124   3.849   4.017
   9323SM  H11T12533   7.044   4.010   4.007
   9323SM  C12S12534   7.265   4.009   4.015
   9323SM  H12S12535   7.302   4.085   3.943
   9323SM  H12T12536   7.340   3.928   4.020
   9323SM  C13S12537   7.261   4.073   4.152
   9323SM  H13S12538   7.270   3.989   4.226
   9323SM  H13T12539   7.163   4.122   4.164
   9323SM  C14S12540   7.374   4.176   4.173
   9323SM  H14S12541   7.368   4.252   4.093
   9323SM  H14T12542   7.468   4.118   4.157
   9323SM  C15S12543   7.377   4.246   4.310
   9323SM  H15S12544   7.481   4.284   4.326
   9323SM  H15T12545   7.309   4.335   4.315
   9323SM  C16S12546   7.337   4.147   4.420
   9323SM  H16S12547   7.380   4.179   4.517
   9323SM  H16T12548   7.384   4.050   4.396
   9323SM  C17S12549   7.185   4.135   4.441
   9323SM  H17S12550   7.128   4.123   4.347
   9323SM  H17T12551   7.148   4.233   4.477
   9323SM  C18S12552   7.140   4.020   4.530
   9323SM  H18S12553   7.030   4.010   4.524
   9323SM  H18T12554   7.169   4.037   4.635
   9323SM  H18U12555   7.182   3.924   4.494
   9323SM   C1F12556   6.962   3.730   2.853
   9323SM    OF12557   7.039   3.691   2.766
   9323SM   C2F12558   6.847   3.646   2.898
   9323SM   H2F12559   6.879   3.540   2.899
   9323SM   H2G12560   6.765   3.658   2.824
   9323SM   C3F12561   6.795   3.686   3.039
   9323SM   H3F12562   6.763   3.793   3.041
   9323SM   H3G12563   6.873   3.671   3.117
   9323SM   C4F12564   6.670   3.605   3.075
   9323SM   H4F12565   6.699   3.499   3.092
   9323SM   H4G12566   6.604   3.614   2.986
   9323SM   C5F12567   6.588   3.656   3.194
   9323SM   H5F12568   6.481   3.635   3.175
   9323SM   H5G12569   6.598   3.766   3.201
   9323SM   C6F12570   6.623   3.588   3.328
   9323SM   H6F12571   6.680   3.494   3.309
   9323SM   H6G12572   6.529   3.558   3.380
   9323SM   C7F12573   6.702   3.681   3.419
   9323SM   H7F12574   6.788   3.723   3.361
   9323SM   H7G12575   6.745   3.625   3.505
   9323SM   C8F12576   6.615   3.795   3.472
   9323SM   H8F12577   6.548   3.754   3.551
   9323SM   H8G12578   6.549   3.836   3.392
   9323SM   C9F12579   6.698   3.911   3.525
   9323SM   H9F12580   6.759   3.954   3.442
   9323SM   H9G12581   6.770   3.873   3.601
   9323SM  C10F12582   6.612   4.023   3.585
   9323SM  H10F12583   6.538   4.058   3.509
   9323SM  H10G12584   6.678   4.108   3.612
   9323SM  C11F12585   6.536   3.979   3.710
   9323SM  H11F12586   6.462   3.900   3.687
   9323SM  H11G12587   6.479   4.066   3.750
   9323SM  C12F12588   6.630   3.927   3.819
   9323SM  H12F12589   6.718   3.995   3.826
   9323SM  H12G12590   6.670   3.827   3.791
   9323SM  C13F12591   6.557   3.918   3.952
   9323SM  H13F12592   6.598   3.832   4.008
   9323SM  H13G12593   6.450   3.893   3.934
   9323SM  C14F12594   6.568   4.049   4.031
   9323SM  H14F12595   6.497   4.046   4.117
   9323SM  H14G12596   6.538   4.135   3.966
   9323SM  C15F12597   6.709   4.071   4.086
   9323SM  H15F12598   6.717   4.173   4.131
   9323SM  H15G12599   6.787   4.064   4.007
   9323SM  C16F12600   6.734   3.966   4.194
   9323SM  H16F12601   6.719   3.863   4.154
   9323SM  H16G12602   6.656   3.982   4.272
   9323SM  C17F12603   6.872   3.961   4.255
   9323SM  H17F12604   6.901   4.061   4.293
   9323SM  H17G12605   6.948   3.929   4.181
   9323SM  C18F12606   6.866   3.864   4.373
   9323SM  H18F12607   6.969   3.836   4.402
   9323SM  H18G12608   6.813   3.771   4.342
   9323SM  C19F12609   6.791   3.932   4.487
   9323SM  H19F12610   6.681   3.920   4.470
   9323SM  H19G12611   6.811   4.041   4.484
   9323SM  C20F12612   6.825   3.882   4.628
   9323SM  H20F12613   6.925   3.914   4.661
   9323SM  H20G12614   6.828   3.772   4.624
   9323SM  C21F12615   6.721   3.936   4.727
   9323SM  H21F12616   6.629   3.964   4.669
   9323SM  H21G12617   6.760   4.029   4.773
   9323SM  C22F12618   6.677   3.837   4.834
   9323SM  H22F12619   6.597   3.884   4.897
   9323SM  H22G12620   6.763   3.818   4.901
   9323SM  C23F12621   6.622   3.704   4.778
   9323SM  H23F12622   6.595   3.633   4.859
   9323SM  H23G12623   6.697   3.653   4.715
   9323SM  H23H12624   6.531   3.723   4.717
   9423SM     N12625   5.197   6.710   2.216
   9423SM   C1512626   5.058   6.725   2.268
   9423SM  H15A12627   5.057   6.720   2.377
   9423SM  H15B12628   4.990   6.651   2.228
   9423SM  H15C12629   5.017   6.823   2.245
   9423SM   C1412630   5.240   6.571   2.248
   9423SM  H14A12631   5.155   6.504   2.246
   9423SM  H14B12632   5.275   6.565   2.352
   9423SM  H14C12633   5.319   6.534   2.185
   9423SM   C1312634   5.192   6.729   2.067
   9423SM  H13A12635   5.151   6.827   2.043
   9423SM  H13B12636   5.123   6.657   2.023
   9423SM  H13C12637   5.288   6.718   2.018
   9423SM   C1212638   5.287   6.809   2.289
   9423SM  H12A12639   5.250   6.909   2.271
   9423SM  H12B12640   5.386   6.802   2.248
   9423SM   C1112641   5.303   6.792   2.444
   9423SM  H11A12642   5.202   6.804   2.491
   9423SM  H11B12643   5.365   6.875   2.483
   9423SM     P12644   5.490   6.636   2.558
   9423SM   O1312645   5.555   6.517   2.498
   9423SM   O1412646   5.571   6.759   2.557
   9423SM   O1112647   5.438   6.603   2.704
   9423SM   O1212648   5.356   6.664   2.479
   9423SM   C1S12649   5.298   6.598   2.734
   9423SM   H1S12650   5.249   6.511   2.683
   9423SM   H1T12651   5.245   6.688   2.697
   9423SM    NF12652   5.312   6.707   2.956
   9423SM   HNF12653   5.399   6.702   3.002
   9423SM   C2S12654   5.268   6.587   2.887
   9423SM   H2S12655   5.158   6.578   2.901
   9423SM   C3S12656   5.335   6.459   2.947
   9423SM   H3S12657   5.445   6.467   2.937
   9423SM    O312658   5.294   6.337   2.882
   9423SM   HO312659   5.241   6.365   2.807
   9423SM   C4S12660   5.298   6.447   3.092
   9423SM   H4S12661   5.193   6.422   3.112
   9423SM   C5S12662   5.384   6.460   3.196
   9423SM   H5S12663   5.490   6.477   3.175
   9423SM   C6S12664   5.345   6.448   3.341
   9423SM   H6S12665   5.253   6.508   3.362
   9423SM   H6T12666   5.425   6.491   3.406
   9423SM   C7S12667   5.319   6.303   3.387
   9423SM   H7S12668   5.411   6.241   3.382
   9423SM   H7T12669   5.244   6.257   3.318
   9423SM   C8S12670   5.259   6.295   3.528
   9423SM   H8S12671   5.195   6.204   3.537
   9423SM   H8T12672   5.194   6.384   3.543
   9423SM   C9S12673   5.358   6.295   3.643
   9423SM   H9S12674   5.430   6.379   3.632
   9423SM   H9T12675   5.416   6.200   3.644
   9423SM  C10S12676   5.280   6.312   3.774
   9423SM  H10S12677   5.210   6.225   3.785
   9423SM  H10T12678   5.218   6.404   3.768
   9423SM  C11S12679   5.367   6.321   3.897
   9423SM  H11S12680   5.430   6.413   3.893
   9423SM  H11T12681   5.435   6.233   3.900
   9423SM  C12S12682   5.283   6.322   4.025
   9423SM  H12S12683   5.223   6.229   4.030
   9423SM  H12T12684   5.214   6.409   4.027
   9423SM  C13S12685   5.380   6.330   4.141
   9423SM  H13S12686   5.425   6.432   4.140
   9423SM  H13T12687   5.461   6.255   4.126
   9423SM  C14S12688   5.324   6.309   4.280
   9423SM  H14S12689   5.280   6.208   4.292
   9423SM  H14T12690   5.247   6.386   4.303
   9423SM  C15S12691   5.443   6.319   4.375
   9423SM  H15S12692   5.498   6.415   4.358
   9423SM  H15T12693   5.512   6.235   4.352
   9423SM  C16S12694   5.401   6.310   4.519
   9423SM  H16S12695   5.325   6.229   4.530
   9423SM  H16T12696   5.354   6.406   4.549
   9423SM  C17S12697   5.517   6.281   4.610
   9423SM  H17S12698   5.603   6.349   4.589
   9423SM  H17T12699   5.551   6.177   4.593
   9423SM  C18S12700   5.469   6.299   4.752
   9423SM  H18S12701   5.544   6.273   4.828
   9423SM  H18T12702   5.379   6.236   4.763
   9423SM  H18U12703   5.434   6.402   4.770
   9423SM   C1F12704   5.257   6.825   2.926
   9423SM    OF12705   5.148   6.831   2.873
   9423SM   C2F12706   5.341   6.947   2.950
   9423SM   H2F12707   5.330   7.012   2.860
   9423SM   H2G12708   5.448   6.921   2.960
   9423SM   C3F12709   5.294   7.030   3.072
   9423SM   H3F12710   5.183   7.025   3.081
   9423SM   H3G12711   5.323   7.136   3.051
   9423SM   C4F12712   5.360   6.991   3.205
   9423SM   H4F12713   5.470   6.978   3.192
   9423SM   H4G12714   5.319   6.894   3.242
   9423SM   C5F12715   5.338   7.098   3.312
   9423SM   H5F12716   5.229   7.096   3.335
   9423SM   H5G12717   5.360   7.200   3.275
   9423SM   C6F12718   5.417   7.069   3.440
   9423SM   H6F12719   5.496   7.146   3.457
   9423SM   H6G12720   5.470   6.973   3.427
   9423SM   C7F12721   5.317   7.064   3.555
   9423SM   H7F12722   5.222   7.021   3.515
   9423SM   H7G12723   5.294   7.168   3.590
   9423SM   C8F12724   5.346   6.977   3.677
   9423SM   H8F12725   5.248   6.930   3.702
   9423SM   H8G12726   5.372   7.044   3.761
   9423SM   C9F12727   5.446   6.862   3.666
   9423SM   H9F12728   5.548   6.907   3.659
   9423SM   H9G12729   5.428   6.803   3.574
   9423SM  C10F12730   5.439   6.771   3.791
   9423SM  H10F12731   5.516   6.692   3.785
   9423SM  H10G12732   5.340   6.719   3.792
   9423SM  C11F12733   5.455   6.847   3.924
   9423SM  H11F12734   5.386   6.934   3.930
   9423SM  H11G12735   5.559   6.886   3.929
   9423SM  C12F12736   5.424   6.763   4.049
   9423SM  H12F12737   5.462   6.660   4.035
   9423SM  H12G12738   5.314   6.756   4.063
   9423SM  C13F12739   5.489   6.826   4.172
   9423SM  H13F12740   5.437   6.919   4.202
   9423SM  H13G12741   5.592   6.857   4.142
   9423SM  C14F12742   5.505   6.730   4.289
   9423SM  H14F12743   5.549   6.635   4.251
   9423SM  H14G12744   5.408   6.705   4.337
   9423SM  C15F12745   5.603   6.791   4.389
   9423SM  H15F12746   5.554   6.872   4.447
   9423SM  H15G12747   5.686   6.838   4.331
   9423SM  C16F12748   5.668   6.687   4.481
   9423SM  H16F12749   5.778   6.695   4.464
   9423SM  H16G12750   5.637   6.584   4.454
   9423SM  C17F12751   5.644   6.715   4.629
   9423SM  H17F12752   5.639   6.825   4.640
   9423SM  H17G12753   5.730   6.677   4.687
   9423SM  C18F12754   5.518   6.652   4.687
   9423SM  H18F12755   5.526   6.544   4.669
   9423SM  H18G12756   5.427   6.687   4.632
   9423SM  C19F12757   5.501   6.683   4.837
   9423SM  H19F12758   5.591   6.661   4.896
   9423SM  H19G12759   5.420   6.616   4.872
   9423SM  C20F12760   5.455   6.828   4.856
   9423SM  H20F12761   5.344   6.824   4.861
   9423SM  H20G12762   5.478   6.882   4.761
   9423SM  C21F12763   5.513   6.914   4.971
   9423SM  H21F12764   5.623   6.918   4.965
   9423SM  H21G12765   5.494   6.870   5.070
   9423SM  C22F12766   5.456   7.057   4.957
   9423SM  H22F12767   5.352   7.057   4.994
   9423SM  H22G12768   5.453   7.078   4.847
   9423SM  C23F12769   5.526   7.177   5.022
   9423SM  H23F12770   5.482   7.271   4.982
   9423SM  H23G12771   5.634   7.179   4.999
   9423SM  H23H12772   5.514   7.178   5.132
   9523SM     N12773   1.170   1.712   2.184
   9523SM   C1512774   1.035   1.774   2.163
   9523SM  H15A12775   1.042   1.882   2.158
   9523SM  H15B12776   0.966   1.748   2.242
   9523SM  H15C12777   0.995   1.741   2.068
   9523SM   C1412778   1.160   1.564   2.172
   9523SM  H14A12779   1.258   1.520   2.186
   9523SM  H14B12780   1.125   1.538   2.072
   9523SM  H14C12781   1.089   1.527   2.245
   9523SM   C1312782   1.261   1.759   2.076
   9523SM  H13A12783   1.353   1.702   2.070
   9523SM  H13B12784   1.289   1.863   2.090
   9523SM  H13C12785   1.209   1.753   1.981
   9523SM   C1212786   1.224   1.751   2.317
   9523SM  H12A12787   1.229   1.860   2.324
   9523SM  H12B12788   1.327   1.718   2.330
   9523SM   C1112789   1.148   1.702   2.440
   9523SM  H11A12790   1.168   1.594   2.460
   9523SM  H11B12791   1.038   1.715   2.429
   9523SM     P12792   1.336   1.779   2.607
   9523SM   O1312793   1.432   1.776   2.493
   9523SM   O1412794   1.347   1.893   2.701
   9523SM   O1112795   1.334   1.638   2.681
   9523SM   O1212796   1.191   1.783   2.546
   9523SM   C1S12797   1.422   1.602   2.788
   9523SM   H1S12798   1.496   1.684   2.810
   9523SM   H1T12799   1.482   1.513   2.759
   9523SM    NF12800   1.434   1.532   3.032
   9523SM   HNF12801   1.415   1.451   3.087
   9523SM   C2S12802   1.345   1.568   2.921
   9523SM   H2S12803   1.290   1.661   2.948
   9523SM   C3S12804   1.240   1.454   2.905
   9523SM   H3S12805   1.293   1.357   2.897
   9523SM    O312806   1.157   1.461   2.789
   9523SM   HO312807   1.201   1.526   2.733
   9523SM   C4S12808   1.153   1.452   3.029
   9523SM   H4S12809   1.089   1.540   3.040
   9523SM   C5S12810   1.152   1.358   3.127
   9523SM   H5S12811   1.222   1.273   3.120
   9523SM   C6S12812   1.065   1.359   3.251
   9523SM   H6S12813   1.025   1.256   3.268
   9523SM   H6T12814   0.977   1.426   3.238
   9523SM   C7S12815   1.135   1.402   3.382
   9523SM   H7S12816   1.168   1.508   3.375
   9523SM   H7T12817   1.228   1.342   3.392
   9523SM   C8S12818   1.046   1.385   3.507
   9523SM   H8S12819   1.016   1.278   3.516
   9523SM   H8T12820   0.954   1.445   3.494
   9523SM   C9S12821   1.113   1.427   3.639
   9523SM   H9S12822   1.168   1.522   3.626
   9523SM   H9T12823   1.189   1.349   3.663
   9523SM  C10S12824   1.019   1.440   3.761
   9523SM  H10S12825   0.935   1.367   3.753
   9523SM  H10T12826   0.977   1.543   3.764
   9523SM  C11S12827   1.099   1.410   3.888
   9523SM  H11S12828   1.197   1.463   3.880
   9523SM  H11T12829   1.118   1.301   3.888
   9523SM  C12S12830   1.040   1.445   4.024
   9523SM  H12S12831   0.941   1.397   4.038
   9523SM  H12T12832   1.028   1.555   4.033
   9523SM  C13S12833   1.138   1.396   4.132
   9523SM  H13S12834   1.230   1.458   4.127
   9523SM  H13T12835   1.167   1.290   4.112
   9523SM  C14S12836   1.081   1.403   4.274
   9523SM  H14S12837   1.002   1.326   4.288
   9523SM  H14T12838   1.034   1.503   4.288
   9523SM  C15S12839   1.190   1.386   4.380
   9523SM  H15S12840   1.149   1.429   4.473
   9523SM  H15T12841   1.280   1.446   4.353
   9523SM  C16S12842   1.231   1.240   4.403
   9523SM  H16S12843   1.288   1.201   4.317
   9523SM  H16T12844   1.140   1.176   4.414
   9523SM  C17S12845   1.319   1.221   4.526
   9523SM  H17S12846   1.416   1.274   4.511
   9523SM  H17T12847   1.341   1.112   4.537
   9523SM  C18S12848   1.255   1.270   4.654
   9523SM  H18S12849   1.171   1.203   4.679
   9523SM  H18T12850   1.216   1.374   4.649
   9523SM  H18U12851   1.329   1.270   4.737
   9523SM   C1F12852   1.520   1.620   3.080
   9523SM    OF12853   1.517   1.737   3.046
   9523SM   C2F12854   1.624   1.576   3.174
   9523SM   H2F12855   1.669   1.668   3.218
   9523SM   H2G12856   1.703   1.523   3.117
   9523SM   C3F12857   1.578   1.486   3.288
   9523SM   H3F12858   1.551   1.383   3.254
   9523SM   H3G12859   1.491   1.528   3.344
   9523SM   C4F12860   1.701   1.482   3.377
   9523SM   H4F12861   1.724   1.586   3.410
   9523SM   H4G12862   1.789   1.444   3.320
   9523SM   C5F12863   1.682   1.398   3.499
   9523SM   H5F12864   1.676   1.290   3.470
   9523SM   H5G12865   1.586   1.425   3.549
   9523SM   C6F12866   1.798   1.421   3.594
   9523SM   H6F12867   1.805   1.527   3.626
   9523SM   H6G12868   1.895   1.390   3.548
   9523SM   C7F12869   1.761   1.333   3.709
   9523SM   H7F12870   1.760   1.226   3.676
   9523SM   H7G12871   1.655   1.360   3.735
   9523SM   C8F12872   1.841   1.348   3.835
   9523SM   H8F12873   1.859   1.454   3.863
   9523SM   H8G12874   1.938   1.296   3.833
   9523SM   C9F12875   1.760   1.275   3.938
   9523SM   H9F12876   1.834   1.215   3.995
   9523SM   H9G12877   1.695   1.202   3.885
   9523SM  C10F12878   1.685   1.369   4.031
   9523SM  H10F12879   1.580   1.392   4.004
   9523SM  H10G12880   1.734   1.469   4.027
   9523SM  C11F12881   1.695   1.311   4.170
   9523SM  H11F12882   1.734   1.207   4.169
   9523SM  H11G12883   1.595   1.306   4.218
   9523SM  C12F12884   1.784   1.403   4.250
   9523SM  H12F12885   1.864   1.444   4.185
   9523SM  H12G12886   1.834   1.358   4.337
   9523SM  C13F12887   1.690   1.509   4.300
   9523SM  H13F12888   1.618   1.465   4.374
   9523SM  H13G12889   1.629   1.548   4.215
   9523SM  C14F12890   1.766   1.622   4.361
   9523SM  H14F12891   1.853   1.649   4.297
   9523SM  H14G12892   1.806   1.593   4.461
   9523SM  C15F12893   1.672   1.741   4.367
   9523SM  H15F12894   1.640   1.767   4.264
   9523SM  H15G12895   1.736   1.819   4.411
   9523SM  C16F12896   1.551   1.725   4.457
   9523SM  H16F12897   1.494   1.633   4.434
   9523SM  H16G12898   1.481   1.811   4.442
   9523SM  C17F12899   1.601   1.725   4.600
   9523SM  H17F12900   1.648   1.823   4.624
   9523SM  H17G12901   1.679   1.646   4.611
   9523SM  C18F12902   1.493   1.692   4.701
   9523SM  H18F12903   1.550   1.661   4.791
   9523SM  H18G12904   1.431   1.607   4.667
   9523SM  C19F12905   1.405   1.813   4.733
   9523SM  H19F12906   1.344   1.842   4.645
   9523SM  H19G12907   1.471   1.899   4.756
   9523SM  C20F12908   1.314   1.783   4.853
   9523SM  H20F12909   1.245   1.700   4.825
   9523SM  H20G12910   1.253   1.873   4.877
   9523SM  C21F12911   1.393   1.740   4.977
   9523SM  H21F12912   1.469   1.817   5.003
   9523SM  H21G12913   1.448   1.646   4.959
   9523SM  C22F12914   1.302   1.713   5.096
   9523SM  H22F12915   1.229   1.634   5.065
   9523SM  H22G12916   1.245   1.805   5.122
   9523SM  C23F12917   1.383   1.663   5.216
   9523SM  H23F12918   1.317   1.614   5.291
   9523SM  H23G12919   1.436   1.747   5.264
   9523SM  H23H12920   1.460   1.590   5.181
   9623SM     N12921   2.629   8.060   2.266
   9623SM   C1512922   2.755   8.125   2.217
   9623SM  H15A12923   2.762   8.119   2.110
   9623SM  H15B12924   2.842   8.076   2.261
   9623SM  H15C12925   2.759   8.229   2.245
   9623SM   C1412926   2.511   8.129   2.207
   9623SM  H14A12927   2.418   8.082   2.233
   9623SM  H14B12928   2.519   8.135   2.098
   9623SM  H14C12929   2.506   8.233   2.240
   9623SM   C1312930   2.633   7.914   2.233
   9623SM  H13A12931   2.717   7.872   2.290
   9623SM  H13B12932   2.650   7.897   2.129
   9623SM  H13C12933   2.547   7.860   2.269
   9623SM   C1212934   2.623   8.066   2.417
   9623SM  H12A12935   2.548   7.994   2.448
   9623SM  H12B12936   2.587   8.164   2.449
   9623SM   C1112937   2.753   8.038   2.496
   9623SM  H11A12938   2.717   8.018   2.600
   9623SM  H11B12939   2.815   8.130   2.499
   9623SM     P12940   2.877   7.805   2.517
   9623SM   O1312941   2.779   7.698   2.487
   9623SM   O1412942   3.021   7.778   2.497
   9623SM   O1112943   2.859   7.854   2.664
   9623SM   O1212944   2.830   7.933   2.440
   9623SM   C1S12945   2.793   7.772   2.760
   9623SM   H1S12946   2.833   7.669   2.756
   9623SM   H1T12947   2.684   7.768   2.740
   9623SM    NF12948   2.764   7.742   3.007
   9623SM   HNF12949   2.685   7.776   3.058
   9623SM   C2S12950   2.813   7.831   2.902
   9623SM   H2S12951   2.922   7.849   2.917
   9623SM   C3S12952   2.741   7.970   2.905
   9623SM   H3S12953   2.639   7.962   2.864
   9623SM    O312954   2.803   8.067   2.824
   9623SM   HO312955   2.857   8.016   2.762
   9623SM   C4S12956   2.736   8.018   3.046
   9623SM   H4S12957   2.827   8.069   3.081
   9623SM   C5S12958   2.629   8.003   3.127
   9623SM   H5S12959   2.540   7.950   3.091
   9623SM   C6S12960   2.623   8.048   3.271
   9623SM   H6S12961   2.551   8.131   3.285
   9623SM   H6T12962   2.722   8.082   3.306
   9623SM   C7S12963   2.580   7.925   3.354
   9623SM   H7S12964   2.636   7.835   3.318
   9623SM   H7T12965   2.471   7.903   3.337
   9623SM   C8S12966   2.608   7.933   3.504
   9623SM   H8S12967   2.714   7.961   3.520
   9623SM   H8T12968   2.593   7.833   3.548
   9623SM   C9S12969   2.516   8.028   3.583
   9623SM   H9S12970   2.418   7.978   3.602
   9623SM   H9T12971   2.497   8.117   3.520
   9623SM  C10S12972   2.581   8.075   3.715
   9623SM  H10S12973   2.521   8.160   3.751
   9623SM  H10T12974   2.684   8.112   3.694
   9623SM  C11S12975   2.585   7.972   3.828
   9623SM  H11S12976   2.643   7.885   3.794
   9623SM  H11T12977   2.480   7.939   3.842
   9623SM  C12S12978   2.643   8.025   3.962
   9623SM  H12S12979   2.622   8.133   3.972
   9623SM  H12T12980   2.754   8.013   3.961
   9623SM  C13S12981   2.583   7.951   4.083
   9623SM  H13S12982   2.639   7.857   4.101
   9623SM  H13T12983   2.477   7.929   4.056
   9623SM  C14S12984   2.571   8.016   4.221
   9623SM  H14S12985   2.503   8.104   4.216
   9623SM  H14T12986   2.669   8.047   4.262
   9623SM  C15S12987   2.506   7.917   4.318
   9623SM  H15S12988   2.563   7.822   4.334
   9623SM  H15T12989   2.410   7.894   4.266
   9623SM  C16S12990   2.480   7.992   4.447
   9623SM  H16S12991   2.426   8.081   4.409
   9623SM  H16T12992   2.578   8.023   4.490
   9623SM  C17S12993   2.393   7.933   4.558
   9623SM  H17S12994   2.294   7.906   4.514
   9623SM  H17T12995   2.373   8.013   4.633
   9623SM  C18S12996   2.459   7.818   4.633
   9623SM  H18S12997   2.406   7.794   4.728
   9623SM  H18T12998   2.566   7.838   4.651
   9623SM  H18U12999   2.459   7.726   4.575
   9623SM   C1F13000   2.809   7.619   3.031
   9623SM    OF13001   2.879   7.559   2.950
   9623SM   C2F13002   2.758   7.550   3.155
   9623SM   H2F13003   2.689   7.470   3.121
   9623SM   H2G13004   2.700   7.621   3.217
   9623SM   C3F13005   2.872   7.487   3.240
   9623SM   H3F13006   2.920   7.564   3.303
   9623SM   H3G13007   2.952   7.451   3.171
   9623SM   C4F13008   2.829   7.365   3.324
   9623SM   H4F13009   2.889   7.278   3.291
   9623SM   H4G13010   2.722   7.342   3.305
   9623SM   C5F13011   2.856   7.373   3.476
   9623SM   H5F13012   2.829   7.474   3.515
   9623SM   H5G13013   2.965   7.361   3.493
   9623SM   C6F13014   2.777   7.259   3.545
   9623SM   H6F13015   2.814   7.162   3.506
   9623SM   H6G13016   2.671   7.271   3.515
   9623SM   C7F13017   2.781   7.252   3.699
   9623SM   H7F13018   2.797   7.354   3.741
   9623SM   H7G13019   2.869   7.192   3.731
   9623SM   C8F13020   2.651   7.196   3.760
   9623SM   H8F13021   2.627   7.095   3.720
   9623SM   H8G13022   2.567   7.262   3.732
   9623SM   C9F13023   2.661   7.196   3.914
   9623SM   H9F13024   2.738   7.274   3.935
   9623SM   H9G13025   2.702   7.099   3.948
   9623SM  C10F13026   2.536   7.237   3.995
   9623SM  H10F13027   2.481   7.147   4.030
   9623SM  H10G13028   2.466   7.291   3.926
   9623SM  C11F13029   2.567   7.334   4.113
   9623SM  H11F13030   2.515   7.427   4.092
   9623SM  H11G13031   2.675   7.360   4.115
   9623SM  C12F13032   2.524   7.286   4.254
   9623SM  H12F13033   2.560   7.182   4.266
   9623SM  H12G13034   2.414   7.280   4.255
   9623SM  C13F13035   2.574   7.372   4.375
   9623SM  H13F13036   2.561   7.480   4.361
   9623SM  H13G13037   2.683   7.367   4.382
   9623SM  C14F13038   2.511   7.338   4.513
   9623SM  H14F13039   2.476   7.232   4.515
   9623SM  H14G13040   2.419   7.400   4.523
   9623SM  C15F13041   2.603   7.361   4.635
   9623SM  H15F13042   2.704   7.390   4.602
   9623SM  H15G13043   2.613   7.266   4.692
   9623SM  C16F13044   2.548   7.470   4.729
   9623SM  H16F13045   2.454   7.432   4.776
   9623SM  H16G13046   2.520   7.557   4.667
   9623SM  C17F13047   2.639   7.518   4.843
   9623SM  H17F13048   2.683   7.433   4.899
   9623SM  H17G13049   2.573   7.573   4.913
   9623SM  C18F13050   2.751   7.616   4.802
   9623SM  H18F13051   2.710   7.697   4.737
   9623SM  H18G13052   2.825   7.562   4.741
   9623SM  C19F13053   2.818   7.679   4.925
   9623SM  H19F13054   2.906   7.741   4.896
   9623SM  H19G13055   2.856   7.598   4.991
   9623SM  C20F13056   2.728   7.773   5.006
   9623SM  H20F13057   2.785   7.800   5.097
   9623SM  H20G13058   2.637   7.721   5.039
   9623SM  C21F13059   2.689   7.902   4.933
   9623SM  H21F13060   2.657   7.880   4.829
   9623SM  H21G13061   2.779   7.966   4.925
   9623SM  C22F13062   2.574   7.977   5.002
   9623SM  H22F13063   2.479   7.924   4.977
   9623SM  H22G13064   2.566   8.080   4.960
   9623SM  C23F13065   2.585   7.984   5.155
   9623SM  H23F13066   2.686   7.955   5.189
   9623SM  H23G13067   2.513   7.912   5.201
   9623SM  H23H13068   2.564   8.086   5.194
   9723SM     N13069   4.281  -0.094   2.223
   9723SM   C1513070   4.137  -0.060   2.239
   9723SM  H15A13071   4.089  -0.023   2.150
   9723SM  H15B13072   4.128   0.016   2.317
   9723SM  H15C13073   4.083  -0.149   2.272
   9723SM   C1413074   4.292  -0.210   2.132
   9723SM  H14A13075   4.241  -0.297   2.172
   9723SM  H14B13076   4.396  -0.240   2.115
   9723SM  H14C13077   4.251  -0.188   2.034
   9723SM   C1313078   4.347   0.030   2.172
   9723SM  H13A13079   4.310   0.062   2.076
   9723SM  H13B13080   4.455   0.021   2.167
   9723SM  H13C13081   4.328   0.111   2.243
   9723SM   C1213082   4.338  -0.130   2.360
   9723SM  H12A13083   4.445  -0.105   2.366
   9723SM  H12B13084   4.332  -0.238   2.373
   9723SM   C1113085   4.267  -0.069   2.483
   9723SM  H11A13086   4.321  -0.098   2.577
   9723SM  H11B13087   4.168  -0.119   2.490
   9723SM     P13088   4.354   0.173   2.526
   9723SM   O1313089   4.485   0.135   2.469
   9723SM   O1413090   4.306   0.311   2.499
   9723SM   O1113091   4.345   0.139   2.685
   9723SM   O1213092   4.246   0.072   2.472
   9723SM   C1S13093   4.210   0.147   2.738
   9723SM   H1S13094   4.150   0.063   2.700
   9723SM   H1T13095   4.159   0.242   2.708
   9723SM    NF13096   4.245   0.261   2.958
   9723SM   HNF13097   4.333   0.254   3.002
   9723SM   C2S13098   4.198   0.138   2.894
   9723SM   H2S13099   4.089   0.126   2.917
   9723SM   C3S13100   4.273   0.015   2.951
   9723SM   H3S13101   4.382   0.024   2.932
   9723SM    O313102   4.231  -0.111   2.897
   9723SM   HO313103   4.176  -0.089   2.822
   9723SM   C4S13104   4.247   0.017   3.100
   9723SM   H4S13105   4.149  -0.025   3.128
   9723SM   C5S13106   4.331   0.065   3.194
   9723SM   H5S13107   4.429   0.103   3.161
   9723SM   C6S13108   4.307   0.070   3.343
   9723SM   H6S13109   4.247  -0.016   3.378
   9723SM   H6T13110   4.251   0.162   3.369
   9723SM   C7S13111   4.440   0.074   3.421
   9723SM   H7S13112   4.507   0.155   3.386
   9723SM   H7T13113   4.493  -0.023   3.401
   9723SM   C8S13114   4.425   0.086   3.574
   9723SM   H8S13115   4.505   0.021   3.615
   9723SM   H8T13116   4.329   0.042   3.608
   9723SM   C9S13117   4.446   0.225   3.636
   9723SM   H9S13118   4.353   0.286   3.621
   9723SM   H9T13119   4.530   0.278   3.587
   9723SM  C10S13120   4.477   0.214   3.787
   9723SM  H10S13121   4.576   0.166   3.801
   9723SM  H10T13122   4.399   0.147   3.831
   9723SM  C11S13123   4.479   0.345   3.866
   9723SM  H11S13124   4.415   0.418   3.812
   9723SM  H11T13125   4.581   0.387   3.869
   9723SM  C12S13126   4.422   0.329   4.008
   9723SM  H12S13127   4.329   0.268   4.006
   9723SM  H12T13128   4.393   0.431   4.045
   9723SM  C13S13129   4.519   0.269   4.110
   9723SM  H13S13130   4.617   0.322   4.100
   9723SM  H13T13131   4.536   0.161   4.089
   9723SM  C14S13132   4.469   0.288   4.255
   9723SM  H14S13133   4.384   0.219   4.275
   9723SM  H14T13134   4.431   0.392   4.266
   9723SM  C15S13135   4.579   0.265   4.359
   9723SM  H15S13136   4.669   0.321   4.326
   9723SM  H15T13137   4.605   0.157   4.363
   9723SM  C16S13138   4.541   0.315   4.498
   9723SM  H16S13139   4.456   0.256   4.539
   9723SM  H16T13140   4.509   0.421   4.492
   9723SM  C17S13141   4.660   0.304   4.594
   9723SM  H17S13142   4.748   0.352   4.546
   9723SM  H17T13143   4.684   0.196   4.611
   9723SM  C18S13144   4.635   0.371   4.728
   9723SM  H18S13145   4.586   0.469   4.710
   9723SM  H18T13146   4.731   0.388   4.782
   9723SM  H18U13147   4.567   0.311   4.793
   9723SM   C1F13148   4.172   0.373   2.954
   9723SM    OF13149   4.066   0.380   2.895
   9723SM   C2F13150   4.227   0.491   3.027
   9723SM   H2F13151   4.184   0.581   2.980
   9723SM   H2G13152   4.337   0.493   3.016
   9723SM   C3F13153   4.186   0.483   3.175
   9723SM   H3F13154   4.216   0.385   3.217
   9723SM   H3G13155   4.075   0.488   3.183
   9723SM   C4F13156   4.246   0.595   3.263
   9723SM   H4F13157   4.188   0.688   3.251
   9723SM   H4G13158   4.350   0.615   3.232
   9723SM   C5F13159   4.243   0.557   3.411
   9723SM   H5F13160   4.300   0.631   3.472
   9723SM   H5G13161   4.291   0.458   3.425
   9723SM   C6F13162   4.100   0.550   3.466
   9723SM   H6F13163   4.027   0.518   3.389
   9723SM   H6G13164   4.069   0.651   3.500
   9723SM   C7F13165   4.090   0.452   3.583
   9723SM   H7F13166   4.130   0.353   3.554
   9723SM   H7G13167   3.982   0.440   3.606
   9723SM   C8F13168   4.164   0.502   3.706
   9723SM   H8F13169   4.125   0.602   3.735
   9723SM   H8G13170   4.272   0.515   3.683
   9723SM   C9F13171   4.150   0.407   3.825
   9723SM   H9F13172   4.198   0.456   3.912
   9723SM   H9G13173   4.206   0.313   3.803
   9723SM  C10F13174   4.006   0.368   3.859
   9723SM  H10F13175   3.961   0.313   3.773
   9723SM  H10G13176   3.944   0.459   3.877
   9723SM  C11F13177   4.001   0.275   3.980
   9723SM  H11F13178   4.074   0.193   3.964
   9723SM  H11G13179   3.900   0.230   3.989
   9723SM  C12F13180   4.035   0.348   4.110
   9723SM  H12F13181   3.946   0.409   4.139
   9723SM  H12G13182   4.119   0.420   4.097
   9723SM  C13F13183   4.073   0.252   4.222
   9723SM  H13F13184   4.179   0.223   4.211
   9723SM  H13G13185   4.012   0.159   4.211
   9723SM  C14F13186   4.045   0.312   4.359
   9723SM  H14F13187   3.942   0.355   4.357
   9723SM  H14G13188   4.116   0.396   4.380
   9723SM  C15F13189   4.049   0.207   4.471
   9723SM  H15F13190   3.995   0.116   4.439
   9723SM  H15G13191   3.994   0.250   4.557
   9723SM  C16F13192   4.190   0.171   4.519
   9723SM  H16F13193   4.243   0.265   4.547
   9723SM  H16G13194   4.247   0.124   4.436
   9723SM  C17F13195   4.188   0.077   4.640
   9723SM  H17F13196   4.136  -0.017   4.611
   9723SM  H17G13197   4.128   0.123   4.721
   9723SM  C18F13198   4.328   0.043   4.694
   9723SM  H18F13199   4.375   0.135   4.734
   9723SM  H18G13200   4.388   0.011   4.606
   9723SM  C19F13201   4.332  -0.071   4.798
   9723SM  H19F13202   4.428  -0.124   4.781
   9723SM  H19G13203   4.250  -0.144   4.781
   9723SM  C20F13204   4.334  -0.026   4.946
   9723SM  H20F13205   4.383   0.073   4.953
   9723SM  H20G13206   4.399  -0.096   5.004
   9723SM  C21F13207   4.196  -0.028   5.013
   9723SM  H21F13208   4.187  -0.116   5.081
   9723SM  H21G13209   4.119  -0.040   4.934
   9723SM  C22F13210   4.161   0.098   5.093
   9723SM  H22F13211   4.219   0.098   5.188
   9723SM  H22G13212   4.054   0.097   5.121
   9723SM  C23F13213   4.191   0.223   5.014
   9723SM  H23F13214   4.284   0.272   5.052
   9723SM  H23G13215   4.107   0.295   5.019
   9723SM  H23H13216   4.207   0.200   4.907
   9823SM     N13217   6.556   7.505   2.322
   9823SM   C1513218   6.576   7.647   2.360
   9823SM  H15A13219   6.501   7.681   2.431
   9823SM  H15B13220   6.567   7.713   2.275
   9823SM  H15C13221   6.675   7.663   2.402
   9823SM   C1413222   6.417   7.489   2.268
   9823SM  H14A13223   6.408   7.541   2.173
   9823SM  H14B13224   6.343   7.530   2.336
   9823SM  H14C13225   6.392   7.384   2.252
   9823SM   C1313226   6.655   7.467   2.217
   9823SM  H13A13227   6.652   7.531   2.130
   9823SM  H13B13228   6.640   7.364   2.183
   9823SM  H13C13229   6.756   7.467   2.259
   9823SM   C1213230   6.578   7.418   2.445
   9823SM  H12A13231   6.554   7.314   2.420
   9823SM  H12B13232   6.512   7.447   2.525
   9823SM   C1113233   6.723   7.412   2.501
   9823SM  H11A13234   6.720   7.369   2.603
   9823SM  H11B13235   6.763   7.515   2.513
   9823SM     P13236   6.791   7.184   2.392
   9823SM   O1313237   6.653   7.162   2.339
   9823SM   O1413238   6.902   7.139   2.306
   9823SM   O1113239   6.801   7.121   2.539
   9823SM   O1213240   6.812   7.339   2.416
   9823SM   C1S13241   6.921   7.147   2.614
   9823SM   H1S13242   6.988   7.221   2.564
   9823SM   H1T13243   6.980   7.053   2.622
   9823SM    NF13244   7.015   7.258   2.809
   9823SM   HNF13245   7.060   7.211   2.882
   9823SM   C2S13246   6.893   7.200   2.759
   9823SM   H2S13247   6.816   7.280   2.757
   9823SM   C3S13248   6.840   7.079   2.845
   9823SM   H3S13249   6.909   6.994   2.833
   9823SM    O313250   6.710   7.037   2.804
   9823SM   HO313251   6.698   7.075   2.716
   9823SM   C4S13252   6.824   7.111   2.994
   9823SM   H4S13253   6.774   7.206   3.016
   9823SM   C5S13254   6.864   7.030   3.096
   9823SM   H5S13255   6.903   6.932   3.069
   9823SM   C6S13256   6.847   7.053   3.246
   9823SM   H6S13257   6.797   6.962   3.283
   9823SM   H6T13258   6.773   7.136   3.260
   9823SM   C7S13259   6.950   7.072   3.363
   9823SM   H7S13260   6.894   7.119   3.447
   9823SM   H7T13261   7.022   7.147   3.331
   9823SM   C8S13262   7.017   6.945   3.420
   9823SM   H8S13263   7.070   6.893   3.338
   9823SM   H8T13264   6.939   6.875   3.455
   9823SM   C9S13265   7.123   6.964   3.534
   9823SM   H9S13266   7.210   7.015   3.489
   9823SM   H9T13267   7.158   6.861   3.562
   9823SM  C10S13268   7.079   7.036   3.663
   9823SM  H10S13269   7.010   6.964   3.709
   9823SM  H10T13270   7.024   7.129   3.639
   9823SM  C11S13271   7.178   7.065   3.780
   9823SM  H11S13272   7.258   7.135   3.748
   9823SM  H11T13273   7.225   6.968   3.810
   9823SM  C12S13274   7.101   7.121   3.902
   9823SM  H12S13275   7.011   7.056   3.911
   9823SM  H12T13276   7.064   7.224   3.880
   9823SM  C13S13277   7.166   7.119   4.042
   9823SM  H13S13278   7.241   7.201   4.049
   9823SM  H13T13279   7.219   7.023   4.058
   9823SM  C14S13280   7.058   7.136   4.153
   9823SM  H14S13281   6.999   7.043   4.163
   9823SM  H14T13282   6.992   7.220   4.123
   9823SM  C15S13283   7.107   7.175   4.293
   9823SM  H15S13284   7.025   7.221   4.353
   9823SM  H15T13285   7.186   7.249   4.277
   9823SM  C16S13286   7.158   7.058   4.375
   9823SM  H16S13287   7.201   6.987   4.304
   9823SM  H16T13288   7.073   7.011   4.428
   9823SM  C17S13289   7.278   7.084   4.465
   9823SM  H17S13290   7.337   7.167   4.420
   9823SM  H17T13291   7.342   6.993   4.460
   9823SM  C18S13292   7.247   7.110   4.612
   9823SM  H18S13293   7.327   7.172   4.657
   9823SM  H18T13294   7.243   7.013   4.667
   9823SM  H18U13295   7.150   7.163   4.625
   9823SM   C1F13296   7.077   7.367   2.763
   9823SM    OF13297   7.028   7.446   2.684
   9823SM   C2F13298   7.213   7.383   2.822
   9823SM   H2F13299   7.281   7.307   2.778
   9823SM   H2G13300   7.197   7.358   2.929
   9823SM   C3F13301   7.278   7.522   2.818
   9823SM   H3F13302   7.230   7.585   2.740
   9823SM   H3G13303   7.385   7.510   2.788
   9823SM   C4F13304   7.273   7.595   2.953
   9823SM   H4F13305   7.322   7.694   2.941
   9823SM   H4G13306   7.332   7.538   3.028
   9823SM   C5F13307   7.130   7.614   3.003
   9823SM   H5F13308   7.086   7.517   3.035
   9823SM   H5G13309   7.068   7.653   2.919
   9823SM   C6F13310   7.116   7.714   3.118
   9823SM   H6F13311   7.149   7.814   3.083
   9823SM   H6G13312   7.186   7.685   3.199
   9823SM   C7F13313   6.970   7.726   3.166
   9823SM   H7F13314   6.904   7.714   3.077
   9823SM   H7G13315   6.954   7.829   3.204
   9823SM   C8F13316   6.928   7.623   3.274
   9823SM   H8F13317   6.932   7.522   3.228
   9823SM   H8G13318   6.823   7.643   3.305
   9823SM   C9F13319   7.020   7.624   3.398
   9823SM   H9F13320   7.018   7.726   3.441
   9823SM   H9G13321   7.123   7.601   3.364
   9823SM  C10F13322   6.989   7.519   3.507
   9823SM  H10F13323   7.080   7.505   3.569
   9823SM  H10G13324   6.961   7.421   3.463
   9823SM  C11F13325   6.884   7.570   3.604
   9823SM  H11F13326   6.788   7.573   3.548
   9823SM  H11G13327   6.915   7.675   3.628
   9823SM  C12F13328   6.868   7.498   3.739
   9823SM  H12F13329   6.879   7.575   3.819
   9823SM  H12G13330   6.950   7.425   3.754
   9823SM  C13F13331   6.733   7.429   3.759
   9823SM  H13F13332   6.722   7.347   3.685
   9823SM  H13G13333   6.648   7.498   3.741
   9823SM  C14F13334   6.713   7.377   3.902
   9823SM  H14F13335   6.796   7.309   3.928
   9823SM  H14G13336   6.618   7.320   3.904
   9823SM  C15F13337   6.706   7.490   4.007
   9823SM  H15F13338   6.666   7.581   3.956
   9823SM  H15G13339   6.809   7.513   4.042
   9823SM  C16F13340   6.617   7.458   4.128
   9823SM  H16F13341   6.523   7.411   4.090
   9823SM  H16G13342   6.588   7.550   4.182
   9823SM  C17F13343   6.688   7.360   4.222
   9823SM  H17F13344   6.750   7.298   4.153
   9823SM  H17G13345   6.615   7.294   4.273
   9823SM  C18F13346   6.784   7.421   4.327
   9823SM  H18F13347   6.842   7.504   4.282
   9823SM  H18G13348   6.856   7.341   4.355
   9823SM  C19F13349   6.718   7.467   4.458
   9823SM  H19F13350   6.671   7.378   4.507
   9823SM  H19G13351   6.636   7.540   4.437
   9823SM  C20F13352   6.816   7.530   4.559
   9823SM  H20F13353   6.866   7.618   4.513
   9823SM  H20G13354   6.895   7.457   4.585
   9823SM  C21F13355   6.745   7.577   4.688
   9823SM  H21F13356   6.692   7.491   4.735
   9823SM  H21G13357   6.667   7.652   4.660
   9823SM  C22F13358   6.838   7.640   4.793
   9823SM  H22F13359   6.776   7.691   4.870
   9823SM  H22G13360   6.900   7.718   4.744
   9823SM  C23F13361   6.928   7.538   4.864
   9823SM  H23F13362   6.866   7.463   4.918
   9823SM  H23G13363   6.995   7.587   4.937
   9823SM  H23H13364   6.990   7.483   4.790
   9923SM     N13365   0.540   7.176   2.255
   9923SM   C1513366   0.505   7.033   2.285
   9923SM  H15A13367   0.565   7.002   2.370
   9923SM  H15B13368   0.526   6.969   2.201
   9923SM  H15C13369   0.401   7.022   2.313
   9923SM   C1413370   0.684   7.189   2.221
   9923SM  H14A13371   0.711   7.293   2.208
   9923SM  H14B13372   0.706   7.135   2.130
   9923SM  H14C13373   0.744   7.151   2.304
   9923SM   C1313374   0.461   7.227   2.139
   9923SM  H13A13375   0.487   7.332   2.127
   9923SM  H13B13376   0.354   7.219   2.157
   9923SM  H13C13377   0.488   7.176   2.046
   9923SM   C1213378   0.507   7.262   2.374
   9923SM  H12A13379   0.401   7.259   2.392
   9923SM  H12B13380   0.531   7.367   2.351
   9923SM   C1113381   0.581   7.234   2.505
   9923SM  H11A13382   0.572   7.127   2.534
   9923SM  H11B13383   0.530   7.294   2.584
   9923SM     P13384   0.755   7.422   2.502
   9923SM   O1313385   0.900   7.437   2.471
   9923SM   O1413386   0.655   7.495   2.421
   9923SM   O1113387   0.737   7.462   2.654
   9923SM   O1213388   0.720   7.267   2.496
   9923SM   C1S13389   0.808   7.383   2.750
   9923SM   H1S13390   0.909   7.425   2.765
   9923SM   H1T13391   0.823   7.277   2.717
   9923SM    NF13392   0.595   7.333   2.860
   9923SM   HNF13393   0.527   7.406   2.849
   9923SM   C2S13394   0.732   7.374   2.887
   9923SM   H2S13395   0.780   7.295   2.949
   9923SM   C3S13396   0.743   7.511   2.962
   9923SM   H3S13397   0.684   7.587   2.909
   9923SM    O313398   0.878   7.558   2.961
   9923SM   HO313399   0.896   7.554   2.867
   9923SM   C4S13400   0.692   7.502   3.106
   9923SM   H4S13401   0.584   7.520   3.114
   9923SM   C5S13402   0.761   7.478   3.220
   9923SM   H5S13403   0.868   7.455   3.212
   9923SM   C6S13404   0.707   7.472   3.362
   9923SM   H6S13405   0.728   7.571   3.408
   9923SM   H6T13406   0.766   7.400   3.423
   9923SM   C7S13407   0.558   7.449   3.395
   9923SM   H7S13408   0.522   7.351   3.358
   9923SM   H7T13409   0.499   7.531   3.347
   9923SM   C8S13410   0.536   7.457   3.546
   9923SM   H8S13411   0.432   7.488   3.567
   9923SM   H8T13412   0.605   7.533   3.589
   9923SM   C9S13413   0.560   7.325   3.620
   9923SM   H9S13414   0.669   7.303   3.622
   9923SM   H9T13415   0.509   7.244   3.563
   9923SM  C10S13416   0.506   7.329   3.763
   9923SM  H10S13417   0.498   7.225   3.801
   9923SM  H10T13418   0.402   7.369   3.763
   9923SM  C11S13419   0.595   7.408   3.861
   9923SM  H11S13420   0.600   7.515   3.830
   9923SM  H11T13421   0.698   7.368   3.856
   9923SM  C12S13422   0.544   7.400   4.007
   9923SM  H12S13423   0.532   7.293   4.034
   9923SM  H12T13424   0.445   7.449   4.013
   9923SM  C13S13425   0.642   7.460   4.109
   9923SM  H13S13426   0.680   7.554   4.064
   9923SM  H13T13427   0.727   7.390   4.122
   9923SM  C14S13428   0.579   7.494   4.245
   9923SM  H14S13429   0.530   7.404   4.286
   9923SM  H14T13430   0.498   7.568   4.229
   9923SM  C15S13431   0.679   7.548   4.349
   9923SM  H15S13432   0.717   7.647   4.318
   9923SM  H15T13433   0.767   7.480   4.354
   9923SM  C16S13434   0.619   7.559   4.490
   9923SM  H16S13435   0.601   7.455   4.523
   9923SM  H16T13436   0.524   7.616   4.493
   9923SM  C17S13437   0.717   7.610   4.595
   9923SM  H17S13438   0.735   7.718   4.584
   9923SM  H17T13439   0.810   7.560   4.567
   9923SM  C18S13440   0.680   7.578   4.740
   9923SM  H18S13441   0.768   7.581   4.807
   9923SM  H18T13442   0.633   7.479   4.754
   9923SM  H18U13443   0.604   7.651   4.777
   9923SM   C1F13444   0.565   7.210   2.819
   9923SM    OF13445   0.652   7.136   2.776
   9923SM   C2F13446   0.422   7.163   2.819
   9923SM   H2F13447   0.420   7.052   2.825
   9923SM   H2G13448   0.376   7.191   2.722
   9923SM   C3F13449   0.344   7.223   2.936
   9923SM   H3F13450   0.235   7.211   2.918
   9923SM   H3G13451   0.363   7.332   2.943
   9923SM   C4F13452   0.379   7.163   3.072
   9923SM   H4F13453   0.489   7.153   3.087
   9923SM   H4G13454   0.334   7.061   3.080
   9923SM   C5F13455   0.320   7.255   3.179
   9923SM   H5F13456   0.226   7.296   3.137
   9923SM   H5G13457   0.387   7.342   3.196
   9923SM   C6F13458   0.284   7.183   3.308
   9923SM   H6F13459   0.377   7.156   3.364
   9923SM   H6G13460   0.229   7.090   3.284
   9923SM   C7F13461   0.192   7.270   3.395
   9923SM   H7F13462   0.097   7.290   3.341
   9923SM   H7G13463   0.242   7.366   3.417
   9923SM   C8F13464   0.159   7.197   3.525
   9923SM   H8F13465   0.252   7.142   3.551
   9923SM   H8G13466   0.080   7.121   3.508
   9923SM   C9F13467   0.119   7.291   3.639
   9923SM   H9F13468   0.032   7.352   3.607
   9923SM   H9G13469   0.203   7.360   3.663
   9923SM  C10F13470   0.083   7.212   3.764
   9923SM  H10F13471   0.001   7.142   3.738
   9923SM  H10G13472   0.045   7.278   3.845
   9923SM  C11F13473   0.202   7.132   3.815
   9923SM  H11F13474   0.285   7.120   3.742
   9923SM  H11G13475   0.166   7.029   3.835
   9923SM  C12F13476   0.258   7.182   3.947
   9923SM  H12F13477   0.171   7.186   4.016
   9923SM  H12G13478   0.301   7.284   3.947
   9923SM  C13F13479   0.356   7.076   3.998
   9923SM  H13F13480   0.459   7.114   4.005
   9923SM  H13G13481   0.359   6.990   3.928
   9923SM  C14F13482   0.302   7.034   4.132
   9923SM  H14F13483   0.204   6.982   4.117
   9923SM  H14G13484   0.283   7.129   4.184
   9923SM  C15F13485   0.394   6.953   4.219
   9923SM  H15F13486   0.432   6.865   4.162
   9923SM  H15G13487   0.337   6.916   4.307
   9923SM  C16F13488   0.513   7.035   4.269
   9923SM  H16F13489   0.575   7.064   4.182
   9923SM  H16G13490   0.569   6.968   4.336
   9923SM  C17F13491   0.482   7.160   4.350
   9923SM  H17F13492   0.422   7.230   4.289
   9923SM  H17G13493   0.579   7.212   4.369
   9923SM  C18F13494   0.413   7.138   4.486
   9923SM  H18F13495   0.484   7.085   4.554
   9923SM  H18G13496   0.323   7.075   4.475
   9923SM  C19F13497   0.377   7.276   4.542
   9923SM  H19F13498   0.291   7.319   4.489
   9923SM  H19G13499   0.460   7.340   4.511
   9923SM  C20F13500   0.363   7.291   4.695
   9923SM  H20F13501   0.452   7.247   4.745
   9923SM  H20G13502   0.273   7.236   4.729
   9923SM  C21F13503   0.351   7.440   4.735
   9923SM  H21F13504   0.266   7.483   4.678
   9923SM  H21G13505   0.440   7.495   4.701
   9923SM  C22F13506   0.327   7.465   4.885
   9923SM  H22F13507   0.261   7.385   4.924
   9923SM  H22G13508   0.271   7.561   4.894
   9923SM  C23F13509   0.453   7.478   4.972
   9923SM  H23F13510   0.427   7.499   5.078
   9923SM  H23G13511   0.514   7.565   4.938
   9923SM  H23H13512   0.515   7.386   4.967
  10023SM     N13513   0.287   0.485   2.220
  10023SM   C1513514   0.382   0.406   2.138
  10023SM  H15A13515   0.472   0.463   2.120
  10023SM  H15B13516   0.337   0.378   2.044
  10023SM  H15C13517   0.403   0.316   2.194
  10023SM   C1413518   0.252   0.612   2.151
  10023SM  H14A13519   0.340   0.669   2.123
  10023SM  H14B13520   0.188   0.673   2.215
  10023SM  H14C13521   0.195   0.592   2.061
  10023SM   C1313522   0.159   0.410   2.239
  10023SM  H13A13523   0.172   0.324   2.304
  10023SM  H13B13524   0.126   0.372   2.143
  10023SM  H13C13525   0.083   0.473   2.284
  10023SM   C1213526   0.351   0.510   2.357
  10023SM  H12A13527   0.273   0.547   2.423
  10023SM  H12B13528   0.427   0.586   2.347
  10023SM   C1113529   0.416   0.387   2.426
  10023SM  H11A13530   0.448   0.416   2.529
  10023SM  H11B13531   0.510   0.361   2.372
  10023SM     P13532   0.229   0.243   2.542
  10023SM   O1313533   0.153   0.367   2.565
  10023SM   O1413534   0.149   0.123   2.510
  10023SM   O1113535   0.314   0.217   2.671
  10023SM   O1213536   0.332   0.271   2.426
  10023SM   C1S13537   0.433   0.143   2.682
  10023SM   H1S13538   0.516   0.198   2.634
  10023SM   H1T13539   0.428   0.042   2.634
  10023SM    NF13540   0.348   0.060   2.897
  10023SM   HNF13541   0.295   0.122   2.952
  10023SM   C2S13542   0.461   0.124   2.833
  10023SM   H2S13543   0.550   0.058   2.843
  10023SM   C3S13544   0.491   0.257   2.903
  10023SM   H3S13545   0.404   0.325   2.900
  10023SM    O313546   0.599   0.328   2.843
  10023SM   HO313547   0.619   0.278   2.764
  10023SM   C4S13548   0.519   0.215   3.045
  10023SM   H4S13549   0.619   0.171   3.059
  10023SM   C5S13550   0.435   0.221   3.150
  10023SM   H5S13551   0.336   0.268   3.140
  10023SM   C6S13552   0.473   0.173   3.287
  10023SM   H6S13553   0.529   0.251   3.341
  10023SM   H6T13554   0.543   0.087   3.281
  10023SM   C7S13555   0.347   0.129   3.365
  10023SM   H7S13556   0.333   0.020   3.347
  10023SM   H7T13557   0.256   0.184   3.332
  10023SM   C8S13558   0.359   0.153   3.516
  10023SM   H8S13559   0.284   0.090   3.569
  10023SM   H8T13560   0.337   0.259   3.540
  10023SM   C9S13561   0.498   0.120   3.569
  10023SM   H9S13562   0.560   0.212   3.576
  10023SM   H9T13563   0.551   0.050   3.501
  10023SM  C10S13564   0.491   0.052   3.705
  10023SM  H10S13565   0.590   0.005   3.722
  10023SM  H10T13566   0.415  -0.029   3.712
  10023SM  C11S13567   0.473   0.150   3.816
  10023SM  H11S13568   0.364   0.166   3.830
  10023SM  H11T13569   0.521   0.248   3.794
  10023SM  C12S13570   0.533   0.094   3.942
  10023SM  H12S13571   0.644   0.087   3.935
  10023SM  H12T13572   0.493  -0.008   3.963
  10023SM  C13S13573   0.491   0.190   4.047
  10023SM  H13S13574   0.380   0.191   4.045
  10023SM  H13T13575   0.531   0.292   4.023
  10023SM  C14S13576   0.535   0.146   4.182
  10023SM  H14S13577   0.621   0.077   4.174
  10023SM  H14T13578   0.451   0.091   4.229
  10023SM  C15S13579   0.572   0.266   4.266
  10023SM  H15S13580   0.488   0.339   4.261
  10023SM  H15T13581   0.664   0.317   4.229
  10023SM  C16S13582   0.587   0.213   4.406
  10023SM  H16S13583   0.688   0.168   4.418
  10023SM  H16T13584   0.512   0.133   4.423
  10023SM  C17S13585   0.559   0.319   4.508
  10023SM  H17S13586   0.474   0.381   4.473
  10023SM  H17T13587   0.646   0.388   4.512
  10023SM  C18S13588   0.532   0.259   4.645
  10023SM  H18S13589   0.426   0.231   4.659
  10023SM  H18T13590   0.564   0.328   4.726
  10023SM  H18U13591   0.585   0.163   4.653
  10023SM   C1F13592   0.318  -0.067   2.882
  10023SM    OF13593   0.392  -0.142   2.819
  10023SM   C2F13594   0.195  -0.114   2.952
  10023SM   H2F13595   0.193  -0.069   3.053
  10023SM   H2G13596   0.201  -0.224   2.965
  10023SM   C3F13597   0.064  -0.083   2.874
  10023SM   H3F13598  -0.022  -0.127   2.929
  10023SM   H3G13599   0.067  -0.136   2.776
  10023SM   C4F13600   0.033   0.066   2.849
  10023SM   H4F13601  -0.049   0.074   2.775
  10023SM   H4G13602   0.120   0.119   2.804
  10023SM   C5F13603  -0.008   0.135   2.979
  10023SM   H5F13604   0.071   0.117   3.054
  10023SM   H5G13605  -0.105   0.089   3.010
  10023SM   C6F13606  -0.025   0.288   2.972
  10023SM   H6F13607  -0.094   0.314   2.889
  10023SM   H6G13608   0.074   0.333   2.946
  10023SM   C7F13609  -0.077   0.351   3.104
  10023SM   H7F13610  -0.184   0.379   3.093
  10023SM   H7G13611  -0.024   0.447   3.121
  10023SM   C8F13612  -0.061   0.261   3.227
  10023SM   H8F13613   0.047   0.251   3.252
  10023SM   H8G13614  -0.105   0.162   3.204
  10023SM   C9F13615  -0.141   0.305   3.350
  10023SM   H9F13616  -0.126   0.231   3.432
  10023SM   H9G13617  -0.249   0.303   3.325
  10023SM  C10F13618  -0.099   0.441   3.402
  10023SM  H10F13619  -0.164   0.467   3.489
  10023SM  H10G13620  -0.114   0.520   3.325
  10023SM  C11F13621   0.048   0.438   3.446
  10023SM  H11F13622   0.116   0.446   3.358
  10023SM  H11G13623   0.067   0.338   3.493
  10023SM  C12F13624   0.083   0.544   3.549
  10023SM  H12F13625  -0.009   0.594   3.587
  10023SM  H12G13626   0.146   0.623   3.501
  10023SM  C13F13627   0.159   0.484   3.668
  10023SM  H13F13628   0.244   0.424   3.630
  10023SM  H13G13629   0.092   0.414   3.722
  10023SM  C14F13630   0.213   0.592   3.761
  10023SM  H14F13631   0.128   0.638   3.814
  10023SM  H14G13632   0.265   0.670   3.701
  10023SM  C15F13633   0.308   0.540   3.869
  10023SM  H15F13634   0.330   0.623   3.939
  10023SM  H15G13635   0.404   0.508   3.822
  10023SM  C16F13636   0.245   0.423   3.944
  10023SM  H16F13637   0.277   0.331   3.893
  10023SM  H16G13638   0.134   0.426   3.937
  10023SM  C17F13639   0.284   0.419   4.091
  10023SM  H17F13640   0.393   0.437   4.102
  10023SM  H17G13641   0.259   0.317   4.130
  10023SM  C18F13642   0.207   0.513   4.183
  10023SM  H18F13643   0.098   0.501   4.162
  10023SM  H18G13644   0.234   0.619   4.164
  10023SM  C19F13645   0.236   0.472   4.327
  10023SM  H19F13646   0.341   0.496   4.351
  10023SM  H19G13647   0.226   0.361   4.333
  10023SM  C20F13648   0.139   0.534   4.428
  10023SM  H20F13649   0.041   0.552   4.379
  10023SM  H20G13650   0.182   0.632   4.459
  10023SM  C21F13651   0.116   0.446   4.553
  10023SM  H21F13652   0.073   0.348   4.523
  10023SM  H21G13653   0.047   0.496   4.623
  10023SM  C22F13654   0.249   0.420   4.622
  10023SM  H22F13655   0.303   0.517   4.617
  10023SM  H22G13656   0.300   0.346   4.559
  10023SM  C23F13657   0.247   0.375   4.768
  10023SM  H23F13658   0.350   0.376   4.810
  10023SM  H23G13659   0.208   0.271   4.778
  10023SM  H23H13660   0.186   0.444   4.830
  101CHL1    C313661   4.017   4.593   6.735
  101CHL1    H313662   4.122   4.587   6.696
  101CHL1    O313663   4.021   4.603   6.876
  101CHL1   H3'13664   3.928   4.598   6.902
  101CHL1    C413665   3.947   4.715   6.674
  101CHL1   H4A13666   3.844   4.722   6.716
  101CHL1   H4B13667   4.001   4.806   6.709
  101CHL1    C513668   3.940   4.707   6.523
  101CHL1    C613669   3.994   4.802   6.445
  101CHL1    H613670   4.041   4.890   6.492
  101CHL1    C713671   3.990   4.801   6.295
  101CHL1   H7A13672   3.958   4.900   6.256
  101CHL1   H7B13673   4.093   4.782   6.257
  101CHL1    C813674   3.897   4.692   6.237
  101CHL1    H813675   3.792   4.729   6.244
  101CHL1   C1413676   3.932   4.668   6.091
  101CHL1   H1413677   4.037   4.628   6.092
  101CHL1   C1513678   3.935   4.789   5.996
  101CHL1  H15A13679   3.843   4.850   6.011
  101CHL1  H15B13680   4.024   4.853   6.014
  101CHL1   C1613681   3.935   4.726   5.857
  101CHL1  H16A13682   3.853   4.772   5.797
  101CHL1  H16B13683   4.031   4.741   5.804
  101CHL1   C1713684   3.908   4.573   5.877
  101CHL1   H1713685   4.008   4.523   5.880
  101CHL1   C1313686   3.850   4.561   6.020
  101CHL1   C1813687   3.700   4.599   6.014
  101CHL1  H18A13688   3.639   4.516   5.973
  101CHL1  H18B13689   3.660   4.622   6.115
  101CHL1  H18C13690   3.685   4.688   5.949
  101CHL1   C1213691   3.870   4.428   6.097
  101CHL1  H12A13692   3.809   4.346   6.055
  101CHL1  H12B13693   3.977   4.399   6.091
  101CHL1   C1113694   3.831   4.444   6.245
  101CHL1  H11A13695   3.722   4.463   6.250
  101CHL1  H11B13696   3.851   4.348   6.297
  101CHL1    C913697   3.909   4.561   6.314
  101CHL1    H913698   4.017   4.532   6.307
  101CHL1   C1013699   3.880   4.576   6.466
  101CHL1   C1913700   3.726   4.581   6.486
  101CHL1  H19A13701   3.681   4.483   6.461
  101CHL1  H19B13702   3.700   4.603   6.591
  101CHL1  H19C13703   3.680   4.659   6.421
  101CHL1    C113704   3.940   4.453   6.541
  101CHL1   H1A13705   3.883   4.362   6.513
  101CHL1   H1B13706   4.045   4.439   6.506
  101CHL1    C213707   3.942   4.466   6.694
  101CHL1   H2A13708   3.990   4.377   6.739
  101CHL1   H2B13709   3.837   4.472   6.731
  101CHL1   C2013710   3.830   4.513   5.760
  101CHL1   H2013711   3.737   4.572   5.744
  101CHL1   C2113712   3.791   4.368   5.792
  101CHL1  H21A13713   3.694   4.361   5.845
  101CHL1  H21B13714   3.869   4.328   5.859
  101CHL1  H21C13715   3.788   4.304   5.702
  101CHL1   C2213716   3.908   4.513   5.628
  101CHL1  H22A13717   3.967   4.607   5.618
  101CHL1  H22B13718   3.982   4.430   5.628
  101CHL1   C2313719   3.812   4.500   5.508
  101CHL1  H23A13720   3.728   4.432   5.536
  101CHL1  H23B13721   3.767   4.600   5.488
  101CHL1   C2413722   3.873   4.445   5.379
  101CHL1  H24A13723   3.902   4.338   5.395
  101CHL1  H24B13724   3.795   4.446   5.300
  101CHL1   C2513725   3.995   4.519   5.326
  101CHL1   H2513726   4.079   4.488   5.391
  101CHL1   C2613727   4.018   4.481   5.179
  101CHL1  H26A13728   4.105   4.536   5.138
  101CHL1  H26B13729   4.037   4.372   5.170
  101CHL1  H26C13730   3.930   4.507   5.118
  101CHL1   C2713731   3.994   4.672   5.340
  101CHL1  H27A13732   3.967   4.706   5.441
  101CHL1  H27B13733   4.095   4.712   5.316
  101CHL1  H27C13734   3.920   4.709   5.269
  102CHL1    C313735   2.649   4.627   6.741
  102CHL1    H313736   2.665   4.737   6.740
  102CHL1    O313737   2.645   4.580   6.875
  102CHL1   H3'13738   2.603   4.649   6.930
  102CHL1    C413739   2.517   4.590   6.675
  102CHL1   H4A13740   2.503   4.481   6.688
  102CHL1   H4B13741   2.433   4.640   6.730
  102CHL1    C513742   2.517   4.625   6.528
  102CHL1    C613743   2.430   4.712   6.476
  102CHL1    H613744   2.352   4.758   6.539
  102CHL1    C713745   2.424   4.744   6.330
  102CHL1   H7A13746   2.318   4.744   6.298
  102CHL1   H7B13747   2.465   4.846   6.310
  102CHL1    C813748   2.501   4.640   6.246
  102CHL1    H813749   2.440   4.547   6.248
  102CHL1   C1413750   2.517   4.688   6.105
  102CHL1   H1413751   2.583   4.779   6.106
  102CHL1   C1513752   2.387   4.734   6.043
  102CHL1  H15A13753   2.311   4.660   6.077
  102CHL1  H15B13754   2.361   4.837   6.072
  102CHL1   C1613755   2.406   4.721   5.895
  102CHL1  H16A13756   2.327   4.651   5.858
  102CHL1  H16B13757   2.395   4.818   5.844
  102CHL1   C1713758   2.547   4.659   5.875
  102CHL1   H1713759   2.618   4.744   5.865
  102CHL1   C1313760   2.578   4.588   6.009
  102CHL1   C1813761   2.504   4.452   6.013
  102CHL1  H18A13762   2.506   4.406   6.114
  102CHL1  H18B13763   2.398   4.462   5.984
  102CHL1  H18C13764   2.553   4.379   5.945
  102CHL1   C1213765   2.725   4.577   6.053
  102CHL1  H12A13766   2.781   4.505   5.990
  102CHL1  H12B13767   2.774   4.676   6.043
  102CHL1   C1113768   2.732   4.532   6.202
  102CHL1  H11A13769   2.704   4.425   6.202
  102CHL1  H11B13770   2.837   4.539   6.236
  102CHL1    C913771   2.640   4.612   6.300
  102CHL1    H913772   2.688   4.713   6.307
  102CHL1   C1013773   2.629   4.558   6.445
  102CHL1   C1913774   2.599   4.406   6.438
  102CHL1  H19A13775   2.683   4.350   6.392
  102CHL1  H19B13776   2.584   4.360   6.538
  102CHL1  H19C13777   2.508   4.387   6.378
  102CHL1    C113778   2.762   4.591   6.517
  102CHL1   H1A13779   2.845   4.539   6.465
  102CHL1   H1B13780   2.778   4.700   6.505
  102CHL1    C213781   2.765   4.558   6.668
  102CHL1   H2A13782   2.863   4.591   6.710
  102CHL1   H2B13783   2.756   4.448   6.681
  102CHL1   C2013784   2.547   4.579   5.746
  102CHL1   H2013785   2.483   4.488   5.759
  102CHL1   C2113786   2.689   4.533   5.709
  102CHL1  H21A13787   2.730   4.464   5.785
  102CHL1  H21B13788   2.756   4.621   5.700
  102CHL1  H21C13789   2.688   4.480   5.611
  102CHL1   C2213790   2.483   4.660   5.631
  102CHL1  H22A13791   2.385   4.705   5.660
  102CHL1  H22B13792   2.549   4.745   5.601
  102CHL1   C2313793   2.445   4.572   5.514
  102CHL1  H23A13794   2.532   4.564   5.444
  102CHL1  H23B13795   2.423   4.470   5.553
  102CHL1   C2413796   2.321   4.625   5.443
  102CHL1  H24A13797   2.231   4.618   5.508
  102CHL1  H24B13798   2.336   4.732   5.418
  102CHL1   C2513799   2.297   4.548   5.313
  102CHL1   H2513800   2.396   4.554   5.261
  102CHL1   C2613801   2.271   4.399   5.332
  102CHL1  H26A13802   2.285   4.348   5.234
  102CHL1  H26B13803   2.344   4.352   5.401
  102CHL1  H26C13804   2.168   4.381   5.368
  102CHL1   C2713805   2.189   4.615   5.227
  102CHL1  H27A13806   2.190   4.572   5.125
  102CHL1  H27B13807   2.088   4.601   5.271
  102CHL1  H27C13808   2.209   4.724   5.218
  103CHL1    C313809   2.623   2.890   6.731
  103CHL1    H313810   2.711   2.959   6.720
  103CHL1    O313811   2.590   2.876   6.868
  103CHL1   H3'13812   2.582   2.967   6.899
  103CHL1    C413813   2.501   2.943   6.656
  103CHL1   H4A13814   2.415   2.876   6.677
  103CHL1   H4B13815   2.473   3.043   6.697
  103CHL1    C513816   2.529   2.946   6.508
  103CHL1    C613817   2.521   3.059   6.440
  103CHL1    H613818   2.490   3.151   6.492
  103CHL1    C713819   2.544   3.066   6.293
  103CHL1   H7A13820   2.463   3.126   6.246
  103CHL1   H7B13821   2.641   3.116   6.271
  103CHL1    C813822   2.543   2.931   6.223
  103CHL1    H813823   2.438   2.897   6.223
  103CHL1   C1413824   2.593   2.950   6.084
  103CHL1   H1413825   2.703   2.975   6.091
  103CHL1   C1513826   2.532   3.066   6.004
  103CHL1  H15A13827   2.424   3.074   6.027
  103CHL1  H15B13828   2.583   3.162   6.027
  103CHL1   C1613829   2.553   3.023   5.859
  103CHL1  H16A13830   2.453   3.024   5.810
  103CHL1  H16B13831   2.621   3.092   5.804
  103CHL1   C1713832   2.610   2.878   5.864
  103CHL1   H1713833   2.721   2.887   5.855
  103CHL1   C1313834   2.582   2.823   6.003
  103CHL1   C1813835   2.435   2.768   6.006
  103CHL1  H18A13836   2.422   2.680   5.940
  103CHL1  H18B13837   2.404   2.735   6.106
  103CHL1  H18C13838   2.364   2.846   5.971
  103CHL1   C1213839   2.686   2.727   6.068
  103CHL1  H12A13840   2.698   2.633   6.012
  103CHL1  H12B13841   2.786   2.775   6.065
  103CHL1   C1113842   2.650   2.700   6.216
  103CHL1  H11A13843   2.558   2.638   6.215
  103CHL1  H11B13844   2.730   2.638   6.262
  103CHL1    C913845   2.629   2.831   6.297
  103CHL1    H913846   2.731   2.878   6.304
  103CHL1   C1013847   2.578   2.816   6.442
  103CHL1   C1913848   2.458   2.720   6.436
  103CHL1  H19A13849   2.385   2.750   6.358
  103CHL1  H19B13850   2.490   2.617   6.412
  103CHL1  H19C13851   2.403   2.716   6.532
  103CHL1    C113852   2.694   2.764   6.528
  103CHL1   H1A13853   2.725   2.668   6.483
  103CHL1   H1B13854   2.782   2.832   6.517
  103CHL1    C213855   2.659   2.753   6.677
  103CHL1   H2A13856   2.741   2.708   6.736
  103CHL1   H2B13857   2.567   2.691   6.688
  103CHL1   C2013858   2.559   2.799   5.745
  103CHL1   H2013859   2.448   2.793   5.748
  103CHL1   C2113860   2.615   2.656   5.751
  103CHL1  H21A13861   2.580   2.594   5.666
  103CHL1  H21B13862   2.581   2.604   5.841
  103CHL1  H21C13863   2.725   2.660   5.753
  103CHL1   C2213864   2.596   2.870   5.615
  103CHL1  H22A13865   2.529   2.958   5.602
  103CHL1  H22B13866   2.701   2.908   5.619
  103CHL1   C2313867   2.582   2.781   5.493
  103CHL1  H23A13868   2.668   2.711   5.488
  103CHL1  H23B13869   2.488   2.721   5.501
  103CHL1   C2413870   2.578   2.866   5.368
  103CHL1  H24A13871   2.486   2.928   5.375
  103CHL1  H24B13872   2.664   2.935   5.364
  103CHL1   C2513873   2.572   2.785   5.239
  103CHL1   H2513874   2.495   2.705   5.251
  103CHL1   C2613875   2.531   2.881   5.130
  103CHL1  H26A13876   2.442   2.941   5.158
  103CHL1  H26B13877   2.610   2.957   5.119
  103CHL1  H26C13878   2.511   2.830   5.033
  103CHL1   C2713879   2.708   2.720   5.204
  103CHL1  H27A13880   2.707   2.678   5.102
  103CHL1  H27B13881   2.789   2.795   5.211
  103CHL1  H27C13882   2.730   2.638   5.273
  104CHL1    C313883   6.133   4.143   6.751
  104CHL1    H313884   6.242   4.154   6.771
  104CHL1    O313885   6.063   4.134   6.873
  104CHL1   H3'13886   6.086   4.046   6.910
  104CHL1    C413887   6.081   4.267   6.676
  104CHL1   H4A13888   5.972   4.255   6.658
  104CHL1   H4B13889   6.094   4.356   6.742
  104CHL1    C513890   6.155   4.282   6.545
  104CHL1    C613891   6.225   4.393   6.520
  104CHL1    H613892   6.221   4.476   6.592
  104CHL1    C713893   6.308   4.414   6.396
  104CHL1   H7A13894   6.286   4.513   6.351
  104CHL1   H7B13895   6.415   4.414   6.426
  104CHL1    C813896   6.289   4.306   6.287
  104CHL1    H813897   6.198   4.334   6.228
  104CHL1   C1413898   6.413   4.297   6.198
  104CHL1   H1413899   6.493   4.251   6.261
  104CHL1   C1513900   6.476   4.426   6.147
  104CHL1  H15A13901   6.397   4.484   6.097
  104CHL1  H15B13902   6.524   4.486   6.226
  104CHL1   C1613903   6.574   4.377   6.041
  104CHL1  H16A13904   6.589   4.452   5.961
  104CHL1  H16B13905   6.671   4.359   6.091
  104CHL1   C1713906   6.530   4.236   5.998
  104CHL1   H1713907   6.604   4.168   6.049
  104CHL1   C1313908   6.396   4.211   6.074
  104CHL1   C1813909   6.277   4.269   5.992
  104CHL1  H18A13910   6.262   4.376   6.009
  104CHL1  H18B13911   6.290   4.261   5.884
  104CHL1  H18C13912   6.183   4.217   6.017
  104CHL1   C1213913   6.371   4.067   6.125
  104CHL1  H12A13914   6.343   4.001   6.040
  104CHL1  H12B13915   6.465   4.028   6.170
  104CHL1   C1113916   6.259   4.059   6.232
  104CHL1  H11A13917   6.162   4.069   6.178
  104CHL1  H11B13918   6.264   3.958   6.278
  104CHL1    C913919   6.268   4.166   6.345
  104CHL1    H913920   6.363   4.145   6.399
  104CHL1   C1013921   6.156   4.157   6.453
  104CHL1   C1913922   6.018   4.154   6.383
  104CHL1  H19A13923   6.005   4.240   6.314
  104CHL1  H19B13924   6.006   4.060   6.324
  104CHL1  H19C13925   5.936   4.156   6.457
  104CHL1    C113926   6.178   4.025   6.534
  104CHL1   H1A13927   6.147   3.939   6.471
  104CHL1   H1B13928   6.287   4.013   6.554
  104CHL1    C213929   6.106   4.017   6.669
  104CHL1   H2A13930   6.143   3.928   6.725
  104CHL1   H2B13931   5.997   4.006   6.653
  104CHL1   C2013932   6.541   4.203   5.847
  104CHL1   H2013933   6.448   4.228   5.794
  104CHL1   C2113934   6.561   4.053   5.840
  104CHL1  H21A13935   6.661   4.032   5.883
  104CHL1  H21B13936   6.556   4.018   5.735
  104CHL1  H21C13937   6.487   3.996   5.899
  104CHL1   C2213938   6.654   4.276   5.766
  104CHL1  H22A13939   6.633   4.385   5.762
  104CHL1  H22B13940   6.749   4.264   5.822
  104CHL1   C2313941   6.679   4.232   5.618
  104CHL1  H23A13942   6.761   4.298   5.582
  104CHL1  H23B13943   6.715   4.127   5.616
  104CHL1   C2413944   6.563   4.243   5.518
  104CHL1  H24A13945   6.482   4.174   5.551
  104CHL1  H24B13946   6.525   4.346   5.521
  104CHL1   C2513947   6.591   4.212   5.368
  104CHL1   H2513948   6.617   4.104   5.359
  104CHL1   C2613949   6.462   4.236   5.287
  104CHL1  H26A13950   6.375   4.193   5.339
  104CHL1  H26B13951   6.444   4.345   5.275
  104CHL1  H26C13952   6.468   4.191   5.186
  104CHL1   C2713953   6.706   4.294   5.308
  104CHL1  H27A13954   6.692   4.402   5.329
  104CHL1  H27B13955   6.804   4.262   5.351
  104CHL1  H27C13956   6.711   4.280   5.198
  105CHL1    C313957   6.053   3.295   6.747
  105CHL1    H313958   6.137   3.368   6.737
  105CHL1    O313959   6.019   3.281   6.883
  105CHL1   H3'13960   6.097   3.241   6.924
  105CHL1    C413961   5.931   3.347   6.668
  105CHL1   H4A13962   5.844   3.282   6.693
  105CHL1   H4B13963   5.907   3.448   6.709
  105CHL1    C513964   5.952   3.349   6.518
  105CHL1    C613965   5.931   3.460   6.446
  105CHL1    H613966   5.895   3.551   6.496
  105CHL1    C713967   5.946   3.466   6.296
  105CHL1   H7A13968   5.857   3.514   6.249
  105CHL1   H7B13969   6.034   3.529   6.271
  105CHL1    C813970   5.965   3.326   6.232
  105CHL1    H813971   5.867   3.275   6.231
  105CHL1   C1413972   6.018   3.338   6.090
  105CHL1   H1413973   6.120   3.378   6.106
  105CHL1   C1513974   5.950   3.435   5.991
  105CHL1  H15A13975   5.840   3.435   6.005
  105CHL1  H15B13976   5.987   3.538   6.006
  105CHL1   C1613977   5.989   3.382   5.852
  105CHL1  H16A13978   5.898   3.339   5.804
  105CHL1  H16B13979   6.029   3.462   5.786
  105CHL1   C1713980   6.093   3.270   5.877
  105CHL1   H1713981   6.190   3.323   5.893
  105CHL1   C1313982   6.052   3.210   6.015
  105CHL1   C1813983   5.924   3.125   6.000
  105CHL1  H18A13984   5.850   3.172   5.932
  105CHL1  H18B13985   5.949   3.025   5.959
  105CHL1  H18C13986   5.874   3.108   6.097
  105CHL1   C1213987   6.160   3.140   6.100
  105CHL1  H12A13988   6.195   3.045   6.056
  105CHL1  H12B13989   6.248   3.207   6.109
  105CHL1   C1113990   6.107   3.111   6.241
  105CHL1  H11A13991   6.023   3.039   6.233
  105CHL1  H11B13992   6.187   3.060   6.299
  105CHL1    C913993   6.061   3.240   6.315
  105CHL1    H913994   6.154   3.301   6.325
  105CHL1   C1013995   6.009   3.218   6.459
  105CHL1   C1913996   5.893   3.114   6.457
  105CHL1  H19A13997   5.929   3.015   6.422
  105CHL1  H19B13998   5.849   3.099   6.558
  105CHL1  H19C13999   5.811   3.147   6.390
  105CHL1    C114000   6.127   3.164   6.545
  105CHL1   H1A14001   6.152   3.062   6.511
  105CHL1   H1B14002   6.216   3.229   6.529
  105CHL1    C214003   6.097   3.158   6.695
  105CHL1   H2A14004   6.188   3.125   6.748
  105CHL1   H2B14005   6.015   3.085   6.713
  105CHL1   C2014006   6.114   3.172   5.761
  105CHL1   H2014007   6.037   3.092   5.771
  105CHL1   C2114008   6.254   3.107   5.774
  105CHL1  H21A14009   6.268   3.032   5.694
  105CHL1  H21B14010   6.267   3.056   5.870
  105CHL1  H21C14011   6.334   3.184   5.767
  105CHL1   C2214012   6.092   3.228   5.617
  105CHL1  H22A14013   6.083   3.139   5.551
  105CHL1  H22B14014   5.996   3.282   5.610
  105CHL1   C2314015   6.207   3.313   5.560
  105CHL1  H23A14016   6.220   3.405   5.621
  105CHL1  H23B14017   6.301   3.256   5.567
  105CHL1   C2414018   6.190   3.348   5.411
  105CHL1  H24A14019   6.279   3.407   5.381
  105CHL1  H24B14020   6.189   3.254   5.351
  105CHL1   C2514021   6.067   3.433   5.371
  105CHL1   H2514022   5.976   3.370   5.382
  105CHL1   C2614023   6.053   3.555   5.462
  105CHL1  H26A14024   6.020   3.526   5.564
  105CHL1  H26B14025   6.152   3.603   5.473
  105CHL1  H26C14026   5.981   3.628   5.420
  105CHL1   C2714027   6.078   3.475   5.224
  105CHL1  H27A14028   5.988   3.533   5.193
  105CHL1  H27B14029   6.168   3.539   5.207
  105CHL1  H27C14030   6.086   3.386   5.159
  106CHL1    C314031   1.925   2.509   6.752
  106CHL1    H314032   1.956   2.614   6.776
  106CHL1    O314033   1.895   2.441   6.873
  106CHL1   H3'14034   1.979   2.434   6.919
  106CHL1    C414035   1.799   2.510   6.666
  106CHL1   H4A14036   1.760   2.407   6.661
  106CHL1   H4B14037   1.721   2.570   6.717
  106CHL1    C514038   1.825   2.560   6.525
  106CHL1    C614039   1.763   2.668   6.478
  106CHL1    H614040   1.692   2.723   6.541
  106CHL1    C714041   1.770   2.712   6.338
  106CHL1   H7A14042   1.667   2.737   6.307
  106CHL1   H7B14043   1.832   2.803   6.327
  106CHL1    C814044   1.826   2.601   6.247
  106CHL1    H814045   1.750   2.521   6.237
  106CHL1   C1414046   1.859   2.664   6.116
  106CHL1   H1414047   1.950   2.726   6.136
  106CHL1   C1514048   1.761   2.769   6.070
  106CHL1  H15A14049   1.661   2.748   6.109
  106CHL1  H15B14050   1.796   2.869   6.105
  106CHL1   C1614051   1.764   2.758   5.920
  106CHL1  H16A14052   1.667   2.715   5.884
  106CHL1  H16B14053   1.779   2.859   5.883
  106CHL1   C1714054   1.886   2.669   5.883
  106CHL1   H1714055   1.975   2.736   5.890
  106CHL1   C1314056   1.895   2.571   6.001
  106CHL1   C1814057   1.793   2.458   5.976
  106CHL1  H18A14058   1.837   2.385   5.904
  106CHL1  H18B14059   1.769   2.402   6.068
  106CHL1  H18C14060   1.699   2.496   5.932
  106CHL1   C1214061   2.033   2.520   6.047
  106CHL1  H12A14062   2.073   2.447   5.974
  106CHL1  H12B14063   2.104   2.605   6.052
  106CHL1   C1114064   2.024   2.456   6.190
  106CHL1  H11A14065   1.970   2.360   6.176
  106CHL1  H11B14066   2.126   2.434   6.222
  106CHL1    C914067   1.954   2.543   6.301
  106CHL1    H914068   2.022   2.630   6.316
  106CHL1   C1014069   1.929   2.482   6.443
  106CHL1   C1914070   1.885   2.336   6.421
  106CHL1  H19A14071   1.852   2.285   6.513
  106CHL1  H19B14072   1.801   2.334   6.348
  106CHL1  H19C14073   1.969   2.277   6.378
  106CHL1    C114074   2.055   2.492   6.534
  106CHL1   H1A14075   2.133   2.433   6.484
  106CHL1   H1B14076   2.091   2.597   6.538
  106CHL1    C214077   2.040   2.439   6.678
  106CHL1   H2A14078   2.135   2.454   6.734
  106CHL1   H2B14079   2.020   2.330   6.673
  106CHL1   C2014080   1.874   2.622   5.736
  106CHL1   H2014081   1.799   2.541   5.730
  106CHL1   C2114082   2.009   2.565   5.688
  106CHL1  H21A14083   1.998   2.529   5.584
  106CHL1  H21B14084   2.041   2.480   5.751
  106CHL1  H21C14085   2.088   2.644   5.690
  106CHL1   C2214086   1.822   2.738   5.645
  106CHL1  H22A14087   1.715   2.756   5.666
  106CHL1  H22B14088   1.878   2.830   5.675
  106CHL1   C2314089   1.840   2.727   5.491
  106CHL1  H23A14090   1.948   2.742   5.476
  106CHL1  H23B14091   1.818   2.626   5.452
  106CHL1   C2414092   1.756   2.834   5.411
  106CHL1  H24A14093   1.651   2.800   5.409
  106CHL1  H24B14094   1.761   2.929   5.468
  106CHL1   C2514095   1.806   2.865   5.267
  106CHL1   H2514096   1.910   2.832   5.280
  106CHL1   C2614097   1.745   2.783   5.150
  106CHL1  H26A14098   1.704   2.687   5.184
  106CHL1  H26B14099   1.669   2.836   5.090
  106CHL1  H26C14100   1.823   2.761   5.076
  106CHL1   C2714101   1.818   3.013   5.229
  106CHL1  H27A14102   1.772   3.030   5.129
  106CHL1  H27B14103   1.764   3.075   5.301
  106CHL1  H27C14104   1.921   3.055   5.225
  107CHL1    C314105   4.040   6.272   6.737
  107CHL1    H314106   4.065   6.164   6.735
  107CHL1    O314107   4.027   6.311   6.872
  107CHL1   H3'14108   4.073   6.395   6.883
  107CHL1    C414109   4.155   6.352   6.674
  107CHL1   H4A14110   4.136   6.461   6.687
  107CHL1   H4B14111   4.248   6.329   6.731
  107CHL1    C514112   4.167   6.316   6.528
  107CHL1    C614113   4.279   6.259   6.480
  107CHL1    H614114   4.367   6.243   6.545
  107CHL1    C714115   4.294   6.221   6.337
  107CHL1   H7A14116   4.399   6.231   6.305
  107CHL1   H7B14117   4.264   6.115   6.321
  107CHL1    C814118   4.202   6.309   6.250
  107CHL1    H814119   4.229   6.416   6.267
  107CHL1   C1414120   4.225   6.277   6.105
  107CHL1   H1414121   4.209   6.166   6.094
  107CHL1   C1514122   4.365   6.304   6.051
  107CHL1  H15A14123   4.396   6.408   6.076
  107CHL1  H15B14124   4.439   6.233   6.093
  107CHL1   C1614125   4.345   6.286   5.901
  107CHL1  H16A14126   4.406   6.358   5.845
  107CHL1  H16B14127   4.376   6.182   5.875
  107CHL1   C1714128   4.193   6.303   5.871
  107CHL1   H1714129   4.154   6.202   5.847
  107CHL1   C1314130   4.130   6.345   6.007
  107CHL1   C1814131   4.142   6.499   6.022
  107CHL1  H18A14132   4.130   6.532   6.126
  107CHL1  H18B14133   4.241   6.536   5.986
  107CHL1  H18C14134   4.063   6.550   5.964
  107CHL1   C1214135   3.990   6.292   6.044
  107CHL1  H12A14136   3.912   6.325   5.973
  107CHL1  H12B14137   3.993   6.180   6.041
  107CHL1   C1114138   3.953   6.334   6.189
  107CHL1  H11A14139   3.941   6.444   6.188
  107CHL1  H11B14140   3.854   6.291   6.216
  107CHL1    C914141   4.058   6.288   6.295
  107CHL1    H914142   4.046   6.177   6.299
  107CHL1   C1014143   4.040   6.339   6.441
  107CHL1   C1914144   4.009   6.491   6.437
  107CHL1  H19A14145   3.914   6.510   6.385
  107CHL1  H19B14146   3.997   6.534   6.539
  107CHL1  H19C14147   4.090   6.547   6.385
  107CHL1    C114148   3.924   6.263   6.510
  107CHL1   H1A14149   3.829   6.287   6.457
  107CHL1   H1B14150   3.942   6.154   6.499
  107CHL1    C214151   3.908   6.295   6.660
  107CHL1   H2A14152   3.828   6.231   6.704
  107CHL1   H2B14153   3.877   6.401   6.673
  107CHL1   C2014154   4.171   6.395   5.748
  107CHL1   H2014155   4.215   6.495   5.772
  107CHL1   C2114156   4.020   6.413   5.724
  107CHL1  H21A14157   3.975   6.316   5.696
  107CHL1  H21B14158   4.001   6.486   5.643
  107CHL1  H21C14159   3.968   6.450   5.814
  107CHL1   C2214160   4.242   6.350   5.617
  107CHL1  H22A14161   4.351   6.336   5.636
  107CHL1  H22B14162   4.201   6.253   5.584
  107CHL1   C2314163   4.230   6.453   5.501
  107CHL1  H23A14164   4.123   6.466   5.473
  107CHL1  H23B14165   4.268   6.551   5.538
  107CHL1   C2414166   4.308   6.416   5.373
  107CHL1  H24A14167   4.412   6.393   5.405
  107CHL1  H24B14168   4.264   6.325   5.328
  107CHL1   C2514169   4.314   6.530   5.266
  107CHL1   H2514170   4.326   6.626   5.323
  107CHL1   C2614171   4.434   6.522   5.170
  107CHL1  H26A14172   4.439   6.611   5.104
  107CHL1  H26B14173   4.530   6.514   5.226
  107CHL1  H26C14174   4.423   6.432   5.104
  107CHL1   C2714175   4.187   6.539   5.180
  107CHL1  H27A14176   4.198   6.623   5.108
  107CHL1  H27B14177   4.174   6.445   5.122
  107CHL1  H27C14178   4.097   6.557   5.242
  108CHL1    C314179   6.058   2.472   6.748
  108CHL1    H314180   5.968   2.432   6.694
  108CHL1    O314181   6.047   2.436   6.884
  108CHL1   H3'14182   5.968   2.482   6.917
  108CHL1    C414183   6.186   2.409   6.694
  108CHL1   H4A14184   6.273   2.453   6.746
  108CHL1   H4B14185   6.185   2.301   6.717
  108CHL1    C514186   6.194   2.436   6.546
  108CHL1    C614187   6.199   2.333   6.461
  108CHL1    H614188   6.204   2.230   6.498
  108CHL1    C714189   6.205   2.349   6.312
  108CHL1   H7A14190   6.280   2.280   6.268
  108CHL1   H7B14191   6.104   2.323   6.273
  108CHL1    C814192   6.231   2.494   6.267
  108CHL1    H814193   6.339   2.517   6.279
  108CHL1   C1414194   6.194   2.503   6.121
  108CHL1   H1414195   6.087   2.470   6.114
  108CHL1   C1514196   6.270   2.410   6.023
  108CHL1  H15A14197   6.379   2.417   6.043
  108CHL1  H15B14198   6.238   2.304   6.033
  108CHL1   C1614199   6.237   2.470   5.886
  108CHL1  H16A14200   6.331   2.487   5.829
  108CHL1  H16B14201   6.172   2.401   5.828
  108CHL1   C1714202   6.163   2.605   5.915
  108CHL1   H1714203   6.054   2.580   5.917
  108CHL1   C1314204   6.197   2.642   6.061
  108CHL1   C1814205   6.340   2.702   6.062
  108CHL1  H18A14206   6.336   2.807   6.028
  108CHL1  H18B14207   6.383   2.701   6.164
  108CHL1  H18C14208   6.408   2.646   5.995
  108CHL1   C1214209   6.099   2.730   6.141
  108CHL1  H12A14210   6.099   2.834   6.104
  108CHL1  H12B14211   5.996   2.690   6.130
  108CHL1   C1114212   6.137   2.733   6.290
  108CHL1  H11A14213   6.234   2.785   6.301
  108CHL1  H11B14214   6.061   2.792   6.344
  108CHL1    C914215   6.146   2.590   6.350
  108CHL1    H914216   6.041   2.550   6.341
  108CHL1   C1014217   6.181   2.584   6.502
  108CHL1   C1914218   6.318   2.651   6.526
  108CHL1  H19A14219   6.398   2.600   6.468
  108CHL1  H19B14220   6.316   2.758   6.495
  108CHL1  H19C14221   6.346   2.648   6.634
  108CHL1    C114222   6.072   2.660   6.582
  108CHL1   H1A14223   6.090   2.769   6.572
  108CHL1   H1B14224   5.973   2.639   6.536
  108CHL1    C214225   6.064   2.624   6.732
  108CHL1   H2A14226   5.975   2.673   6.777
  108CHL1   H2B14227   6.154   2.662   6.784
  108CHL1   C2014228   6.185   2.711   5.809
  108CHL1   H2014229   6.290   2.748   5.811
  108CHL1   C2114230   6.092   2.828   5.841
  108CHL1  H21A14231   6.138   2.898   5.913
  108CHL1  H21B14232   5.999   2.791   5.887
  108CHL1  H21C14233   6.069   2.885   5.749
  108CHL1   C2214234   6.159   2.663   5.664
  108CHL1  H22A14235   6.159   2.752   5.597
  108CHL1  H22B14236   6.244   2.599   5.632
  108CHL1   C2314237   6.028   2.586   5.642
  108CHL1  H23A14238   6.018   2.504   5.716
  108CHL1  H23B14239   5.941   2.654   5.657
  108CHL1   C2414240   6.027   2.523   5.503
  108CHL1  H24A14241   6.055   2.599   5.427
  108CHL1  H24B14242   6.105   2.443   5.501
  108CHL1   C2514243   5.893   2.460   5.459
  108CHL1   H2514244   5.826   2.545   5.431
  108CHL1   C2614245   5.916   2.369   5.337
  108CHL1  H26A14246   5.992   2.293   5.360
  108CHL1  H26B14247   5.822   2.316   5.310
  108CHL1  H26C14248   5.949   2.429   5.249
  108CHL1   C2714249   5.822   2.381   5.570
  108CHL1  H27A14250   5.795   2.448   5.655
  108CHL1  H27B14251   5.727   2.337   5.531
  108CHL1  H27C14252   5.887   2.300   5.607
  109CHL1    C314253   2.701   6.342   6.707
  109CHL1    H314254   2.806   6.376   6.689
  109CHL1    O314255   2.679   6.331   6.846
  109CHL1   H3'14256   2.685   6.236   6.864
  109CHL1    C414257   2.605   6.443   6.638
  109CHL1   H4A14258   2.502   6.430   6.678
  109CHL1   H4B14259   2.636   6.545   6.671
  109CHL1    C514260   2.607   6.431   6.485
  109CHL1    C614261   2.630   6.533   6.402
  109CHL1    H614262   2.642   6.634   6.442
  109CHL1    C714263   2.641   6.518   6.251
  109CHL1   H7A14264   2.599   6.606   6.199
  109CHL1   H7B14265   2.747   6.514   6.220
  109CHL1    C814266   2.578   6.388   6.197
  109CHL1    H814267   2.468   6.399   6.199
  109CHL1   C1414268   2.625   6.355   6.056
  109CHL1   H1414269   2.730   6.319   6.066
  109CHL1   C1514270   2.640   6.468   5.955
  109CHL1  H15A14271   2.549   6.530   5.956
  109CHL1  H15B14272   2.727   6.533   5.978
  109CHL1   C1614273   2.662   6.390   5.824
  109CHL1  H16A14274   2.619   6.440   5.737
  109CHL1  H16B14275   2.772   6.384   5.809
  109CHL1   C1714276   2.608   6.243   5.845
  109CHL1   H1714277   2.702   6.184   5.848
  109CHL1   C1314278   2.549   6.242   5.988
  109CHL1   C1814279   2.398   6.272   5.976
  109CHL1  H18A14280   2.343   6.183   5.940
  109CHL1  H18B14281   2.352   6.300   6.072
  109CHL1  H18C14282   2.382   6.354   5.903
  109CHL1   C1214283   2.574   6.115   6.070
  109CHL1  H12A14284   2.505   6.035   6.035
  109CHL1  H12B14285   2.677   6.079   6.053
  109CHL1   C1114286   2.553   6.138   6.221
  109CHL1  H11A14287   2.443   6.134   6.236
  109CHL1  H11B14288   2.600   6.054   6.275
  109CHL1    C914289   2.613   6.268   6.281
  109CHL1    H914290   2.724   6.258   6.271
  109CHL1   C1014291   2.589   6.287   6.432
  109CHL1   C1914292   2.442   6.251   6.467
  109CHL1  H19A14293   2.414   6.149   6.437
  109CHL1  H19B14294   2.422   6.257   6.576
  109CHL1  H19C14295   2.372   6.321   6.416
  109CHL1    C114296   2.697   6.201   6.504
  109CHL1   H1A14297   2.695   6.098   6.466
  109CHL1   H1B14298   2.798   6.241   6.478
  109CHL1    C214299   2.683   6.202   6.655
  109CHL1   H2A14300   2.757   6.132   6.701
  109CHL1   H2B14301   2.581   6.166   6.683
  109CHL1   C2014302   2.521   6.177   5.735
  109CHL1   H2014303   2.413   6.203   5.746
  109CHL1   C2114304   2.533   6.024   5.751
  109CHL1  H21A14305   2.462   5.986   5.828
  109CHL1  H21B14306   2.635   5.997   5.783
  109CHL1  H21C14307   2.512   5.971   5.656
  109CHL1   C2214308   2.547   6.214   5.587
  109CHL1  H22A14309   2.495   6.139   5.524
  109CHL1  H22B14310   2.502   6.312   5.564
  109CHL1   C2314311   2.694   6.213   5.548
  109CHL1  H23A14312   2.750   6.287   5.609
  109CHL1  H23B14313   2.734   6.112   5.570
  109CHL1   C2414314   2.718   6.245   5.401
  109CHL1  H24A14315   2.665   6.170   5.339
  109CHL1  H24B14316   2.676   6.345   5.376
  109CHL1   C2514317   2.869   6.238   5.374
  109CHL1   H2514318   2.917   6.253   5.474
  109CHL1   C2614319   2.908   6.095   5.334
  109CHL1  H26A14320   2.851   6.053   5.250
  109CHL1  H26B14321   3.015   6.084   5.313
  109CHL1  H26C14322   2.891   6.030   5.421
  109CHL1   C2714323   2.928   6.353   5.288
  109CHL1  H27A14324   2.997   6.319   5.209
  109CHL1  H27B14325   2.848   6.413   5.240
  109CHL1  H27C14326   2.986   6.421   5.355
  110CHL1    C314327   1.269   5.484   6.737
  110CHL1    H314328   1.319   5.580   6.717
  110CHL1    O314329   1.260   5.457   6.877
  110CHL1   H3'14330   1.243   5.361   6.882
  110CHL1    C414331   1.135   5.510   6.668
  110CHL1   H4A14332   1.068   5.427   6.698
  110CHL1   H4B14333   1.094   5.605   6.712
  110CHL1    C514334   1.145   5.518   6.516
  110CHL1    C614335   1.095   5.616   6.441
  110CHL1    H614336   1.047   5.702   6.490
  110CHL1    C714337   1.083   5.602   6.291
  110CHL1   H7A14338   0.977   5.589   6.269
  110CHL1   H7B14339   1.101   5.695   6.239
  110CHL1    C814340   1.147   5.483   6.217
  110CHL1    H814341   1.069   5.405   6.205
  110CHL1   C1414342   1.203   5.518   6.080
  110CHL1   H1414343   1.303   5.565   6.098
  110CHL1   C1514344   1.131   5.621   5.993
  110CHL1  H15A14345   1.025   5.603   5.990
  110CHL1  H15B14346   1.142   5.725   6.028
  110CHL1   C1614347   1.192   5.600   5.855
  110CHL1  H16A14348   1.111   5.579   5.782
  110CHL1  H16B14349   1.249   5.690   5.825
  110CHL1   C1714350   1.287   5.479   5.867
  110CHL1   H1714351   1.387   5.521   5.889
  110CHL1   C1314352   1.247   5.400   5.994
  110CHL1   C1814353   1.130   5.305   5.960
  110CHL1  H18A14354   1.167   5.216   5.904
  110CHL1  H18B14355   1.080   5.266   6.050
  110CHL1  H18C14356   1.055   5.356   5.896
  110CHL1   C1214357   1.359   5.332   6.077
  110CHL1  H12A14358   1.394   5.240   6.027
  110CHL1  H12B14359   1.445   5.402   6.082
  110CHL1   C1114360   1.314   5.298   6.222
  110CHL1  H11A14361   1.235   5.221   6.215
  110CHL1  H11B14362   1.400   5.255   6.276
  110CHL1    C914363   1.258   5.422   6.298
  110CHL1    H914364   1.341   5.496   6.299
  110CHL1   C1014365   1.218   5.405   6.448
  110CHL1   C1914366   1.118   5.290   6.459
  110CHL1  H19A14367   1.096   5.265   6.565
  110CHL1  H19B14368   1.021   5.312   6.409
  110CHL1  H19C14369   1.161   5.204   6.409
  110CHL1    C114370   1.350   5.385   6.524
  110CHL1   H1A14371   1.395   5.296   6.479
  110CHL1   H1B14372   1.417   5.472   6.505
  110CHL1    C214373   1.340   5.365   6.675
  110CHL1   H2A14374   1.442   5.350   6.719
  110CHL1   H2B14375   1.281   5.274   6.696
  110CHL1   C2014376   1.300   5.405   5.735
  110CHL1   H2014377   1.201   5.362   5.708
  110CHL1   C2114378   1.401   5.295   5.758
  110CHL1  H21A14379   1.351   5.213   5.812
  110CHL1  H21B14380   1.485   5.331   5.821
  110CHL1  H21C14381   1.443   5.257   5.663
  110CHL1   C2214382   1.345   5.493   5.615
  110CHL1  H22A14383   1.311   5.597   5.626
  110CHL1  H22B14384   1.456   5.497   5.614
  110CHL1   C2314385   1.292   5.435   5.483
  110CHL1  H23A14386   1.339   5.335   5.471
  110CHL1  H23B14387   1.182   5.421   5.491
  110CHL1   C2414388   1.321   5.521   5.360
  110CHL1  H24A14389   1.270   5.619   5.373
  110CHL1  H24B14390   1.430   5.540   5.352
  110CHL1   C2514391   1.270   5.462   5.226
  110CHL1   H2514392   1.158   5.463   5.230
  110CHL1   C2614393   1.315   5.549   5.108
  110CHL1  H26A14394   1.292   5.655   5.127
  110CHL1  H26B14395   1.425   5.538   5.093
  110CHL1  H26C14396   1.264   5.517   5.015
  110CHL1   C2714397   1.315   5.317   5.205
  110CHL1  H27A14398   1.425   5.309   5.207
  110CHL1  H27B14399   1.274   5.252   5.285
  110CHL1  H27C14400   1.278   5.278   5.108
  111CHL1    C314401   3.276   0.690   6.786
  111CHL1    H314402   3.219   0.596   6.808
  111CHL1    O314403   3.276   0.769   6.904
  111CHL1   H3'14404   3.347   0.725   6.953
  111CHL1    C414405   3.421   0.658   6.750
  111CHL1   H4A14406   3.475   0.753   6.730
  111CHL1   H4B14407   3.469   0.610   6.837
  111CHL1    C514408   3.422   0.570   6.627
  111CHL1    C614409   3.473   0.447   6.632
  111CHL1    H614410   3.517   0.410   6.725
  111CHL1    C714411   3.481   0.356   6.513
  111CHL1   H7A14412   3.580   0.306   6.509
  111CHL1   H7B14413   3.403   0.278   6.522
  111CHL1    C814414   3.457   0.434   6.381
  111CHL1    H814415   3.546   0.500   6.364
  111CHL1   C1414416   3.446   0.339   6.265
  111CHL1   H1414417   3.358   0.273   6.285
  111CHL1   C1514418   3.567   0.246   6.247
  111CHL1  H15A14419   3.660   0.299   6.278
  111CHL1  H15B14420   3.555   0.154   6.307
  111CHL1   C1614421   3.568   0.217   6.097
  111CHL1  H16A14422   3.664   0.253   6.055
  111CHL1  H16B14423   3.561   0.110   6.075
  111CHL1   C1714424   3.446   0.292   6.035
  111CHL1   H1714425   3.358   0.224   6.042
  111CHL1   C1314426   3.419   0.408   6.132
  111CHL1   C1814427   3.522   0.519   6.104
  111CHL1  H18A14428   3.505   0.560   6.003
  111CHL1  H18B14429   3.516   0.603   6.174
  111CHL1  H18C14430   3.625   0.480   6.110
  111CHL1   C1214431   3.277   0.466   6.142
  111CHL1  H12A14432   3.248   0.520   6.049
  111CHL1  H12B14433   3.204   0.384   6.158
  111CHL1   C1114434   3.268   0.567   6.259
  111CHL1  H11A14435   3.318   0.659   6.225
  111CHL1  H11B14436   3.161   0.592   6.276
  111CHL1    C914437   3.330   0.518   6.394
  111CHL1    H914438   3.255   0.446   6.434
  111CHL1   C1014439   3.350   0.628   6.502
  111CHL1   C1914440   3.437   0.743   6.444
  111CHL1  H19A14441   3.531   0.706   6.399
  111CHL1  H19B14442   3.382   0.799   6.365
  111CHL1  H19C14443   3.463   0.817   6.522
  111CHL1    C114444   3.210   0.682   6.541
  111CHL1   H1A14445   3.171   0.743   6.457
  111CHL1   H1B14446   3.141   0.595   6.553
  111CHL1    C214447   3.208   0.763   6.671
  111CHL1   H2A14448   3.102   0.780   6.699
  111CHL1   H2B14449   3.258   0.862   6.654
  111CHL1   C2014450   3.470   0.318   5.886
  111CHL1   H2014451   3.568   0.371   5.876
  111CHL1   C2114452   3.365   0.410   5.819
  111CHL1  H21A14453   3.267   0.359   5.812
  111CHL1  H21B14454   3.399   0.438   5.717
  111CHL1  H21C14455   3.354   0.506   5.873
  111CHL1   C2214456   3.481   0.185   5.807
  111CHL1  H22A14457   3.567   0.125   5.846
  111CHL1  H22B14458   3.389   0.125   5.823
  111CHL1   C2314459   3.502   0.211   5.657
  111CHL1  H23A14460   3.412   0.259   5.613
  111CHL1  H23B14461   3.587   0.281   5.650
  111CHL1   C2414462   3.536   0.090   5.570
  111CHL1  H24A14463   3.609   0.025   5.623
  111CHL1  H24B14464   3.445   0.030   5.551
  111CHL1   C2514465   3.596   0.134   5.435
  111CHL1   H2514466   3.698   0.178   5.453
  111CHL1   C2614467   3.616   0.011   5.349
  111CHL1  H26A14468   3.687  -0.053   5.404
  111CHL1  H26B14469   3.521  -0.046   5.338
  111CHL1  H26C14470   3.656   0.034   5.248
  111CHL1   C2714471   3.514   0.237   5.358
  111CHL1  H27A14472   3.522   0.221   5.248
  111CHL1  H27B14473   3.407   0.237   5.388
  111CHL1  H27C14474   3.558   0.336   5.375
  112CHL1    C314475   4.651   0.716   6.754
  112CHL1    H314476   4.635   0.607   6.769
  112CHL1    O314477   4.666   0.777   6.882
  112CHL1   H3'14478   4.630   0.866   6.869
  112CHL1    C414479   4.780   0.739   6.673
  112CHL1   H4A14480   4.813   0.844   6.691
  112CHL1   H4B14481   4.858   0.674   6.717
  112CHL1    C514482   4.771   0.720   6.523
  112CHL1    C614483   4.863   0.652   6.452
  112CHL1    H614484   4.950   0.607   6.503
  112CHL1    C714485   4.866   0.648   6.302
  112CHL1   H7A14486   4.970   0.664   6.264
  112CHL1   H7B14487   4.833   0.548   6.265
  112CHL1    C814488   4.774   0.757   6.241
  112CHL1    H814489   4.821   0.856   6.258
  112CHL1   C1414490   4.764   0.738   6.091
  112CHL1   H1414491   4.723   0.635   6.076
  112CHL1   C1514492   4.895   0.744   6.010
  112CHL1  H15A14493   4.953   0.834   6.040
  112CHL1  H15B14494   4.957   0.654   6.023
  112CHL1   C1614495   4.844   0.761   5.866
  112CHL1  H16A14496   4.893   0.850   5.819
  112CHL1  H16B14497   4.865   0.672   5.804
  112CHL1   C1714498   4.690   0.785   5.878
  112CHL1   H1714499   4.641   0.685   5.870
  112CHL1   C1314500   4.666   0.832   6.021
  112CHL1   C1814501   4.713   0.980   6.031
  112CHL1  H18A14502   4.724   1.012   6.137
  112CHL1  H18B14503   4.810   0.997   5.981
  112CHL1  H18C14504   4.639   1.048   5.984
  112CHL1   C1214505   4.527   0.809   6.082
  112CHL1  H12A14506   4.450   0.875   6.038
  112CHL1  H12B14507   4.496   0.704   6.063
  112CHL1   C1114508   4.529   0.837   6.232
  112CHL1  H11A14509   4.548   0.946   6.243
  112CHL1  H11B14510   4.428   0.817   6.274
  112CHL1    C914511   4.636   0.753   6.307
  112CHL1    H914512   4.601   0.647   6.298
  112CHL1   C1014513   4.648   0.785   6.458
  112CHL1   C1914514   4.664   0.937   6.472
  112CHL1  H19A14515   4.567   0.982   6.446
  112CHL1  H19B14516   4.688   0.970   6.575
  112CHL1  H19C14517   4.742   0.978   6.405
  112CHL1    C114518   4.520   0.744   6.535
  112CHL1   H1A14519   4.433   0.799   6.494
  112CHL1   H1B14520   4.500   0.636   6.520
  112CHL1    C214521   4.526   0.776   6.686
  112CHL1   H2A14522   4.435   0.737   6.736
  112CHL1   H2B14523   4.527   0.886   6.700
  112CHL1   C2014524   4.636   0.869   5.764
  112CHL1   H2014525   4.690   0.967   5.760
  112CHL1   C2114526   4.486   0.901   5.780
  112CHL1  H21A14527   4.426   0.809   5.794
  112CHL1  H21B14528   4.445   0.956   5.693
  112CHL1  H21C14529   4.469   0.970   5.865
  112CHL1   C2214530   4.666   0.795   5.632
  112CHL1  H22A14531   4.775   0.801   5.610
  112CHL1  H22B14532   4.637   0.688   5.639
  112CHL1   C2314533   4.588   0.858   5.519
  112CHL1  H23A14534   4.481   0.830   5.528
  112CHL1  H23B14535   4.597   0.969   5.529
  112CHL1   C2414536   4.637   0.820   5.381
  112CHL1  H24A14537   4.747   0.834   5.374
  112CHL1  H24B14538   4.614   0.714   5.357
  112CHL1   C2514539   4.571   0.915   5.282
  112CHL1   H2514540   4.590   1.020   5.315
  112CHL1   C2614541   4.637   0.895   5.147
  112CHL1  H26A14542   4.658   0.789   5.129
  112CHL1  H26B14543   4.578   0.939   5.063
  112CHL1  H26C14544   4.736   0.944   5.152
  112CHL1   C2714545   4.420   0.900   5.277
  112CHL1  H27A14546   4.383   0.972   5.202
  112CHL1  H27B14547   4.389   0.797   5.251
  112CHL1  H27C14548   4.374   0.927   5.374
  113CHL1    C314549   0.589   5.023   6.733
  113CHL1    H314550   0.588   4.912   6.723
  113CHL1    O314551   0.593   5.056   6.871
  113CHL1   H3'14552   0.552   4.981   6.917
  113CHL1    C414553   0.711   5.082   6.660
  113CHL1   H4A14554   0.713   5.192   6.671
  113CHL1   H4B14555   0.804   5.050   6.710
  113CHL1    C514556   0.705   5.036   6.516
  113CHL1    C614557   0.788   4.945   6.464
  113CHL1    H614558   0.866   4.902   6.526
  113CHL1    C714559   0.784   4.900   6.321
  113CHL1   H7A14560   0.885   4.875   6.283
  113CHL1   H7B14561   0.721   4.809   6.311
  113CHL1    C814562   0.725   5.014   6.236
  113CHL1    H814563   0.794   5.100   6.248
  113CHL1   C1414564   0.711   4.974   6.089
  113CHL1   H1414565   0.626   4.902   6.084
  113CHL1   C1514566   0.829   4.905   6.019
  113CHL1  H15A14567   0.926   4.935   6.064
  113CHL1  H15B14568   0.816   4.795   6.025
  113CHL1   C1614569   0.822   4.954   5.872
  113CHL1  H16A14570   0.906   5.024   5.852
  113CHL1  H16B14571   0.826   4.871   5.799
  113CHL1   C1714572   0.687   5.027   5.862
  113CHL1   H1714573   0.610   4.946   5.858
  113CHL1   C1314574   0.676   5.091   5.999
  113CHL1   C1814575   0.785   5.199   6.013
  113CHL1  H18A14576   0.831   5.229   5.917
  113CHL1  H18B14577   0.738   5.287   6.058
  113CHL1  H18C14578   0.869   5.166   6.077
  113CHL1   C1214579   0.537   5.137   6.040
  113CHL1  H12A14580   0.506   5.228   5.985
  113CHL1  H12B14581   0.480   5.049   6.009
  113CHL1   C1114582   0.524   5.163   6.190
  113CHL1  H11A14583   0.571   5.261   6.194
  113CHL1  H11B14584   0.421   5.182   6.222
  113CHL1    C914585   0.588   5.059   6.287
  113CHL1    H914586   0.522   4.969   6.280
  113CHL1   C1014587   0.591   5.100   6.437
  113CHL1   C1914588   0.607   5.251   6.449
  113CHL1  H19A14589   0.546   5.312   6.381
  113CHL1  H19B14590   0.581   5.289   6.549
  113CHL1  H19C14591   0.713   5.275   6.429
  113CHL1    C114592   0.466   5.052   6.514
  113CHL1   H1A14593   0.379   5.102   6.471
  113CHL1   H1B14594   0.455   4.942   6.498
  113CHL1    C214595   0.462   5.077   6.667
  113CHL1   H2A14596   0.369   5.034   6.710
  113CHL1   H2B14597   0.460   5.185   6.689
  113CHL1   C2014598   0.666   5.113   5.738
  113CHL1   H2014599   0.725   5.207   5.744
  113CHL1   C2114600   0.517   5.147   5.724
  113CHL1  H21A14601   0.490   5.172   5.620
  113CHL1  H21B14602   0.488   5.233   5.788
  113CHL1  H21C14603   0.458   5.057   5.754
  113CHL1   C2214604   0.708   5.043   5.608
  113CHL1  H22A14605   0.679   5.112   5.526
  113CHL1  H22B14606   0.819   5.032   5.603
  113CHL1   C2314607   0.641   4.906   5.587
  113CHL1  H23A14608   0.669   4.835   5.666
  113CHL1  H23B14609   0.530   4.918   5.592
  113CHL1   C2414610   0.674   4.845   5.450
  113CHL1  H24A14611   0.784   4.832   5.440
  113CHL1  H24B14612   0.628   4.744   5.449
  113CHL1   C2514613   0.616   4.931   5.336
  113CHL1   H2514614   0.540   4.999   5.382
  113CHL1   C2614615   0.721   5.020   5.267
  113CHL1  H26A14616   0.802   4.958   5.223
  113CHL1  H26B14617   0.674   5.078   5.185
  113CHL1  H26C14618   0.768   5.091   5.337
  113CHL1   C2714619   0.541   4.845   5.233
  113CHL1  H27A14620   0.449   4.897   5.198
  113CHL1  H27B14621   0.607   4.827   5.145
  113CHL1  H27C14622   0.510   4.747   5.276
  114CHL1    C314623   5.383   7.166   6.753
  114CHL1    H314624   5.486   7.207   6.746
  114CHL1    O314625   5.344   7.154   6.889
  114CHL1   H3'14626   5.258   7.110   6.885
  114CHL1    C414627   5.286   7.262   6.681
  114CHL1   H4A14628   5.181   7.231   6.703
  114CHL1   H4B14629   5.299   7.362   6.728
  114CHL1    C514630   5.307   7.267   6.532
  114CHL1    C614631   5.321   7.383   6.468
  114CHL1    H614632   5.315   7.478   6.524
  114CHL1    C714633   5.329   7.394   6.319
  114CHL1   H7A14634   5.262   7.475   6.284
  114CHL1   H7B14635   5.432   7.420   6.288
  114CHL1    C814636   5.287   7.262   6.248
  114CHL1    H814637   5.176   7.254   6.254
  114CHL1   C1414638   5.328   7.272   6.104
  114CHL1   H1414639   5.441   7.276   6.104
  114CHL1   C1514640   5.282   7.399   6.032
  114CHL1  H15A14641   5.176   7.421   6.060
  114CHL1  H15B14642   5.345   7.486   6.056
  114CHL1   C1614643   5.292   7.361   5.885
  114CHL1  H16A14644   5.192   7.372   5.837
  114CHL1  H16B14645   5.366   7.424   5.832
  114CHL1   C1714646   5.336   7.211   5.881
  114CHL1   H1714647   5.446   7.210   5.883
  114CHL1   C1314648   5.293   7.152   6.017
  114CHL1   C1814649   5.141   7.128   6.011
  114CHL1  H18A14650   5.085   7.214   5.971
  114CHL1  H18B14651   5.122   7.040   5.947
  114CHL1  H18C14652   5.099   7.105   6.111
  114CHL1   C1214653   5.367   7.031   6.077
  114CHL1  H12A14654   5.347   6.938   6.019
  114CHL1  H12B14655   5.476   7.050   6.072
  114CHL1   C1114656   5.325   7.011   6.224
  114CHL1  H11A14657   5.216   6.989   6.224
  114CHL1  H11B14658   5.372   6.920   6.267
  114CHL1    C914659   5.351   7.139   6.311
  114CHL1    H914660   5.461   7.155   6.308
  114CHL1   C1014661   5.311   7.129   6.461
  114CHL1   C1914662   5.168   7.073   6.468
  114CHL1  H19A14663   5.097   7.135   6.410
  114CHL1  H19B14664   5.168   6.970   6.428
  114CHL1  H19C14665   5.130   7.067   6.572
  114CHL1    C114666   5.409   7.035   6.536
  114CHL1   H1A14667   5.401   6.934   6.492
  114CHL1   H1B14668   5.514   7.071   6.519
  114CHL1    C214669   5.381   7.027   6.687
  114CHL1   H2A14670   5.456   6.962   6.735
  114CHL1   H2B14671   5.282   6.980   6.702
  114CHL1   C2014672   5.295   7.147   5.748
  114CHL1   H2014673   5.184   7.146   5.742
  114CHL1   C2114674   5.351   7.003   5.744
  114CHL1  H21A14675   5.342   6.959   5.643
  114CHL1  H21B14676   5.296   6.937   5.814
  114CHL1  H21C14677   5.458   7.002   5.775
  114CHL1   C2214678   5.345   7.235   5.630
  114CHL1  H22A14679   5.309   7.340   5.642
  114CHL1  H22B14680   5.455   7.237   5.640
  114CHL1   C2314681   5.304   7.199   5.486
  114CHL1  H23A14682   5.383   7.237   5.417
  114CHL1  H23B14683   5.302   7.090   5.473
  114CHL1   C2414684   5.173   7.270   5.446
  114CHL1  H24A14685   5.094   7.244   5.519
  114CHL1  H24B14686   5.189   7.380   5.455
  114CHL1   C2514687   5.120   7.245   5.303
  114CHL1   H2514688   5.010   7.229   5.310
  114CHL1   C2614689   5.145   7.366   5.211
  114CHL1  H26A14690   5.101   7.458   5.254
  114CHL1  H26B14691   5.254   7.382   5.198
  114CHL1  H26C14692   5.099   7.349   5.112
  114CHL1   C2714693   5.179   7.122   5.236
  114CHL1  H27A14694   5.135   7.107   5.136
  114CHL1  H27B14695   5.289   7.131   5.225
  114CHL1  H27C14696   5.158   7.031   5.296
  115CHL1    C314697   1.871   0.696   6.742
  115CHL1    H314698   1.764   0.674   6.716
  115CHL1    O314699   1.882   0.708   6.883
  115CHL1   H3'14700   1.880   0.617   6.917
  115CHL1    C414701   1.959   0.579   6.693
  115CHL1   H4A14702   2.061   0.592   6.733
  115CHL1   H4B14703   1.919   0.485   6.737
  115CHL1    C514704   1.964   0.571   6.541
  115CHL1    C614705   1.930   0.460   6.475
  115CHL1    H614706   1.898   0.370   6.530
  115CHL1    C714707   1.943   0.447   6.326
  115CHL1   H7A14708   1.986   0.348   6.300
  115CHL1   H7B14709   1.842   0.454   6.279
  115CHL1    C814710   2.033   0.557   6.264
  115CHL1    H814711   2.138   0.535   6.295
  115CHL1   C1414712   2.025   0.553   6.114
  115CHL1   H1414713   1.918   0.576   6.088
  115CHL1   C1514714   2.059   0.421   6.045
  115CHL1  H15A14715   2.157   0.383   6.081
  115CHL1  H15B14716   1.984   0.343   6.066
  115CHL1   C1614717   2.067   0.460   5.897
  115CHL1  H16A14718   2.154   0.410   5.850
  115CHL1  H16B14719   1.975   0.433   5.842
  115CHL1   C1714720   2.080   0.616   5.895
  115CHL1   H1714721   1.977   0.655   5.874
  115CHL1   C1314722   2.108   0.658   6.040
  115CHL1   C1814723   2.259   0.637   6.069
  115CHL1  H18A14724   2.296   0.541   6.028
  115CHL1  H18B14725   2.318   0.718   6.023
  115CHL1  H18C14726   2.281   0.639   6.177
  115CHL1   C1214727   2.059   0.797   6.085
  115CHL1  H12A14728   2.122   0.876   6.040
  115CHL1  H12B14729   1.954   0.812   6.051
  115CHL1   C1114730   2.065   0.810   6.238
  115CHL1  H11A14731   2.173   0.812   6.263
  115CHL1  H11B14732   2.022   0.908   6.268
  115CHL1    C914733   1.993   0.695   6.316
  115CHL1    H914734   1.885   0.706   6.292
  115CHL1   C1014735   2.005   0.702   6.470
  115CHL1   C1914736   2.153   0.729   6.505
  115CHL1  H19A14737   2.170   0.730   6.615
  115CHL1  H19B14738   2.221   0.655   6.458
  115CHL1  H19C14739   2.181   0.830   6.469
  115CHL1    C114740   1.915   0.816   6.524
  115CHL1   H1A14741   1.947   0.913   6.480
  115CHL1   H1B14742   1.812   0.796   6.489
  115CHL1    C214743   1.911   0.828   6.677
  115CHL1   H2A14744   1.837   0.906   6.706
  115CHL1   H2B14745   2.010   0.860   6.715
  115CHL1   C2014746   2.173   0.665   5.785
  115CHL1   H2014747   2.278   0.634   5.807
  115CHL1   C2114748   2.168   0.818   5.773
  115CHL1  H21A14749   2.064   0.855   5.768
  115CHL1  H21B14750   2.221   0.851   5.681
  115CHL1  H21C14751   2.217   0.866   5.859
  115CHL1   C2214752   2.137   0.604   5.649
  115CHL1  H22A14753   2.204   0.650   5.573
  115CHL1  H22B14754   2.157   0.495   5.645
  115CHL1   C2314755   1.991   0.630   5.610
  115CHL1  H23A14756   1.928   0.545   5.643
  115CHL1  H23B14757   1.950   0.717   5.664
  115CHL1   C2414758   1.983   0.656   5.461
  115CHL1  H24A14759   2.039   0.750   5.441
  115CHL1  H24B14760   2.034   0.574   5.406
  115CHL1   C2514761   1.842   0.671   5.405
  115CHL1   H2514762   1.791   0.571   5.403
  115CHL1   C2614763   1.751   0.767   5.483
  115CHL1  H26A14764   1.650   0.772   5.437
  115CHL1  H26B14765   1.740   0.733   5.588
  115CHL1  H26C14766   1.795   0.869   5.483
  115CHL1   C2714767   1.863   0.718   5.262
  115CHL1  H27A14768   1.932   0.806   5.259
  115CHL1  H27B14769   1.904   0.637   5.197
  115CHL1  H27C14770   1.767   0.749   5.222
  116CHL1    C314771   2.588   0.318   6.729
  116CHL1    H314772   2.515   0.240   6.697
  116CHL1    O314773   2.594   0.315   6.872
  116CHL1   H3'14774   2.621   0.225   6.892
  116CHL1    C414775   2.726   0.284   6.671
  116CHL1   H4A14776   2.801   0.351   6.718
  116CHL1   H4B14777   2.752   0.182   6.705
  116CHL1    C514778   2.734   0.298   6.520
  116CHL1    C614779   2.781   0.202   6.441
  116CHL1    H614780   2.809   0.108   6.484
  116CHL1    C714781   2.811   0.217   6.296
  116CHL1   H7A14782   2.911   0.176   6.271
  116CHL1   H7B14783   2.737   0.158   6.241
  116CHL1    C814784   2.795   0.361   6.243
  116CHL1    H814785   2.885   0.421   6.265
  116CHL1   C1414786   2.782   0.352   6.094
  116CHL1   H1414787   2.700   0.279   6.074
  116CHL1   C1514788   2.904   0.299   6.021
  116CHL1  H15A14789   2.993   0.362   6.045
  116CHL1  H15B14790   2.929   0.194   6.046
  116CHL1   C1614791   2.859   0.318   5.877
  116CHL1  H16A14792   2.948   0.347   5.818
  116CHL1  H16B14793   2.816   0.222   5.840
  116CHL1   C1714794   2.742   0.422   5.876
  116CHL1   H1714795   2.650   0.359   5.868
  116CHL1   C1314796   2.740   0.479   6.019
  116CHL1   C1814797   2.848   0.589   6.030
  116CHL1  H18A14798   2.875   0.608   6.136
  116CHL1  H18B14799   2.940   0.563   5.974
  116CHL1  H18C14800   2.809   0.684   5.987
  116CHL1   C1214801   2.606   0.525   6.079
  116CHL1  H12A14802   2.572   0.617   6.030
  116CHL1  H12B14803   2.530   0.446   6.061
  116CHL1   C1114804   2.619   0.547   6.232
  116CHL1  H11A14805   2.688   0.632   6.252
  116CHL1  H11B14806   2.519   0.577   6.271
  116CHL1    C914807   2.670   0.420   6.306
  116CHL1    H914808   2.588   0.346   6.288
  116CHL1   C1014809   2.687   0.430   6.460
  116CHL1   C1914810   2.805   0.523   6.493
  116CHL1  H19A14811   2.823   0.527   6.602
  116CHL1  H19B14812   2.901   0.488   6.450
  116CHL1  H19C14813   2.788   0.626   6.455
  116CHL1    C114814   2.550   0.467   6.525
  116CHL1   H1A14815   2.522   0.569   6.494
  116CHL1   H1B14816   2.473   0.398   6.482
  116CHL1    C214817   2.541   0.455   6.679
  116CHL1   H2A14818   2.436   0.471   6.713
  116CHL1   H2B14819   2.603   0.534   6.725
  116CHL1   C2014820   2.740   0.515   5.753
  116CHL1   H2014821   2.813   0.598   5.766
  116CHL1   C2114822   2.598   0.573   5.739
  116CHL1  H21A14823   2.586   0.626   5.642
  116CHL1  H21B14824   2.579   0.646   5.820
  116CHL1  H21C14825   2.521   0.493   5.745
  116CHL1   C2214826   2.780   0.437   5.624
  116CHL1  H22A14827   2.885   0.403   5.638
  116CHL1  H22B14828   2.715   0.348   5.615
  116CHL1   C2314829   2.788   0.509   5.488
  116CHL1  H23A14830   2.686   0.535   5.451
  116CHL1  H23B14831   2.846   0.603   5.502
  116CHL1   C2414832   2.857   0.418   5.384
  116CHL1  H24A14833   2.952   0.381   5.428
  116CHL1  H24B14834   2.791   0.331   5.365
  116CHL1   C2514835   2.896   0.483   5.251
  116CHL1   H2514836   2.807   0.537   5.211
  116CHL1   C2614837   3.010   0.581   5.275
  116CHL1  H26A14838   3.035   0.622   5.175
  116CHL1  H26B14839   2.982   0.664   5.343
  116CHL1  H26C14840   3.100   0.530   5.315
  116CHL1   C2714841   2.944   0.381   5.146
  116CHL1  H27A14842   2.893   0.284   5.160
  116CHL1  H27B14843   2.922   0.418   5.043
  116CHL1  H27C14844   3.053   0.364   5.154
  117CHL1    C314845   5.428   0.326   6.728
  117CHL1    H314846   5.537   0.306   6.716
  117CHL1    O314847   5.392   0.331   6.866
  117CHL1   H3'14848   5.428   0.414   6.903
  117CHL1    C414849   5.392   0.458   6.655
  117CHL1   H4A14850   5.288   0.486   6.683
  117CHL1   H4B14851   5.458   0.538   6.695
  117CHL1    C514852   5.404   0.447   6.505
  117CHL1    C614853   5.479   0.531   6.431
  117CHL1    H614854   5.535   0.613   6.479
  117CHL1    C714855   5.485   0.525   6.280
  117CHL1   H7A14856   5.480   0.627   6.236
  117CHL1   H7B14857   5.581   0.480   6.248
  117CHL1    C814858   5.370   0.440   6.220
  117CHL1    H814859   5.274   0.495   6.232
  117CHL1   C1414860   5.394   0.415   6.073
  117CHL1   H1414861   5.493   0.361   6.067
  117CHL1   C1514862   5.410   0.539   5.983
  117CHL1  H15A14863   5.335   0.616   6.011
  117CHL1  H15B14864   5.512   0.582   5.990
  117CHL1   C1614865   5.380   0.485   5.842
  117CHL1  H16A14866   5.290   0.537   5.801
  117CHL1  H16B14867   5.465   0.500   5.773
  117CHL1   C1714868   5.347   0.333   5.860
  117CHL1   H1714869   5.445   0.280   5.859
  117CHL1   C1314870   5.294   0.322   6.004
  117CHL1   C1814871   5.150   0.381   6.012
  117CHL1  H18A14872   5.145   0.483   5.968
  117CHL1  H18B14873   5.079   0.315   5.957
  117CHL1  H18C14874   5.116   0.388   6.117
  117CHL1   C1214875   5.301   0.185   6.073
  117CHL1  H12A14876   5.226   0.115   6.032
  117CHL1  H12B14877   5.402   0.142   6.057
  117CHL1   C1114878   5.275   0.197   6.224
  117CHL1  H11A14879   5.167   0.219   6.237
  117CHL1  H11B14880   5.294   0.098   6.271
  117CHL1    C914881   5.361   0.307   6.295
  117CHL1    H914882   5.465   0.266   6.292
  117CHL1   C1014883   5.327   0.329   6.444
  117CHL1   C1914884   5.177   0.366   6.459
  117CHL1  H19A14885   5.151   0.459   6.405
  117CHL1  H19B14886   5.112   0.284   6.420
  117CHL1  H19C14887   5.148   0.379   6.565
  117CHL1    C114888   5.358   0.197   6.520
  117CHL1   H1A14889   5.286   0.120   6.486
  117CHL1   H1B14890   5.460   0.163   6.494
  117CHL1    C214891   5.347   0.210   6.672
  117CHL1   H2A14892   5.376   0.115   6.722
  117CHL1   H2B14893   5.241   0.231   6.698
  117CHL1   C2014894   5.265   0.277   5.743
  117CHL1   H2014895   5.164   0.324   5.746
  117CHL1   C2114896   5.248   0.124   5.755
  117CHL1  H21A14897   5.345   0.075   5.773
  117CHL1  H21B14898   5.204   0.082   5.662
  117CHL1  H21C14899   5.177   0.098   5.837
  117CHL1   C2214900   5.331   0.314   5.607
  117CHL1  H22A14901   5.341   0.424   5.600
  117CHL1  H22B14902   5.433   0.271   5.603
  117CHL1   C2314903   5.251   0.273   5.483
  117CHL1  H23A14904   5.302   0.321   5.396
  117CHL1  H23B14905   5.255   0.163   5.467
  117CHL1   C2414906   5.106   0.320   5.494
  117CHL1  H24A14907   5.052   0.257   5.568
  117CHL1  H24B14908   5.107   0.424   5.533
  117CHL1   C2514909   5.025   0.320   5.364
  117CHL1   H2514910   5.015   0.215   5.327
  117CHL1   C2614911   4.884   0.374   5.394
  117CHL1  H26A14912   4.889   0.469   5.451
  117CHL1  H26B14913   4.827   0.393   5.301
  117CHL1  H26C14914   4.827   0.300   5.455
  117CHL1   C2714915   5.094   0.403   5.254
  117CHL1  H27A14916   5.176   0.343   5.209
  117CHL1  H27B14917   5.022   0.431   5.174
  117CHL1  H27C14918   5.138   0.495   5.298
  118CHL1    C314919   7.435   1.595   6.749
  118CHL1    H314920   7.479   1.694   6.725
  118CHL1    O314921   7.398   1.591   6.887
  118CHL1   H3'14922   7.338   1.665   6.902
  118CHL1    C414923   7.310   1.569   6.662
  118CHL1   H4A14924   7.260   1.480   6.703
  118CHL1   H4B14925   7.240   1.655   6.677
  118CHL1    C514926   7.340   1.545   6.516
  118CHL1    C614927   7.270   1.608   6.421
  118CHL1    H614928   7.184   1.669   6.452
  118CHL1    C714929   7.298   1.596   6.275
  118CHL1   H7A14930   7.205   1.602   6.213
  118CHL1   H7B14931   7.362   1.683   6.247
  118CHL1    C814932   7.377   1.471   6.238
  118CHL1    H814933   7.310   1.382   6.247
  118CHL1   C1414934   7.429   1.486   6.097
  118CHL1   H1414935   7.497   1.573   6.102
  118CHL1   C1514936   7.330   1.524   5.984
  118CHL1  H15A14937   7.233   1.471   5.992
  118CHL1  H15B14938   7.310   1.633   5.983
  118CHL1   C1614939   7.406   1.482   5.858
  118CHL1  H16A14940   7.346   1.405   5.805
  118CHL1  H16B14941   7.421   1.565   5.787
  118CHL1   C1714942   7.542   1.420   5.905
  118CHL1   H1714943   7.614   1.503   5.917
  118CHL1   C1314944   7.514   1.370   6.046
  118CHL1   C1814945   7.425   1.246   6.034
  118CHL1  H18A14946   7.342   1.265   5.963
  118CHL1  H18B14947   7.483   1.160   5.995
  118CHL1  H18C14948   7.382   1.216   6.131
  118CHL1   C1214949   7.634   1.346   6.138
  118CHL1  H12A14950   7.680   1.249   6.111
  118CHL1  H12B14951   7.711   1.424   6.123
  118CHL1   C1114952   7.590   1.339   6.285
  118CHL1  H11A14953   7.529   1.247   6.292
  118CHL1  H11B14954   7.679   1.329   6.350
  118CHL1    C914955   7.498   1.456   6.332
  118CHL1    H914956   7.558   1.549   6.320
  118CHL1   C1014957   7.456   1.450   6.481
  118CHL1   C1914958   7.397   1.310   6.508
  118CHL1  H19A14959   7.470   1.229   6.489
  118CHL1  H19B14960   7.369   1.302   6.614
  118CHL1  H19C14961   7.305   1.292   6.447
  118CHL1    C114962   7.577   1.475   6.575
  118CHL1   H1A14963   7.649   1.391   6.566
  118CHL1   H1B14964   7.630   1.568   6.545
  118CHL1    C214965   7.540   1.487   6.725
  118CHL1   H2A14966   7.630   1.508   6.785
  118CHL1   H2B14967   7.500   1.389   6.760
  118CHL1   C2014968   7.599   1.325   5.799
  118CHL1   H2014969   7.527   1.244   5.787
  118CHL1   C2114970   7.727   1.248   5.834
  118CHL1  H21A14971   7.759   1.185   5.748
  118CHL1  H21B14972   7.710   1.178   5.918
  118CHL1  H21C14973   7.810   1.313   5.860
  118CHL1   C2214974   7.608   1.408   5.670
  118CHL1  H22A14975   7.506   1.440   5.638
  118CHL1  H22B14976   7.667   1.499   5.692
  118CHL1   C2314977   7.668   1.349   5.546
  118CHL1  H23A14978   7.774   1.320   5.561
  118CHL1  H23B14979   7.610   1.258   5.518
  118CHL1   C2414980   7.657   1.458   5.438
  118CHL1  H24A14981   7.550   1.475   5.413
  118CHL1  H24B14982   7.698   1.554   5.475
  118CHL1   C2514983   7.733   1.420   5.313
  118CHL1   H2514984   7.840   1.408   5.343
  118CHL1   C2614985   7.674   1.289   5.265
  118CHL1  H26A14986   7.717   1.257   5.168
  118CHL1  H26B14987   7.692   1.204   5.335
  118CHL1  H26C14988   7.567   1.306   5.249
  118CHL1   C2714989   7.726   1.525   5.201
  118CHL1  H27A14990   7.772   1.484   5.108
  118CHL1  H27B14991   7.621   1.553   5.180
  118CHL1  H27C14992   7.782   1.616   5.230
  119CHL1    C314993   1.202   0.262   6.744
  119CHL1    H314994   1.136   0.172   6.736
  119CHL1    O314995   1.244   0.276   6.879
  119CHL1   H3'14996   1.162   0.275   6.933
  119CHL1    C414997   1.327   0.238   6.657
  119CHL1   H4A14998   1.411   0.300   6.693
  119CHL1   H4B14999   1.360   0.133   6.675
  119CHL1    C515000   1.301   0.265   6.510
  119CHL1    C615001   1.325   0.174   6.416
  119CHL1    H615002   1.367   0.078   6.446
  119CHL1    C715003   1.306   0.200   6.269
  119CHL1   H7A15004   1.388   0.153   6.212
  119CHL1   H7B15005   1.211   0.155   6.235
  119CHL1    C815006   1.309   0.349   6.233
  119CHL1    H815007   1.412   0.386   6.250
  119CHL1   C1415008   1.269   0.370   6.087
  119CHL1   H1415009   1.163   0.335   6.079
  119CHL1   C1515010   1.346   0.296   5.974
  119CHL1  H15A15011   1.454   0.295   5.998
  119CHL1  H15B15012   1.309   0.191   5.968
  119CHL1   C1615013   1.318   0.379   5.845
  119CHL1  H16A15014   1.413   0.409   5.798
  119CHL1  H16B15015   1.260   0.317   5.773
  119CHL1   C1715016   1.233   0.501   5.895
  119CHL1   H1715017   1.131   0.457   5.890
  119CHL1   C1315018   1.271   0.515   6.043
  119CHL1   C1815019   1.416   0.571   6.049
  119CHL1  H18A15020   1.460   0.559   6.149
  119CHL1  H18B15021   1.484   0.521   5.977
  119CHL1  H18C15022   1.416   0.679   6.026
  119CHL1   C1215023   1.175   0.594   6.134
  119CHL1  H12A15024   1.180   0.701   6.107
  119CHL1  H12B15025   1.071   0.558   6.117
  119CHL1   C1115026   1.210   0.576   6.282
  119CHL1  H11A15027   1.310   0.622   6.297
  119CHL1  H11B15028   1.138   0.632   6.344
  119CHL1    C915029   1.214   0.427   6.325
  119CHL1    H915030   1.112   0.386   6.305
  119CHL1   C1015031   1.240   0.401   6.477
  119CHL1   C1915032   1.337   0.509   6.529
  119CHL1  H19A15033   1.429   0.512   6.467
  119CHL1  H19B15034   1.286   0.608   6.525
  119CHL1  H19C15035   1.366   0.495   6.634
  119CHL1    C115036   1.106   0.405   6.554
  119CHL1   H1A15037   1.056   0.503   6.535
  119CHL1   H1B15038   1.040   0.325   6.516
  119CHL1    C215039   1.122   0.387   6.707
  119CHL1   H2A15040   1.022   0.382   6.754
  119CHL1   H2B15041   1.172   0.478   6.747
  119CHL1   C2015042   1.225   0.638   5.823
  119CHL1   H2015043   1.301   0.708   5.864
  119CHL1   C2115044   1.083   0.688   5.860
  119CHL1  H21A15045   1.088   0.783   5.916
  119CHL1  H21B15046   1.021   0.616   5.916
  119CHL1  H21C15047   1.023   0.701   5.769
  119CHL1   C2215048   1.242   0.648   5.670
  119CHL1  H22A15049   1.338   0.604   5.636
  119CHL1  H22B15050   1.161   0.584   5.629
  119CHL1   C2315051   1.231   0.790   5.603
  119CHL1  H23A15052   1.252   0.873   5.672
  119CHL1  H23B15053   1.311   0.795   5.526
  119CHL1   C2415054   1.093   0.805   5.534
  119CHL1  H24A15055   1.084   0.704   5.498
  119CHL1  H24B15056   1.019   0.816   5.612
  119CHL1   C2515057   1.057   0.882   5.403
  119CHL1   H2515058   1.000   0.973   5.428
  119CHL1   C2615059   1.179   0.932   5.337
  119CHL1  H26A15060   1.224   0.860   5.266
  119CHL1  H26B15061   1.127   1.008   5.278
  119CHL1  H26C15062   1.253   0.972   5.409
  119CHL1   C2715063   0.974   0.822   5.284
  119CHL1  H27A15064   1.037   0.759   5.219
  119CHL1  H27B15065   0.882   0.766   5.310
  119CHL1  H27C15066   0.944   0.906   5.218
  120CHL1    C315067   7.351   7.565   6.720
  120CHL1    H315068   7.245   7.531   6.725
  120CHL1    O315069   7.395   7.598   6.852
  120CHL1   H3'15070   7.342   7.671   6.883
  120CHL1    C415071   7.437   7.450   6.667
  120CHL1   H4A15072   7.541   7.484   6.680
  120CHL1   H4B15073   7.426   7.361   6.732
  120CHL1    C515074   7.423   7.418   6.520
  120CHL1    C615075   7.402   7.292   6.477
  120CHL1    H615076   7.397   7.209   6.549
  120CHL1    C715077   7.410   7.254   6.332
  120CHL1   H7A15078   7.476   7.165   6.319
  120CHL1   H7B15079   7.310   7.225   6.294
  120CHL1    C815080   7.469   7.368   6.243
  120CHL1    H815081   7.578   7.372   6.257
  120CHL1   C1415082   7.444   7.337   6.097
  120CHL1   H1415083   7.333   7.333   6.087
  120CHL1   C1515084   7.488   7.200   6.044
  120CHL1  H15A15085   7.594   7.181   6.071
  120CHL1  H15B15086   7.424   7.119   6.087
  120CHL1   C1615087   7.470   7.216   5.893
  120CHL1  H16A15088   7.562   7.183   5.839
  120CHL1  H16B15089   7.384   7.156   5.856
  120CHL1   C1715090   7.444   7.368   5.869
  120CHL1   H1715091   7.334   7.382   5.880
  120CHL1   C1315092   7.496   7.439   5.996
  120CHL1   C1815093   7.650   7.442   5.993
  120CHL1  H18A15094   7.691   7.470   6.092
  120CHL1  H18B15095   7.692   7.344   5.964
  120CHL1  H18C15096   7.685   7.517   5.919
  120CHL1   C1215097   7.437   7.577   6.029
  120CHL1  H12A15098   7.487   7.655   5.968
  120CHL1  H12B15099   7.331   7.578   6.001
  120CHL1   C1115100   7.455   7.614   6.177
  120CHL1  H11A15101   7.563   7.633   6.188
  120CHL1  H11B15102   7.401   7.709   6.198
  120CHL1    C915103   7.410   7.505   6.279
  120CHL1    H915104   7.299   7.496   6.271
  120CHL1   C1015105   7.438   7.540   6.428
  120CHL1   C1915106   7.583   7.594   6.435
  120CHL1  H19A15107   7.590   7.694   6.389
  120CHL1  H19B15108   7.618   7.606   6.539
  120CHL1  H19C15109   7.654   7.526   6.385
  120CHL1    C115110   7.339   7.650   6.479
  120CHL1   H1A15111   7.352   7.741   6.417
  120CHL1   H1B15112   7.234   7.615   6.465
  120CHL1    C215113   7.360   7.688   6.628
  120CHL1   H2A15114   7.286   7.765   6.659
  120CHL1   H2B15115   7.462   7.733   6.638
  120CHL1   C2015116   7.474   7.415   5.726
  120CHL1   H2015117   7.577   7.385   5.698
  120CHL1   C2115118   7.461   7.567   5.712
  120CHL1  H21A15119   7.469   7.597   5.605
  120CHL1  H21B15120   7.540   7.619   5.769
  120CHL1  H21C15121   7.361   7.600   5.749
  120CHL1   C2215122   7.376   7.348   5.628
  120CHL1  H22A15123   7.310   7.282   5.688
  120CHL1  H22B15124   7.313   7.423   5.576
  120CHL1   C2315125   7.429   7.244   5.531
  120CHL1  H23A15126   7.502   7.180   5.585
  120CHL1  H23B15127   7.339   7.183   5.504
  120CHL1   C2415128   7.484   7.294   5.398
  120CHL1  H24A15129   7.401   7.344   5.343
  120CHL1  H24B15130   7.561   7.371   5.416
  120CHL1   C2515131   7.534   7.177   5.310
  120CHL1   H2515132   7.443   7.115   5.290
  120CHL1   C2615133   7.582   7.223   5.173
  120CHL1  H26A15134   7.679   7.277   5.178
  120CHL1  H26B15135   7.594   7.137   5.105
  120CHL1  H26C15136   7.507   7.292   5.129
  120CHL1   C2715137   7.638   7.085   5.377
  120CHL1  H27A15138   7.728   7.141   5.411
  120CHL1  H27B15139   7.596   7.035   5.467
  120CHL1  H27C15140   7.670   7.006   5.307
  121CHL1    C315141   4.314   3.843   3.246
  121CHL1    H315142   4.286   3.950   3.251
  121CHL1    O315143   4.316   3.798   3.111
  121CHL1   H3'15144   4.365   3.866   3.060
  121CHL1    C415145   4.453   3.821   3.307
  121CHL1   H4A15146   4.488   3.720   3.280
  121CHL1   H4B15147   4.523   3.893   3.258
  121CHL1    C515148   4.457   3.832   3.458
  121CHL1    C615149   4.545   3.914   3.517
  121CHL1    H615150   4.616   3.971   3.456
  121CHL1    C715151   4.560   3.924   3.665
  121CHL1   H7A15152   4.668   3.925   3.692
  121CHL1   H7B15153   4.513   4.018   3.701
  121CHL1    C815154   4.494   3.804   3.738
  121CHL1    H815155   4.560   3.717   3.719
  121CHL1   C1415156   4.485   3.833   3.885
  121CHL1   H1415157   4.403   3.909   3.899
  121CHL1   C1515158   4.607   3.895   3.947
  121CHL1  H15A15159   4.700   3.841   3.920
  121CHL1  H15B15160   4.612   3.998   3.911
  121CHL1   C1615161   4.578   3.887   4.097
  121CHL1  H16A15162   4.672   3.856   4.146
  121CHL1  H16B15163   4.543   3.984   4.138
  121CHL1   C1715164   4.465   3.783   4.113
  121CHL1   H1715165   4.370   3.838   4.133
  121CHL1   C1315166   4.452   3.717   3.975
  121CHL1   C1815167   4.569   3.615   3.970
  121CHL1  H18A15168   4.536   3.519   4.014
  121CHL1  H18B15169   4.608   3.599   3.869
  121CHL1  H18C15170   4.658   3.649   4.027
  121CHL1   C1215171   4.313   3.668   3.932
  121CHL1  H12A15172   4.290   3.570   3.978
  121CHL1  H12B15173   4.238   3.741   3.968
  121CHL1   C1115174   4.296   3.655   3.778
  121CHL1  H11A15175   4.350   3.561   3.755
  121CHL1  H11B15176   4.189   3.640   3.754
  121CHL1    C915177   4.355   3.770   3.690
  121CHL1    H915178   4.292   3.860   3.709
  121CHL1   C1015179   4.354   3.747   3.535
  121CHL1   C1915180   4.393   3.599   3.512
  121CHL1  H19A15181   4.490   3.577   3.562
  121CHL1  H19B15182   4.316   3.532   3.556
  121CHL1  H19C15183   4.401   3.571   3.406
  121CHL1    C115184   4.214   3.778   3.475
  121CHL1   H1A15185   4.138   3.713   3.522
  121CHL1   H1B15186   4.187   3.883   3.499
  121CHL1    C215187   4.210   3.759   3.321
  121CHL1   H2A15188   4.108   3.779   3.281
  121CHL1   H2B15189   4.236   3.654   3.297
  121CHL1   C2015190   4.496   3.694   4.232
  121CHL1   H2015191   4.589   3.635   4.217
  121CHL1   C2115192   4.381   3.595   4.251
  121CHL1  H21A15193   4.367   3.531   4.162
  121CHL1  H21B15194   4.289   3.654   4.271
  121CHL1  H21C15195   4.400   3.526   4.336
  121CHL1   C2215196   4.520   3.777   4.357
  121CHL1  H22A15197   4.618   3.830   4.349
  121CHL1  H22B15198   4.441   3.855   4.370
  121CHL1   C2315199   4.525   3.688   4.480
  121CHL1  H23A15200   4.421   3.661   4.507
  121CHL1  H23B15201   4.582   3.595   4.459
  121CHL1   C2415202   4.592   3.763   4.592
  121CHL1  H24A15203   4.698   3.784   4.568
  121CHL1  H24B15204   4.541   3.862   4.595
  121CHL1   C2515205   4.580   3.695   4.728
  121CHL1   H2515206   4.622   3.772   4.795
  121CHL1   C2615207   4.435   3.661   4.767
  121CHL1  H26A15208   4.369   3.749   4.751
  121CHL1  H26B15209   4.395   3.577   4.707
  121CHL1  H26C15210   4.430   3.632   4.874
  121CHL1   C2715211   4.672   3.575   4.752
  121CHL1  H27A15212   4.645   3.490   4.687
  121CHL1  H27B15213   4.777   3.607   4.734
  121CHL1  H27C15214   4.664   3.544   4.858
  122CHL1    C315215   2.659   3.801   3.273
  122CHL1    H315216   2.745   3.739   3.310
  122CHL1    O315217   2.649   3.781   3.134
  122CHL1   H3'15218   2.571   3.829   3.104
  122CHL1    C415219   2.529   3.756   3.338
  122CHL1   H4A15220   2.445   3.818   3.301
  122CHL1   H4B15221   2.509   3.651   3.306
  122CHL1    C515222   2.541   3.770   3.488
  122CHL1    C615223   2.526   3.663   3.566
  122CHL1    H615224   2.502   3.564   3.522
  122CHL1    C715225   2.535   3.672   3.714
  122CHL1   H7A15226   2.461   3.606   3.764
  122CHL1   H7B15227   2.633   3.636   3.745
  122CHL1    C815228   2.534   3.814   3.772
  122CHL1    H815229   2.430   3.853   3.768
  122CHL1   C1415230   2.581   3.804   3.915
  122CHL1   H1415231   2.684   3.760   3.913
  122CHL1   C1515232   2.497   3.713   4.005
  122CHL1  H15A15233   2.391   3.741   3.988
  122CHL1  H15B15234   2.511   3.605   3.986
  122CHL1   C1615235   2.540   3.753   4.146
  122CHL1  H16A15236   2.449   3.775   4.205
  122CHL1  H16B15237   2.598   3.673   4.196
  122CHL1   C1715238   2.627   3.882   4.129
  122CHL1   H1715239   2.733   3.848   4.125
  122CHL1   C1315240   2.595   3.937   3.988
  122CHL1   C1815241   2.460   4.011   3.993
  122CHL1  H18A15242   2.387   3.957   4.057
  122CHL1  H18B15243   2.474   4.113   4.036
  122CHL1  H18C15244   2.415   4.022   3.893
  122CHL1   C1215245   2.701   4.018   3.910
  122CHL1  H12A15246   2.717   4.117   3.956
  122CHL1  H12B15247   2.797   3.962   3.913
  122CHL1   C1115248   2.660   4.037   3.762
  122CHL1  H11A15249   2.571   4.103   3.759
  122CHL1  H11B15250   2.742   4.089   3.708
  122CHL1    C915251   2.628   3.902   3.691
  122CHL1    H915252   2.726   3.847   3.691
  122CHL1   C1015253   2.585   3.909   3.541
  122CHL1   C1915254   2.461   4.002   3.531
  122CHL1  H19A15255   2.380   3.965   3.597
  122CHL1  H19B15256   2.486   4.105   3.561
  122CHL1  H19C15257   2.422   4.005   3.428
  122CHL1    C115258   2.703   3.965   3.456
  122CHL1   H1A15259   2.721   4.072   3.481
  122CHL1   H1B15260   2.795   3.908   3.484
  122CHL1    C215261   2.685   3.949   3.304
  122CHL1   H2A15262   2.777   3.984   3.252
  122CHL1   H2B15263   2.599   4.010   3.269
  122CHL1   C2015264   2.613   3.970   4.253
  122CHL1   H2015265   2.508   4.009   4.260
  122CHL1   C2115266   2.706   4.093   4.242
  122CHL1  H21A15267   2.676   4.156   4.156
  122CHL1  H21B15268   2.811   4.061   4.229
  122CHL1  H21C15269   2.698   4.156   4.332
  122CHL1   C2215270   2.638   3.883   4.380
  122CHL1  H22A15271   2.547   3.822   4.400
  122CHL1  H22B15272   2.722   3.813   4.360
  122CHL1   C2315273   2.673   3.959   4.509
  122CHL1  H23A15274   2.768   4.014   4.491
  122CHL1  H23B15275   2.592   4.032   4.530
  122CHL1   C2415276   2.693   3.867   4.630
  122CHL1  H24A15277   2.606   3.798   4.640
  122CHL1  H24B15278   2.784   3.804   4.614
  122CHL1   C2515279   2.710   3.943   4.764
  122CHL1   H2515280   2.614   3.993   4.785
  122CHL1   C2615281   2.738   3.850   4.882
  122CHL1  H26A15282   2.653   3.782   4.902
  122CHL1  H26B15283   2.828   3.788   4.862
  122CHL1  H26C15284   2.757   3.910   4.974
  122CHL1   C2715285   2.818   4.053   4.755
  122CHL1  H27A15286   2.814   4.117   4.845
  122CHL1  H27B15287   2.919   4.007   4.746
  122CHL1  H27C15288   2.803   4.119   4.668
  123CHL1    C315289   5.194   3.860   3.263
  123CHL1    H315290   5.192   3.749   3.263
  123CHL1    O315291   5.129   3.907   3.145
  123CHL1   H3'15292   5.098   3.995   3.168
  123CHL1    C415293   5.117   3.914   3.385
  123CHL1   H4A15294   5.063   4.007   3.358
  123CHL1   H4B15295   5.036   3.839   3.401
  123CHL1    C515296   5.195   3.938   3.514
  123CHL1    C615297   5.134   3.912   3.630
  123CHL1    H615298   5.028   3.883   3.631
  123CHL1    C715299   5.199   3.928   3.764
  123CHL1   H7A15300   5.135   3.989   3.832
  123CHL1   H7B15301   5.210   3.828   3.811
  123CHL1    C815302   5.339   3.994   3.759
  123CHL1    H815303   5.326   4.104   3.753
  123CHL1   C1415304   5.414   3.958   3.885
  123CHL1   H1415305   5.422   3.846   3.884
  123CHL1   C1515306   5.348   3.993   4.020
  123CHL1  H15A15307   5.313   4.098   4.017
  123CHL1  H15B15308   5.261   3.927   4.042
  123CHL1   C1615309   5.463   3.975   4.120
  123CHL1  H16A15310   5.473   4.068   4.180
  123CHL1  H16B15311   5.447   3.889   4.188
  123CHL1   C1715312   5.592   3.952   4.034
  123CHL1   H1715313   5.605   3.842   4.021
  123CHL1   C1315314   5.557   4.009   3.895
  123CHL1   C1815315   5.558   4.164   3.898
  123CHL1  H18A15316   5.498   4.207   3.816
  123CHL1  H18B15317   5.518   4.205   3.993
  123CHL1  H18C15318   5.661   4.202   3.885
  123CHL1   C1215319   5.635   3.955   3.773
  123CHL1  H12A15320   5.739   3.992   3.771
  123CHL1  H12B15321   5.638   3.844   3.779
  123CHL1   C1115322   5.567   3.996   3.642
  123CHL1  H11A15323   5.573   4.107   3.634
  123CHL1  H11B15324   5.626   3.953   3.559
  123CHL1    C915325   5.419   3.947   3.637
  123CHL1    H915326   5.426   3.835   3.647
  123CHL1   C1015327   5.346   3.974   3.504
  123CHL1   C1915328   5.376   4.122   3.468
  123CHL1  H19A15329   5.483   4.135   3.441
  123CHL1  H19B15330   5.320   4.152   3.378
  123CHL1  H19C15331   5.351   4.191   3.550
  123CHL1    C115332   5.407   3.886   3.393
  123CHL1   H1A15333   5.513   3.916   3.385
  123CHL1   H1B15334   5.402   3.780   3.424
  123CHL1    C215335   5.339   3.906   3.257
  123CHL1   H2A15336   5.389   3.848   3.178
  123CHL1   H2B15337   5.346   4.012   3.226
  123CHL1   C2015338   5.718   4.006   4.101
  123CHL1   H2015339   5.695   4.114   4.106
  123CHL1   C2115340   5.839   4.000   4.008
  123CHL1  H21A15341   5.935   4.016   4.061
  123CHL1  H21B15342   5.830   4.081   3.935
  123CHL1  H21C15343   5.840   3.904   3.955
  123CHL1   C2215344   5.747   3.954   4.246
  123CHL1  H22A15345   5.669   4.003   4.305
  123CHL1  H22B15346   5.720   3.848   4.253
  123CHL1   C2315347   5.891   3.975   4.306
  123CHL1  H23A15348   5.965   3.914   4.252
  123CHL1  H23B15349   5.924   4.077   4.290
  123CHL1   C2415350   5.913   3.944   4.456
  123CHL1  H24A15351   5.861   4.015   4.521
  123CHL1  H24B15352   5.869   3.847   4.474
  123CHL1   C2515353   6.056   3.935   4.514
  123CHL1   H2515354   6.117   3.870   4.448
  123CHL1   C2615355   6.121   4.073   4.527
  123CHL1  H26A15356   6.059   4.138   4.593
  123CHL1  H26B15357   6.222   4.065   4.574
  123CHL1  H26C15358   6.131   4.122   4.428
  123CHL1   C2715359   6.047   3.870   4.653
  123CHL1  H27A15360   5.982   3.930   4.720
  123CHL1  H27B15361   6.003   3.768   4.646
  123CHL1  H27C15362   6.147   3.861   4.700
  124CHL1    C315363   3.569   5.261   3.261
  124CHL1    H315364   3.512   5.344   3.308
  124CHL1    O315365   3.551   5.264   3.120
  124CHL1   H3'15366   3.455   5.256   3.103
  124CHL1    C415367   3.719   5.276   3.298
  124CHL1   H4A15368   3.773   5.190   3.253
  124CHL1   H4B15369   3.760   5.367   3.250
  124CHL1    C515370   3.737   5.276   3.449
  124CHL1    C615371   3.795   5.375   3.520
  124CHL1    H615372   3.837   5.462   3.467
  124CHL1    C715373   3.811   5.370   3.670
  124CHL1   H7A15374   3.910   5.409   3.702
  124CHL1   H7B15375   3.731   5.432   3.712
  124CHL1    C815376   3.782   5.236   3.742
  124CHL1    H815377   3.873   5.175   3.729
  124CHL1   C1415378   3.739   5.250   3.891
  124CHL1   H1415379   3.636   5.295   3.888
  124CHL1   C1515380   3.813   5.344   3.985
  124CHL1  H15A15381   3.921   5.326   3.973
  124CHL1  H15B15382   3.792   5.450   3.967
  124CHL1   C1615383   3.777   5.299   4.127
  124CHL1  H16A15384   3.869   5.303   4.185
  124CHL1  H16B15385   3.704   5.367   4.175
  124CHL1   C1715386   3.719   5.155   4.120
  124CHL1   H1715387   3.610   5.169   4.137
  124CHL1   C1315388   3.728   5.117   3.967
  124CHL1   C1815389   3.857   5.036   3.944
  124CHL1  H18A15390   3.871   5.007   3.839
  124CHL1  H18B15391   3.945   5.095   3.977
  124CHL1  H18C15392   3.854   4.941   4.000
  124CHL1   C1215393   3.604   5.050   3.903
  124CHL1  H12A15394   3.591   4.948   3.944
  124CHL1  H12B15395   3.513   5.109   3.927
  124CHL1   C1115396   3.616   5.043   3.749
  124CHL1  H11A15397   3.687   4.962   3.728
  124CHL1  H11B15398   3.516   5.015   3.709
  124CHL1    C915399   3.664   5.170   3.672
  124CHL1    H915400   3.580   5.244   3.683
  124CHL1   C1015401   3.682   5.151   3.519
  124CHL1   C1915402   3.793   5.047   3.488
  124CHL1  H19A15403   3.795   4.966   3.562
  124CHL1  H19B15404   3.777   5.002   3.388
  124CHL1  H19C15405   3.895   5.091   3.490
  124CHL1    C115406   3.542   5.108   3.462
  124CHL1   H1A15407   3.527   5.001   3.488
  124CHL1   H1B15408   3.464   5.167   3.515
  124CHL1    C215409   3.518   5.126   3.311
  124CHL1   H2A15410   3.410   5.119   3.288
  124CHL1   H2B15411   3.570   5.045   3.255
  124CHL1   C2015412   3.770   5.054   4.232
  124CHL1   H2015413   3.841   4.984   4.187
  124CHL1   C2115414   3.644   4.978   4.278
  124CHL1  H21A15415   3.605   4.914   4.196
  124CHL1  H21B15416   3.563   5.048   4.308
  124CHL1  H21C15417   3.666   4.914   4.366
  124CHL1   C2215418   3.851   5.104   4.359
  124CHL1  H22A15419   3.911   5.192   4.334
  124CHL1  H22B15420   3.779   5.140   4.435
  124CHL1   C2315421   3.958   5.013   4.431
  124CHL1  H23A15422   3.902   4.949   4.502
  124CHL1  H23B15423   4.014   4.950   4.359
  124CHL1   C2415424   4.058   5.103   4.509
  124CHL1  H24A15425   4.130   5.150   4.442
  124CHL1  H24B15426   3.991   5.180   4.551
  124CHL1   C2515427   4.158   5.074   4.623
  124CHL1   H2515428   4.247   5.019   4.585
  124CHL1   C2615429   4.202   5.214   4.674
  124CHL1  H26A15430   4.272   5.209   4.760
  124CHL1  H26B15431   4.249   5.273   4.593
  124CHL1  H26C15432   4.112   5.270   4.708
  124CHL1   C2715433   4.094   5.000   4.737
  124CHL1  H27A15434   4.006   5.061   4.763
  124CHL1  H27B15435   4.060   4.899   4.706
  124CHL1  H27C15436   4.161   4.992   4.826
  125CHL1    C315437   4.296   5.257   3.222
  125CHL1    H315438   4.188   5.268   3.199
  125CHL1    O315439   4.368   5.234   3.101
  125CHL1   H3'15440   4.330   5.153   3.061
  125CHL1    C415441   4.350   5.386   3.286
  125CHL1   H4A15442   4.461   5.377   3.290
  125CHL1   H4B15443   4.330   5.470   3.216
  125CHL1    C515444   4.296   5.414   3.425
  125CHL1    C615445   4.237   5.531   3.458
  125CHL1    H615446   4.228   5.610   3.383
  125CHL1    C715447   4.192   5.566   3.598
  125CHL1   H7A15448   4.224   5.669   3.627
  125CHL1   H7B15449   4.081   5.561   3.604
  125CHL1    C815450   4.249   5.470   3.705
  125CHL1    H815451   4.358   5.490   3.716
  125CHL1   C1415452   4.185   5.499   3.842
  125CHL1   H1415453   4.074   5.495   3.825
  125CHL1   C1515454   4.212   5.637   3.907
  125CHL1  H15A15455   4.316   5.672   3.891
  125CHL1  H15B15456   4.141   5.713   3.868
  125CHL1   C1615457   4.187   5.617   4.057
  125CHL1  H16A15458   4.277   5.632   4.120
  125CHL1  H16B15459   4.112   5.690   4.089
  125CHL1   C1715460   4.137   5.471   4.069
  125CHL1   H1715461   4.030   5.480   4.042
  125CHL1   C1315462   4.211   5.396   3.951
  125CHL1   C1815463   4.362   5.393   3.981
  125CHL1  H18A15464   4.419   5.381   3.887
  125CHL1  H18B15465   4.400   5.484   4.031
  125CHL1  H18C15466   4.387   5.305   4.045
  125CHL1   C1215467   4.168   5.258   3.893
  125CHL1  H12A15468   4.184   5.175   3.965
  125CHL1  H12B15469   4.063   5.258   3.861
  125CHL1   C1115470   4.248   5.219   3.767
  125CHL1  H11A15471   4.354   5.205   3.793
  125CHL1  H11B15472   4.211   5.121   3.730
  125CHL1    C915473   4.230   5.325   3.655
  125CHL1    H915474   4.122   5.318   3.628
  125CHL1   C1015475   4.310   5.296   3.524
  125CHL1   C1915476   4.460   5.279   3.557
  125CHL1  H19A15477   4.500   5.367   3.612
  125CHL1  H19B15478   4.477   5.189   3.618
  125CHL1  H19C15479   4.521   5.267   3.465
  125CHL1    C115480   4.257   5.166   3.455
  125CHL1   H1A15481   4.280   5.079   3.520
  125CHL1   H1B15482   4.146   5.172   3.445
  125CHL1    C215483   4.317   5.137   3.315
  125CHL1   H2A15484   4.270   5.047   3.271
  125CHL1   H2B15485   4.426   5.117   3.325
  125CHL1   C2015486   4.138   5.419   4.214
  125CHL1   H2015487   4.234   5.448   4.264
  125CHL1   C2115488   4.136   5.269   4.198
  125CHL1  H21A15489   4.239   5.230   4.179
  125CHL1  H21B15490   4.067   5.239   4.118
  125CHL1  H21C15491   4.096   5.222   4.285
  125CHL1   C2215492   4.022   5.477   4.304
  125CHL1  H22A15493   4.060   5.578   4.320
  125CHL1  H22B15494   3.928   5.489   4.247
  125CHL1   C2315495   3.998   5.437   4.453
  125CHL1  H23A15496   4.059   5.350   4.479
  125CHL1  H23B15497   4.042   5.517   4.516
  125CHL1   C2415498   3.849   5.426   4.499
  125CHL1  H24A15499   3.801   5.525   4.489
  125CHL1  H24B15500   3.796   5.358   4.429
  125CHL1   C2515501   3.822   5.375   4.645
  125CHL1   H2515502   3.885   5.285   4.662
  125CHL1   C2615503   3.862   5.474   4.755
  125CHL1  H26A15504   3.774   5.533   4.788
  125CHL1  H26B15505   3.901   5.418   4.842
  125CHL1  H26C15506   3.941   5.543   4.721
  125CHL1   C2715507   3.677   5.329   4.670
  125CHL1  H27A15508   3.672   5.264   4.759
  125CHL1  H27B15509   3.611   5.417   4.688
  125CHL1  H27C15510   3.637   5.272   4.584
  126CHL1    C315511   2.575   5.163   3.236
  126CHL1    H315512   2.590   5.054   3.218
  126CHL1    O315513   2.580   5.234   3.113
  126CHL1   H3'15514   2.567   5.164   3.047
  126CHL1    C415515   2.438   5.186   3.302
  126CHL1   H4A15516   2.405   5.291   3.285
  126CHL1   H4B15517   2.365   5.123   3.247
  126CHL1    C515518   2.436   5.156   3.451
  126CHL1    C615519   2.348   5.074   3.508
  126CHL1    H615520   2.269   5.028   3.447
  126CHL1    C715521   2.348   5.043   3.654
  126CHL1   H7A15522   2.243   5.035   3.690
  126CHL1   H7B15523   2.394   4.944   3.671
  126CHL1    C815524   2.424   5.146   3.742
  126CHL1    H815525   2.360   5.236   3.753
  126CHL1   C1415526   2.457   5.087   3.878
  126CHL1   H1415527   2.540   5.014   3.860
  126CHL1   C1515528   2.349   5.001   3.944
  126CHL1  H15A15529   2.252   5.050   3.929
  126CHL1  H15B15530   2.346   4.899   3.901
  126CHL1   C1615531   2.386   5.004   4.091
  126CHL1  H16A15532   2.313   5.069   4.140
  126CHL1  H16B15533   2.386   4.903   4.138
  126CHL1   C1715534   2.520   5.080   4.102
  126CHL1   H1715535   2.592   5.001   4.074
  126CHL1   C1315536   2.514   5.181   3.984
  126CHL1   C1815537   2.416   5.297   4.018
  126CHL1  H18A15538   2.401   5.364   3.930
  126CHL1  H18B15539   2.316   5.260   4.048
  126CHL1  H18C15540   2.456   5.361   4.100
  126CHL1   C1215541   2.645   5.237   3.926
  126CHL1  H12A15542   2.683   5.320   3.989
  126CHL1  H12B15543   2.721   5.157   3.929
  126CHL1   C1115544   2.629   5.286   3.779
  126CHL1  H11A15545   2.570   5.380   3.784
  126CHL1  H11B15546   2.729   5.313   3.739
  126CHL1    C915547   2.557   5.186   3.683
  126CHL1    H915548   2.619   5.093   3.683
  126CHL1   C1015549   2.547   5.223   3.532
  126CHL1   C1915550   2.517   5.373   3.521
  126CHL1  H19A15551   2.526   5.409   3.416
  126CHL1  H19B15552   2.415   5.397   3.557
  126CHL1  H19C15553   2.589   5.434   3.580
  126CHL1    C115554   2.679   5.176   3.465
  126CHL1   H1A15555   2.764   5.216   3.522
  126CHL1   H1B15556   2.686   5.065   3.471
  126CHL1    C215557   2.692   5.216   3.318
  126CHL1   H2A15558   2.787   5.178   3.275
  126CHL1   H2B15559   2.693   5.327   3.310
  126CHL1   C2015560   2.558   5.125   4.244
  126CHL1   H2015561   2.512   5.225   4.263
  126CHL1   C2115562   2.712   5.136   4.251
  126CHL1  H21A15563   2.759   5.037   4.235
  126CHL1  H21B15564   2.747   5.168   4.351
  126CHL1  H21C15565   2.753   5.205   4.174
  126CHL1   C2215566   2.512   5.031   4.361
  126CHL1  H22A15567   2.409   4.994   4.345
  126CHL1  H22B15568   2.579   4.943   4.362
  126CHL1   C2315569   2.512   5.100   4.500
  126CHL1  H23A15570   2.598   5.171   4.504
  126CHL1  H23B15571   2.420   5.161   4.510
  126CHL1   C2415572   2.522   5.005   4.621
  126CHL1  H24A15573   2.437   4.934   4.623
  126CHL1  H24B15574   2.614   4.943   4.607
  126CHL1   C2515575   2.535   5.074   4.759
  126CHL1   H2515576   2.546   4.994   4.837
  126CHL1   C2615577   2.662   5.159   4.764
  126CHL1  H26A15578   2.642   5.256   4.715
  126CHL1  H26B15579   2.694   5.178   4.869
  126CHL1  H26C15580   2.745   5.108   4.711
  126CHL1   C2715581   2.418   5.165   4.800
  126CHL1  H27A15582   2.385   5.228   4.715
  126CHL1  H27B15583   2.332   5.107   4.837
  126CHL1  H27C15584   2.449   5.232   4.883
  127CHL1    C315585   3.420   6.466   3.258
  127CHL1    H315586   3.528   6.441   3.261
  127CHL1    O315587   3.380   6.475   3.122
  127CHL1   H3'15588   3.346   6.388   3.097
  127CHL1    C415589   3.336   6.358   3.331
  127CHL1   H4A15590   3.229   6.376   3.306
  127CHL1   H4B15591   3.362   6.260   3.285
  127CHL1    C515592   3.355   6.356   3.482
  127CHL1    C615593   3.388   6.245   3.549
  127CHL1    H615594   3.399   6.151   3.495
  127CHL1    C715595   3.404   6.240   3.699
  127CHL1   H7A15596   3.352   6.150   3.740
  127CHL1   H7B15597   3.512   6.230   3.724
  127CHL1    C815598   3.349   6.365   3.772
  127CHL1    H815599   3.238   6.357   3.775
  127CHL1   C1415600   3.403   6.373   3.914
  127CHL1   H1415601   3.514   6.387   3.901
  127CHL1   C1515602   3.391   6.249   4.003
  127CHL1  H15A15603   3.290   6.206   3.990
  127CHL1  H15B15604   3.470   6.176   3.977
  127CHL1   C1615605   3.402   6.299   4.147
  127CHL1  H16A15606   3.306   6.282   4.200
  127CHL1  H16B15607   3.482   6.247   4.204
  127CHL1   C1715608   3.430   6.450   4.129
  127CHL1   H1715609   3.539   6.458   4.106
  127CHL1   C1315610   3.357   6.490   3.999
  127CHL1   C1815611   3.203   6.487   4.022
  127CHL1  H18A15612   3.173   6.573   4.086
  127CHL1  H18B15613   3.148   6.494   3.927
  127CHL1  H18C15614   3.170   6.394   4.073
  127CHL1   C1215615   3.400   6.618   3.925
  127CHL1  H12A15616   3.359   6.708   3.976
  127CHL1  H12B15617   3.511   6.625   3.925
  127CHL1   C1115618   3.350   6.620   3.779
  127CHL1  H11A15619   3.240   6.632   3.783
  127CHL1  H11B15620   3.393   6.710   3.731
  127CHL1    C915621   3.389   6.492   3.699
  127CHL1    H915622   3.501   6.491   3.697
  127CHL1   C1015623   3.344   6.493   3.551
  127CHL1   C1915624   3.194   6.531   3.546
  127CHL1  H19A15625   3.136   6.461   3.609
  127CHL1  H19B15626   3.177   6.633   3.584
  127CHL1  H19C15627   3.153   6.528   3.443
  127CHL1    C115628   3.433   6.594   3.474
  127CHL1   H1A15629   3.424   6.695   3.520
  127CHL1   H1B15630   3.540   6.564   3.486
  127CHL1    C215631   3.402   6.603   3.324
  127CHL1   H2A15632   3.467   6.678   3.274
  127CHL1   H2B15633   3.297   6.633   3.309
  127CHL1   C2015634   3.410   6.529   4.257
  127CHL1   H2015635   3.303   6.527   4.288
  127CHL1   C2115636   3.449   6.670   4.222
  127CHL1  H21A15637   3.486   6.730   4.307
  127CHL1  H21B15638   3.355   6.718   4.185
  127CHL1  H21C15639   3.527   6.676   4.144
  127CHL1   C2215640   3.496   6.478   4.374
  127CHL1  H22A15641   3.576   6.411   4.336
  127CHL1  H22B15642   3.548   6.562   4.424
  127CHL1   C2315643   3.411   6.405   4.477
  127CHL1  H23A15644   3.348   6.478   4.533
  127CHL1  H23B15645   3.342   6.339   4.422
  127CHL1   C2415646   3.498   6.325   4.574
  127CHL1  H24A15647   3.582   6.279   4.518
  127CHL1  H24B15648   3.541   6.393   4.650
  127CHL1   C2515649   3.422   6.211   4.644
  127CHL1   H2515650   3.331   6.252   4.693
  127CHL1   C2615651   3.379   6.104   4.542
  127CHL1  H26A15652   3.305   6.145   4.472
  127CHL1  H26B15653   3.467   6.068   4.484
  127CHL1  H26C15654   3.334   6.018   4.595
  127CHL1   C2715655   3.509   6.146   4.751
  127CHL1  H27A15656   3.453   6.069   4.807
  127CHL1  H27B15657   3.599   6.100   4.706
  127CHL1  H27C15658   3.542   6.224   4.824
  128CHL1    C315659   2.058   1.737   3.259
  128CHL1    H315660   1.954   1.757   3.295
  128CHL1    O315661   2.057   1.737   3.116
  128CHL1   H3'15662   2.000   1.661   3.093
  128CHL1    C415663   2.152   1.847   3.310
  128CHL1   H4A15664   2.254   1.829   3.271
  128CHL1   H4B15665   2.118   1.944   3.267
  128CHL1    C515666   2.150   1.850   3.461
  128CHL1    C615667   2.112   1.960   3.527
  128CHL1    H615668   2.095   2.052   3.471
  128CHL1    C715669   2.094   1.967   3.675
  128CHL1   H7A15670   2.121   2.066   3.717
  128CHL1   H7B15671   1.988   1.947   3.698
  128CHL1    C815672   2.176   1.860   3.747
  128CHL1    H815673   2.283   1.889   3.739
  128CHL1   C1415674   2.131   1.853   3.892
  128CHL1   H1415675   2.026   1.815   3.891
  128CHL1   C1515676   2.125   1.983   3.976
  128CHL1  H15A15677   2.213   2.048   3.955
  128CHL1  H15B15678   2.033   2.041   3.955
  128CHL1   C1615679   2.130   1.931   4.121
  128CHL1  H16A15680   2.216   1.977   4.173
  128CHL1  H16B15681   2.037   1.956   4.177
  128CHL1   C1715682   2.148   1.776   4.109
  128CHL1   H1715683   2.045   1.733   4.104
  128CHL1   C1315684   2.212   1.756   3.973
  128CHL1   C1815685   2.358   1.806   3.980
  128CHL1  H18A15686   2.405   1.804   3.880
  128CHL1  H18B15687   2.369   1.909   4.019
  128CHL1  H18C15688   2.418   1.740   4.046
  128CHL1   C1215689   2.202   1.614   3.913
  128CHL1  H12A15690   2.278   1.547   3.959
  128CHL1  H12B15691   2.101   1.574   3.932
  128CHL1   C1115692   2.232   1.613   3.763
  128CHL1  H11A15693   2.342   1.630   3.756
  128CHL1  H11B15694   2.210   1.512   3.723
  128CHL1    C915695   2.156   1.722   3.684
  128CHL1    H915696   2.047   1.699   3.697
  128CHL1   C1015697   2.183   1.718   3.531
  128CHL1   C1915698   2.333   1.697   3.509
  128CHL1  H19A15699   2.391   1.780   3.555
  128CHL1  H19B15700   2.369   1.601   3.552
  128CHL1  H19C15701   2.358   1.693   3.402
  128CHL1    C115702   2.104   1.601   3.467
  128CHL1   H1A15703   2.147   1.507   3.506
  128CHL1   H1B15704   1.998   1.606   3.503
  128CHL1    C215705   2.103   1.600   3.313
  128CHL1   H2A15706   2.034   1.520   3.278
  128CHL1   H2B15707   2.204   1.578   3.274
  128CHL1   C2015708   2.220   1.710   4.224
  128CHL1   H2015709   2.326   1.744   4.227
  128CHL1   C2115710   2.220   1.557   4.212
  128CHL1  H21A15711   2.225   1.514   4.313
  128CHL1  H21B15712   2.309   1.522   4.157
  128CHL1  H21C15713   2.128   1.520   4.163
  128CHL1   C2215714   2.159   1.748   4.358
  128CHL1  H22A15715   2.085   1.830   4.351
  128CHL1  H22B15716   2.106   1.661   4.403
  128CHL1   C2315717   2.272   1.793   4.449
  128CHL1  H23A15718   2.349   1.714   4.460
  128CHL1  H23B15719   2.323   1.882   4.404
  128CHL1   C2415720   2.214   1.828   4.582
  128CHL1  H24A15721   2.131   1.900   4.564
  128CHL1  H24B15722   2.171   1.739   4.633
  128CHL1   C2515723   2.320   1.895   4.669
  128CHL1   H2515724   2.411   1.918   4.608
  128CHL1   C2615725   2.261   2.027   4.712
  128CHL1  H26A15726   2.255   2.100   4.629
  128CHL1  H26B15727   2.158   2.011   4.751
  128CHL1  H26C15728   2.324   2.068   4.792
  128CHL1   C2715729   2.360   1.805   4.786
  128CHL1  H27A15730   2.411   1.714   4.749
  128CHL1  H27B15731   2.428   1.859   4.856
  128CHL1  H27C15732   2.269   1.774   4.842
  129CHL1    C315733   5.724   6.004   3.260
  129CHL1    H315734   5.781   5.911   3.240
  129CHL1    O315735   5.642   6.030   3.148
  129CHL1   H3'15736   5.697   6.018   3.069
  129CHL1    C415737   5.633   5.986   3.381
  129CHL1   H4A15738   5.562   6.071   3.387
  129CHL1   H4B15739   5.569   5.896   3.360
  129CHL1    C515740   5.711   5.972   3.509
  129CHL1    C615741   5.697   5.863   3.585
  129CHL1    H615742   5.626   5.784   3.558
  129CHL1    C715743   5.777   5.844   3.709
  129CHL1   H7A15744   5.722   5.782   3.784
  129CHL1   H7B15745   5.867   5.790   3.680
  129CHL1    C815746   5.833   5.973   3.769
  129CHL1    H815747   5.747   6.029   3.812
  129CHL1   C1415748   5.937   5.938   3.874
  129CHL1   H1415749   6.027   5.902   3.819
  129CHL1   C1515750   5.906   5.825   3.973
  129CHL1  H15A15751   5.799   5.820   3.999
  129CHL1  H15B15752   5.937   5.728   3.928
  129CHL1   C1615753   5.991   5.860   4.095
  129CHL1  H16A15754   5.925   5.869   4.184
  129CHL1  H16B15755   6.069   5.783   4.112
  129CHL1   C1715756   6.064   5.992   4.066
  129CHL1   H1715757   6.156   5.966   4.016
  129CHL1   C1315758   5.985   6.057   3.953
  129CHL1   C1815759   5.867   6.121   4.022
  129CHL1  H18A15760   5.802   6.050   4.077
  129CHL1  H18B15761   5.911   6.190   4.096
  129CHL1  H18C15762   5.806   6.178   3.950
  129CHL1   C1215763   6.061   6.147   3.853
  129CHL1  H12A15764   6.097   6.240   3.900
  129CHL1  H12B15765   6.149   6.088   3.819
  129CHL1   C1115766   5.976   6.180   3.727
  129CHL1  H11A15767   5.902   6.256   3.760
  129CHL1  H11B15768   6.042   6.228   3.652
  129CHL1    C915769   5.903   6.057   3.663
  129CHL1    H915770   5.985   5.992   3.624
  129CHL1   C1015771   5.813   6.085   3.539
  129CHL1   C1915772   5.735   6.217   3.562
  129CHL1  H19A15773   5.664   6.238   3.480
  129CHL1  H19B15774   5.678   6.212   3.657
  129CHL1  H19C15775   5.804   6.303   3.567
  129CHL1    C115776   5.903   6.097   3.412
  129CHL1   H1A15777   5.974   6.181   3.427
  129CHL1   H1B15778   5.962   6.003   3.402
  129CHL1    C215779   5.825   6.118   3.281
  129CHL1   H2A15780   5.895   6.123   3.196
  129CHL1   H2B15781   5.770   6.215   3.285
  129CHL1   C2015782   6.111   6.061   4.196
  129CHL1   H2015783   6.025   6.082   4.262
  129CHL1   C2115784   6.188   6.190   4.166
  129CHL1  H21A15785   6.278   6.163   4.107
  129CHL1  H21B15786   6.221   6.239   4.260
  129CHL1  H21C15787   6.126   6.263   4.109
  129CHL1   C2215788   6.211   5.965   4.266
  129CHL1  H22A15789   6.168   5.863   4.277
  129CHL1  H22B15790   6.298   5.958   4.197
  129CHL1   C2315791   6.267   6.003   4.404
  129CHL1  H23A15792   6.330   5.917   4.436
  129CHL1  H23B15793   6.333   6.091   4.396
  129CHL1   C2415794   6.159   6.031   4.508
  129CHL1  H24A15795   6.100   6.120   4.476
  129CHL1  H24B15796   6.089   5.944   4.512
  129CHL1   C2515797   6.216   6.058   4.648
  129CHL1   H2515798   6.282   6.147   4.644
  129CHL1   C2615799   6.101   6.086   4.743
  129CHL1  H26A15800   6.039   5.994   4.753
  129CHL1  H26B15801   6.134   6.116   4.844
  129CHL1  H26C15802   6.035   6.165   4.701
  129CHL1   C2715803   6.293   5.939   4.703
  129CHL1  H27A15804   6.228   5.849   4.707
  129CHL1  H27B15805   6.384   5.917   4.644
  129CHL1  H27C15806   6.326   5.961   4.806
  130CHL1    C315807   2.597   6.526   3.268
  130CHL1    H315808   2.505   6.566   3.318
  130CHL1    O315809   2.573   6.533   3.128
  130CHL1   H3'15810   2.659   6.545   3.086
  130CHL1    C415811   2.720   6.609   3.310
  130CHL1   H4A15812   2.812   6.559   3.274
  130CHL1   H4B15813   2.716   6.709   3.262
  130CHL1    C515814   2.720   6.618   3.462
  130CHL1    C615815   2.709   6.737   3.522
  130CHL1    H615816   2.710   6.829   3.461
  130CHL1    C715817   2.695   6.756   3.670
  130CHL1   H7A15818   2.762   6.837   3.708
  130CHL1   H7B15819   2.591   6.787   3.691
  130CHL1    C815820   2.722   6.627   3.751
  130CHL1    H815821   2.832   6.615   3.763
  130CHL1   C1415822   2.655   6.639   3.887
  130CHL1   H1415823   2.545   6.641   3.866
  130CHL1   C1515824   2.682   6.765   3.969
  130CHL1  H15A15825   2.790   6.785   3.964
  130CHL1  H15B15826   2.626   6.854   3.932
  130CHL1   C1615827   2.641   6.725   4.112
  130CHL1  H16A15828   2.727   6.743   4.179
  130CHL1  H16B15829   2.555   6.785   4.148
  130CHL1   C1715830   2.605   6.573   4.107
  130CHL1   H1715831   2.496   6.567   4.086
  130CHL1   C1315832   2.677   6.521   3.981
  130CHL1   C1815833   2.828   6.504   4.014
  130CHL1  H18A15834   2.843   6.419   4.083
  130CHL1  H18B15835   2.888   6.482   3.923
  130CHL1  H18C15836   2.870   6.593   4.062
  130CHL1   C1215837   2.616   6.399   3.911
  130CHL1  H12A15838   2.632   6.309   3.972
  130CHL1  H12B15839   2.507   6.414   3.900
  130CHL1   C1115840   2.678   6.376   3.772
  130CHL1  H11A15841   2.785   6.350   3.785
  130CHL1  H11B15842   2.628   6.289   3.725
  130CHL1    C915843   2.666   6.502   3.682
  130CHL1    H915844   2.556   6.521   3.675
  130CHL1   C1015845   2.714   6.482   3.536
  130CHL1   C1915846   2.858   6.425   3.539
  130CHL1  H19A15847   2.859   6.323   3.583
  130CHL1  H19B15848   2.900   6.415   3.436
  130CHL1  H19C15849   2.925   6.489   3.599
  130CHL1    C115850   2.620   6.379   3.468
  130CHL1   H1A15851   2.645   6.276   3.502
  130CHL1   H1B15852   2.516   6.400   3.500
  130CHL1    C215853   2.619   6.382   3.314
  130CHL1   H2A15854   2.538   6.316   3.275
  130CHL1   H2B15855   2.715   6.343   3.275
  130CHL1   C2015856   2.631   6.501   4.239
  130CHL1   H2015857   2.741   6.494   4.254
  130CHL1   C2115858   2.572   6.359   4.239
  130CHL1  H21A15859   2.576   6.315   4.342
  130CHL1  H21B15860   2.630   6.292   4.174
  130CHL1  H21C15861   2.466   6.360   4.207
  130CHL1   C2215862   2.578   6.575   4.363
  130CHL1  H22A15863   2.573   6.685   4.350
  130CHL1  H22B15864   2.474   6.541   4.385
  130CHL1   C2315865   2.669   6.548   4.483
  130CHL1  H23A15866   2.696   6.440   4.486
  130CHL1  H23B15867   2.764   6.605   4.468
  130CHL1   C2415868   2.605   6.589   4.615
  130CHL1  H24A15869   2.568   6.693   4.607
  130CHL1  H24B15870   2.516   6.524   4.634
  130CHL1   C2515871   2.704   6.579   4.732
  130CHL1   H2515872   2.794   6.637   4.705
  130CHL1   C2615873   2.642   6.640   4.856
  130CHL1  H26A15874   2.550   6.585   4.884
  130CHL1  H26B15875   2.712   6.640   4.942
  130CHL1  H26C15876   2.613   6.745   4.834
  130CHL1   C2715877   2.749   6.435   4.760
  130CHL1  H27A15878   2.799   6.431   4.859
  130CHL1  H27B15879   2.663   6.367   4.761
  130CHL1  H27C15880   2.820   6.401   4.682
  131CHL1    C315881   0.896   5.124   3.277
  131CHL1    H315882   0.928   5.018   3.272
  131CHL1    O315883   0.860   5.169   3.148
  131CHL1   H3'15884   0.941   5.166   3.097
  131CHL1    C415885   0.775   5.132   3.371
  131CHL1   H4A15886   0.725   5.231   3.362
  131CHL1   H4B15887   0.699   5.059   3.336
  131CHL1    C515888   0.815   5.107   3.514
  131CHL1    C615889   0.760   5.011   3.589
  131CHL1    H615890   0.681   4.946   3.547
  131CHL1    C715891   0.795   4.992   3.733
  131CHL1   H7A15892   0.705   4.961   3.790
  131CHL1   H7B15893   0.870   4.910   3.740
  131CHL1    C815894   0.857   5.121   3.795
  131CHL1    H815895   0.778   5.199   3.797
  131CHL1   C1415896   0.908   5.095   3.934
  131CHL1   H1415897   0.990   5.019   3.924
  131CHL1   C1515898   0.805   5.032   4.023
  131CHL1  H15A15899   0.704   5.079   4.012
  131CHL1  H15B15900   0.801   4.932   3.981
  131CHL1   C1615901   0.861   5.047   4.163
  131CHL1  H16A15902   0.781   5.091   4.227
  131CHL1  H16B15903   0.896   4.952   4.207
  131CHL1   C1715904   0.982   5.143   4.153
  131CHL1   H1715905   1.073   5.079   4.146
  131CHL1   C1315906   0.967   5.209   4.013
  131CHL1   C1815907   0.860   5.320   4.024
  131CHL1  H18A15908   0.762   5.283   4.059
  131CHL1  H18B15909   0.892   5.393   4.099
  131CHL1  H18C15910   0.845   5.371   3.926
  131CHL1   C1215911   1.094   5.249   3.935
  131CHL1  H12A15912   1.138   5.341   3.978
  131CHL1  H12B15913   1.169   5.167   3.944
  131CHL1   C1115914   1.064   5.272   3.784
  131CHL1  H11A15915   1.014   5.369   3.781
  131CHL1  H11B15916   1.160   5.282   3.729
  131CHL1    C915917   0.974   5.166   3.711
  131CHL1    H915918   1.039   5.075   3.702
  131CHL1   C1015919   0.926   5.199   3.567
  131CHL1   C1915920   0.859   5.339   3.562
  131CHL1  H19A15921   0.915   5.414   3.619
  131CHL1  H19B15922   0.852   5.377   3.458
  131CHL1  H19C15923   0.757   5.337   3.605
  131CHL1    C115924   1.047   5.181   3.471
  131CHL1   H1A15925   1.132   5.245   3.505
  131CHL1   H1B15926   1.081   5.075   3.479
  131CHL1    C215927   1.016   5.208   3.324
  131CHL1   H2A15928   1.105   5.182   3.263
  131CHL1   H2B15929   0.994   5.315   3.307
  131CHL1   C2015930   0.993   5.226   4.282
  131CHL1   H2015931   0.902   5.290   4.292
  131CHL1   C2115932   1.115   5.320   4.273
  131CHL1  H21A15933   1.105   5.391   4.189
  131CHL1  H21B15934   1.208   5.261   4.260
  131CHL1  H21C15935   1.124   5.379   4.367
  131CHL1   C2215936   1.004   5.140   4.411
  131CHL1  H22A15937   1.054   5.043   4.388
  131CHL1  H22B15938   1.070   5.194   4.482
  131CHL1   C2315939   0.872   5.114   4.487
  131CHL1  H23A15940   0.813   5.208   4.494
  131CHL1  H23B15941   0.812   5.040   4.431
  131CHL1   C2415942   0.896   5.061   4.630
  131CHL1  H24A15943   0.957   4.969   4.622
  131CHL1  H24B15944   0.954   5.135   4.689
  131CHL1   C2515945   0.767   5.023   4.705
  131CHL1   H2515946   0.696   5.110   4.702
  131CHL1   C2615947   0.704   4.904   4.633
  131CHL1  H26A15948   0.636   4.939   4.552
  131CHL1  H26B15949   0.782   4.839   4.590
  131CHL1  H26C15950   0.647   4.840   4.703
  131CHL1   C2715951   0.792   4.988   4.853
  131CHL1  H27A15952   0.849   4.893   4.861
  131CHL1  H27B15953   0.848   5.068   4.904
  131CHL1  H27C15954   0.695   4.975   4.906
  132CHL1    C315955   3.812   7.098   3.265
  132CHL1    H315956   3.783   7.204   3.283
  132CHL1    O315957   3.809   7.071   3.124
  132CHL1   H3'15958   3.745   7.131   3.082
  132CHL1    C415959   3.955   7.074   3.318
  132CHL1   H4A15960   3.988   6.974   3.281
  132CHL1   H4B15961   4.022   7.148   3.268
  132CHL1    C515962   3.969   7.079   3.469
  132CHL1    C615963   4.058   7.159   3.530
  132CHL1    H615964   4.125   7.221   3.469
  132CHL1    C715965   4.080   7.165   3.679
  132CHL1   H7A15966   4.188   7.163   3.703
  132CHL1   H7B15967   4.039   7.261   3.718
  132CHL1    C815968   4.011   7.050   3.757
  132CHL1    H815969   4.072   6.958   3.744
  132CHL1   C1415970   4.002   7.084   3.906
  132CHL1   H1415971   3.934   7.174   3.910
  132CHL1   C1515972   4.128   7.129   3.980
  132CHL1  H15A15973   4.211   7.058   3.961
  132CHL1  H15B15974   4.160   7.231   3.950
  132CHL1   C1615975   4.086   7.123   4.128
  132CHL1  H16A15976   4.164   7.069   4.186
  132CHL1  H16B15977   4.075   7.225   4.171
  132CHL1   C1715978   3.949   7.049   4.134
  132CHL1   H1715979   3.871   7.128   4.135
  132CHL1   C1315980   3.935   6.980   3.996
  132CHL1   C1815981   4.012   6.846   3.996
  132CHL1  H18A15982   4.022   6.805   3.893
  132CHL1  H18B15983   4.114   6.858   4.039
  132CHL1  H18C15984   3.957   6.771   4.057
  132CHL1   C1215985   3.793   6.963   3.941
  132CHL1  H12A15986   3.734   6.888   3.998
  132CHL1  H12B15987   3.745   7.062   3.953
  132CHL1   C1115988   3.789   6.926   3.791
  132CHL1  H11A15989   3.829   6.823   3.781
  132CHL1  H11B15990   3.683   6.926   3.758
  132CHL1    C915991   3.870   7.025   3.701
  132CHL1    H915992   3.817   7.123   3.711
  132CHL1   C1015993   3.868   6.993   3.548
  132CHL1   C1915994   3.907   6.845   3.530
  132CHL1  H19A15995   3.830   6.778   3.573
  132CHL1  H19B15996   3.915   6.818   3.422
  132CHL1  H19C15997   4.004   6.823   3.579
  132CHL1    C115998   3.725   7.019   3.490
  132CHL1   H1A15999   3.655   6.947   3.537
  132CHL1   H1B16000   3.693   7.121   3.520
  132CHL1    C216001   3.712   7.006   3.337
  132CHL1   H2A16002   3.609   7.032   3.305
  132CHL1   H2B16003   3.731   6.901   3.307
  132CHL1   C2016004   3.932   6.968   4.264
  132CHL1   H2016005   4.009   6.887   4.265
  132CHL1   C2116006   3.794   6.901   4.274
  132CHL1  H21A16007   3.784   6.843   4.368
  132CHL1  H21B16008   3.775   6.831   4.190
  132CHL1  H21C16009   3.717   6.980   4.273
  132CHL1   C2216010   3.955   7.053   4.392
  132CHL1  H22A16011   3.963   6.983   4.479
  132CHL1  H22B16012   4.053   7.105   4.385
  132CHL1   C2316013   3.846   7.158   4.425
  132CHL1  H23A16014   3.821   7.214   4.333
  132CHL1  H23B16015   3.753   7.107   4.459
  132CHL1   C2416016   3.891   7.261   4.531
  132CHL1  H24A16017   3.984   7.310   4.493
  132CHL1  H24B16018   3.815   7.341   4.539
  132CHL1   C2516019   3.920   7.205   4.672
  132CHL1   H2516020   3.987   7.117   4.661
  132CHL1   C2616021   3.994   7.312   4.754
  132CHL1  H26A16022   4.021   7.271   4.854
  132CHL1  H26B16023   4.087   7.343   4.703
  132CHL1  H26C16024   3.930   7.401   4.769
  132CHL1   C2716025   3.793   7.159   4.747
  132CHL1  H27A16026   3.736   7.085   4.687
  132CHL1  H27B16027   3.820   7.112   4.843
  132CHL1  H27C16028   3.727   7.246   4.769
  133CHL1    C316029   0.896   2.436   3.243
  133CHL1    H316030   0.971   2.354   3.230
  133CHL1    O316031   0.848   2.477   3.116
  133CHL1   H3'16032   0.911   2.440   3.051
  133CHL1    C416033   0.776   2.384   3.324
  133CHL1   H4A16034   0.698   2.462   3.317
  133CHL1   H4B16035   0.737   2.295   3.271
  133CHL1    C516036   0.801   2.358   3.471
  133CHL1    C616037   0.767   2.241   3.527
  133CHL1    H616038   0.719   2.163   3.466
  133CHL1    C716039   0.780   2.213   3.673
  133CHL1   H7A16040   0.685   2.169   3.713
  133CHL1   H7B16041   0.861   2.139   3.691
  133CHL1    C816042   0.810   2.341   3.755
  133CHL1    H816043   0.715   2.398   3.764
  133CHL1   C1416044   0.856   2.301   3.892
  133CHL1   H1416045   0.954   2.248   3.878
  133CHL1   C1516046   0.767   2.203   3.970
  133CHL1  H15A16047   0.662   2.238   3.968
  133CHL1  H15B16048   0.771   2.099   3.930
  133CHL1   C1616049   0.824   2.212   4.111
  133CHL1  H16A16050   0.741   2.223   4.183
  133CHL1  H16B16051   0.883   2.122   4.137
  133CHL1   C1716052   0.918   2.337   4.111
  133CHL1   H1716053   1.022   2.299   4.096
  133CHL1   C1316054   0.885   2.417   3.986
  133CHL1   C1816055   0.758   2.503   4.014
  133CHL1  H18A16056   0.679   2.443   4.064
  133CHL1  H18B16057   0.782   2.588   4.080
  133CHL1  H18C16058   0.717   2.544   3.920
  133CHL1   C1216059   0.999   2.499   3.924
  133CHL1  H12A16060   1.024   2.587   3.986
  133CHL1  H12B16061   1.089   2.435   3.920
  133CHL1   C1116062   0.963   2.545   3.781
  133CHL1  H11A16063   0.884   2.622   3.793
  133CHL1  H11B16064   1.051   2.595   3.736
  133CHL1    C916065   0.916   2.429   3.688
  133CHL1    H916066   1.005   2.363   3.675
  133CHL1   C1016067   0.873   2.472   3.546
  133CHL1   C1916068   0.777   2.593   3.561
  133CHL1  H19A16069   0.699   2.566   3.634
  133CHL1  H19B16070   0.829   2.683   3.598
  133CHL1  H19C16071   0.727   2.621   3.467
  133CHL1    C116072   0.995   2.515   3.461
  133CHL1   H1A16073   1.047   2.600   3.511
  133CHL1   H1B16074   1.065   2.428   3.457
  133CHL1    C216075   0.961   2.554   3.315
  133CHL1   H2A16076   1.053   2.586   3.261
  133CHL1   H2B16077   0.891   2.639   3.317
  133CHL1   C2016078   0.915   2.406   4.246
  133CHL1   H2016079   0.811   2.438   4.271
  133CHL1   C2116080   1.006   2.530   4.251
  133CHL1  H21A16081   1.010   2.575   4.352
  133CHL1  H21B16082   0.967   2.609   4.183
  133CHL1  H21C16083   1.109   2.504   4.220
  133CHL1   C2216084   0.960   2.304   4.349
  133CHL1  H22A16085   0.889   2.218   4.352
  133CHL1  H22B16086   1.061   2.263   4.325
  133CHL1   C2316087   0.959   2.362   4.488
  133CHL1  H23A16088   1.052   2.422   4.504
  133CHL1  H23B16089   0.872   2.430   4.498
  133CHL1   C2416090   0.948   2.246   4.586
  133CHL1  H24A16091   0.846   2.203   4.578
  133CHL1  H24B16092   1.022   2.167   4.560
  133CHL1   C2516093   0.972   2.293   4.728
  133CHL1   H2516094   0.957   2.204   4.792
  133CHL1   C2616095   1.119   2.339   4.743
  133CHL1  H26A16096   1.131   2.445   4.717
  133CHL1  H26B16097   1.156   2.323   4.846
  133CHL1  H26C16098   1.184   2.281   4.673
  133CHL1   C2716099   0.864   2.399   4.759
  133CHL1  H27A16100   0.881   2.493   4.703
  133CHL1  H27B16101   0.763   2.362   4.730
  133CHL1  H27C16102   0.861   2.424   4.866
  134CHL1    C316103   6.921   2.518   3.242
  134CHL1    H316104   7.007   2.446   3.247
  134CHL1    O316105   6.874   2.523   3.109
  134CHL1   H3'16106   6.839   2.433   3.092
  134CHL1    C416107   6.806   2.471   3.331
  134CHL1   H4A16108   6.724   2.546   3.327
  134CHL1   H4B16109   6.764   2.376   3.291
  134CHL1    C516110   6.858   2.456   3.472
  134CHL1    C616111   6.860   2.335   3.528
  134CHL1    H616112   6.817   2.248   3.475
  134CHL1    C716113   6.911   2.313   3.666
  134CHL1   H7A16114   6.844   2.245   3.719
  134CHL1   H7B16115   7.013   2.267   3.663
  134CHL1    C816116   6.916   2.443   3.749
  134CHL1    H816117   6.810   2.472   3.769
  134CHL1   C1416118   6.987   2.417   3.879
  134CHL1   H1416119   7.093   2.392   3.853
  134CHL1   C1516120   6.936   2.297   3.958
  134CHL1  H15A16121   6.825   2.298   3.959
  134CHL1  H15B16122   6.971   2.203   3.911
  134CHL1   C1616123   6.991   2.320   4.098
  134CHL1  H16A16124   6.906   2.310   4.169
  134CHL1  H16B16125   7.071   2.250   4.127
  134CHL1   C1716126   7.051   2.464   4.099
  134CHL1   H1716127   7.160   2.452   4.078
  134CHL1   C1316128   6.991   2.534   3.975
  134CHL1   C1816129   6.849   2.583   4.013
  134CHL1  H18A16130   6.790   2.503   4.063
  134CHL1  H18B16131   6.855   2.670   4.081
  134CHL1  H18C16132   6.792   2.616   3.924
  134CHL1   C1216133   7.074   2.643   3.904
  134CHL1  H12A16134   7.078   2.735   3.966
  134CHL1  H12B16135   7.177   2.606   3.890
  134CHL1   C1116136   7.013   2.678   3.766
  134CHL1  H11A16137   6.917   2.730   3.788
  134CHL1  H11B16138   7.078   2.751   3.714
  134CHL1    C916139   6.986   2.555   3.673
  134CHL1    H916140   7.087   2.514   3.648
  134CHL1   C1016141   6.916   2.584   3.538
  134CHL1   C1916142   6.797   2.679   3.566
  134CHL1  H19A16143   6.736   2.698   3.475
  134CHL1  H19B16144   6.731   2.636   3.644
  134CHL1  H19C16145   6.833   2.779   3.599
  134CHL1    C116146   7.017   2.649   3.439
  134CHL1   H1A16147   7.040   2.751   3.475
  134CHL1   H1B16148   7.112   2.590   3.441
  134CHL1    C216149   6.969   2.656   3.292
  134CHL1   H2A16150   7.051   2.695   3.227
  134CHL1   H2B16151   6.884   2.727   3.287
  134CHL1   C2016152   7.037   2.527   4.238
  134CHL1   H2016153   6.930   2.552   4.257
  134CHL1   C2116154   7.120   2.656   4.246
  134CHL1  H21A16155   7.113   2.702   4.346
  134CHL1  H21B16156   7.085   2.732   4.173
  134CHL1  H21C16157   7.227   2.632   4.227
  134CHL1   C2216158   7.080   2.429   4.349
  134CHL1  H22A16159   7.016   2.338   4.346
  134CHL1  H22B16160   7.185   2.396   4.332
  134CHL1   C2316161   7.065   2.484   4.490
  134CHL1  H23A16162   7.146   2.557   4.512
  134CHL1  H23B16163   6.967   2.537   4.499
  134CHL1   C2416164   7.068   2.370   4.592
  134CHL1  H24A16165   6.984   2.299   4.574
  134CHL1  H24B16166   7.163   2.314   4.577
  134CHL1   C2516167   7.062   2.419   4.737
  134CHL1   H2516168   7.142   2.497   4.748
  134CHL1   C2616169   6.927   2.479   4.777
  134CHL1  H26A16170   6.931   2.516   4.882
  134CHL1  H26B16171   6.900   2.564   4.711
  134CHL1  H26C16172   6.847   2.402   4.770
  134CHL1   C2716173   7.095   2.304   4.832
  134CHL1  H27A16174   7.125   2.346   4.930
  134CHL1  H27B16175   7.009   2.236   4.846
  134CHL1  H27C16176   7.180   2.245   4.791
  135CHL1    C316177   7.205   3.220   3.266
  135CHL1    H316178   7.265   3.128   3.282
  135CHL1    O316179   7.182   3.233   3.127
  135CHL1   H3'16180   7.126   3.158   3.106
  135CHL1    C416181   7.070   3.208   3.339
  135CHL1   H4A16182   7.010   3.298   3.314
  135CHL1   H4B16183   7.014   3.121   3.297
  135CHL1    C516184   7.086   3.197   3.489
  135CHL1    C616185   7.038   3.092   3.557
  135CHL1    H616186   6.984   3.013   3.504
  135CHL1    C716187   7.048   3.077   3.707
  135CHL1   H7A16188   6.949   3.050   3.749
  135CHL1   H7B16189   7.118   2.994   3.730
  135CHL1    C816190   7.099   3.205   3.779
  135CHL1    H816191   7.013   3.276   3.788
  135CHL1   C1416192   7.150   3.169   3.918
  135CHL1   H1416193   7.237   3.101   3.901
  135CHL1   C1516194   7.056   3.088   4.010
  135CHL1  H15A16195   6.953   3.132   4.006
  135CHL1  H15B16196   7.051   2.982   3.981
  135CHL1   C1616197   7.115   3.109   4.150
  135CHL1  H16A16198   7.037   3.154   4.214
  135CHL1  H16B16199   7.148   3.013   4.196
  135CHL1   C1716200   7.235   3.208   4.134
  135CHL1   H1716201   7.324   3.144   4.111
  135CHL1   C1316202   7.204   3.284   4.003
  135CHL1   C1816203   7.093   3.389   4.033
  135CHL1  H18A16204   7.135   3.472   4.092
  135CHL1  H18B16205   7.052   3.431   3.939
  135CHL1  H18C16206   7.008   3.344   4.089
  135CHL1   C1216207   7.321   3.346   3.923
  135CHL1  H12A16208   7.360   3.437   3.974
  135CHL1  H12B16209   7.403   3.272   3.916
  135CHL1   C1116210   7.278   3.387   3.780
  135CHL1  H11A16211   7.208   3.473   3.790
  135CHL1  H11B16212   7.368   3.424   3.726
  135CHL1    C916213   7.211   3.273   3.699
  135CHL1    H916214   7.289   3.194   3.688
  135CHL1   C1016215   7.168   3.310   3.554
  135CHL1   C1916216   7.078   3.435   3.557
  135CHL1  H19A16217   6.990   3.421   3.622
  135CHL1  H19B16218   7.138   3.519   3.595
  135CHL1  H19C16219   7.044   3.463   3.455
  135CHL1    C116220   7.295   3.344   3.469
  135CHL1   H1A16221   7.331   3.445   3.499
  135CHL1   H1B16222   7.374   3.272   3.493
  135CHL1    C216223   7.280   3.343   3.316
  135CHL1   H2A16224   7.381   3.345   3.268
  135CHL1   H2B16225   7.226   3.435   3.283
  135CHL1   C2016226   7.269   3.285   4.263
  135CHL1   H2016227   7.186   3.354   4.289
  135CHL1   C2116228   7.397   3.368   4.243
  135CHL1  H21A16229   7.432   3.410   4.339
  135CHL1  H21B16230   7.377   3.455   4.176
  135CHL1  H21C16231   7.478   3.306   4.199
  135CHL1   C2216232   7.290   3.191   4.386
  135CHL1  H22A16233   7.321   3.091   4.351
  135CHL1  H22B16234   7.373   3.230   4.448
  135CHL1   C2316235   7.167   3.178   4.478
  135CHL1  H23A16236   7.157   3.271   4.539
  135CHL1  H23B16237   7.076   3.171   4.416
  135CHL1   C2416238   7.174   3.055   4.571
  135CHL1  H24A16239   7.196   2.965   4.510
  135CHL1  H24B16240   7.259   3.069   4.642
  135CHL1   C2516241   7.045   3.030   4.652
  135CHL1   H2516242   7.019   3.125   4.705
  135CHL1   C2616243   6.927   2.991   4.561
  135CHL1  H26A16244   6.903   3.073   4.490
  135CHL1  H26B16245   6.952   2.900   4.503
  135CHL1  H26C16246   6.836   2.971   4.622
  135CHL1   C2716247   7.066   2.921   4.758
  135CHL1  H27A16248   6.973   2.906   4.817
  135CHL1  H27B16249   7.092   2.824   4.710
  135CHL1  H27C16250   7.148   2.949   4.828
  136CHL1    C316251   5.528   0.469   3.273
  136CHL1    H316252   5.422   0.485   3.304
  136CHL1    O316253   5.534   0.451   3.133
  136CHL1   H3'16254   5.537   0.541   3.099
  136CHL1    C416255   5.612   0.592   3.306
  136CHL1   H4A16256   5.717   0.574   3.272
  136CHL1   H4B16257   5.574   0.678   3.246
  136CHL1    C516258   5.609   0.622   3.454
  136CHL1    C616259   5.570   0.742   3.499
  136CHL1    H616260   5.548   0.823   3.428
  136CHL1    C716261   5.559   0.776   3.645
  136CHL1   H7A16262   5.608   0.874   3.666
  136CHL1   H7B16263   5.452   0.787   3.670
  136CHL1    C816264   5.621   0.669   3.738
  136CHL1    H816265   5.730   0.687   3.742
  136CHL1   C1416266   5.560   0.682   3.875
  136CHL1   H1416267   5.450   0.660   3.862
  136CHL1   C1516268   5.564   0.819   3.943
  136CHL1  H15A16269   5.669   0.853   3.948
  136CHL1  H15B16270   5.503   0.896   3.892
  136CHL1   C1616271   5.512   0.786   4.083
  136CHL1  H16A16272   5.560   0.852   4.157
  136CHL1  H16B16273   5.402   0.803   4.087
  136CHL1   C1716274   5.537   0.632   4.104
  136CHL1   H1716275   5.436   0.585   4.102
  136CHL1   C1316276   5.611   0.582   3.978
  136CHL1   C1816277   5.764   0.595   3.995
  136CHL1  H18A16278   5.803   0.521   4.067
  136CHL1  H18B16279   5.819   0.580   3.900
  136CHL1  H18C16280   5.791   0.696   4.031
  136CHL1   C1216281   5.573   0.441   3.929
  136CHL1  H12A16282   5.611   0.363   3.998
  136CHL1  H12B16283   5.463   0.433   3.924
  136CHL1   C1116284   5.631   0.415   3.789
  136CHL1  H11A16285   5.741   0.406   3.797
  136CHL1  H11B16286   5.593   0.317   3.755
  136CHL1    C916287   5.592   0.527   3.688
  136CHL1    H916288   5.480   0.521   3.682
  136CHL1   C1016289   5.642   0.502   3.544
  136CHL1   C1916290   5.797   0.492   3.547
  136CHL1  H19A16291   5.841   0.581   3.595
  136CHL1  H19B16292   5.831   0.402   3.602
  136CHL1  H19C16293   5.839   0.485   3.444
  136CHL1    C116294   5.580   0.367   3.495
  136CHL1   H1A16295   5.631   0.283   3.546
  136CHL1   H1B16296   5.473   0.366   3.525
  136CHL1    C216297   5.583   0.345   3.343
  136CHL1   H2A16298   5.522   0.256   3.318
  136CHL1   H2B16299   5.687   0.326   3.310
  136CHL1   C2016300   5.600   0.596   4.237
  136CHL1   H2016301   5.707   0.627   4.238
  136CHL1   C2116302   5.592   0.442   4.258
  136CHL1  H21A16303   5.614   0.414   4.363
  136CHL1  H21B16304   5.667   0.390   4.196
  136CHL1  H21C16305   5.491   0.405   4.233
  136CHL1   C2216306   5.536   0.667   4.358
  136CHL1  H22A16307   5.511   0.773   4.338
  136CHL1  H22B16308   5.442   0.615   4.385
  136CHL1   C2316309   5.639   0.668   4.470
  136CHL1  H23A16310   5.676   0.565   4.490
  136CHL1  H23B16311   5.724   0.727   4.429
  136CHL1   C2416312   5.594   0.731   4.602
  136CHL1  H24A16313   5.675   0.717   4.677
  136CHL1  H24B16314   5.580   0.840   4.588
  136CHL1   C2516315   5.465   0.668   4.657
  136CHL1   H2516316   5.385   0.676   4.580
  136CHL1   C2616317   5.484   0.520   4.694
  136CHL1  H26A16318   5.565   0.509   4.769
  136CHL1  H26B16319   5.390   0.479   4.737
  136CHL1  H26C16320   5.510   0.459   4.605
  136CHL1   C2716321   5.420   0.748   4.778
  136CHL1  H27A16322   5.334   0.700   4.829
  136CHL1  H27B16323   5.506   0.754   4.849
  136CHL1  H27C16324   5.392   0.852   4.750
  137CHL1    C316325   0.402   1.714   3.272
  137CHL1    H316326   0.366   1.609   3.274
  137CHL1    O316327   0.402   1.755   3.138
  137CHL1   H3'16328   0.457   1.834   3.140
  137CHL1    C416329   0.309   1.807   3.351
  137CHL1   H4A16330   0.340   1.913   3.335
  137CHL1   H4B16331   0.206   1.797   3.310
  137CHL1    C516332   0.315   1.774   3.498
  137CHL1    C616333   0.203   1.743   3.566
  137CHL1    H616334   0.106   1.744   3.514
  137CHL1    C716335   0.200   1.709   3.712
  137CHL1   H7A16336   0.112   1.757   3.761
  137CHL1   H7B16337   0.191   1.599   3.726
  137CHL1    C816338   0.330   1.757   3.780
  137CHL1    H816339   0.324   1.866   3.786
  137CHL1   C1416340   0.341   1.702   3.920
  137CHL1   H1416341   0.367   1.594   3.905
  137CHL1   C1516342   0.216   1.695   4.010
  137CHL1  H15A16343   0.149   1.782   3.997
  137CHL1  H15B16344   0.159   1.602   3.988
  137CHL1   C1616345   0.274   1.692   4.152
  137CHL1  H16A16346   0.238   1.780   4.209
  137CHL1  H16B16347   0.245   1.599   4.206
  137CHL1   C1716348   0.429   1.697   4.135
  137CHL1   H1716349   0.458   1.597   4.104
  137CHL1   C1316350   0.458   1.761   4.000
  137CHL1   C1816351   0.448   1.913   4.018
  137CHL1  H18A16352   0.349   1.940   4.059
  137CHL1  H18B16353   0.527   1.952   4.085
  137CHL1  H18C16354   0.463   1.961   3.920
  137CHL1   C1216355   0.588   1.717   3.930
  137CHL1  H12A16356   0.676   1.765   3.976
  137CHL1  H12B16357   0.599   1.606   3.938
  137CHL1   C1116358   0.588   1.756   3.782
  137CHL1  H11A16359   0.605   1.865   3.785
  137CHL1  H11B16360   0.675   1.709   3.731
  137CHL1    C916361   0.457   1.718   3.704
  137CHL1    H916362   0.454   1.607   3.698
  137CHL1   C1016363   0.458   1.768   3.558
  137CHL1   C1916364   0.522   1.907   3.559
  137CHL1  H19A16365   0.502   1.963   3.466
  137CHL1  H19B16366   0.483   1.962   3.647
  137CHL1  H19C16367   0.632   1.901   3.569
  137CHL1    C116368   0.552   1.681   3.471
  137CHL1   H1A16369   0.656   1.694   3.507
  137CHL1   H1B16370   0.525   1.575   3.483
  137CHL1    C216371   0.547   1.721   3.322
  137CHL1   H2A16372   0.611   1.653   3.262
  137CHL1   H2B16373   0.585   1.824   3.309
  137CHL1   C2016374   0.507   1.737   4.262
  137CHL1   H2016375   0.504   1.847   4.273
  137CHL1   C2116376   0.654   1.692   4.250
  137CHL1  H21A16377   0.661   1.583   4.229
  137CHL1  H21B16378   0.710   1.714   4.342
  137CHL1  H21C16379   0.706   1.747   4.170
  137CHL1   C2216380   0.442   1.679   4.392
  137CHL1  H22A16381   0.347   1.734   4.411
  137CHL1  H22B16382   0.414   1.573   4.375
  137CHL1   C2316383   0.526   1.684   4.522
  137CHL1  H23A16384   0.620   1.626   4.508
  137CHL1  H23B16385   0.551   1.788   4.547
  137CHL1   C2416386   0.448   1.616   4.635
  137CHL1  H24A16387   0.347   1.662   4.641
  137CHL1  H24B16388   0.438   1.512   4.599
  137CHL1   C2516389   0.510   1.615   4.778
  137CHL1   H2516390   0.563   1.712   4.792
  137CHL1   C2616391   0.401   1.603   4.886
  137CHL1  H26A16392   0.322   1.679   4.871
  137CHL1  H26B16393   0.355   1.503   4.884
  137CHL1  H26C16394   0.445   1.618   4.987
  137CHL1   C2716395   0.609   1.500   4.798
  137CHL1  H27A16396   0.686   1.497   4.718
  137CHL1  H27B16397   0.660   1.510   4.897
  137CHL1  H27C16398   0.556   1.402   4.799
  138CHL1    C316399   6.846   1.076   3.234
  138CHL1    H316400   6.878   0.969   3.238
  138CHL1    O316401   6.804   1.106   3.103
  138CHL1   H3'16402   6.767   1.023   3.066
  138CHL1    C416403   6.726   1.099   3.325
  138CHL1   H4A16404   6.691   1.204   3.314
  138CHL1   H4B16405   6.642   1.036   3.288
  138CHL1    C516406   6.763   1.067   3.467
  138CHL1    C616407   6.691   0.977   3.534
  138CHL1    H616408   6.603   0.933   3.485
  138CHL1    C716409   6.714   0.945   3.678
  138CHL1   H7A16410   6.621   0.980   3.726
  138CHL1   H7B16411   6.726   0.836   3.693
  138CHL1    C816412   6.824   1.026   3.750
  138CHL1    H816413   6.766   1.115   3.778
  138CHL1   C1416414   6.894   0.959   3.871
  138CHL1   H1416415   6.980   0.899   3.829
  138CHL1   C1516416   6.824   0.855   3.961
  138CHL1  H15A16417   6.718   0.881   3.964
  138CHL1  H15B16418   6.833   0.751   3.922
  138CHL1   C1616419   6.887   0.872   4.101
  138CHL1  H16A16420   6.804   0.901   4.169
  138CHL1  H16B16421   6.931   0.778   4.139
  138CHL1   C1716422   6.995   0.985   4.093
  138CHL1   H1716423   7.091   0.933   4.071
  138CHL1   C1316424   6.956   1.063   3.964
  138CHL1   C1816425   6.843   1.163   4.006
  138CHL1  H18A16426   6.757   1.108   4.043
  138CHL1  H18B16427   6.872   1.232   4.086
  138CHL1  H18C16428   6.807   1.229   3.925
  138CHL1   C1216429   7.072   1.123   3.881
  138CHL1  H12A16430   7.127   1.202   3.934
  138CHL1  H12B16431   7.148   1.043   3.862
  138CHL1   C1116432   7.024   1.178   3.745
  138CHL1  H11A16433   6.963   1.268   3.771
  138CHL1  H11B16434   7.111   1.212   3.685
  138CHL1    C916435   6.935   1.081   3.661
  138CHL1    H916436   7.000   0.994   3.634
  138CHL1   C1016437   6.885   1.139   3.525
  138CHL1   C1916438   6.839   1.284   3.542
  138CHL1  H19A16439   6.753   1.293   3.611
  138CHL1  H19B16440   6.919   1.347   3.582
  138CHL1  H19C16441   6.814   1.328   3.444
  138CHL1    C116442   7.003   1.131   3.423
  138CHL1   H1A16443   7.084   1.199   3.457
  138CHL1   H1B16444   7.043   1.027   3.426
  138CHL1    C216445   6.964   1.163   3.277
  138CHL1   H2A16446   7.052   1.143   3.212
  138CHL1   H2B16447   6.938   1.270   3.268
  138CHL1   C2016448   7.016   1.073   4.221
  138CHL1   H2016449   6.920   1.124   4.244
  138CHL1   C2116450   7.122   1.179   4.191
  138CHL1  H21A16451   7.207   1.140   4.130
  138CHL1  H21B16452   7.162   1.226   4.283
  138CHL1  H21C16453   7.075   1.260   4.135
  138CHL1   C2216454   7.055   1.008   4.356
  138CHL1  H22A16455   7.001   0.913   4.369
  138CHL1  H22B16456   7.163   0.983   4.355
  138CHL1   C2316457   7.026   1.099   4.480
  138CHL1  H23A16458   7.113   1.166   4.499
  138CHL1  H23B16459   6.939   1.166   4.458
  138CHL1   C2416460   6.999   1.010   4.603
  138CHL1  H24A16461   6.916   0.939   4.582
  138CHL1  H24B16462   7.094   0.952   4.612
  138CHL1   C2516463   6.973   1.068   4.743
  138CHL1   H2516464   6.970   0.979   4.812
  138CHL1   C2616465   7.090   1.154   4.792
  138CHL1  H26A16466   7.187   1.103   4.775
  138CHL1  H26B16467   7.096   1.252   4.741
  138CHL1  H26C16468   7.081   1.171   4.901
  138CHL1   C2716469   6.835   1.134   4.760
  138CHL1  H27A16470   6.753   1.062   4.752
  138CHL1  H27B16471   6.828   1.182   4.861
  138CHL1  H27C16472   6.819   1.213   4.684
  139CHL1    C316473   0.147   6.574   3.280
  139CHL1    H316474   0.037   6.572   3.303
  139CHL1    O316475   0.165   6.600   3.143
  139CHL1   H3'16476   0.165   6.510   3.101
  139CHL1    C416477   0.213   6.690   3.356
  139CHL1   H4A16478   0.315   6.709   3.316
  139CHL1   H4B16479   0.156   6.782   3.331
  139CHL1    C516480   0.214   6.664   3.505
  139CHL1    C616481   0.171   6.757   3.589
  139CHL1    H616482   0.147   6.856   3.550
  139CHL1    C716483   0.160   6.734   3.736
  139CHL1   H7A16484   0.177   6.829   3.791
  139CHL1   H7B16485   0.058   6.697   3.761
  139CHL1    C816486   0.264   6.630   3.781
  139CHL1    H816487   0.361   6.681   3.763
  139CHL1   C1416488   0.246   6.593   3.926
  139CHL1   H1416489   0.159   6.523   3.933
  139CHL1   C1516490   0.211   6.705   4.022
  139CHL1  H15A16491   0.280   6.791   4.005
  139CHL1  H15B16492   0.107   6.739   4.011
  139CHL1   C1616493   0.235   6.641   4.158
  139CHL1  H16A16494   0.275   6.719   4.225
  139CHL1  H16B16495   0.140   6.602   4.201
  139CHL1   C1716496   0.333   6.522   4.136
  139CHL1   H1716497   0.276   6.429   4.157
  139CHL1   C1316498   0.366   6.520   3.985
  139CHL1   C1816499   0.494   6.602   3.961
  139CHL1  H18A16500   0.520   6.611   3.854
  139CHL1  H18B16501   0.481   6.703   4.004
  139CHL1  H18C16502   0.584   6.555   4.006
  139CHL1   C1216503   0.371   6.383   3.914
  139CHL1  H12A16504   0.462   6.328   3.945
  139CHL1  H12B16505   0.283   6.323   3.944
  139CHL1   C1116506   0.370   6.400   3.760
  139CHL1  H11A16507   0.472   6.437   3.736
  139CHL1  H11B16508   0.359   6.302   3.711
  139CHL1    C916509   0.261   6.499   3.703
  139CHL1    H916510   0.162   6.452   3.723
  139CHL1   C1016511   0.266   6.526   3.551
  139CHL1   C1916512   0.412   6.541   3.516
  139CHL1  H19A16513   0.463   6.623   3.571
  139CHL1  H19B16514   0.469   6.450   3.533
  139CHL1  H19C16515   0.420   6.557   3.408
  139CHL1    C116516   0.204   6.411   3.468
  139CHL1   H1A16517   0.260   6.318   3.490
  139CHL1   H1B16518   0.099   6.395   3.501
  139CHL1    C216519   0.207   6.437   3.316
  139CHL1   H2A16520   0.152   6.356   3.263
  139CHL1   H2B16521   0.312   6.434   3.280
  139CHL1   C2016522   0.449   6.528   4.237
  139CHL1   H2016523   0.507   6.621   4.221
  139CHL1   C2116524   0.542   6.406   4.224
  139CHL1  H21A16525   0.616   6.406   4.307
  139CHL1  H21B16526   0.600   6.404   4.130
  139CHL1  H21C16527   0.484   6.312   4.229
  139CHL1   C2216528   0.393   6.534   4.382
  139CHL1  H22A16529   0.312   6.610   4.391
  139CHL1  H22B16530   0.348   6.436   4.407
  139CHL1   C2316531   0.496   6.575   4.487
  139CHL1  H23A16532   0.568   6.492   4.502
  139CHL1  H23B16533   0.552   6.664   4.451
  139CHL1   C2416534   0.424   6.609   4.618
  139CHL1  H24A16535   0.363   6.701   4.603
  139CHL1  H24B16536   0.354   6.526   4.642
  139CHL1   C2516537   0.517   6.628   4.739
  139CHL1   H2516538   0.453   6.655   4.827
  139CHL1   C2616539   0.588   6.496   4.772
  139CHL1  H26A16540   0.665   6.474   4.696
  139CHL1  H26B16541   0.636   6.500   4.872
  139CHL1  H26C16542   0.515   6.412   4.772
  139CHL1   C2716543   0.617   6.742   4.717
  139CHL1  H27A16544   0.688   6.748   4.802
  139CHL1  H27B16545   0.677   6.725   4.625
  139CHL1  H27C16546   0.565   6.839   4.706
  140CHL1    C316547   7.207   0.459   3.276
  140CHL1    H316548   7.316   0.466   3.296
  140CHL1    O316549   7.188   0.464   3.134
  140CHL1   H3'16550   7.234   0.386   3.095
  140CHL1    C416551   7.149   0.328   3.332
  140CHL1   H4A16552   7.043   0.321   3.296
  140CHL1   H4B16553   7.202   0.242   3.284
  140CHL1    C516554   7.149   0.317   3.483
  140CHL1    C616555   7.202   0.210   3.545
  140CHL1    H616556   7.244   0.128   3.486
  140CHL1    C716557   7.195   0.188   3.693
  140CHL1   H7A16558   7.159   0.085   3.714
  140CHL1   H7B16559   7.296   0.197   3.738
  140CHL1    C816560   7.099   0.287   3.764
  140CHL1    H816561   6.995   0.253   3.745
  140CHL1   C1416562   7.127   0.284   3.913
  140CHL1   H1416563   7.235   0.314   3.921
  140CHL1   C1516564   7.116   0.148   3.980
  140CHL1  H15A16565   7.023   0.094   3.948
  140CHL1  H15B16566   7.204   0.092   3.946
  140CHL1   C1616567   7.113   0.179   4.130
  140CHL1  H16A16568   7.018   0.137   4.170
  140CHL1  H16B16569   7.196   0.132   4.187
  140CHL1   C1716570   7.119   0.335   4.137
  140CHL1   H1716571   7.227   0.359   4.124
  140CHL1   C1316572   7.050   0.379   4.002
  140CHL1   C1816573   6.899   0.341   3.990
  140CHL1  H18A16574   6.867   0.331   3.884
  140CHL1  H18B16575   6.873   0.246   4.040
  140CHL1  H18C16576   6.837   0.422   4.031
  140CHL1   C1216577   7.073   0.522   3.953
  140CHL1  H12A16578   7.009   0.591   4.012
  140CHL1  H12B16579   7.179   0.550   3.971
  140CHL1   C1116580   7.042   0.535   3.802
  140CHL1  H11A16581   6.932   0.522   3.790
  140CHL1  H11B16582   7.066   0.638   3.770
  140CHL1    C916583   7.117   0.430   3.713
  140CHL1    H916584   7.226   0.454   3.727
  140CHL1   C1016585   7.090   0.438   3.559
  140CHL1   C1916586   6.936   0.437   3.538
  140CHL1  H19A16587   6.889   0.352   3.592
  140CHL1  H19B16588   6.892   0.531   3.575
  140CHL1  H19C16589   6.908   0.427   3.432
  140CHL1    C116590   7.153   0.567   3.499
  140CHL1   H1A16591   7.103   0.654   3.546
  140CHL1   H1B16592   7.260   0.570   3.528
  140CHL1    C216593   7.141   0.579   3.345
  140CHL1   H2A16594   7.189   0.673   3.311
  140CHL1   H2B16595   7.034   0.582   3.316
  140CHL1   C2016596   7.088   0.398   4.274
  140CHL1   H2016597   7.148   0.343   4.351
  140CHL1   C2116598   6.940   0.365   4.295
  140CHL1  H21A16599   6.917   0.257   4.290
  140CHL1  H21B16600   6.875   0.419   4.224
  140CHL1  H21C16601   6.908   0.398   4.391
  140CHL1   C2216602   7.128   0.550   4.292
  140CHL1  H22A16603   7.212   0.566   4.220
  140CHL1  H22B16604   7.048   0.611   4.247
  140CHL1   C2316605   7.182   0.615   4.429
  140CHL1  H23A16606   7.288   0.641   4.406
  140CHL1  H23B16607   7.130   0.713   4.440
  140CHL1   C2416608   7.186   0.538   4.567
  140CHL1  H24A16609   7.087   0.487   4.574
  140CHL1  H24B16610   7.263   0.460   4.555
  140CHL1   C2516611   7.202   0.608   4.713
  140CHL1   H2516612   7.187   0.529   4.791
  140CHL1   C2616613   7.090   0.709   4.732
  140CHL1  H26A16614   6.996   0.663   4.766
  140CHL1  H26B16615   7.113   0.795   4.797
  140CHL1  H26C16616   7.081   0.751   4.631
  140CHL1   C2716617   7.329   0.687   4.755
  140CHL1  H27A16618   7.373   0.739   4.668
  140CHL1  H27B16619   7.300   0.767   4.826
  140CHL1  H27C16620   7.406   0.631   4.813
  141DOPC     N16621   3.843   2.883   7.048
  141DOPC   C1216622   3.948   2.772   7.052
  141DOPC  H12A16623   3.898   2.679   7.077
  141DOPC  H12B16624   4.019   2.791   7.131
  141DOPC   C1316625   3.767   2.879   6.918
  141DOPC  H13A16626   3.694   2.958   6.913
  141DOPC  H13B16627   3.838   2.899   6.837
  141DOPC  H13C16628   3.724   2.781   6.900
  141DOPC   C1416629   3.909   3.017   7.054
  141DOPC  H14A16630   3.965   3.031   6.961
  141DOPC  H14B16631   3.836   3.096   7.062
  141DOPC  H14C16632   3.981   3.023   7.134
  141DOPC   C1516633   3.750   2.870   7.164
  141DOPC  H15A16634   3.677   2.951   7.165
  141DOPC  H15B16635   3.805   2.880   7.257
  141DOPC  H15C16636   3.697   2.776   7.164
  141DOPC   C1116637   4.029   2.746   6.923
  141DOPC  H11A16638   4.086   2.652   6.932
  141DOPC  H11B16639   3.954   2.730   6.843
  141DOPC     P16640   4.113   2.926   6.756
  141DOPC   O1316641   4.236   3.007   6.739
  141DOPC   O1416642   3.983   2.997   6.749
  141DOPC   O1216643   4.119   2.853   6.896
  141DOPC   O1116644   4.113   2.801   6.656
  141DOPC    C116645   4.237   2.766   6.595
  141DOPC    HA16646   4.313   2.743   6.672
  141DOPC    HB16647   4.278   2.857   6.546
  141DOPC    C216648   4.232   2.651   6.487
  141DOPC    HS16649   4.334   2.605   6.486
  141DOPC   O2116650   4.206   2.703   6.360
  141DOPC   C2116651   4.291   2.785   6.311
  141DOPC   O2216652   4.402   2.812   6.355
  141DOPC   C2216653   4.225   2.833   6.187
  141DOPC   H2R16654   4.117   2.802   6.187
  141DOPC   H2S16655   4.271   2.781   6.102
  141DOPC    C316656   4.132   2.532   6.488
  141DOPC    HX16657   4.142   2.461   6.571
  141DOPC    HY16658   4.166   2.475   6.397
  141DOPC   O3116659   3.995   2.568   6.460
  141DOPC   C3116660   3.925   2.593   6.569
  141DOPC   O3216661   3.967   2.572   6.682
  141DOPC   C3216662   3.783   2.637   6.537
  141DOPC   H2X16663   3.731   2.645   6.635
  141DOPC   H2Y16664   3.783   2.739   6.493
  141DOPC   C2316665   4.230   2.985   6.177
  141DOPC   H3R16666   4.334   3.021   6.162
  141DOPC   H3S16667   4.191   3.031   6.271
  141DOPC   C2416668   4.138   3.019   6.063
  141DOPC   H4R16669   4.041   2.968   6.082
  141DOPC   H4S16670   4.178   2.978   5.968
  141DOPC   C2516671   4.105   3.167   6.050
  141DOPC   H5R16672   4.197   3.222   6.021
  141DOPC   H5S16673   4.071   3.205   6.148
  141DOPC   C2616674   3.993   3.184   5.947
  141DOPC   H6R16675   3.949   3.285   5.958
  141DOPC   H6S16676   3.913   3.108   5.965
  141DOPC   C2716677   4.042   3.167   5.802
  141DOPC   H7R16678   4.071   3.063   5.778
  141DOPC   H7S16679   4.136   3.222   5.796
  141DOPC   C2816680   3.951   3.232   5.698
  141DOPC   H8R16681   4.003   3.237   5.600
  141DOPC   H8S16682   3.928   3.337   5.728
  141DOPC   C2916683   3.829   3.146   5.696
  141DOPC   H9R16684   3.766   3.153   5.787
  141DOPC  C21016685   3.797   3.060   5.599
  141DOPC  H10R16686   3.706   2.998   5.611
  141DOPC  C21116687   3.877   3.035   5.473
  141DOPC  H11R16688   3.884   3.131   5.418
  141DOPC  H11S16689   3.819   2.966   5.408
  141DOPC  C21216690   4.022   2.978   5.482
  141DOPC  H12R16691   4.089   3.051   5.532
  141DOPC  H12S16692   4.057   2.967   5.376
  141DOPC  C21316693   4.034   2.842   5.553
  141DOPC  H13R16694   3.967   2.771   5.503
  141DOPC  H13S16695   3.997   2.858   5.656
  141DOPC  C21416696   4.170   2.771   5.563
  141DOPC  H14R16697   4.156   2.664   5.586
  141DOPC  H14S16698   4.225   2.816   5.649
  141DOPC  C21516699   4.256   2.783   5.437
  141DOPC  H15R16700   4.361   2.752   5.456
  141DOPC  H15S16701   4.252   2.889   5.408
  141DOPC  C21616702   4.219   2.711   5.310
  141DOPC  H16R16703   4.114   2.734   5.289
  141DOPC  H16S16704   4.233   2.603   5.329
  141DOPC  C21716705   4.312   2.748   5.194
  141DOPC  H17R16706   4.265   2.714   5.100
  141DOPC  H17S16707   4.405   2.688   5.205
  141DOPC  C21816708   4.358   2.893   5.178
  141DOPC  H18R16709   4.271   2.961   5.168
  141DOPC  H18S16710   4.424   2.902   5.089
  141DOPC  H18T16711   4.417   2.924   5.266
  141DOPC   C3316712   3.705   2.533   6.451
  141DOPC   H3X16713   3.596   2.553   6.460
  141DOPC   H3Y16714   3.726   2.432   6.492
  141DOPC   C3416715   3.740   2.530   6.302
  141DOPC   H4X16716   3.657   2.481   6.245
  141DOPC   H4Y16717   3.832   2.470   6.285
  141DOPC   C3516718   3.764   2.670   6.245
  141DOPC   H5X16719   3.864   2.706   6.278
  141DOPC   H5Y16720   3.688   2.741   6.286
  141DOPC   C3616721   3.757   2.675   6.094
  141DOPC   H6X16722   3.831   2.604   6.052
  141DOPC   H6Y16723   3.656   2.644   6.059
  141DOPC   C3716724   3.786   2.817   6.046
  141DOPC   H7X16725   3.724   2.890   6.104
  141DOPC   H7Y16726   3.892   2.839   6.071
  141DOPC   C3816727   3.761   2.837   5.897
  141DOPC   H8X16728   3.788   2.942   5.871
  141DOPC   H8Y16729   3.653   2.824   5.876
  141DOPC   C3916730   3.849   2.741   5.822
  141DOPC   H9X16731   3.955   2.745   5.852
  141DOPC  C31016732   3.814   2.655   5.725
  141DOPC  H10X16733   3.891   2.590   5.682
  141DOPC  C31116734   3.676   2.635   5.669
  141DOPC  H11X16735   3.598   2.685   5.729
  141DOPC  H11Y16736   3.656   2.527   5.679
  141DOPC  C31216737   3.660   2.680   5.521
  141DOPC  H12X16738   3.667   2.791   5.516
  141DOPC  H12Y16739   3.557   2.653   5.489
  141DOPC  C31316740   3.759   2.619   5.419
  141DOPC  H13X16741   3.830   2.698   5.390
  141DOPC  H13Y16742   3.816   2.538   5.469
  141DOPC  C31416743   3.692   2.568   5.291
  141DOPC  H14X16744   3.621   2.490   5.320
  141DOPC  H14Y16745   3.636   2.651   5.245
  141DOPC  C31516746   3.773   2.494   5.182
  141DOPC  H15X16747   3.701   2.485   5.097
  141DOPC  H15Y16748   3.794   2.389   5.212
  141DOPC  C31616749   3.901   2.560   5.131
  141DOPC  H16X16750   3.987   2.531   5.195
  141DOPC  H16Y16751   3.925   2.518   5.031
  141DOPC  C31716752   3.894   2.713   5.122
  141DOPC  H17X16753   3.790   2.745   5.103
  141DOPC  H17Y16754   3.923   2.755   5.220
  141DOPC  C31816755   3.985   2.771   5.014
  141DOPC  H18X16756   3.939   2.757   4.913
  141DOPC  H18Y16757   4.002   2.879   5.031
  141DOPC  H18Z16758   4.083   2.719   5.015
  142DOPC     N16759   4.441   3.283   6.993
  142DOPC   C1216760   4.491   3.301   6.850
  142DOPC  H12A16761   4.503   3.406   6.827
  142DOPC  H12B16762   4.419   3.263   6.779
  142DOPC   C1316763   4.318   3.363   7.023
  142DOPC  H13A16764   4.242   3.355   6.945
  142DOPC  H13B16765   4.271   3.334   7.116
  142DOPC  H13C16766   4.340   3.469   7.035
  142DOPC   C1416767   4.547   3.330   7.086
  142DOPC  H14A16768   4.640   3.275   7.072
  142DOPC  H14B16769   4.573   3.434   7.068
  142DOPC  H14C16770   4.519   3.325   7.191
  142DOPC   C1516771   4.415   3.137   7.012
  142DOPC  H15A16772   4.339   3.102   6.942
  142DOPC  H15B16773   4.384   3.112   7.112
  142DOPC  H15C16774   4.507   3.082   6.990
  142DOPC   C1116775   4.628   3.244   6.814
  142DOPC  H11A16776   4.635   3.139   6.850
  142DOPC  H11B16777   4.642   3.244   6.703
  142DOPC     P16778   4.871   3.276   6.882
  142DOPC   O1316779   4.859   3.130   6.905
  142DOPC   O1416780   4.939   3.360   6.982
  142DOPC   O1216781   4.723   3.332   6.872
  142DOPC   O1116782   4.920   3.317   6.735
  142DOPC    C116783   4.931   3.460   6.722
  142DOPC    HA16784   5.029   3.493   6.764
  142DOPC    HB16785   4.852   3.518   6.777
  142DOPC    C216786   4.926   3.503   6.574
  142DOPC    HS16787   4.950   3.612   6.571
  142DOPC   O2116788   4.799   3.485   6.512
  142DOPC   C2116789   4.696   3.546   6.561
  142DOPC   O2216790   4.692   3.632   6.646
  142DOPC   C2216791   4.578   3.487   6.486
  142DOPC   H2R16792   4.486   3.543   6.508
  142DOPC   H2S16793   4.569   3.381   6.521
  142DOPC    C316794   5.030   3.424   6.491
  142DOPC    HX16795   4.990   3.322   6.470
  142DOPC    HY16796   5.122   3.413   6.554
  142DOPC   O3116797   5.061   3.500   6.372
  142DOPC   C3116798   5.045   3.449   6.250
  142DOPC   O3216799   5.027   3.333   6.221
  142DOPC   C3216800   5.067   3.568   6.153
  142DOPC   H2X16801   5.053   3.660   6.213
  142DOPC   H2Y16802   5.174   3.565   6.125
  142DOPC   C2316803   4.594   3.489   6.334
  142DOPC   H3R16804   4.692   3.443   6.303
  142DOPC   H3S16805   4.592   3.594   6.296
  142DOPC   C2416806   4.482   3.407   6.273
  142DOPC   H4R16807   4.461   3.449   6.173
  142DOPC   H4S16808   4.390   3.415   6.335
  142DOPC   C2516809   4.524   3.261   6.257
  142DOPC   H5R16810   4.436   3.194   6.256
  142DOPC   H5S16811   4.592   3.231   6.339
  142DOPC   C2616812   4.596   3.251   6.124
  142DOPC   H6R16813   4.654   3.344   6.103
  142DOPC   H6S16814   4.515   3.238   6.052
  142DOPC   C2716815   4.686   3.131   6.102
  142DOPC   H7R16816   4.632   3.040   6.133
  142DOPC   H7S16817   4.775   3.144   6.168
  142DOPC   C2816818   4.728   3.127   5.954
  142DOPC   H8R16819   4.759   3.228   5.920
  142DOPC   H8S16820   4.640   3.095   5.894
  142DOPC   C2916821   4.839   3.030   5.938
  142DOPC   H9R16822   4.810   2.936   5.981
  142DOPC  C21016823   4.967   3.044   5.903
  142DOPC  H10R16824   5.032   2.956   5.904
  142DOPC  C21116825   5.034   3.173   5.871
  142DOPC  H11R16826   5.144   3.158   5.881
  142DOPC  H11S16827   5.007   3.246   5.951
  142DOPC  C21216828   5.006   3.239   5.735
  142DOPC  H12R16829   4.896   3.247   5.717
  142DOPC  H12S16830   5.049   3.182   5.652
  142DOPC  C21316831   5.067   3.379   5.746
  142DOPC  H13R16832   5.172   3.374   5.781
  142DOPC  H13S16833   5.012   3.418   5.832
  142DOPC  C21416834   5.053   3.482   5.635
  142DOPC  H14R16835   5.133   3.559   5.652
  142DOPC  H14S16836   4.956   3.534   5.645
  142DOPC  C21516837   5.060   3.433   5.491
  142DOPC  H15R16838   4.977   3.364   5.468
  142DOPC  H15S16839   5.155   3.378   5.476
  142DOPC  C21616840   5.058   3.555   5.399
  142DOPC  H16R16841   5.088   3.643   5.460
  142DOPC  H16S16842   4.956   3.574   5.360
  142DOPC  C21716843   5.161   3.545   5.286
  142DOPC  H17R16844   5.249   3.486   5.320
  142DOPC  H17S16845   5.200   3.646   5.264
  142DOPC  C21816846   5.102   3.486   5.159
  142DOPC  H18R16847   5.177   3.495   5.077
  142DOPC  H18S16848   5.010   3.542   5.130
  142DOPC  H18T16849   5.077   3.379   5.174
  142DOPC   C3316850   4.980   3.586   6.022
  142DOPC   H3X16851   5.050   3.563   5.940
  142DOPC   H3Y16852   4.959   3.694   6.009
  142DOPC   C3416853   4.845   3.509   6.015
  142DOPC   H4X16854   4.776   3.558   6.087
  142DOPC   H4Y16855   4.863   3.406   6.053
  142DOPC   C3516856   4.766   3.487   5.881
  142DOPC   H5X16857   4.665   3.453   5.910
  142DOPC   H5Y16858   4.811   3.404   5.824
  142DOPC   C3616859   4.750   3.601   5.778
  142DOPC   H6X16860   4.689   3.678   5.825
  142DOPC   H6Y16861   4.848   3.649   5.761
  142DOPC   C3716862   4.681   3.563   5.641
  142DOPC   H7X16863   4.695   3.650   5.574
  142DOPC   H7Y16864   4.743   3.487   5.590
  142DOPC   C3816865   4.523   3.530   5.654
  142DOPC   H8X16866   4.486   3.607   5.719
  142DOPC   H8Y16867   4.530   3.464   5.743
  142DOPC   C3916868   4.388   3.516   5.567
  142DOPC   H9X16869   4.348   3.616   5.545
  142DOPC  C31016870   4.306   3.418   5.509
  142DOPC  H10X16871   4.212   3.459   5.468
  142DOPC  C31116872   4.291   3.261   5.507
  142DOPC  H11X16873   4.216   3.263   5.424
  142DOPC  H11Y16874   4.230   3.225   5.590
  142DOPC  C31216875   4.369   3.130   5.444
  142DOPC  H12X16876   4.411   3.148   5.347
  142DOPC  H12Y16877   4.275   3.074   5.423
  142DOPC  C31316878   4.473   3.024   5.504
  142DOPC  H13X16879   4.486   3.008   5.610
  142DOPC  H13Y16880   4.415   2.933   5.499
  142DOPC  C31416881   4.616   2.988   5.439
  142DOPC  H14X16882   4.650   2.926   5.525
  142DOPC  H14Y16883   4.605   2.925   5.350
  142DOPC  C31516884   4.756   3.064   5.445
  142DOPC  H15X16885   4.804   3.050   5.545
  142DOPC  H15Y16886   4.748   3.173   5.444
  142DOPC  C31616887   4.859   3.051   5.331
  142DOPC  H16X16888   4.900   3.152   5.308
  142DOPC  H16Y16889   4.943   2.992   5.371
  142DOPC  C31716890   4.816   2.981   5.201
  142DOPC  H17X16891   4.909   2.965   5.143
  142DOPC  H17Y16892   4.778   2.882   5.232
  142DOPC  C31816893   4.714   3.044   5.106
  142DOPC  H18X16894   4.698   2.975   5.022
  142DOPC  H18Y16895   4.614   3.057   5.153
  142DOPC  H18Z16896   4.749   3.141   5.066
  143DOPC     N16897   2.540   3.781   7.093
  143DOPC   C1216898   2.675   3.715   7.067
  143DOPC  H12A16899   2.663   3.608   7.079
  143DOPC  H12B16900   2.747   3.747   7.141
  143DOPC   C1316901   2.431   3.694   7.039
  143DOPC  H13A16902   2.333   3.737   7.052
  143DOPC  H13B16903   2.451   3.681   6.933
  143DOPC  H13C16904   2.432   3.596   7.085
  143DOPC   C1416905   2.533   3.916   7.027
  143DOPC  H14A16906   2.606   3.983   7.073
  143DOPC  H14B16907   2.559   3.908   6.921
  143DOPC  H14C16908   2.436   3.962   7.036
  143DOPC   C1516909   2.515   3.800   7.237
  143DOPC  H15A16910   2.431   3.866   7.251
  143DOPC  H15B16911   2.599   3.850   7.284
  143DOPC  H15C16912   2.496   3.706   7.286
  143DOPC   C1116913   2.742   3.739   6.930
  143DOPC  H11A16914   2.755   3.849   6.914
  143DOPC  H11B16915   2.844   3.697   6.931
  143DOPC     P16916   2.650   3.753   6.689
  143DOPC   O1316917   2.777   3.755   6.615
  143DOPC   O1416918   2.589   3.881   6.726
  143DOPC   O1216919   2.668   3.674   6.826
  143DOPC   O1116920   2.545   3.668   6.609
  143DOPC    C116921   2.443   3.596   6.680
  143DOPC    HA16922   2.423   3.636   6.780
  143DOPC    HB16923   2.479   3.492   6.694
  143DOPC    C216924   2.305   3.597   6.608
  143DOPC    HS16925   2.236   3.538   6.672
  143DOPC   O2116926   2.312   3.538   6.479
  143DOPC   C2116927   2.352   3.415   6.474
  143DOPC   O2216928   2.371   3.337   6.565
  143DOPC   C2216929   2.376   3.385   6.326
  143DOPC   H2R16930   2.332   3.466   6.264
  143DOPC   H2S16931   2.323   3.290   6.304
  143DOPC    C316932   2.240   3.739   6.591
  143DOPC    HX16933   2.221   3.778   6.693
  143DOPC    HY16934   2.141   3.725   6.542
  143DOPC   O3116935   2.322   3.834   6.520
  143DOPC   C3116936   2.332   3.818   6.388
  143DOPC   O3216937   2.252   3.759   6.317
  143DOPC   C3216938   2.466   3.875   6.338
  143DOPC   H2X16939   2.539   3.868   6.420
  143DOPC   H2Y16940   2.498   3.806   6.260
  143DOPC   C2316941   2.526   3.367   6.293
  143DOPC   H3R16942   2.539   3.335   6.187
  143DOPC   H3S16943   2.563   3.289   6.361
  143DOPC   C2416944   2.628   3.472   6.330
  143DOPC   H4R16945   2.724   3.418   6.322
  143DOPC   H4S16946   2.617   3.507   6.435
  143DOPC   C2516947   2.640   3.588   6.233
  143DOPC   H5R16948   2.538   3.630   6.225
  143DOPC   H5S16949   2.664   3.547   6.133
  143DOPC   C2616950   2.748   3.685   6.285
  143DOPC   H6R16951   2.835   3.625   6.318
  143DOPC   H6S16952   2.710   3.733   6.378
  143DOPC   C2716953   2.801   3.792   6.188
  143DOPC   H7R16954   2.878   3.851   6.242
  143DOPC   H7S16955   2.718   3.861   6.164
  143DOPC   C2816956   2.865   3.729   6.062
  143DOPC   H8R16957   2.807   3.638   6.037
  143DOPC   H8S16958   2.965   3.692   6.094
  143DOPC   C2916959   2.875   3.815   5.939
  143DOPC   H9R16960   2.938   3.905   5.951
  143DOPC  C21016961   2.815   3.793   5.820
  143DOPC  H10R16962   2.833   3.864   5.738
  143DOPC  C21116963   2.724   3.677   5.784
  143DOPC  H11R16964   2.641   3.668   5.857
  143DOPC  H11S16965   2.780   3.581   5.789
  143DOPC  C21216966   2.664   3.691   5.642
  143DOPC  H12R16967   2.745   3.717   5.570
  143DOPC  H12S16968   2.590   3.773   5.638
  143DOPC  C21316969   2.597   3.562   5.589
  143DOPC  H13R16970   2.500   3.546   5.640
  143DOPC  H13S16971   2.661   3.475   5.613
  143DOPC  C21416972   2.575   3.568   5.437
  143DOPC  H14R16973   2.670   3.600   5.388
  143DOPC  H14S16974   2.498   3.646   5.415
  143DOPC  C21516975   2.532   3.433   5.376
  143DOPC  H15R16976   2.447   3.395   5.436
  143DOPC  H15S16977   2.615   3.359   5.385
  143DOPC  C21616978   2.489   3.446   5.230
  143DOPC  H16R16979   2.436   3.543   5.215
  143DOPC  H16S16980   2.416   3.364   5.207
  143DOPC  C21716981   2.605   3.434   5.130
  143DOPC  H17R16982   2.648   3.332   5.138
  143DOPC  H17S16983   2.685   3.506   5.159
  143DOPC  C21816984   2.563   3.461   4.986
  143DOPC  H18R16985   2.647   3.443   4.917
  143DOPC  H18S16986   2.529   3.566   4.973
  143DOPC  H18T16987   2.478   3.394   4.957
  143DOPC   C3316988   2.468   4.013   6.269
  143DOPC   H3X16989   2.573   4.049   6.266
  143DOPC   H3Y16990   2.412   4.086   6.330
  143DOPC   C3416991   2.416   4.007   6.124
  143DOPC   H4X16992   2.404   4.111   6.086
  143DOPC   H4Y16993   2.313   3.963   6.129
  143DOPC   C3516994   2.505   3.927   6.026
  143DOPC   H5X16995   2.531   3.828   6.068
  143DOPC   H5Y16996   2.599   3.983   6.010
  143DOPC   C3616997   2.443   3.897   5.888
  143DOPC   H6X16998   2.418   3.993   5.841
  143DOPC   H6Y16999   2.519   3.849   5.824
  143DOPC   C3717000   2.321   3.803   5.894
  143DOPC   H7X17001   2.251   3.842   5.971
  143DOPC   H7Y17002   2.268   3.806   5.796
  143DOPC   C3817003   2.356   3.657   5.927
  143DOPC   H8X17004   2.419   3.652   6.019
  143DOPC   H8Y17005   2.419   3.616   5.844
  143DOPC   C3917006   2.226   3.584   5.947
  143DOPC   H9X17007   2.179   3.604   6.045
  143DOPC  C31017008   2.164   3.507   5.857
  143DOPC  H10X17009   2.067   3.462   5.884
  143DOPC  C31117010   2.213   3.478   5.717
  143DOPC  H11X17011   2.229   3.369   5.706
  143DOPC  H11Y17012   2.311   3.523   5.697
  143DOPC  C31217013   2.120   3.525   5.604
  143DOPC  H12X17014   2.121   3.637   5.600
  143DOPC  H12Y17015   2.016   3.492   5.624
  143DOPC  C31317016   2.167   3.468   5.470
  143DOPC  H13X17017   2.268   3.508   5.447
  143DOPC  H13Y17018   2.177   3.358   5.481
  143DOPC  C31417019   2.073   3.495   5.352
  143DOPC  H14X17020   2.095   3.420   5.273
  143DOPC  H14Y17021   1.967   3.479   5.384
  143DOPC  C31517022   2.089   3.634   5.292
  143DOPC  H15X17023   2.195   3.652   5.263
  143DOPC  H15Y17024   2.063   3.710   5.369
  143DOPC  C31617025   2.000   3.651   5.169
  143DOPC  H16X17026   2.042   3.597   5.082
  143DOPC  H16Y17027   1.902   3.604   5.194
  143DOPC  C31717028   1.970   3.796   5.134
  143DOPC  H17X17029   1.974   3.854   5.228
  143DOPC  H17Y17030   2.049   3.837   5.068
  143DOPC  C31817031   1.832   3.812   5.071
  143DOPC  H18X17032   1.821   3.749   4.980
  143DOPC  H18Y17033   1.753   3.785   5.144
  143DOPC  H18Z17034   1.814   3.917   5.041
  144DOPC     N17035   3.176   2.599   6.777
  144DOPC   C1217036   3.302   2.519   6.759
  144DOPC  H12A17037   3.379   2.578   6.712
  144DOPC  H12B17038   3.282   2.435   6.694
  144DOPC   C1317039   3.200   2.690   6.894
  144DOPC  H13A17040   3.226   2.625   6.980
  144DOPC  H13B17041   3.282   2.757   6.879
  144DOPC  H13C17042   3.110   2.740   6.926
  144DOPC   C1417043   3.066   2.506   6.818
  144DOPC  H14A17044   3.038   2.436   6.741
  144DOPC  H14B17045   3.103   2.449   6.904
  144DOPC  H14C17046   2.980   2.559   6.856
  144DOPC   C1517047   3.136   2.677   6.658
  144DOPC  H15A17048   3.053   2.743   6.683
  144DOPC  H15B17049   3.105   2.615   6.575
  144DOPC  H15C17050   3.217   2.740   6.623
  144DOPC   C1117051   3.366   2.463   6.890
  144DOPC  H11A17052   3.419   2.375   6.850
  144DOPC  H11B17053   3.442   2.532   6.932
  144DOPC     P17054   3.298   2.296   7.079
  144DOPC   O1317055   3.168   2.258   7.138
  144DOPC   O1417056   3.408   2.332   7.171
  144DOPC   O1217057   3.273   2.427   6.992
  144DOPC   O1117058   3.347   2.189   6.967
  144DOPC    C117059   3.260   2.169   6.856
  144DOPC    HA17060   3.254   2.259   6.793
  144DOPC    HB17061   3.157   2.147   6.894
  144DOPC    C217062   3.294   2.051   6.761
  144DOPC    HS17063   3.284   1.958   6.822
  144DOPC   O2117064   3.422   2.056   6.693
  144DOPC   C2117065   3.461   1.932   6.655
  144DOPC   O2217066   3.447   1.832   6.723
  144DOPC   C2217067   3.521   1.933   6.516
  144DOPC   H2R17068   3.531   1.829   6.478
  144DOPC   H2S17069   3.623   1.974   6.524
  144DOPC    C317070   3.183   2.055   6.652
  144DOPC    HX17071   3.085   2.049   6.704
  144DOPC    HY17072   3.196   1.964   6.589
  144DOPC   O3117073   3.192   2.180   6.576
  144DOPC   C3117074   3.145   2.168   6.452
  144DOPC   O3217075   3.087   2.069   6.413
  144DOPC   C3217076   3.181   2.291   6.367
  144DOPC   H2X17077   3.147   2.380   6.422
  144DOPC   H2Y17078   3.292   2.293   6.360
  144DOPC   C2317079   3.442   2.018   6.415
  144DOPC   H3R17080   3.519   2.069   6.355
  144DOPC   H3S17081   3.386   2.100   6.461
  144DOPC   C2417082   3.354   1.928   6.328
  144DOPC   H4R17083   3.270   1.885   6.386
  144DOPC   H4S17084   3.417   1.843   6.293
  144DOPC   C2517085   3.298   1.994   6.202
  144DOPC   H5R17086   3.198   2.037   6.220
  144DOPC   H5S17087   3.276   1.911   6.131
  144DOPC   C2617088   3.388   2.100   6.141
  144DOPC   H6R17089   3.495   2.082   6.164
  144DOPC   H6S17090   3.366   2.202   6.178
  144DOPC   C2717091   3.374   2.093   5.991
  144DOPC   H7R17092   3.282   2.144   5.958
  144DOPC   H7S17093   3.360   1.985   5.969
  144DOPC   C2817094   3.499   2.144   5.920
  144DOPC   H8R17095   3.590   2.121   5.978
  144DOPC   H8S17096   3.491   2.255   5.915
  144DOPC   C2917097   3.502   2.074   5.787
  144DOPC   H9R17098   3.562   1.982   5.782
  144DOPC  C21017099   3.437   2.119   5.679
  144DOPC  H10R17100   3.442   2.062   5.585
  144DOPC  C21117101   3.355   2.245   5.679
  144DOPC  H11R17102   3.298   2.261   5.773
  144DOPC  H11S17103   3.280   2.244   5.597
  144DOPC  C21217104   3.455   2.361   5.662
  144DOPC  H12R17105   3.535   2.357   5.739
  144DOPC  H12S17106   3.404   2.458   5.674
  144DOPC  C21317107   3.520   2.357   5.523
  144DOPC  H13R17108   3.559   2.256   5.499
  144DOPC  H13S17109   3.609   2.422   5.518
  144DOPC  C21417110   3.417   2.401   5.421
  144DOPC  H14R17111   3.439   2.500   5.376
  144DOPC  H14S17112   3.321   2.420   5.475
  144DOPC  C21517113   3.394   2.295   5.315
  144DOPC  H15R17114   3.392   2.195   5.364
  144DOPC  H15S17115   3.473   2.294   5.237
  144DOPC  C21617116   3.256   2.320   5.258
  144DOPC  H16R17117   3.192   2.314   5.347
  144DOPC  H16S17118   3.223   2.239   5.192
  144DOPC  C21717119   3.237   2.457   5.192
  144DOPC  H17R17120   3.241   2.538   5.268
  144DOPC  H17S17121   3.135   2.461   5.148
  144DOPC  C21817122   3.342   2.486   5.084
  144DOPC  H18R17123   3.436   2.526   5.129
  144DOPC  H18S17124   3.305   2.559   5.010
  144DOPC  H18T17125   3.368   2.392   5.029
  144DOPC   C3317126   3.124   2.299   6.222
  144DOPC   H3X17127   3.014   2.293   6.219
  144DOPC   H3Y17128   3.159   2.218   6.156
  144DOPC   C3417129   3.167   2.429   6.153
  144DOPC   H4X17130   3.278   2.431   6.149
  144DOPC   H4Y17131   3.132   2.516   6.214
  144DOPC   C3517132   3.114   2.444   6.010
  144DOPC   H5X17133   3.003   2.447   6.009
  144DOPC   H5Y17134   3.146   2.356   5.950
  144DOPC   C3617135   3.171   2.571   5.947
  144DOPC   H6X17136   3.125   2.660   5.994
  144DOPC   H6Y17137   3.280   2.573   5.969
  144DOPC   C3717138   3.155   2.578   5.794
  144DOPC   H7X17139   3.234   2.649   5.759
  144DOPC   H7Y17140   3.178   2.479   5.749
  144DOPC   C3817141   3.017   2.626   5.749
  144DOPC   H8X17142   2.985   2.712   5.813
  144DOPC   H8Y17143   2.943   2.545   5.765
  144DOPC   C3917144   3.025   2.671   5.605
  144DOPC   H9X17145   3.102   2.748   5.586
  144DOPC  C31017146   2.952   2.627   5.502
  144DOPC  H10X17147   2.968   2.670   5.402
  144DOPC  C31117148   2.845   2.521   5.510
  144DOPC  H11X17149   2.780   2.522   5.421
  144DOPC  H11Y17150   2.779   2.541   5.596
  144DOPC  C31217151   2.893   2.377   5.528
  144DOPC  H12X17152   2.806   2.315   5.557
  144DOPC  H12Y17153   2.966   2.373   5.612
  144DOPC  C31317154   2.958   2.319   5.402
  144DOPC  H13X17155   3.013   2.400   5.350
  144DOPC  H13Y17156   3.029   2.239   5.435
  144DOPC  C31417157   2.860   2.253   5.305
  144DOPC  H14X17158   2.788   2.197   5.366
  144DOPC  H14Y17159   2.807   2.333   5.249
  144DOPC  C31517160   2.920   2.153   5.204
  144DOPC  H15X17161   2.960   2.065   5.258
  144DOPC  H15Y17162   3.008   2.201   5.160
  144DOPC  C31617163   2.814   2.112   5.099
  144DOPC  H16X17164   2.729   2.067   5.155
  144DOPC  H16Y17165   2.775   2.204   5.051
  144DOPC  C31717166   2.855   2.013   4.987
  144DOPC  H17X17167   2.929   2.059   4.921
  144DOPC  H17Y17168   2.907   1.925   5.030
  144DOPC  C31817169   2.740   1.968   4.896
  144DOPC  H18X17170   2.667   1.905   4.951
  144DOPC  H18Y17171   2.685   2.056   4.856
  144DOPC  H18Z17172   2.779   1.909   4.810
  145DOPC     N17173   3.935   5.501   7.095
  145DOPC   C1217174   4.029   5.578   7.002
  145DOPC  H12A17175   4.124   5.524   6.997
  145DOPC  H12B17176   4.049   5.676   7.044
  145DOPC   C1317177   3.956   5.355   7.065
  145DOPC  H13A17178   4.062   5.328   7.065
  145DOPC  H13B17179   3.903   5.291   7.132
  145DOPC  H13C17180   3.924   5.337   6.963
  145DOPC   C1417181   3.793   5.537   7.065
  145DOPC  H14A17182   3.779   5.543   6.957
  145DOPC  H14B17183   3.724   5.462   7.103
  145DOPC  H14C17184   3.762   5.631   7.111
  145DOPC   C1517185   3.958   5.528   7.240
  145DOPC  H15A17186   3.949   5.633   7.264
  145DOPC  H15B17187   4.054   5.494   7.277
  145DOPC  H15C17188   3.879   5.480   7.299
  145DOPC   C1117189   3.984   5.596   6.853
  145DOPC  H11A17190   3.899   5.668   6.850
  145DOPC  H11B17191   4.067   5.644   6.795
  145DOPC     P17192   4.052   5.369   6.740
  145DOPC   O1317193   3.975   5.246   6.710
  145DOPC   O1417194   4.159   5.363   6.843
  145DOPC   O1217195   3.943   5.473   6.791
  145DOPC   O1117196   4.107   5.434   6.606
  145DOPC    C117197   4.022   5.506   6.516
  145DOPC    HA17198   3.978   5.595   6.567
  145DOPC    HB17199   3.938   5.442   6.481
  145DOPC    C217200   4.101   5.557   6.391
  145DOPC    HS17201   4.033   5.622   6.331
  145DOPC   O2117202   4.147   5.446   6.312
  145DOPC   C2117203   4.058   5.393   6.231
  145DOPC   O2217204   3.950   5.439   6.201
  145DOPC   C2217205   4.110   5.257   6.185
  145DOPC   H2R17206   4.038   5.181   6.221
  145DOPC   H2S17207   4.208   5.237   6.233
  145DOPC    C317208   4.222   5.646   6.432
  145DOPC    HX17209   4.258   5.611   6.531
  145DOPC    HY17210   4.186   5.751   6.447
  145DOPC   O3117211   4.330   5.634   6.335
  145DOPC   C3117212   4.343   5.733   6.249
  145DOPC   O3217213   4.294   5.844   6.260
  145DOPC   C3217214   4.423   5.685   6.126
  145DOPC   H2X17215   4.531   5.694   6.147
  145DOPC   H2Y17216   4.398   5.578   6.109
  145DOPC   C2317217   4.125   5.244   6.032
  145DOPC   H3R17218   4.030   5.273   5.981
  145DOPC   H3S17219   4.144   5.137   6.006
  145DOPC   C2417220   4.241   5.327   5.977
  145DOPC   H4R17221   4.337   5.290   6.020
  145DOPC   H4S17222   4.231   5.433   6.008
  145DOPC   C2517223   4.251   5.320   5.825
  145DOPC   H5R17224   4.230   5.217   5.788
  145DOPC   H5S17225   4.355   5.346   5.794
  145DOPC   C2617226   4.155   5.420   5.758
  145DOPC   H6R17227   4.171   5.520   5.804
  145DOPC   H6S17228   4.050   5.390   5.777
  145DOPC   C2717229   4.186   5.434   5.610
  145DOPC   H7R17230   4.295   5.443   5.609
  145DOPC   H7S17231   4.148   5.530   5.568
  145DOPC   C2817232   4.143   5.315   5.522
  145DOPC   H8R17233   4.197   5.225   5.561
  145DOPC   H8S17234   4.184   5.331   5.419
  145DOPC   C2917235   3.996   5.284   5.512
  145DOPC   H9R17236   3.974   5.179   5.485
  145DOPC  C21017237   3.891   5.365   5.534
  145DOPC  H10R17238   3.791   5.322   5.515
  145DOPC  C21117239   3.890   5.511   5.573
  145DOPC  H11R17240   3.961   5.568   5.509
  145DOPC  H11S17241   3.924   5.523   5.679
  145DOPC  C21217242   3.754   5.581   5.564
  145DOPC  H12R17243   3.768   5.687   5.594
  145DOPC  H12S17244   3.684   5.536   5.638
  145DOPC  C21317245   3.691   5.578   5.424
  145DOPC  H13R17246   3.589   5.619   5.432
  145DOPC  H13S17247   3.684   5.472   5.390
  145DOPC  C21417248   3.770   5.658   5.320
  145DOPC  H14R17249   3.867   5.608   5.308
  145DOPC  H14S17250   3.788   5.761   5.359
  145DOPC  C21517251   3.705   5.667   5.181
  145DOPC  H15R17252   3.777   5.717   5.111
  145DOPC  H15S17253   3.616   5.734   5.188
  145DOPC  C21617254   3.664   5.531   5.122
  145DOPC  H16R17255   3.613   5.549   5.024
  145DOPC  H16S17256   3.594   5.478   5.189
  145DOPC  C21717257   3.779   5.434   5.101
  145DOPC  H17R17258   3.835   5.417   5.196
  145DOPC  H17S17259   3.843   5.487   5.029
  145DOPC  C21817260   3.738   5.300   5.042
  145DOPC  H18R17261   3.651   5.311   4.974
  145DOPC  H18S17262   3.711   5.228   5.123
  145DOPC  H18T17263   3.822   5.257   4.984
  145DOPC   C3317264   4.387   5.766   5.999
  145DOPC   H3X17265   4.447   5.727   5.914
  145DOPC   H3Y17266   4.412   5.873   6.013
  145DOPC   C3417267   4.238   5.750   5.968
  145DOPC   H4X17268   4.179   5.793   6.052
  145DOPC   H4Y17269   4.214   5.641   5.964
  145DOPC   C3517270   4.182   5.816   5.841
  145DOPC   H5X17271   4.224   5.769   5.749
  145DOPC   H5Y17272   4.210   5.924   5.841
  145DOPC   C3617273   4.029   5.800   5.844
  145DOPC   H6X17274   4.004   5.692   5.850
  145DOPC   H6Y17275   3.991   5.848   5.936
  145DOPC   C3717276   3.957   5.862   5.724
  145DOPC   H7X17277   3.994   5.812   5.632
  145DOPC   H7Y17278   3.848   5.840   5.733
  145DOPC   C3817279   3.977   6.014   5.718
  145DOPC   H8X17280   4.086   6.032   5.702
  145DOPC   H8Y17281   3.955   6.055   5.819
  145DOPC   C3917282   3.896   6.087   5.615
  145DOPC   H9X17283   3.797   6.121   5.648
  145DOPC  C31017284   3.933   6.109   5.488
  145DOPC  H10X17285   3.866   6.162   5.419
  145DOPC  C31117286   4.063   6.063   5.428
  145DOPC  H11X17287   4.144   6.046   5.503
  145DOPC  H11Y17288   4.102   6.134   5.352
  145DOPC  C31217289   4.025   5.930   5.363
  145DOPC  H12X17290   3.950   5.946   5.282
  145DOPC  H12Y17291   3.980   5.860   5.436
  145DOPC  C31317292   4.143   5.858   5.301
  145DOPC  H13X17293   4.191   5.926   5.227
  145DOPC  H13Y17294   4.218   5.832   5.380
  145DOPC  C31417295   4.091   5.731   5.237
  145DOPC  H14X17296   4.052   5.666   5.318
  145DOPC  H14Y17297   4.011   5.752   5.163
  145DOPC  C31517298   4.203   5.656   5.170
  145DOPC  H15X17299   4.292   5.682   5.230
  145DOPC  H15Y17300   4.214   5.704   5.071
  145DOPC  C31617301   4.191   5.502   5.171
  145DOPC  H16X17302   4.293   5.458   5.179
  145DOPC  H16Y17303   4.136   5.471   5.262
  145DOPC  C31717304   4.125   5.442   5.047
  145DOPC  H17X17305   4.027   5.490   5.044
  145DOPC  H17Y17306   4.174   5.471   4.951
  145DOPC  C31817307   4.112   5.289   5.049
  145DOPC  H18X17308   4.067   5.255   5.144
  145DOPC  H18Y17309   4.048   5.254   4.965
  145DOPC  H18Z17310   4.212   5.242   5.038
  146DOPC     N17311   5.366   2.709   7.043
  146DOPC   C1217312   5.484   2.740   6.950
  146DOPC  H12A17313   5.486   2.665   6.872
  146DOPC  H12B17314   5.575   2.734   7.007
  146DOPC   C1317315   5.404   2.607   7.145
  146DOPC  H13A17316   5.476   2.650   7.214
  146DOPC  H13B17317   5.315   2.575   7.199
  146DOPC  H13C17318   5.446   2.519   7.099
  146DOPC   C1417319   5.245   2.663   6.967
  146DOPC  H14A17320   5.204   2.744   6.906
  146DOPC  H14B17321   5.266   2.580   6.900
  146DOPC  H14C17322   5.165   2.627   7.033
  146DOPC   C1517323   5.329   2.837   7.112
  146DOPC  H15A17324   5.411   2.880   7.167
  146DOPC  H15B17325   5.245   2.822   7.177
  146DOPC  H15C17326   5.301   2.913   7.038
  146DOPC   C1117327   5.481   2.877   6.879
  146DOPC  H11A17328   5.496   2.960   6.952
  146DOPC  H11B17329   5.564   2.884   6.804
  146DOPC     P17330   5.278   3.017   6.786
  146DOPC   O1317331   5.304   3.114   6.893
  146DOPC   O1417332   5.140   2.973   6.760
  146DOPC   O1217333   5.358   2.884   6.812
  146DOPC   O1117334   5.347   3.056   6.646
  146DOPC    C117335   5.316   2.963   6.538
  146DOPC    HA17336   5.221   2.995   6.489
  146DOPC    HB17337   5.300   2.858   6.575
  146DOPC    C217338   5.425   2.948   6.426
  146DOPC    HS17339   5.523   2.936   6.478
  146DOPC   O2117340   5.423   3.066   6.343
  146DOPC   C2117341   5.527   3.085   6.265
  146DOPC   O2217342   5.627   3.015   6.258
  146DOPC   C2217343   5.503   3.213   6.185
  146DOPC   H2R17344   5.501   3.298   6.257
  146DOPC   H2S17345   5.404   3.204   6.137
  146DOPC    C317346   5.399   2.819   6.341
  146DOPC    HX17347   5.317   2.845   6.270
  146DOPC    HY17348   5.360   2.739   6.408
  146DOPC   O3117349   5.518   2.769   6.276
  146DOPC   C3117350   5.501   2.715   6.156
  146DOPC   O3217351   5.394   2.693   6.103
  146DOPC   C3217352   5.639   2.683   6.096
  146DOPC   H2X17353   5.716   2.744   6.149
  146DOPC   H2Y17354   5.660   2.576   6.115
  146DOPC   C2317355   5.614   3.233   6.081
  146DOPC   H3R17356   5.649   3.135   6.040
  146DOPC   H3S17357   5.701   3.280   6.131
  146DOPC   C2417358   5.573   3.319   5.964
  146DOPC   H4R17359   5.663   3.364   5.917
  146DOPC   H4S17360   5.507   3.402   5.999
  146DOPC   C2517361   5.503   3.234   5.858
  146DOPC   H5R17362   5.412   3.188   5.903
  146DOPC   H5S17363   5.571   3.152   5.827
  146DOPC   C2617364   5.465   3.317   5.736
  146DOPC   H6R17365   5.553   3.339   5.672
  146DOPC   H6S17366   5.425   3.415   5.774
  146DOPC   C2717367   5.352   3.252   5.656
  146DOPC   H7R17368   5.303   3.336   5.602
  146DOPC   H7S17369   5.282   3.210   5.731
  146DOPC   C2817370   5.387   3.142   5.556
  146DOPC   H8R17371   5.441   3.060   5.607
  146DOPC   H8S17372   5.452   3.182   5.476
  146DOPC   C2917373   5.253   3.097   5.502
  146DOPC   H9R17374   5.202   3.171   5.439
  146DOPC  C21017375   5.194   2.978   5.523
  146DOPC  H10R17376   5.094   2.961   5.483
  146DOPC  C21117377   5.247   2.864   5.605
  146DOPC  H11R17378   5.166   2.809   5.657
  146DOPC  H11S17379   5.319   2.898   5.683
  146DOPC  C21217380   5.320   2.774   5.503
  146DOPC  H12R17381   5.395   2.838   5.450
  146DOPC  H12S17382   5.249   2.735   5.427
  146DOPC  C21317383   5.400   2.656   5.560
  146DOPC  H13R17384   5.336   2.566   5.567
  146DOPC  H13S17385   5.432   2.683   5.664
  146DOPC  C21417386   5.527   2.628   5.477
  146DOPC  H14R17387   5.586   2.548   5.527
  146DOPC  H14S17388   5.590   2.720   5.478
  146DOPC  C21517389   5.503   2.589   5.329
  146DOPC  H15R17390   5.449   2.671   5.279
  146DOPC  H15S17391   5.437   2.502   5.327
  146DOPC  C21617392   5.637   2.562   5.256
  146DOPC  H16R17393   5.676   2.469   5.301
  146DOPC  H16S17394   5.707   2.645   5.282
  146DOPC  C21717395   5.645   2.544   5.103
  146DOPC  H17R17396   5.615   2.441   5.075
  146DOPC  H17S17397   5.752   2.550   5.072
  146DOPC  C21817398   5.563   2.639   5.016
  146DOPC  H18R17399   5.535   2.590   4.921
  146DOPC  H18S17400   5.619   2.732   4.994
  146DOPC  H18T17401   5.467   2.664   5.067
  146DOPC   C3317402   5.646   2.711   5.944
  146DOPC   H3X17403   5.572   2.648   5.890
  146DOPC   H3Y17404   5.747   2.680   5.909
  146DOPC   C3417405   5.622   2.859   5.908
  146DOPC   H4X17406   5.689   2.924   5.968
  146DOPC   H4Y17407   5.517   2.885   5.932
  146DOPC   C3517408   5.647   2.885   5.759
  146DOPC   H5X17409   5.592   2.975   5.724
  146DOPC   H5Y17410   5.608   2.799   5.701
  146DOPC   C3617411   5.795   2.902   5.728
  146DOPC   H6X17412   5.836   2.995   5.773
  146DOPC   H6Y17413   5.843   2.814   5.776
  146DOPC   C3717414   5.832   2.892   5.581
  146DOPC   H7X17415   5.943   2.877   5.574
  146DOPC   H7Y17416   5.784   2.799   5.542
  146DOPC   C3817417   5.794   3.014   5.497
  146DOPC   H8X17418   5.852   3.103   5.528
  146DOPC   H8Y17419   5.686   3.037   5.510
  146DOPC   C3917420   5.832   2.969   5.359
  146DOPC   H9X17421   5.939   2.952   5.345
  146DOPC  C31017422   5.748   2.939   5.259
  146DOPC  H10X17423   5.790   2.903   5.164
  146DOPC  C31117424   5.598   2.944   5.263
  146DOPC  H11X17425   5.560   3.002   5.349
  146DOPC  H11Y17426   5.558   2.842   5.272
  146DOPC  C31217427   5.544   3.007   5.134
  146DOPC  H12X17428   5.571   2.944   5.046
  146DOPC  H12Y17429   5.593   3.106   5.119
  146DOPC  C31317430   5.392   3.026   5.137
  146DOPC  H13X17431   5.363   3.087   5.226
  146DOPC  H13Y17432   5.361   3.081   5.045
  146DOPC  C31417433   5.319   2.893   5.140
  146DOPC  H14X17434   5.361   2.833   5.057
  146DOPC  H14Y17435   5.339   2.841   5.236
  146DOPC  C31517436   5.168   2.902   5.118
  146DOPC  H15X17437   5.144   2.992   5.057
  146DOPC  H15Y17438   5.116   2.912   5.216
  146DOPC  C31617439   5.118   2.778   5.044
  146DOPC  H16X17440   5.011   2.790   5.018
  146DOPC  H16Y17441   5.175   2.768   4.949
  146DOPC  C31717442   5.138   2.651   5.127
  146DOPC  H17X17443   5.244   2.642   5.160
  146DOPC  H17Y17444   5.077   2.657   5.220
  146DOPC  C31817445   5.105   2.526   5.047
  146DOPC  H18X17446   5.084   2.440   5.114
  146DOPC  H18Y17447   5.019   2.541   4.979
  146DOPC  H18Z17448   5.192   2.505   4.983
  147DOPC     N17449   1.687   3.260   7.017
  147DOPC   C1217450   1.765   3.385   6.976
  147DOPC  H12A17451   1.743   3.465   7.046
  147DOPC  H12B17452   1.732   3.415   6.877
  147DOPC   C1317453   1.668   3.183   6.892
  147DOPC  H13A17454   1.632   3.082   6.904
  147DOPC  H13B17455   1.602   3.231   6.821
  147DOPC  H13C17456   1.766   3.174   6.843
  147DOPC   C1417457   1.560   3.302   7.084
  147DOPC  H14A17458   1.483   3.336   7.015
  147DOPC  H14B17459   1.522   3.228   7.152
  147DOPC  H14C17460   1.583   3.385   7.150
  147DOPC   C1517461   1.774   3.185   7.112
  147DOPC  H15A17462   1.798   3.248   7.198
  147DOPC  H15B17463   1.869   3.163   7.062
  147DOPC  H15C17464   1.733   3.093   7.151
  147DOPC   C1117465   1.919   3.378   6.971
  147DOPC  H11A17466   1.954   3.481   6.942
  147DOPC  H11B17467   1.962   3.361   7.073
  147DOPC     P17468   2.097   3.308   6.798
  147DOPC   O1317469   2.200   3.360   6.890
  147DOPC   O1417470   2.057   3.391   6.682
  147DOPC   O1217471   1.963   3.278   6.881
  147DOPC   O1117472   2.139   3.163   6.749
  147DOPC    C117473   2.029   3.080   6.708
  147DOPC    HA17474   1.950   3.139   6.656
  147DOPC    HB17475   1.984   3.033   6.799
  147DOPC    C217476   2.066   2.964   6.612
  147DOPC    HS17477   2.137   2.896   6.664
  147DOPC   O2117478   2.125   3.011   6.488
  147DOPC   C2117479   2.158   2.917   6.400
  147DOPC   O2217480   2.159   2.797   6.418
  147DOPC   C2217481   2.189   2.985   6.269
  147DOPC   H2R17482   2.216   2.907   6.195
  147DOPC   H2S17483   2.275   3.052   6.286
  147DOPC    C317484   1.934   2.890   6.584
  147DOPC    HX17485   1.894   2.849   6.680
  147DOPC    HY17486   1.960   2.802   6.523
  147DOPC   O3117487   1.841   2.974   6.512
  147DOPC   C3117488   1.732   3.012   6.579
  147DOPC   O3217489   1.708   2.983   6.695
  147DOPC   C3217490   1.637   3.091   6.486
  147DOPC   H2X17491   1.534   3.080   6.527
  147DOPC   H2Y17492   1.664   3.198   6.488
  147DOPC   C2317493   2.070   3.068   6.218
  147DOPC   H3R17494   2.026   3.131   6.298
  147DOPC   H3S17495   1.991   2.997   6.187
  147DOPC   C2417496   2.114   3.160   6.104
  147DOPC   H4R17497   2.204   3.118   6.053
  147DOPC   H4S17498   2.143   3.259   6.146
  147DOPC   C2517499   2.003   3.174   6.001
  147DOPC   H5R17500   2.023   3.257   5.931
  147DOPC   H5S17501   1.909   3.199   6.055
  147DOPC   C2617502   1.983   3.043   5.923
  147DOPC   H6R17503   1.892   3.059   5.866
  147DOPC   H6S17504   1.962   2.959   5.991
  147DOPC   C2717505   2.092   2.998   5.825
  147DOPC   H7R17506   2.049   2.922   5.756
  147DOPC   H7S17507   2.172   2.945   5.883
  147DOPC   C2817508   2.157   3.109   5.741
  147DOPC   H8R17509   2.256   3.071   5.706
  147DOPC   H8S17510   2.182   3.193   5.810
  147DOPC   C2917511   2.076   3.158   5.623
  147DOPC   H9R17512   2.020   3.251   5.642
  147DOPC  C21017513   2.063   3.101   5.501
  147DOPC  H10R17514   2.004   3.154   5.425
  147DOPC  C21117515   2.126   2.972   5.453
  147DOPC  H11R17516   2.045   2.900   5.436
  147DOPC  H11S17517   2.194   2.929   5.529
  147DOPC  C21217518   2.199   2.969   5.318
  147DOPC  H12R17519   2.302   3.004   5.343
  147DOPC  H12S17520   2.157   3.044   5.250
  147DOPC  C21317521   2.215   2.825   5.257
  147DOPC  H13R17522   2.256   2.760   5.338
  147DOPC  H13S17523   2.290   2.834   5.178
  147DOPC  C21417524   2.104   2.748   5.180
  147DOPC  H14R17525   2.033   2.821   5.137
  147DOPC  H14S17526   2.051   2.683   5.253
  147DOPC  C21517527   2.150   2.663   5.058
  147DOPC  H15R17528   2.178   2.561   5.092
  147DOPC  H15S17529   2.241   2.712   5.018
  147DOPC  C21617530   2.053   2.655   4.936
  147DOPC  H16R17531   2.110   2.621   4.848
  147DOPC  H16S17532   2.020   2.758   4.915
  147DOPC  C21717533   1.928   2.566   4.944
  147DOPC  H17R17534   1.889   2.575   5.047
  147DOPC  H17S17535   1.953   2.459   4.925
  147DOPC  C21817536   1.813   2.607   4.850
  147DOPC  H18R17537   1.790   2.714   4.868
  147DOPC  H18S17538   1.721   2.550   4.873
  147DOPC  H18T17539   1.839   2.593   4.743
  147DOPC   C3317540   1.641   3.037   6.341
  147DOPC   H3X17541   1.626   2.927   6.350
  147DOPC   H3Y17542   1.741   3.056   6.295
  147DOPC   C3417543   1.531   3.087   6.246
  147DOPC   H4X17544   1.536   3.196   6.231
  147DOPC   H4Y17545   1.433   3.065   6.295
  147DOPC   C3517546   1.532   3.010   6.112
  147DOPC   H5X17547   1.427   2.999   6.077
  147DOPC   H5Y17548   1.556   2.906   6.138
  147DOPC   C3617549   1.620   3.064   5.995
  147DOPC   H6X17550   1.624   3.175   5.998
  147DOPC   H6Y17551   1.725   3.034   6.011
  147DOPC   C3717552   1.575   3.020   5.853
  147DOPC   H7X17553   1.542   2.914   5.855
  147DOPC   H7Y17554   1.486   3.080   5.822
  147DOPC   C3817555   1.675   3.040   5.738
  147DOPC   H8X17556   1.630   2.999   5.645
  147DOPC   H8Y17557   1.767   2.982   5.744
  147DOPC   C3917558   1.713   3.185   5.726
  147DOPC   H9X17559   1.797   3.221   5.788
  147DOPC  C31017560   1.651   3.267   5.644
  147DOPC  H10X17561   1.681   3.372   5.641
  147DOPC  C31117562   1.538   3.226   5.554
  147DOPC  H11X17563   1.448   3.286   5.577
  147DOPC  H11Y17564   1.500   3.122   5.570
  147DOPC  C31217565   1.577   3.238   5.407
  147DOPC  H12X17566   1.487   3.273   5.350
  147DOPC  H12Y17567   1.597   3.136   5.369
  147DOPC  C31317568   1.697   3.331   5.375
  147DOPC  H13X17569   1.707   3.415   5.445
  147DOPC  H13Y17570   1.791   3.273   5.384
  147DOPC  C31417571   1.680   3.394   5.236
  147DOPC  H14X17572   1.574   3.423   5.221
  147DOPC  H14Y17573   1.745   3.483   5.225
  147DOPC  C31517574   1.719   3.292   5.134
  147DOPC  H15X17575   1.662   3.200   5.155
  147DOPC  H15Y17576   1.823   3.275   5.163
  147DOPC  C31617577   1.701   3.321   4.984
  147DOPC  H16X17578   1.727   3.223   4.937
  147DOPC  H16Y17579   1.594   3.343   4.961
  147DOPC  C31717580   1.796   3.423   4.920
  147DOPC  H17X17581   1.749   3.522   4.910
  147DOPC  H17Y17582   1.882   3.435   4.988
  147DOPC  C31817583   1.846   3.387   4.780
  147DOPC  H18X17584   1.883   3.282   4.776
  147DOPC  H18Y17585   1.765   3.398   4.705
  147DOPC  H18Z17586   1.929   3.455   4.752
  148DOPC     N17587   2.720   5.353   6.737
  148DOPC   C1217588   2.710   5.502   6.769
  148DOPC  H12A17589   2.606   5.535   6.768
  148DOPC  H12B17590   2.759   5.562   6.693
  148DOPC   C1317591   2.862   5.306   6.760
  148DOPC  H13A17592   2.889   5.322   6.864
  148DOPC  H13B17593   2.874   5.201   6.739
  148DOPC  H13C17594   2.933   5.363   6.700
  148DOPC   C1417595   2.684   5.319   6.597
  148DOPC  H14A17596   2.706   5.214   6.580
  148DOPC  H14B17597   2.579   5.335   6.577
  148DOPC  H14C17598   2.744   5.376   6.528
  148DOPC   C1517599   2.631   5.280   6.834
  148DOPC  H15A17600   2.531   5.321   6.834
  148DOPC  H15B17601   2.670   5.299   6.935
  148DOPC  H15C17602   2.632   5.173   6.820
  148DOPC   C1117603   2.769   5.546   6.906
  148DOPC  H11A17604   2.878   5.526   6.907
  148DOPC  H11B17605   2.757   5.656   6.918
  148DOPC     P17606   2.585   5.529   7.093
  148DOPC   O1317607   2.621   5.651   7.169
  148DOPC   O1417608   2.536   5.412   7.169
  148DOPC   O1217609   2.710   5.476   7.013
  148DOPC   O1117610   2.485   5.564   6.975
  148DOPC    C117611   2.418   5.692   6.977
  148DOPC    HA17612   2.445   5.761   7.060
  148DOPC    HB17613   2.309   5.672   6.987
  148DOPC    C217614   2.434   5.769   6.843
  148DOPC    HS17615   2.342   5.834   6.834
  148DOPC   O2117616   2.454   5.671   6.738
  148DOPC   C2117617   2.341   5.650   6.674
  148DOPC   O2217618   2.244   5.723   6.679
  148DOPC   C2217619   2.346   5.523   6.591
  148DOPC   H2R17620   2.241   5.516   6.556
  148DOPC   H2S17621   2.368   5.436   6.655
  148DOPC    C317622   2.547   5.875   6.837
  148DOPC    HX17623   2.646   5.836   6.867
  148DOPC    HY17624   2.520   5.956   6.908
  148DOPC   O3117625   2.548   5.933   6.705
  148DOPC   C3117626   2.608   5.859   6.613
  148DOPC   O3217627   2.695   5.777   6.633
  148DOPC   C3217628   2.533   5.877   6.481
  148DOPC   H2X17629   2.430   5.839   6.499
  148DOPC   H2Y17630   2.525   5.984   6.458
  148DOPC   C2317631   2.428   5.521   6.459
  148DOPC   H3R17632   2.534   5.499   6.478
  148DOPC   H3S17633   2.421   5.622   6.414
  148DOPC   C2417634   2.362   5.425   6.358
  148DOPC   H4R17635   2.298   5.487   6.291
  148DOPC   H4S17636   2.294   5.357   6.413
  148DOPC   C2517637   2.452   5.337   6.270
  148DOPC   H5R17638   2.497   5.256   6.331
  148DOPC   H5S17639   2.534   5.397   6.226
  148DOPC   C2617640   2.370   5.276   6.154
  148DOPC   H6R17641   2.329   5.359   6.092
  148DOPC   H6S17642   2.282   5.224   6.199
  148DOPC   C2717643   2.445   5.176   6.064
  148DOPC   H7R17644   2.388   5.080   6.063
  148DOPC   H7S17645   2.545   5.153   6.106
  148DOPC   C2817646   2.457   5.221   5.916
  148DOPC   H8R17647   2.356   5.241   5.875
  148DOPC   H8S17648   2.501   5.138   5.856
  148DOPC   C2917649   2.546   5.341   5.908
  148DOPC   H9R17650   2.646   5.328   5.951
  148DOPC  C21017651   2.514   5.461   5.858
  148DOPC  H10R17652   2.582   5.544   5.879
  148DOPC  C21117653   2.387   5.511   5.797
  148DOPC  H11R17654   2.382   5.617   5.830
  148DOPC  H11S17655   2.298   5.459   5.837
  148DOPC  C21217656   2.383   5.513   5.643
  148DOPC  H12R17657   2.283   5.548   5.609
  148DOPC  H12S17658   2.397   5.410   5.604
  148DOPC  C21317659   2.490   5.606   5.582
  148DOPC  H13R17660   2.589   5.572   5.618
  148DOPC  H13S17661   2.474   5.710   5.618
  148DOPC  C21417662   2.495   5.604   5.429
  148DOPC  H14R17663   2.485   5.500   5.392
  148DOPC  H14S17664   2.595   5.641   5.394
  148DOPC  C21517665   2.393   5.695   5.361
  148DOPC  H15R17666   2.405   5.801   5.393
  148DOPC  H15S17667   2.291   5.663   5.394
  148DOPC  C21617668   2.402   5.683   5.208
  148DOPC  H16R17669   2.313   5.734   5.170
  148DOPC  H16S17670   2.394   5.576   5.179
  148DOPC  C21717671   2.521   5.748   5.137
  148DOPC  H17R17672   2.505   5.735   5.027
  148DOPC  H17S17673   2.613   5.693   5.162
  148DOPC  C21817674   2.541   5.898   5.163
  148DOPC  H18R17675   2.546   5.920   5.272
  148DOPC  H18S17676   2.457   5.955   5.119
  148DOPC  H18T17677   2.635   5.934   5.116
  148DOPC   C3317678   2.603   5.799   6.369
  148DOPC   H3X17679   2.609   5.693   6.399
  148DOPC   H3Y17680   2.708   5.833   6.359
  148DOPC   C3417681   2.534   5.807   6.231
  148DOPC   H4X17682   2.591   5.879   6.169
  148DOPC   H4Y17683   2.431   5.847   6.239
  148DOPC   C3517684   2.535   5.676   6.153
  148DOPC   H5X17685   2.503   5.697   6.048
  148DOPC   H5Y17686   2.458   5.608   6.194
  148DOPC   C3617687   2.672   5.608   6.153
  148DOPC   H6X17688   2.695   5.569   6.255
  148DOPC   H6Y17689   2.669   5.518   6.087
  148DOPC   C3717690   2.788   5.699   6.110
  148DOPC   H7X17691   2.796   5.786   6.177
  148DOPC   H7Y17692   2.882   5.642   6.120
  148DOPC   C3817693   2.775   5.752   5.967
  148DOPC   H8X17694   2.851   5.831   5.953
  148DOPC   H8Y17695   2.676   5.800   5.953
  148DOPC   C3917696   2.796   5.644   5.867
  148DOPC   H9X17697   2.798   5.540   5.905
  148DOPC  C31017698   2.821   5.666   5.738
  148DOPC  H10X17699   2.837   5.579   5.672
  148DOPC  C31117700   2.833   5.802   5.676
  148DOPC  H11X17701   2.940   5.826   5.669
  148DOPC  H11Y17702   2.787   5.881   5.738
  148DOPC  C31217703   2.773   5.802   5.535
  148DOPC  H12X17704   2.775   5.905   5.495
  148DOPC  H12Y17705   2.665   5.779   5.539
  148DOPC  C31317706   2.847   5.702   5.447
  148DOPC  H13X17707   2.952   5.694   5.486
  148DOPC  H13Y17708   2.801   5.601   5.462
  148DOPC  C31417709   2.855   5.729   5.296
  148DOPC  H14X17710   2.791   5.653   5.247
  148DOPC  H14Y17711   2.819   5.831   5.270
  148DOPC  C31517712   2.999   5.710   5.248
  148DOPC  H15X17713   3.028   5.613   5.293
  148DOPC  H15Y17714   3.061   5.791   5.294
  148DOPC  C31617715   3.028   5.699   5.098
  148DOPC  H16X17716   2.989   5.787   5.044
  148DOPC  H16Y17717   3.138   5.695   5.079
  148DOPC  C31717718   2.959   5.580   5.034
  148DOPC  H17X17719   2.980   5.488   5.093
  148DOPC  H17Y17720   2.850   5.600   5.040
  148DOPC  C31817721   2.998   5.560   4.888
  148DOPC  H18X17722   3.037   5.457   4.871
  148DOPC  H18Y17723   2.908   5.575   4.826
  148DOPC  H18Z17724   3.074   5.633   4.855
  149DOPC     N17725   2.516   1.962   6.785
  149DOPC   C1217726   2.500   1.966   6.936
  149DOPC  H12A17727   2.580   1.909   6.984
  149DOPC  H12B17728   2.407   1.918   6.964
  149DOPC   C1317729   2.412   2.049   6.724
  149DOPC  H13A17730   2.315   2.033   6.769
  149DOPC  H13B17731   2.440   2.153   6.743
  149DOPC  H13C17732   2.406   2.034   6.617
  149DOPC   C1417733   2.509   1.822   6.734
  149DOPC  H14A17734   2.415   1.774   6.755
  149DOPC  H14B17735   2.525   1.814   6.626
  149DOPC  H14C17736   2.588   1.760   6.777
  149DOPC   C1517737   2.649   2.018   6.747
  149DOPC  H15A17738   2.652   2.120   6.784
  149DOPC  H15B17739   2.667   2.018   6.641
  149DOPC  H15C17740   2.728   1.965   6.798
  149DOPC   C1117741   2.506   2.104   7.004
  149DOPC  H11A17742   2.441   2.177   6.951
  149DOPC  H11B17743   2.469   2.092   7.108
  149DOPC     P17744   2.660   2.297   7.067
  149DOPC   O1317745   2.797   2.320   7.115
  149DOPC   O1417746   2.549   2.327   7.159
  149DOPC   O1217747   2.641   2.149   7.009
  149DOPC   O1117748   2.637   2.381   6.936
  149DOPC    C117749   2.715   2.359   6.821
  149DOPC    HA17750   2.751   2.255   6.809
  149DOPC    HB17751   2.804   2.424   6.830
  149DOPC    C217752   2.635   2.408   6.699
  149DOPC    HS17753   2.590   2.502   6.735
  149DOPC   O2117754   2.536   2.314   6.650
  149DOPC   C2117755   2.433   2.379   6.592
  149DOPC   O2217756   2.405   2.495   6.612
  149DOPC   C2217757   2.355   2.287   6.500
  149DOPC   H2R17758   2.258   2.268   6.551
  149DOPC   H2S17759   2.407   2.191   6.485
  149DOPC    C317760   2.733   2.438   6.585
  149DOPC    HX17761   2.806   2.516   6.614
  149DOPC    HY17762   2.670   2.476   6.500
  149DOPC   O3117763   2.803   2.317   6.552
  149DOPC   C3117764   2.825   2.309   6.423
  149DOPC   O3217765   2.836   2.403   6.347
  149DOPC   C3217766   2.827   2.164   6.387
  149DOPC   H2X17767   2.900   2.147   6.304
  149DOPC   H2Y17768   2.857   2.103   6.475
  149DOPC   C2317769   2.326   2.353   6.363
  149DOPC   H3R17770   2.299   2.461   6.374
  149DOPC   H3S17771   2.240   2.299   6.319
  149DOPC   C2417772   2.441   2.346   6.264
  149DOPC   H4R17773   2.482   2.243   6.264
  149DOPC   H4S17774   2.520   2.418   6.295
  149DOPC   C2517775   2.399   2.378   6.120
  149DOPC   H5R17776   2.333   2.468   6.118
  149DOPC   H5S17777   2.341   2.292   6.079
  149DOPC   C2617778   2.524   2.405   6.037
  149DOPC   H6R17779   2.611   2.367   6.095
  149DOPC   H6S17780   2.536   2.514   6.029
  149DOPC   C2717781   2.526   2.343   5.898
  149DOPC   H7R17782   2.463   2.404   5.829
  149DOPC   H7S17783   2.478   2.244   5.905
  149DOPC   C2817784   2.669   2.331   5.840
  149DOPC   H8R17785   2.716   2.431   5.837
  149DOPC   H8S17786   2.658   2.300   5.733
  149DOPC   C2917787   2.763   2.241   5.917
  149DOPC   H9R17788   2.785   2.272   6.020
  149DOPC  C21017789   2.818   2.127   5.872
  149DOPC  H10R17790   2.883   2.067   5.939
  149DOPC  C21117791   2.795   2.067   5.736
  149DOPC  H11R17792   2.704   2.108   5.687
  149DOPC  H11S17793   2.774   1.959   5.749
  149DOPC  C21217794   2.909   2.081   5.635
  149DOPC  H12R17795   2.982   2.159   5.667
  149DOPC  H12S17796   2.864   2.113   5.539
  149DOPC  C21317797   2.979   1.949   5.606
  149DOPC  H13R17798   3.018   1.909   5.702
  149DOPC  H13S17799   3.066   1.970   5.539
  149DOPC  C21417800   2.888   1.843   5.541
  149DOPC  H14R17801   2.802   1.817   5.606
  149DOPC  H14S17802   2.950   1.752   5.531
  149DOPC  C21517803   2.839   1.874   5.400
  149DOPC  H15R17804   2.931   1.885   5.338
  149DOPC  H15S17805   2.782   1.970   5.396
  149DOPC  C21617806   2.754   1.763   5.336
  149DOPC  H16R17807   2.647   1.774   5.364
  149DOPC  H16S17808   2.789   1.663   5.369
  149DOPC  C21717809   2.774   1.772   5.185
  149DOPC  H17R17810   2.884   1.770   5.164
  149DOPC  H17S17811   2.732   1.870   5.156
  149DOPC  C21817812   2.708   1.670   5.097
  149DOPC  H18R17813   2.742   1.679   4.992
  149DOPC  H18S17814   2.599   1.688   5.099
  149DOPC  H18T17815   2.731   1.568   5.133
  149DOPC   C3317816   2.693   2.115   6.337
  149DOPC   H3X17817   2.669   2.171   6.244
  149DOPC   H3Y17818   2.612   2.131   6.412
  149DOPC   C3417819   2.708   1.967   6.308
  149DOPC   H4X17820   2.738   1.914   6.400
  149DOPC   H4Y17821   2.791   1.958   6.233
  149DOPC   C3517822   2.584   1.902   6.251
  149DOPC   H5X17823   2.497   1.933   6.311
  149DOPC   H5Y17824   2.592   1.791   6.254
  149DOPC   C3617825   2.564   1.947   6.107
  149DOPC   H6X17826   2.456   1.954   6.086
  149DOPC   H6Y17827   2.604   2.050   6.093
  149DOPC   C3717828   2.630   1.854   6.004
  149DOPC   H7X17829   2.734   1.888   5.991
  149DOPC   H7Y17830   2.632   1.750   6.044
  149DOPC   C3817831   2.559   1.850   5.868
  149DOPC   H8X17832   2.476   1.777   5.871
  149DOPC   H8Y17833   2.629   1.814   5.789
  149DOPC   C3917834   2.507   1.987   5.840
  149DOPC   H9X17835   2.548   2.066   5.902
  149DOPC  C31017836   2.425   2.024   5.743
  149DOPC  H10X17837   2.386   2.126   5.743
  149DOPC  C31117838   2.371   1.932   5.641
  149DOPC  H11X17839   2.262   1.935   5.654
  149DOPC  H11Y17840   2.409   1.827   5.646
  149DOPC  C31217841   2.393   1.992   5.504
  149DOPC  H12X17842   2.353   1.921   5.428
  149DOPC  H12Y17843   2.502   2.003   5.485
  149DOPC  C31317844   2.319   2.125   5.492
  149DOPC  H13X17845   2.220   2.119   5.543
  149DOPC  H13Y17846   2.376   2.207   5.541
  149DOPC  C31417847   2.296   2.157   5.346
  149DOPC  H14X17848   2.219   2.084   5.310
  149DOPC  H14Y17849   2.255   2.259   5.335
  149DOPC  C31517850   2.425   2.144   5.267
  149DOPC  H15X17851   2.411   2.169   5.160
  149DOPC  H15Y17852   2.459   2.038   5.267
  149DOPC  C31617853   2.537   2.231   5.323
  149DOPC  H16X17854   2.562   2.203   5.427
  149DOPC  H16Y17855   2.623   2.207   5.259
  149DOPC  C31717856   2.514   2.382   5.313
  149DOPC  H17X17857   2.413   2.409   5.348
  149DOPC  H17Y17858   2.587   2.433   5.380
  149DOPC  C31817859   2.537   2.428   5.170
  149DOPC  H18X17860   2.645   2.430   5.145
  149DOPC  H18Y17861   2.488   2.360   5.098
  149DOPC  H18Z17862   2.495   2.529   5.153
  150DOPC     N17863   6.066   4.971   7.128
  150DOPC   C1217864   5.944   5.008   7.048
  150DOPC  H12A17865   5.862   5.027   7.116
  150DOPC  H12B17866   5.919   4.922   6.987
  150DOPC   C1317867   6.161   5.087   7.139
  150DOPC  H13A17868   6.258   5.056   7.177
  150DOPC  H13B17869   6.177   5.132   7.040
  150DOPC  H13C17870   6.121   5.166   7.201
  150DOPC   C1417871   6.138   4.862   7.052
  150DOPC  H14A17872   6.080   4.772   7.039
  150DOPC  H14B17873   6.164   4.896   6.951
  150DOPC  H14C17874   6.234   4.837   7.096
  150DOPC   C1517875   6.034   4.916   7.263
  150DOPC  H15A17876   5.956   4.841   7.260
  150DOPC  H15B17877   6.005   4.995   7.331
  150DOPC  H15C17878   6.125   4.871   7.300
  150DOPC   C1117879   5.949   5.126   6.948
  150DOPC  H11A17880   5.873   5.092   6.875
  150DOPC  H11B17881   5.913   5.221   6.993
  150DOPC     P17882   6.116   5.081   6.749
  150DOPC   O1317883   6.153   4.943   6.781
  150DOPC   O1417884   6.218   5.163   6.680
  150DOPC   O1217885   6.074   5.151   6.884
  150DOPC   O1117886   5.981   5.066   6.669
  150DOPC    C117887   5.938   4.937   6.623
  150DOPC    HA17888   5.843   4.914   6.674
  150DOPC    HB17889   6.004   4.850   6.645
  150DOPC    C217890   5.909   4.935   6.471
  150DOPC    HS17891   5.808   4.889   6.458
  150DOPC   O2117892   6.010   4.857   6.404
  150DOPC   C2117893   5.970   4.820   6.283
  150DOPC   O2217894   5.859   4.837   6.237
  150DOPC   C2217895   6.083   4.746   6.213
  150DOPC   H2R17896   6.112   4.662   6.280
  150DOPC   H2S17897   6.165   4.819   6.204
  150DOPC    C317898   5.901   5.077   6.410
  150DOPC    HX17899   5.815   5.120   6.463
  150DOPC    HY17900   5.872   5.072   6.303
  150DOPC   O3117901   6.011   5.168   6.433
  150DOPC   C3117902   6.103   5.178   6.338
  150DOPC   O3217903   6.115   5.102   6.244
  150DOPC   C3217904   6.185   5.308   6.356
  150DOPC   H2X17905   6.115   5.394   6.363
  150DOPC   H2Y17906   6.240   5.299   6.452
  150DOPC   C2317907   6.038   4.697   6.075
  150DOPC   H3R17908   5.937   4.652   6.089
  150DOPC   H3S17909   6.114   4.628   6.026
  150DOPC   C2417910   6.021   4.811   5.975
  150DOPC   H4R17911   6.112   4.876   5.971
  150DOPC   H4S17912   5.938   4.875   6.008
  150DOPC   C2517913   5.985   4.753   5.838
  150DOPC   H5R17914   5.875   4.760   5.827
  150DOPC   H5S17915   6.004   4.644   5.830
  150DOPC   C2617916   6.055   4.830   5.727
  150DOPC   H6R17917   6.151   4.872   5.763
  150DOPC   H6S17918   5.993   4.917   5.696
  150DOPC   C2717919   6.080   4.743   5.607
  150DOPC   H7R17920   5.994   4.673   5.595
  150DOPC   H7S17921   6.170   4.682   5.628
  150DOPC   C2817922   6.102   4.827   5.482
  150DOPC   H8R17923   6.201   4.878   5.487
  150DOPC   H8S17924   6.024   4.906   5.476
  150DOPC   C2917925   6.094   4.735   5.365
  150DOPC   H9R17926   6.181   4.673   5.345
  150DOPC  C21017927   5.986   4.713   5.291
  150DOPC  H10R17928   5.993   4.630   5.219
  150DOPC  C21117929   5.851   4.776   5.311
  150DOPC  H11R17930   5.828   4.786   5.419
  150DOPC  H11S17931   5.781   4.705   5.267
  150DOPC  C21217932   5.815   4.906   5.241
  150DOPC  H12R17933   5.835   4.893   5.132
  150DOPC  H12S17934   5.883   4.987   5.273
  150DOPC  C21317935   5.666   4.947   5.259
  150DOPC  H13R17936   5.640   4.968   5.365
  150DOPC  H13S17937   5.605   4.859   5.229
  150DOPC  C21417938   5.645   5.070   5.167
  150DOPC  H14R17939   5.695   5.043   5.076
  150DOPC  H14S17940   5.715   5.141   5.205
  150DOPC  C21517941   5.507   5.138   5.134
  150DOPC  H15R17942   5.502   5.241   5.175
  150DOPC  H15S17943   5.444   5.077   5.201
  150DOPC  C21617944   5.423   5.130   4.997
  150DOPC  H16R17945   5.371   5.217   5.031
  150DOPC  H16S17946   5.342   5.062   5.019
  150DOPC  C21717947   5.423   5.205   4.853
  150DOPC  H17R17948   5.514   5.260   4.844
  150DOPC  H17S17949   5.351   5.289   4.848
  150DOPC  C21817950   5.402   5.136   4.715
  150DOPC  H18R17951   5.309   5.170   4.666
  150DOPC  H18S17952   5.404   5.026   4.715
  150DOPC  H18T17953   5.487   5.161   4.648
  150DOPC   C3317954   6.287   5.335   6.242
  150DOPC   H3X17955   6.324   5.240   6.198
  150DOPC   H3Y17956   6.375   5.387   6.287
  150DOPC   C3417957   6.234   5.430   6.134
  150DOPC   H4X17958   6.210   5.527   6.180
  150DOPC   H4Y17959   6.136   5.392   6.098
  150DOPC   C3517960   6.332   5.451   6.016
  150DOPC   H5X17961   6.434   5.471   6.053
  150DOPC   H5Y17962   6.300   5.541   5.959
  150DOPC   C3617963   6.332   5.336   5.916
  150DOPC   H6X17964   6.386   5.371   5.825
  150DOPC   H6Y17965   6.385   5.248   5.957
  150DOPC   C3717966   6.189   5.295   5.879
  150DOPC   H7X17967   6.149   5.228   5.958
  150DOPC   H7Y17968   6.125   5.387   5.880
  150DOPC   C3817969   6.172   5.230   5.742
  150DOPC   H8X17970   6.148   5.311   5.672
  150DOPC   H8Y17971   6.083   5.163   5.747
  150DOPC   C3917972   6.292   5.155   5.693
  150DOPC   H9X17973   6.312   5.063   5.749
  150DOPC  C31017974   6.373   5.191   5.592
  150DOPC  H10X17975   6.453   5.121   5.563
  150DOPC  C31117976   6.363   5.313   5.503
  150DOPC  H11X17977   6.448   5.382   5.522
  150DOPC  H11Y17978   6.269   5.371   5.519
  150DOPC  C31217979   6.367   5.269   5.356
  150DOPC  H12X17980   6.465   5.221   5.336
  150DOPC  H12Y17981   6.360   5.358   5.289
  150DOPC  C31317982   6.255   5.171   5.319
  150DOPC  H13X17983   6.243   5.092   5.396
  150DOPC  H13Y17984   6.158   5.224   5.309
  150DOPC  C31417985   6.287   5.102   5.188
  150DOPC  H14X17986   6.395   5.075   5.185
  150DOPC  H14Y17987   6.228   5.009   5.186
  150DOPC  C31517988   6.249   5.184   5.067
  150DOPC  H15X17989   6.319   5.149   4.987
  150DOPC  H15Y17990   6.268   5.292   5.084
  150DOPC  C31617991   6.104   5.164   5.022
  150DOPC  H16X17992   6.086   5.055   5.006
  150DOPC  H16Y17993   6.033   5.197   5.101
  150DOPC  C31717994   6.078   5.237   4.891
  150DOPC  H17X17995   5.979   5.210   4.850
  150DOPC  H17Y17996   6.073   5.346   4.911
  150DOPC  C31817997   6.183   5.204   4.786
  150DOPC  H18X17998   6.155   5.242   4.686
  150DOPC  H18Y17999   6.282   5.248   4.812
  150DOPC  H18Z18000   6.195   5.094   4.780
  151DOPC     N18001   1.442   3.883   6.944
  151DOPC   C1218002   1.305   3.943   6.971
  151DOPC  H12A18003   1.257   3.970   6.878
  151DOPC  H12B18004   1.315   4.034   7.031
  151DOPC   C1318005   1.438   3.816   6.810
  151DOPC  H13A18006   1.427   3.886   6.729
  151DOPC  H13B18007   1.524   3.754   6.792
  151DOPC  H13C18008   1.349   3.752   6.806
  151DOPC   C1418009   1.469   3.778   7.047
  151DOPC  H14A18010   1.468   3.821   7.147
  151DOPC  H14B18011   1.387   3.706   7.046
  151DOPC  H14C18012   1.562   3.727   7.031
  151DOPC   C1518013   1.549   3.986   6.953
  151DOPC  H15A18014   1.548   4.032   7.052
  151DOPC  H15B18015   1.532   4.064   6.881
  151DOPC  H15C18016   1.647   3.942   6.939
  151DOPC   C1118017   1.204   3.853   7.045
  151DOPC  H11A18018   1.238   3.842   7.151
  151DOPC  H11B18019   1.105   3.904   7.053
  151DOPC     P18020   1.076   3.685   6.884
  151DOPC   O1318021   0.992   3.804   6.867
  151DOPC   O1418022   1.019   3.564   6.946
  151DOPC   O1218023   1.194   3.725   6.981
  151DOPC   O1118024   1.163   3.655   6.755
  151DOPC    C118025   1.240   3.535   6.738
  151DOPC    HA18026   1.222   3.460   6.819
  151DOPC    HB18027   1.348   3.559   6.740
  151DOPC    C218028   1.206   3.464   6.603
  151DOPC    HS18029   1.279   3.381   6.587
  151DOPC   O2118030   1.211   3.554   6.490
  151DOPC   C2118031   1.319   3.627   6.470
  151DOPC   O2218032   1.429   3.614   6.523
  151DOPC   C2218033   1.286   3.729   6.360
  151DOPC   H2R18034   1.182   3.763   6.381
  151DOPC   H2S18035   1.286   3.677   6.263
  151DOPC    C318036   1.064   3.398   6.612
  151DOPC    HX18037   0.991   3.468   6.659
  151DOPC    HY18038   1.075   3.312   6.683
  151DOPC   O3118039   1.021   3.346   6.484
  151DOPC   C3118040   0.959   3.431   6.402
  151DOPC   O3218041   0.906   3.536   6.431
  151DOPC   C3218042   0.976   3.376   6.262
  151DOPC   H2X18043   1.084   3.382   6.245
  151DOPC   H2Y18044   0.948   3.270   6.265
  151DOPC   C2318045   1.378   3.853   6.353
  151DOPC   H3R18046   1.475   3.831   6.303
  151DOPC   H3S18047   1.400   3.886   6.457
  151DOPC   C2418048   1.309   3.972   6.284
  151DOPC   H4R18049   1.347   4.061   6.338
  151DOPC   H4S18050   1.199   3.966   6.298
  151DOPC   C2518051   1.340   3.997   6.136
  151DOPC   H5R18052   1.440   4.044   6.128
  151DOPC   H5S18053   1.267   4.071   6.095
  151DOPC   C2618054   1.337   3.873   6.047
  151DOPC   H6R18055   1.239   3.822   6.057
  151DOPC   H6S18056   1.416   3.802   6.080
  151DOPC   C2718057   1.363   3.913   5.902
  151DOPC   H7R18058   1.447   3.982   5.903
  151DOPC   H7S18059   1.275   3.966   5.858
  151DOPC   C2818060   1.417   3.806   5.810
  151DOPC   H8R18061   1.505   3.756   5.856
  151DOPC   H8S18062   1.449   3.852   5.714
  151DOPC   C2918063   1.306   3.711   5.785
  151DOPC   H9R18064   1.210   3.741   5.826
  151DOPC  C21018065   1.323   3.601   5.713
  151DOPC  H10R18066   1.239   3.532   5.697
  151DOPC  C21118067   1.454   3.565   5.652
  151DOPC  H11R18068   1.498   3.481   5.709
  151DOPC  H11S18069   1.530   3.647   5.652
  151DOPC  C21218070   1.428   3.525   5.508
  151DOPC  H12R18071   1.347   3.449   5.502
  151DOPC  H12S18072   1.519   3.473   5.474
  151DOPC  C21318073   1.410   3.635   5.404
  151DOPC  H13R18074   1.369   3.586   5.312
  151DOPC  H13S18075   1.511   3.674   5.379
  151DOPC  C21418076   1.325   3.758   5.437
  151DOPC  H14R18077   1.379   3.823   5.509
  151DOPC  H14S18078   1.227   3.734   5.484
  151DOPC  C21518079   1.297   3.832   5.307
  151DOPC  H15R18080   1.251   3.758   5.238
  151DOPC  H15S18081   1.394   3.863   5.263
  151DOPC  C21618082   1.203   3.950   5.326
  151DOPC  H16R18083   1.256   4.030   5.381
  151DOPC  H16S18084   1.117   3.916   5.389
  151DOPC  C21718085   1.144   4.004   5.195
  151DOPC  H17R18086   1.226   4.031   5.125
  151DOPC  H17S18087   1.089   4.098   5.217
  151DOPC  C21818088   1.047   3.905   5.129
  151DOPC  H18R18089   1.019   3.938   5.027
  151DOPC  H18S18090   0.956   3.892   5.190
  151DOPC  H18T18091   1.095   3.805   5.117
  151DOPC   C3318092   0.894   3.442   6.148
  151DOPC   H3X18093   0.840   3.533   6.181
  151DOPC   H3Y18094   0.818   3.371   6.109
  151DOPC   C3418095   0.984   3.467   6.029
  151DOPC   H4X18096   0.931   3.457   5.932
  151DOPC   H4Y18097   1.051   3.380   6.029
  151DOPC   C3518098   1.061   3.598   6.043
  151DOPC   H5X18099   1.144   3.599   5.970
  151DOPC   H5Y18100   1.107   3.602   6.144
  151DOPC   C3618101   0.969   3.719   6.024
  151DOPC   H6X18102   0.897   3.722   6.110
  151DOPC   H6Y18103   1.027   3.813   6.026
  151DOPC   C3718104   0.886   3.713   5.895
  151DOPC   H7X18105   0.828   3.619   5.894
  151DOPC   H7Y18106   0.812   3.793   5.899
  151DOPC   C3818107   0.971   3.720   5.767
  151DOPC   H8X18108   1.046   3.639   5.777
  151DOPC   H8Y18109   1.027   3.817   5.769
  151DOPC   C3918110   0.898   3.708   5.637
  151DOPC   H9X18111   0.828   3.790   5.616
  151DOPC  C31018112   0.902   3.604   5.551
  151DOPC  H10X18113   0.837   3.605   5.462
  151DOPC  C31118114   0.982   3.478   5.567
  151DOPC  H11X18115   0.916   3.389   5.561
  151DOPC  H11Y18116   1.031   3.471   5.667
  151DOPC  C31218117   1.093   3.466   5.462
  151DOPC  H12X18118   1.156   3.381   5.498
  151DOPC  H12Y18119   1.158   3.554   5.458
  151DOPC  C31318120   1.047   3.425   5.323
  151DOPC  H13X18121   1.135   3.376   5.274
  151DOPC  H13Y18122   0.968   3.349   5.341
  151DOPC  C31418123   0.996   3.526   5.220
  151DOPC  H14X18124   0.896   3.564   5.250
  151DOPC  H14Y18125   1.064   3.612   5.211
  151DOPC  C31518126   0.982   3.453   5.084
  151DOPC  H15X18127   1.083   3.422   5.049
  151DOPC  H15Y18128   0.939   3.523   5.009
  151DOPC  C31618129   0.892   3.329   5.097
  151DOPC  H16X18130   0.943   3.262   5.169
  151DOPC  H16Y18131   0.796   3.356   5.145
  151DOPC  C31718132   0.863   3.248   4.971
  151DOPC  H17X18133   0.959   3.211   4.931
  151DOPC  H17Y18134   0.800   3.160   4.995
  151DOPC  C31818135   0.800   3.330   4.860
  151DOPC  H18X18136   0.789   3.269   4.768
  151DOPC  H18Y18137   0.701   3.367   4.890
  151DOPC  H18Z18138   0.867   3.416   4.838
  152DOPC     N18139   3.947   1.415   6.874
  152DOPC   C1218140   3.990   1.304   6.781
  152DOPC  H12A18141   4.056   1.343   6.705
  152DOPC  H12B18142   3.902   1.263   6.732
  152DOPC   C1318143   4.062   1.470   6.952
  152DOPC  H13A18144   4.137   1.515   6.889
  152DOPC  H13B18145   4.028   1.545   7.023
  152DOPC  H13C18146   4.106   1.391   7.013
  152DOPC   C1418147   3.850   1.361   6.975
  152DOPC  H14A18148   3.823   1.434   7.049
  152DOPC  H14B18149   3.762   1.321   6.928
  152DOPC  H14C18150   3.899   1.277   7.025
  152DOPC   C1518151   3.882   1.526   6.801
  152DOPC  H15A18152   3.859   1.607   6.869
  152DOPC  H15B18153   3.788   1.493   6.758
  152DOPC  H15C18154   3.944   1.564   6.721
  152DOPC   C1118155   4.062   1.185   6.846
  152DOPC  H11A18156   4.098   1.122   6.760
  152DOPC  H11B18157   4.152   1.223   6.899
  152DOPC     P18158   4.045   0.970   6.975
  152DOPC   O1318159   3.966   0.904   7.081
  152DOPC   O1418160   4.188   1.002   7.004
  152DOPC   O1218161   3.977   1.109   6.935
  152DOPC   O1118162   4.029   0.886   6.839
  152DOPC    C118163   3.909   0.897   6.760
  152DOPC    HA18164   3.896   1.001   6.721
  152DOPC    HB18165   3.820   0.873   6.822
  152DOPC    C218166   3.905   0.803   6.634
  152DOPC    HS18167   3.917   0.699   6.672
  152DOPC   O2118168   4.014   0.835   6.544
  152DOPC   C2118169   4.026   0.759   6.436
  152DOPC   O2218170   3.958   0.662   6.408
  152DOPC   C2218171   4.138   0.812   6.347
  152DOPC   H2R18172   4.224   0.742   6.360
  152DOPC   H2S18173   4.169   0.913   6.379
  152DOPC    C318174   3.768   0.814   6.559
  152DOPC    HX18175   3.685   0.818   6.634
  152DOPC    HY18176   3.750   0.721   6.501
  152DOPC   O3118177   3.768   0.925   6.466
  152DOPC   C3118178   3.683   1.023   6.488
  152DOPC   O3218179   3.600   1.027   6.577
  152DOPC   C3218180   3.706   1.135   6.388
  152DOPC   H2X18181   3.752   1.092   6.296
  152DOPC   H2Y18182   3.609   1.179   6.360
  152DOPC   C2318183   4.091   0.811   6.201
  152DOPC   H3R18184   4.077   0.705   6.171
  152DOPC   H3S18185   4.168   0.854   6.134
  152DOPC   C2418186   3.958   0.885   6.182
  152DOPC   H4R18187   3.965   0.989   6.221
  152DOPC   H4S18188   3.876   0.833   6.237
  152DOPC   C2518189   3.917   0.894   6.035
  152DOPC   H5R18190   3.935   0.797   5.986
  152DOPC   H5S18191   3.989   0.964   5.990
  152DOPC   C2618192   3.774   0.944   6.016
  152DOPC   H6R18193   3.722   0.940   6.114
  152DOPC   H6S18194   3.715   0.881   5.946
  152DOPC   C2718195   3.771   1.085   5.958
  152DOPC   H7R18196   3.803   1.079   5.851
  152DOPC   H7S18197   3.849   1.145   6.011
  152DOPC   C2818198   3.634   1.154   5.965
  152DOPC   H8R18199   3.586   1.130   6.062
  152DOPC   H8S18200   3.569   1.112   5.885
  152DOPC   C2918201   3.653   1.303   5.952
  152DOPC   H9R18202   3.706   1.350   6.037
  152DOPC  C21018203   3.619   1.380   5.848
  152DOPC  H10R18204   3.641   1.488   5.852
  152DOPC  C21118205   3.554   1.335   5.720
  152DOPC  H11R18206   3.510   1.421   5.666
  152DOPC  H11S18207   3.471   1.265   5.742
  152DOPC  C21218208   3.652   1.263   5.625
  152DOPC  H12R18209   3.593   1.227   5.538
  152DOPC  H12S18210   3.696   1.174   5.674
  152DOPC  C21318211   3.766   1.350   5.569
  152DOPC  H13R18212   3.844   1.361   5.647
  152DOPC  H13S18213   3.729   1.450   5.538
  152DOPC  C21418214   3.831   1.279   5.451
  152DOPC  H14R18215   3.752   1.230   5.390
  152DOPC  H14S18216   3.892   1.202   5.500
  152DOPC  C21518217   3.922   1.361   5.361
  152DOPC  H15R18218   4.003   1.296   5.320
  152DOPC  H15S18219   3.971   1.440   5.421
  152DOPC  C21618220   3.841   1.417   5.245
  152DOPC  H16R18221   3.743   1.452   5.283
  152DOPC  H16S18222   3.822   1.337   5.170
  152DOPC  C21718223   3.913   1.532   5.179
  152DOPC  H17R18224   4.001   1.487   5.128
  152DOPC  H17S18225   3.948   1.600   5.260
  152DOPC  C21818226   3.830   1.612   5.079
  152DOPC  H18R18227   3.795   1.546   4.998
  152DOPC  H18S18228   3.891   1.694   5.035
  152DOPC  H18T18229   3.742   1.657   5.130
  152DOPC   C3318230   3.798   1.241   6.452
  152DOPC   H3X18231   3.886   1.191   6.498
  152DOPC   H3Y18232   3.742   1.292   6.533
  152DOPC   C3418233   3.851   1.343   6.350
  152DOPC   H4X18234   3.893   1.430   6.406
  152DOPC   H4Y18235   3.769   1.380   6.285
  152DOPC   C3518236   3.962   1.283   6.264
  152DOPC   H5X18237   3.918   1.210   6.193
  152DOPC   H5Y18238   4.032   1.226   6.329
  152DOPC   C3618239   4.041   1.389   6.187
  152DOPC   H6X18240   3.977   1.432   6.107
  152DOPC   H6Y18241   4.067   1.472   6.257
  152DOPC   C3718242   4.172   1.335   6.126
  152DOPC   H7X18243   4.229   1.422   6.086
  152DOPC   H7Y18244   4.233   1.286   6.205
  152DOPC   C3818245   4.146   1.235   6.013
  152DOPC   H8X18246   4.063   1.276   5.951
  152DOPC   H8Y18247   4.107   1.141   6.057
  152DOPC   C3918248   4.269   1.207   5.929
  152DOPC   H9X18249   4.362   1.196   5.985
  152DOPC  C31018250   4.270   1.191   5.795
  152DOPC  H10X18251   4.363   1.163   5.744
  152DOPC  C31118252   4.146   1.199   5.710
  152DOPC  H11X18253   4.169   1.211   5.602
  152DOPC  H11Y18254   4.084   1.287   5.739
  152DOPC  C31218255   4.060   1.073   5.735
  152DOPC  H12X18256   3.958   1.090   5.695
  152DOPC  H12Y18257   4.046   1.064   5.843
  152DOPC  C31318258   4.117   0.941   5.680
  152DOPC  H13X18259   4.207   0.912   5.738
  152DOPC  H13Y18260   4.041   0.862   5.694
  152DOPC  C31418261   4.155   0.950   5.532
  152DOPC  H14X18262   4.233   1.028   5.521
  152DOPC  H14Y18263   4.199   0.856   5.494
  152DOPC  C31518264   4.036   0.987   5.444
  152DOPC  H15X18265   4.073   1.063   5.372
  152DOPC  H15Y18266   3.956   1.030   5.505
  152DOPC  C31618267   3.969   0.870   5.372
  152DOPC  H16X18268   4.047   0.818   5.314
  152DOPC  H16Y18269   3.935   0.799   5.450
  152DOPC  C31718270   3.850   0.904   5.280
  152DOPC  H17X18271   3.843   0.820   5.207
  152DOPC  H17Y18272   3.756   0.902   5.339
  152DOPC  C31818273   3.858   1.037   5.204
  152DOPC  H18X18274   3.774   1.104   5.232
  152DOPC  H18Y18275   3.953   1.091   5.221
  152DOPC  H18Z18276   3.854   1.022   5.095
  153DOPC     N18277   5.316   6.395   7.087
  153DOPC   C1218278   5.446   6.442   7.020
  153DOPC  H12A18279   5.520   6.467   7.095
  153DOPC  H12B18280   5.429   6.532   6.961
  153DOPC   C1318281   5.330   6.248   7.118
  153DOPC  H13A18282   5.238   6.198   7.141
  153DOPC  H13B18283   5.366   6.201   7.024
  153DOPC  H13C18284   5.405   6.227   7.193
  153DOPC   C1418285   5.206   6.405   6.985
  153DOPC  H14A18286   5.181   6.507   6.960
  153DOPC  H14B18287   5.243   6.359   6.893
  153DOPC  H14C18288   5.118   6.351   7.017
  153DOPC   C1518289   5.289   6.481   7.205
  153DOPC  H15A18290   5.359   6.458   7.285
  153DOPC  H15B18291   5.188   6.474   7.241
  153DOPC  H15C18292   5.304   6.586   7.179
  153DOPC   C1118293   5.517   6.345   6.924
  153DOPC  H11A18294   5.588   6.403   6.860
  153DOPC  H11B18295   5.579   6.275   6.986
  153DOPC     P18296   5.484   6.157   6.758
  153DOPC   O1318297   5.524   6.053   6.855
  153DOPC   O1418298   5.586   6.216   6.670
  153DOPC   O1218299   5.423   6.277   6.841
  153DOPC   O1118300   5.355   6.110   6.678
  153DOPC    C118301   5.363   6.016   6.572
  153DOPC    HA18302   5.261   6.001   6.530
  153DOPC    HB18303   5.395   5.917   6.611
  153DOPC    C218304   5.457   6.060   6.456
  153DOPC    HS18305   5.560   6.076   6.495
  153DOPC   O2118306   5.410   6.181   6.392
  153DOPC   C2118307   5.498   6.241   6.310
  153DOPC   O2218308   5.610   6.201   6.285
  153DOPC   C2218309   5.427   6.362   6.244
  153DOPC   H2R18310   5.416   6.438   6.323
  153DOPC   H2S18311   5.326   6.330   6.212
  153DOPC    C318312   5.464   5.940   6.359
  153DOPC    HX18313   5.487   5.853   6.425
  153DOPC    HY18314   5.549   5.952   6.289
  153DOPC   O3118315   5.338   5.915   6.292
  153DOPC   C3118316   5.308   5.999   6.193
  153DOPC   O3218317   5.381   6.078   6.138
  153DOPC   C3218318   5.169   5.975   6.141
  153DOPC   H2X18319   5.159   5.866   6.142
  153DOPC   H2Y18320   5.097   6.025   6.208
  153DOPC   C2318321   5.494   6.426   6.118
  153DOPC   H3R18322   5.480   6.357   6.032
  153DOPC   H3S18323   5.603   6.437   6.131
  153DOPC   C2418324   5.430   6.563   6.085
  153DOPC   H4R18325   5.453   6.636   6.165
  153DOPC   H4S18326   5.320   6.553   6.088
  153DOPC   C2518327   5.470   6.626   5.950
  153DOPC   H5R18328   5.577   6.656   5.950
  153DOPC   H5S18329   5.409   6.718   5.934
  153DOPC   C2618330   5.444   6.531   5.833
  153DOPC   H6R18331   5.521   6.450   5.836
  153DOPC   H6S18332   5.459   6.584   5.736
  153DOPC   C2718333   5.304   6.469   5.837
  153DOPC   H7R18334   5.229   6.550   5.824
  153DOPC   H7S18335   5.283   6.419   5.934
  153DOPC   C2818336   5.284   6.364   5.728
  153DOPC   H8R18337   5.313   6.414   5.632
  153DOPC   H8S18338   5.177   6.339   5.718
  153DOPC   C2918339   5.366   6.240   5.758
  153DOPC   H9R18340   5.346   6.191   5.855
  153DOPC  C21018341   5.462   6.192   5.679
  153DOPC  H10R18342   5.520   6.103   5.710
  153DOPC  C21118343   5.498   6.258   5.549
  153DOPC  H11R18344   5.599   6.227   5.515
  153DOPC  H11S18345   5.508   6.367   5.566
  153DOPC  C21218346   5.390   6.238   5.440
  153DOPC  H12R18347   5.416   6.302   5.353
  153DOPC  H12S18348   5.291   6.273   5.476
  153DOPC  C21318349   5.372   6.094   5.392
  153DOPC  H13R18350   5.310   6.091   5.300
  153DOPC  H13S18351   5.321   6.033   5.470
  153DOPC  C21418352   5.507   6.031   5.364
  153DOPC  H14R18353   5.579   6.040   5.448
  153DOPC  H14S18354   5.551   6.080   5.274
  153DOPC  C21518355   5.498   5.883   5.339
  153DOPC  H15R18356   5.398   5.854   5.304
  153DOPC  H15S18357   5.522   5.828   5.433
  153DOPC  C21618358   5.597   5.858   5.228
  153DOPC  H16R18359   5.687   5.899   5.279
  153DOPC  H16S18360   5.574   5.927   5.144
  153DOPC  C21718361   5.610   5.714   5.181
  153DOPC  H17R18362   5.707   5.691   5.133
  153DOPC  H17S18363   5.544   5.695   5.095
  153DOPC  C21818364   5.585   5.615   5.293
  153DOPC  H18R18365   5.575   5.512   5.252
  153DOPC  H18S18366   5.493   5.632   5.350
  153DOPC  H18T18367   5.673   5.621   5.361
  153DOPC   C3318368   5.168   6.030   5.995
  153DOPC   H3X18369   5.242   5.971   5.936
  153DOPC   H3Y18370   5.201   6.136   5.995
  153DOPC   C3418371   5.037   6.033   5.916
  153DOPC   H4X18372   4.971   6.114   5.954
  153DOPC   H4Y18373   4.981   5.938   5.920
  153DOPC   C3518374   5.066   6.075   5.771
  153DOPC   H5X18375   5.168   6.053   5.737
  153DOPC   H5Y18376   5.060   6.185   5.767
  153DOPC   C3618377   4.963   6.028   5.669
  153DOPC   H6X18378   4.948   5.918   5.665
  153DOPC   H6Y18379   4.867   6.071   5.702
  153DOPC   C3718380   5.002   6.087   5.534
  153DOPC   H7X18381   4.943   6.180   5.521
  153DOPC   H7Y18382   5.109   6.119   5.538
  153DOPC   C3818383   4.989   5.993   5.414
  153DOPC   H8X18384   5.040   5.901   5.438
  153DOPC   H8Y18385   5.049   6.035   5.331
  153DOPC   C3918386   4.852   5.950   5.375
  153DOPC   H9X18387   4.788   5.914   5.457
  153DOPC  C31018388   4.806   5.942   5.250
  153DOPC  H10X18389   4.710   5.895   5.232
  153DOPC  C31118390   4.884   5.971   5.128
  153DOPC  H11X18391   4.858   5.888   5.060
  153DOPC  H11Y18392   4.991   5.962   5.156
  153DOPC  C31218393   4.876   6.086   5.027
  153DOPC  H12X18394   4.853   6.185   5.070
  153DOPC  H12Y18395   4.797   6.060   4.953
  153DOPC  C31318396   5.017   6.081   4.966
  153DOPC  H13X18397   5.083   6.105   5.051
  153DOPC  H13Y18398   5.049   5.979   4.942
  153DOPC  C31418399   5.047   6.173   4.851
  153DOPC  H14X18400   5.099   6.116   4.770
  153DOPC  H14Y18401   4.952   6.212   4.808
  153DOPC  C31518402   5.130   6.292   4.898
  153DOPC  H15X18403   5.054   6.353   4.953
  153DOPC  H15Y18404   5.166   6.348   4.810
  153DOPC  C31618405   5.252   6.272   4.993
  153DOPC  H16X18406   5.228   6.222   5.087
  153DOPC  H16Y18407   5.329   6.206   4.951
  153DOPC  C31718408   5.311   6.408   5.033
  153DOPC  H17X18409   5.338   6.407   5.141
  153DOPC  H17Y18410   5.405   6.425   4.977
  153DOPC  C31818411   5.217   6.525   5.007
  153DOPC  H18X18412   5.130   6.527   5.075
  153DOPC  H18Y18413   5.276   6.614   5.019
  153DOPC  H18Z18414   5.182   6.532   4.902
  154DOPC     N18415   6.927   3.797   7.066
  154DOPC   C1218416   6.849   3.902   6.988
  154DOPC  H12A18417   6.910   3.989   6.969
  154DOPC  H12B18418   6.765   3.936   7.049
  154DOPC   C1318419   6.982   3.861   7.189
  154DOPC  H13A18420   7.020   3.784   7.256
  154DOPC  H13B18421   7.058   3.935   7.165
  154DOPC  H13C18422   6.904   3.913   7.244
  154DOPC   C1418423   7.037   3.733   6.983
  154DOPC  H14A18424   7.115   3.802   6.951
  154DOPC  H14B18425   7.088   3.650   7.031
  154DOPC  H14C18426   6.997   3.690   6.890
  154DOPC   C1518427   6.835   3.686   7.106
  154DOPC  H15A18428   6.747   3.726   7.153
  154DOPC  H15B18429   6.882   3.615   7.174
  154DOPC  H15C18430   6.801   3.631   7.018
  154DOPC   C1118431   6.781   3.856   6.859
  154DOPC  H11A18432   6.763   3.944   6.794
  154DOPC  H11B18433   6.852   3.789   6.804
  154DOPC     P18434   6.577   3.740   6.762
  154DOPC   O1318435   6.540   3.853   6.674
  154DOPC   O1418436   6.474   3.640   6.799
  154DOPC   O1218437   6.656   3.791   6.891
  154DOPC   O1118438   6.697   3.660   6.699
  154DOPC    C118439   6.747   3.541   6.763
  154DOPC    HA18440   6.673   3.494   6.833
  154DOPC    HB18441   6.839   3.560   6.823
  154DOPC    C218442   6.772   3.437   6.653
  154DOPC    HS18443   6.797   3.341   6.703
  154DOPC   O2118444   6.881   3.463   6.563
  154DOPC   C2118445   6.930   3.584   6.565
  154DOPC   O2218446   6.977   3.643   6.660
  154DOPC   C2218447   6.915   3.644   6.426
  154DOPC   H2R18448   6.955   3.747   6.430
  154DOPC   H2S18449   6.807   3.649   6.406
  154DOPC    C318450   6.636   3.427   6.576
  154DOPC    HX18451   6.564   3.493   6.628
  154DOPC    HY18452   6.585   3.331   6.591
  154DOPC   O3118453   6.644   3.478   6.440
  154DOPC   C3118454   6.548   3.431   6.364
  154DOPC   O3218455   6.492   3.324   6.379
  154DOPC   C3218456   6.505   3.537   6.263
  154DOPC   H2X18457   6.468   3.626   6.319
  154DOPC   H2Y18458   6.589   3.570   6.199
  154DOPC   C2318459   6.987   3.562   6.318
  154DOPC   H3R18460   6.935   3.464   6.306
  154DOPC   H3S18461   7.092   3.540   6.349
  154DOPC   C2418462   6.991   3.638   6.186
  154DOPC   H4R18463   7.020   3.568   6.105
  154DOPC   H4S18464   7.067   3.718   6.193
  154DOPC   C2518465   6.862   3.708   6.145
  154DOPC   H5R18466   6.832   3.786   6.219
  154DOPC   H5S18467   6.780   3.633   6.139
  154DOPC   C2618468   6.885   3.773   6.009
  154DOPC   H6R18469   6.957   3.709   5.951
  154DOPC   H6S18470   6.932   3.873   6.021
  154DOPC   C2718471   6.758   3.782   5.926
  154DOPC   H7R18472   6.687   3.848   5.980
  154DOPC   H7S18473   6.710   3.682   5.920
  154DOPC   C2818474   6.784   3.838   5.784
  154DOPC   H8R18475   6.833   3.937   5.792
  154DOPC   H8S18476   6.683   3.857   5.741
  154DOPC   C2918477   6.857   3.750   5.687
  154DOPC   H9R18478   6.966   3.767   5.676
  154DOPC  C21018479   6.795   3.656   5.616
  154DOPC  H10R18480   6.851   3.597   5.541
  154DOPC  C21118481   6.647   3.629   5.627
  154DOPC  H11R18482   6.588   3.721   5.605
  154DOPC  H11S18483   6.620   3.599   5.731
  154DOPC  C21218484   6.598   3.517   5.533
  154DOPC  H12R18485   6.624   3.544   5.428
  154DOPC  H12S18486   6.488   3.509   5.540
  154DOPC  C21318487   6.660   3.382   5.569
  154DOPC  H13R18488   6.642   3.360   5.676
  154DOPC  H13S18489   6.769   3.391   5.556
  154DOPC  C21418490   6.614   3.264   5.483
  154DOPC  H14R18491   6.507   3.242   5.504
  154DOPC  H14S18492   6.672   3.174   5.514
  154DOPC  C21518493   6.633   3.286   5.332
  154DOPC  H15R18494   6.661   3.188   5.285
  154DOPC  H15S18495   6.716   3.357   5.312
  154DOPC  C21618496   6.504   3.334   5.265
  154DOPC  H16R18497   6.479   3.436   5.302
  154DOPC  H16S18498   6.423   3.265   5.295
  154DOPC  C21718499   6.509   3.338   5.113
  154DOPC  H17R18500   6.534   3.235   5.078
  154DOPC  H17S18501   6.589   3.406   5.080
  154DOPC  C21818502   6.376   3.384   5.053
  154DOPC  H18R18503   6.294   3.319   5.088
  154DOPC  H18S18504   6.379   3.379   4.942
  154DOPC  H18T18505   6.355   3.489   5.082
  154DOPC   C3318506   6.391   3.477   6.180
  154DOPC   H3X18507   6.325   3.411   6.242
  154DOPC   H3Y18508   6.431   3.412   6.098
  154DOPC   C3418509   6.299   3.585   6.129
  154DOPC   H4X18510   6.274   3.657   6.210
  154DOPC   H4Y18511   6.202   3.544   6.097
  154DOPC   C3518512   6.351   3.655   6.005
  154DOPC   H5X18513   6.377   3.578   5.928
  154DOPC   H5Y18514   6.442   3.713   6.029
  154DOPC   C3618515   6.239   3.743   5.952
  154DOPC   H6X18516   6.146   3.684   5.938
  154DOPC   H6Y18517   6.217   3.820   6.029
  154DOPC   C3718518   6.270   3.810   5.819
  154DOPC   H7X18519   6.376   3.843   5.818
  154DOPC   H7Y18520   6.258   3.736   5.737
  154DOPC   C3818521   6.175   3.929   5.802
  154DOPC   H8X18522   6.161   3.976   5.902
  154DOPC   H8Y18523   6.075   3.889   5.773
  154DOPC   C3918524   6.221   4.037   5.709
  154DOPC   H9X18525   6.276   4.118   5.757
  154DOPC  C31018526   6.220   4.032   5.576
  154DOPC  H10X18527   6.256   4.118   5.519
  154DOPC  C31118528   6.172   3.915   5.495
  154DOPC  H11X18529   6.121   3.948   5.402
  154DOPC  H11Y18530   6.101   3.851   5.551
  154DOPC  C31218531   6.297   3.832   5.462
  154DOPC  H12X18532   6.264   3.747   5.399
  154DOPC  H12Y18533   6.342   3.790   5.554
  154DOPC  C31318534   6.408   3.904   5.384
  154DOPC  H13X18535   6.362   3.962   5.301
  154DOPC  H13Y18536   6.463   3.973   5.451
  154DOPC  C31418537   6.502   3.797   5.328
  154DOPC  H14X18538   6.561   3.755   5.410
  154DOPC  H14Y18539   6.437   3.716   5.288
  154DOPC  C31518540   6.598   3.836   5.216
  154DOPC  H15X18541   6.684   3.894   5.257
  154DOPC  H15Y18542   6.545   3.900   5.142
  154DOPC  C31618543   6.645   3.707   5.148
  154DOPC  H16X18544   6.601   3.619   5.199
  154DOPC  H16Y18545   6.603   3.705   5.046
  154DOPC  C31718546   6.796   3.685   5.142
  154DOPC  H17X18547   6.848   3.780   5.118
  154DOPC  H17Y18548   6.829   3.653   5.244
  154DOPC  C31818549   6.832   3.580   5.037
  154DOPC  H18X18550   6.838   3.625   4.936
  154DOPC  H18Y18551   6.929   3.530   5.058
  154DOPC  H18Z18552   6.754   3.501   5.032
  155DOPC     N18553   1.847   1.771   6.809
  155DOPC   C1218554   1.950   1.723   6.911
  155DOPC  H12A18555   2.013   1.805   6.944
  155DOPC  H12B18556   2.019   1.653   6.861
  155DOPC   C1318557   1.735   1.846   6.877
  155DOPC  H13A18558   1.686   1.779   6.947
  155DOPC  H13B18559   1.771   1.931   6.934
  155DOPC  H13C18560   1.662   1.882   6.805
  155DOPC   C1418561   1.795   1.646   6.743
  155DOPC  H14A18562   1.768   1.573   6.820
  155DOPC  H14B18563   1.712   1.662   6.678
  155DOPC  H14C18564   1.875   1.597   6.689
  155DOPC   C1518565   1.907   1.862   6.707
  155DOPC  H15A18566   1.977   1.810   6.644
  155DOPC  H15B18567   1.957   1.947   6.754
  155DOPC  H15C18568   1.829   1.903   6.644
  155DOPC   C1118569   1.897   1.648   7.037
  155DOPC  H11A18570   1.984   1.634   7.106
  155DOPC  H11B18571   1.828   1.716   7.092
  155DOPC     P18572   1.920   1.392   6.985
  155DOPC   O1318573   1.831   1.284   6.934
  155DOPC   O1418574   1.995   1.364   7.111
  155DOPC   O1218575   1.831   1.523   7.009
  155DOPC   O1118576   2.021   1.446   6.872
  155DOPC    C118577   2.073   1.364   6.767
  155DOPC    HA18578   1.994   1.343   6.692
  155DOPC    HB18579   2.107   1.265   6.808
  155DOPC    C218580   2.197   1.428   6.693
  155DOPC    HS18581   2.273   1.449   6.771
  155DOPC   O2118582   2.158   1.551   6.626
  155DOPC   C2118583   2.257   1.629   6.582
  155DOPC   O2218584   2.376   1.605   6.584
  155DOPC   C2218585   2.198   1.768   6.560
  155DOPC   H2R18586   2.215   1.824   6.654
  155DOPC   H2S18587   2.090   1.757   6.540
  155DOPC    C318588   2.263   1.330   6.590
  155DOPC    HX18589   2.289   1.237   6.646
  155DOPC    HY18590   2.360   1.369   6.553
  155DOPC   O3118591   2.172   1.294   6.485
  155DOPC   C3118592   2.182   1.361   6.371
  155DOPC   O3218593   2.258   1.452   6.345
  155DOPC   C3218594   2.076   1.309   6.273
  155DOPC   H2X18595   2.119   1.321   6.171
  155DOPC   H2Y18596   2.057   1.201   6.291
  155DOPC   C2318597   2.260   1.844   6.442
  155DOPC   H3R18598   2.368   1.819   6.429
  155DOPC   H3S18599   2.251   1.954   6.457
  155DOPC   C2418600   2.183   1.810   6.314
  155DOPC   H4R18601   2.078   1.844   6.322
  155DOPC   H4S18602   2.186   1.699   6.302
  155DOPC   C2518603   2.248   1.870   6.191
  155DOPC   H5R18604   2.345   1.818   6.179
  155DOPC   H5S18605   2.265   1.979   6.205
  155DOPC   C2618606   2.169   1.848   6.063
  155DOPC   H6R18607   2.196   1.929   5.992
  155DOPC   H6S18608   2.060   1.853   6.081
  155DOPC   C2718609   2.209   1.714   6.000
  155DOPC   H7R18610   2.199   1.633   6.076
  155DOPC   H7S18611   2.315   1.718   5.971
  155DOPC   C2818612   2.122   1.677   5.879
  155DOPC   H8R18613   2.020   1.677   5.916
  155DOPC   H8S18614   2.147   1.575   5.845
  155DOPC   C2918615   2.115   1.778   5.770
  155DOPC   H9R18616   2.117   1.883   5.802
  155DOPC  C21018617   2.103   1.752   5.639
  155DOPC  H10R18618   2.095   1.836   5.569
  155DOPC  C21118619   2.095   1.617   5.576
  155DOPC  H11R18620   2.005   1.620   5.511
  155DOPC  H11S18621   2.082   1.536   5.651
  155DOPC  C21218622   2.215   1.581   5.490
  155DOPC  H12R18623   2.209   1.473   5.463
  155DOPC  H12S18624   2.307   1.595   5.551
  155DOPC  C21318625   2.220   1.666   5.363
  155DOPC  H13R18626   2.320   1.661   5.316
  155DOPC  H13S18627   2.208   1.772   5.394
  155DOPC  C21418628   2.111   1.634   5.260
  155DOPC  H14R18629   2.085   1.731   5.210
  155DOPC  H14S18630   2.018   1.596   5.307
  155DOPC  C21518631   2.154   1.538   5.147
  155DOPC  H15R18632   2.250   1.579   5.112
  155DOPC  H15S18633   2.080   1.544   5.065
  155DOPC  C21618634   2.169   1.390   5.188
  155DOPC  H16R18635   2.116   1.379   5.284
  155DOPC  H16S18636   2.271   1.357   5.210
  155DOPC  C21718637   2.123   1.282   5.089
  155DOPC  H17R18638   2.014   1.292   5.071
  155DOPC  H17S18639   2.145   1.186   5.142
  155DOPC  C21818640   2.191   1.267   4.953
  155DOPC  H18R18641   2.164   1.351   4.885
  155DOPC  H18S18642   2.156   1.173   4.909
  155DOPC  H18T18643   2.301   1.259   4.963
  155DOPC   C3318644   1.945   1.391   6.281
  155DOPC   H3X18645   1.888   1.367   6.373
  155DOPC   H3Y18646   1.882   1.364   6.193
  155DOPC   C3418647   1.977   1.540   6.277
  155DOPC   H4X18648   2.064   1.553   6.209
  155DOPC   H4Y18649   2.007   1.574   6.379
  155DOPC   C3518650   1.869   1.634   6.223
  155DOPC   H5X18651   1.913   1.737   6.226
  155DOPC   H5Y18652   1.778   1.634   6.287
  155DOPC   C3618653   1.832   1.605   6.078
  155DOPC   H6X18654   1.920   1.569   6.023
  155DOPC   H6Y18655   1.764   1.519   6.072
  155DOPC   C3718656   1.761   1.727   6.019
  155DOPC   H7X18657   1.659   1.708   6.058
  155DOPC   H7Y18658   1.800   1.821   6.064
  155DOPC   C3818659   1.752   1.748   5.867
  155DOPC   H8X18660   1.853   1.742   5.823
  155DOPC   H8Y18661   1.714   1.850   5.845
  155DOPC   C3918662   1.656   1.645   5.817
  155DOPC   H9X18663   1.550   1.661   5.841
  155DOPC  C31018664   1.690   1.537   5.746
  155DOPC  H10X18665   1.614   1.461   5.734
  155DOPC  C31118666   1.828   1.500   5.704
  155DOPC  H11X18667   1.884   1.447   5.784
  155DOPC  H11Y18668   1.881   1.595   5.685
  155DOPC  C31218669   1.828   1.418   5.574
  155DOPC  H12X18670   1.897   1.461   5.499
  155DOPC  H12Y18671   1.728   1.423   5.525
  155DOPC  C31318672   1.873   1.274   5.596
  155DOPC  H13X18673   1.984   1.272   5.612
  155DOPC  H13Y18674   1.829   1.235   5.690
  155DOPC  C31418675   1.835   1.188   5.476
  155DOPC  H14X18676   1.829   1.081   5.505
  155DOPC  H14Y18677   1.734   1.219   5.439
  155DOPC  C31518678   1.934   1.206   5.362
  155DOPC  H15X18679   2.032   1.160   5.391
  155DOPC  H15Y18680   1.948   1.313   5.342
  155DOPC  C31618681   1.885   1.142   5.234
  155DOPC  H16X18682   1.970   1.112   5.171
  155DOPC  H16Y18683   1.849   1.044   5.269
  155DOPC  C31718684   1.775   1.215   5.152
  155DOPC  H17X18685   1.772   1.164   5.053
  155DOPC  H17Y18686   1.681   1.191   5.206
  155DOPC  C31818687   1.763   1.366   5.126
  155DOPC  H18X18688   1.660   1.386   5.086
  155DOPC  H18Y18689   1.772   1.422   5.221
  155DOPC  H18Z18690   1.834   1.405   5.051
  156DOPC     N18691   6.105   5.680   7.003
  156DOPC   C1218692   6.209   5.754   6.918
  156DOPC  H12A18693   6.180   5.745   6.814
  156DOPC  H12B18694   6.305   5.706   6.929
  156DOPC   C1318695   6.119   5.531   6.984
  156DOPC  H13A18696   6.043   5.480   7.041
  156DOPC  H13B18697   6.111   5.499   6.880
  156DOPC  H13C18698   6.215   5.497   7.023
  156DOPC   C1418699   5.966   5.720   6.961
  156DOPC  H14A18700   5.962   5.830   6.951
  156DOPC  H14B18701   5.938   5.678   6.865
  156DOPC  H14C18702   5.892   5.688   7.033
  156DOPC   C1518703   6.126   5.712   7.149
  156DOPC  H15A18704   6.048   5.673   7.214
  156DOPC  H15B18705   6.125   5.820   7.164
  156DOPC  H15C18706   6.220   5.674   7.187
  156DOPC   C1118707   6.228   5.906   6.941
  156DOPC  H11A18708   6.268   5.924   7.043
  156DOPC  H11B18709   6.307   5.943   6.870
  156DOPC     P18710   6.080   6.094   6.826
  156DOPC   O1318711   6.181   6.198   6.857
  156DOPC   O1418712   5.938   6.135   6.832
  156DOPC   O1218713   6.103   5.974   6.927
  156DOPC   O1118714   6.121   6.022   6.690
  156DOPC    C118715   6.035   5.931   6.624
  156DOPC    HA18716   5.971   5.985   6.552
  156DOPC    HB18717   5.968   5.880   6.697
  156DOPC    C218718   6.111   5.818   6.546
  156DOPC    HS18719   6.190   5.777   6.613
  156DOPC   O2118720   6.171   5.868   6.425
  156DOPC   C2118721   6.242   5.779   6.353
  156DOPC   O2218722   6.265   5.664   6.386
  156DOPC   C2218723   6.312   5.852   6.239
  156DOPC   H2R18724   6.417   5.820   6.252
  156DOPC   H2S18725   6.303   5.962   6.253
  156DOPC    C318726   6.007   5.707   6.517
  156DOPC    HX18727   5.978   5.663   6.615
  156DOPC    HY18728   6.054   5.624   6.460
  156DOPC   O3118729   5.888   5.758   6.454
  156DOPC   C3118730   5.885   5.759   6.320
  156DOPC   O3218731   5.972   5.713   6.249
  156DOPC   C3218732   5.751   5.816   6.271
  156DOPC   H2X18733   5.678   5.795   6.352
  156DOPC   H2Y18734   5.766   5.926   6.261
  156DOPC   C2318735   6.285   5.810   6.095
  156DOPC   H3R18736   6.289   5.700   6.092
  156DOPC   H3S18737   6.368   5.847   6.030
  156DOPC   C2418738   6.154   5.858   6.033
  156DOPC   H4R18739   6.167   5.957   5.983
  156DOPC   H4S18740   6.075   5.871   6.110
  156DOPC   C2518741   6.110   5.752   5.931
  156DOPC   H5R18742   6.005   5.769   5.899
  156DOPC   H5S18743   6.112   5.652   5.979
  156DOPC   C2618744   6.200   5.752   5.807
  156DOPC   H6R18745   6.307   5.736   5.834
  156DOPC   H6S18746   6.192   5.853   5.761
  156DOPC   C2718747   6.157   5.643   5.708
  156DOPC   H7R18748   6.046   5.648   5.700
  156DOPC   H7S18749   6.182   5.544   5.751
  156DOPC   C2818750   6.220   5.656   5.569
  156DOPC   H8R18751   6.182   5.574   5.505
  156DOPC   H8S18752   6.330   5.644   5.576
  156DOPC   C2918753   6.184   5.791   5.514
  156DOPC   H9R18754   6.259   5.870   5.527
  156DOPC  C21018755   6.068   5.822   5.455
  156DOPC  H10R18756   6.052   5.923   5.417
  156DOPC  C21118757   5.952   5.731   5.432
  156DOPC  H11R18758   5.859   5.789   5.417
  156DOPC  H11S18759   5.931   5.667   5.519
  156DOPC  C21218760   5.981   5.641   5.310
  156DOPC  H12R18761   5.893   5.579   5.306
  156DOPC  H12S18762   6.067   5.573   5.327
  156DOPC  C21318763   5.994   5.710   5.174
  156DOPC  H13R18764   5.964   5.640   5.094
  156DOPC  H13S18765   6.099   5.735   5.164
  156DOPC  C21418766   5.917   5.840   5.165
  156DOPC  H14R18767   5.960   5.918   5.230
  156DOPC  H14S18768   5.829   5.809   5.219
  156DOPC  C21518769   5.876   5.895   5.028
  156DOPC  H15R18770   5.797   5.829   4.986
  156DOPC  H15S18771   5.961   5.893   4.956
  156DOPC  C21618772   5.823   6.040   5.037
  156DOPC  H16R18773   5.908   6.112   5.026
  156DOPC  H16S18774   5.779   6.056   5.138
  156DOPC  C21718775   5.720   6.072   4.929
  156DOPC  H17R18776   5.635   6.129   4.972
  156DOPC  H17S18777   5.682   5.975   4.891
  156DOPC  C21818778   5.776   6.147   4.810
  156DOPC  H18R18779   5.871   6.100   4.786
  156DOPC  H18S18780   5.793   6.255   4.830
  156DOPC  H18T18781   5.714   6.134   4.720
  156DOPC   C3318782   5.697   5.755   6.138
  156DOPC   H3X18783   5.637   5.664   6.162
  156DOPC   H3Y18784   5.783   5.724   6.075
  156DOPC   C3418785   5.600   5.832   6.045
  156DOPC   H4X18786   5.499   5.844   6.090
  156DOPC   H4Y18787   5.586   5.764   5.958
  156DOPC   C3518788   5.649   5.964   5.986
  156DOPC   H5X18789   5.668   6.037   6.067
  156DOPC   H5Y18790   5.567   6.006   5.923
  156DOPC   C3618791   5.774   5.941   5.901
  156DOPC   H6X18792   5.853   5.899   5.966
  156DOPC   H6Y18793   5.752   5.866   5.821
  156DOPC   C3718794   5.829   6.068   5.836
  156DOPC   H7X18795   5.750   6.116   5.774
  156DOPC   H7Y18796   5.855   6.138   5.919
  156DOPC   C3818797   5.953   6.039   5.751
  156DOPC   H8X18798   5.924   5.977   5.663
  156DOPC   H8Y18799   6.023   5.976   5.810
  156DOPC   C3918800   6.022   6.167   5.715
  156DOPC   H9X18801   6.093   6.205   5.791
  156DOPC  C31018802   6.004   6.238   5.603
  156DOPC  H10X18803   6.056   6.334   5.591
  156DOPC  C31118804   5.910   6.202   5.491
  156DOPC  H11X18805   5.817   6.262   5.502
  156DOPC  H11Y18806   5.878   6.096   5.495
  156DOPC  C31218807   5.972   6.227   5.352
  156DOPC  H12X18808   5.971   6.336   5.330
  156DOPC  H12Y18809   5.904   6.179   5.278
  156DOPC  C31318810   6.117   6.176   5.334
  156DOPC  H13X18811   6.189   6.259   5.352
  156DOPC  H13Y18812   6.138   6.100   5.411
  156DOPC  C31418813   6.146   6.113   5.196
  156DOPC  H14X18814   6.052   6.070   5.160
  156DOPC  H14Y18815   6.174   6.190   5.123
  156DOPC  C31518816   6.251   5.998   5.200
  156DOPC  H15X18817   6.231   5.933   5.287
  156DOPC  H15Y18818   6.352   6.042   5.213
  156DOPC  C31618819   6.251   5.910   5.075
  156DOPC  H16X18820   6.149   5.881   5.045
  156DOPC  H16Y18821   6.284   5.978   4.994
  156DOPC  C31718822   6.344   5.785   5.075
  156DOPC  H17X18823   6.334   5.746   4.971
  156DOPC  H17Y18824   6.448   5.823   5.089
  156DOPC  C31818825   6.326   5.662   5.166
  156DOPC  H18X18826   6.295   5.691   5.269
  156DOPC  H18Y18827   6.250   5.592   5.125
  156DOPC  H18Z18828   6.421   5.604   5.173
  157DOPC     N18829   6.008   1.828   6.941
  157DOPC   C1218830   6.060   1.746   6.823
  157DOPC  H12A18831   6.136   1.801   6.769
  157DOPC  H12B18832   5.977   1.735   6.755
  157DOPC   C1318833   6.086   1.795   7.065
  157DOPC  H13A18834   6.190   1.821   7.054
  157DOPC  H13B18835   6.043   1.845   7.151
  157DOPC  H13C18836   6.079   1.688   7.082
  157DOPC   C1418837   5.865   1.791   6.968
  157DOPC  H14A18838   5.856   1.682   6.973
  157DOPC  H14B18839   5.831   1.835   7.062
  157DOPC  H14C18840   5.798   1.824   6.890
  157DOPC   C1518841   6.014   1.976   6.917
  157DOPC  H15A18842   5.943   2.007   6.840
  157DOPC  H15B18843   6.113   2.008   6.888
  157DOPC  H15C18844   5.985   2.028   7.008
  157DOPC   C1118845   6.112   1.600   6.842
  157DOPC  H11A18846   6.150   1.564   6.743
  157DOPC  H11B18847   6.199   1.599   6.911
  157DOPC     P18848   6.035   1.354   6.897
  157DOPC   O1318849   5.943   1.301   7.001
  157DOPC   O1418850   6.179   1.336   6.920
  157DOPC   O1218851   6.009   1.513   6.889
  157DOPC   O1118852   5.996   1.300   6.751
  157DOPC    C118853   5.903   1.379   6.676
  157DOPC    HA18854   5.938   1.485   6.666
  157DOPC    HB18855   5.805   1.378   6.729
  157DOPC    C218856   5.874   1.331   6.530
  157DOPC    HS18857   5.863   1.221   6.531
  157DOPC   O2118858   5.979   1.370   6.439
  157DOPC   C2118859   5.965   1.338   6.311
  157DOPC   O2218860   5.873   1.280   6.258
  157DOPC   C2218861   6.088   1.391   6.242
  157DOPC   H2R18862   6.172   1.337   6.290
  157DOPC   H2S18863   6.102   1.498   6.265
  157DOPC    C318864   5.741   1.399   6.487
  157DOPC    HX18865   5.668   1.385   6.569
  157DOPC    HY18866   5.700   1.348   6.399
  157DOPC   O3118867   5.766   1.538   6.452
  157DOPC   C3118868   5.712   1.630   6.528
  157DOPC   O3218869   5.635   1.612   6.620
  157DOPC   C3218870   5.766   1.767   6.483
  157DOPC   H2X18871   5.792   1.763   6.376
  157DOPC   H2Y18872   5.685   1.840   6.499
  157DOPC   C2318873   6.081   1.372   6.090
  157DOPC   H3R18874   6.069   1.266   6.059
  157DOPC   H3S18875   6.177   1.413   6.051
  157DOPC   C2418876   5.978   1.461   6.025
  157DOPC   H4R18877   5.968   1.552   6.090
  157DOPC   H4S18878   5.880   1.409   6.022
  157DOPC   C2518879   6.018   1.511   5.886
  157DOPC   H5R18880   6.003   1.432   5.810
  157DOPC   H5S18881   6.126   1.538   5.883
  157DOPC   C2618882   5.937   1.637   5.854
  157DOPC   H6R18883   5.973   1.681   5.759
  157DOPC   H6S18884   5.956   1.712   5.934
  157DOPC   C2718885   5.785   1.609   5.846
  157DOPC   H7R18886   5.729   1.704   5.850
  157DOPC   H7S18887   5.752   1.551   5.935
  157DOPC   C2818888   5.750   1.534   5.715
  157DOPC   H8R18889   5.817   1.447   5.712
  157DOPC   H8S18890   5.779   1.599   5.629
  157DOPC   C2918891   5.607   1.488   5.700
  157DOPC   H9R18892   5.551   1.480   5.795
  157DOPC  C21018893   5.543   1.461   5.584
  157DOPC  H10R18894   5.438   1.429   5.588
  157DOPC  C21118895   5.602   1.470   5.444
  157DOPC  H11R18896   5.706   1.431   5.437
  157DOPC  H11S18897   5.609   1.580   5.425
  157DOPC  C21218898   5.513   1.416   5.330
  157DOPC  H12R18899   5.478   1.506   5.276
  157DOPC  H12S18900   5.424   1.365   5.373
  157DOPC  C21318901   5.560   1.326   5.213
  157DOPC  H13R18902   5.503   1.349   5.120
  157DOPC  H13S18903   5.529   1.222   5.238
  157DOPC  C21418904   5.707   1.321   5.176
  157DOPC  H14R18905   5.773   1.336   5.264
  157DOPC  H14S18906   5.733   1.396   5.099
  157DOPC  C21518907   5.730   1.180   5.121
  157DOPC  H15R18908   5.663   1.162   5.033
  157DOPC  H15S18909   5.703   1.106   5.199
  157DOPC  C21618910   5.873   1.155   5.085
  157DOPC  H16R18911   5.938   1.206   5.160
  157DOPC  H16S18912   5.883   1.208   4.988
  157DOPC  C21718913   5.906   1.006   5.081
  157DOPC  H17R18914   5.831   0.955   5.016
  157DOPC  H17S18915   5.892   0.967   5.184
  157DOPC  C21818916   6.045   0.966   5.034
  157DOPC  H18R18917   6.081   0.882   5.097
  157DOPC  H18S18918   6.122   1.044   5.043
  157DOPC  H18T18919   6.044   0.934   4.928
  157DOPC   C3318920   5.880   1.825   6.569
  157DOPC   H3X18921   5.978   1.782   6.538
  157DOPC   H3Y18922   5.857   1.798   6.674
  157DOPC   C3418923   5.881   1.978   6.562
  157DOPC   H4X18924   5.964   2.017   6.624
  157DOPC   H4Y18925   5.785   2.016   6.607
  157DOPC   C3518926   5.892   2.035   6.421
  157DOPC   H5X18927   5.910   2.144   6.426
  157DOPC   H5Y18928   5.795   2.020   6.368
  157DOPC   C3618929   6.002   1.968   6.337
  157DOPC   H6X18930   6.095   1.961   6.398
  157DOPC   H6Y18931   5.972   1.864   6.310
  157DOPC   C3718932   6.036   2.043   6.208
  157DOPC   H7X18933   6.100   2.127   6.237
  157DOPC   H7Y18934   6.097   1.979   6.141
  157DOPC   C3818935   5.915   2.101   6.132
  157DOPC   H8X18936   5.954   2.178   6.061
  157DOPC   H8Y18937   5.848   2.158   6.200
  157DOPC   C3918938   5.836   1.995   6.061
  157DOPC   H9X18939   5.791   1.917   6.125
  157DOPC  C31018940   5.820   1.986   5.928
  157DOPC  H10X18941   5.757   1.904   5.890
  157DOPC  C31118942   5.877   2.078   5.823
  157DOPC  H11X18943   5.958   2.144   5.861
  157DOPC  H11Y18944   5.797   2.143   5.782
  157DOPC  C31218945   5.935   1.996   5.707
  157DOPC  H12X18946   6.020   1.933   5.741
  157DOPC  H12Y18947   5.974   2.066   5.630
  157DOPC  C31318948   5.827   1.909   5.643
  157DOPC  H13X18949   5.814   1.818   5.703
  157DOPC  H13Y18950   5.731   1.964   5.644
  157DOPC  C31418951   5.857   1.866   5.501
  157DOPC  H14X18952   5.781   1.789   5.471
  157DOPC  H14Y18953   5.847   1.953   5.433
  157DOPC  C31518954   5.994   1.803   5.483
  157DOPC  H15X18955   6.008   1.717   5.552
  157DOPC  H15Y18956   6.074   1.878   5.505
  157DOPC  C31618957   6.004   1.756   5.340
  157DOPC  H16X18958   5.937   1.668   5.325
  157DOPC  H16Y18959   5.963   1.838   5.275
  157DOPC  C31718960   6.146   1.728   5.298
  157DOPC  H17X18961   6.218   1.784   5.361
  157DOPC  H17Y18962   6.167   1.619   5.311
  157DOPC  C31818963   6.167   1.770   5.154
  157DOPC  H18X18964   6.074   1.756   5.094
  157DOPC  H18Y18965   6.196   1.877   5.145
  157DOPC  H18Z18966   6.247   1.708   5.108
  158DOPC     N18967   4.181   7.114   6.954
  158DOPC   C1218968   4.086   7.116   6.835
  158DOPC  H12A18969   4.015   7.033   6.845
  158DOPC  H12B18970   4.141   7.101   6.744
  158DOPC   C1318971   4.254   6.984   6.961
  158DOPC  H13A18972   4.182   6.903   6.968
  158DOPC  H13B18973   4.318   6.967   6.876
  158DOPC  H13C18974   4.317   6.980   7.050
  158DOPC   C1418975   4.100   7.132   7.078
  158DOPC  H14A18976   4.161   7.135   7.167
  158DOPC  H14B18977   4.042   7.224   7.068
  158DOPC  H14C18978   4.024   7.054   7.084
  158DOPC   C1518979   4.281   7.226   6.944
  158DOPC  H15A18980   4.232   7.322   6.950
  158DOPC  H15B18981   4.339   7.222   6.852
  158DOPC  H15C18982   4.355   7.216   7.023
  158DOPC   C1118983   4.001   7.244   6.820
  158DOPC  H11A18984   4.067   7.333   6.816
  158DOPC  H11B18985   3.950   7.238   6.720
  158DOPC     P18986   3.770   7.184   6.922
  158DOPC   O1318987   3.688   7.211   7.043
  158DOPC   O1418988   3.811   7.044   6.894
  158DOPC   O1218989   3.907   7.264   6.927
  158DOPC   O1118990   3.693   7.247   6.798
  158DOPC    C118991   3.726   7.377   6.748
  158DOPC    HA18992   3.830   7.408   6.767
  158DOPC    HB18993   3.663   7.453   6.798
  158DOPC    C218994   3.706   7.385   6.595
  158DOPC    HS18995   3.596   7.389   6.582
  158DOPC   O2118996   3.768   7.273   6.526
  158DOPC   C2118997   3.689   7.219   6.433
  158DOPC   O2218998   3.567   7.227   6.435
  158DOPC   C2218999   3.770   7.159   6.318
  158DOPC   H2R19000   3.864   7.217   6.310
  158DOPC   H2S19001   3.712   7.175   6.225
  158DOPC    C319002   3.763   7.518   6.538
  158DOPC    HX19003   3.713   7.601   6.592
  158DOPC    HY19004   3.730   7.527   6.432
  158DOPC   O3119005   3.907   7.531   6.555
  158DOPC   C3119006   3.979   7.484   6.452
  158DOPC   O3219007   3.932   7.439   6.349
  158DOPC   C3219008   4.129   7.492   6.480
  158DOPC   H2X19009   4.170   7.579   6.425
  158DOPC   H2Y19010   4.145   7.508   6.588
  158DOPC   C2319011   3.805   7.010   6.335
  158DOPC   H3R19012   3.713   6.948   6.326
  158DOPC   H3S19013   3.844   6.994   6.439
  158DOPC   C2419014   3.913   6.964   6.236
  158DOPC   H4R19015   3.972   6.884   6.286
  158DOPC   H4S19016   3.982   7.047   6.212
  158DOPC   C2519017   3.856   6.903   6.107
  158DOPC   H5R19018   3.758   6.854   6.129
  158DOPC   H5S19019   3.925   6.824   6.070
  158DOPC   C2619020   3.837   7.005   5.993
  158DOPC   H6R19021   3.937   7.048   5.968
  158DOPC   H6S19022   3.772   7.088   6.026
  158DOPC   C2719023   3.776   6.937   5.870
  158DOPC   H7R19024   3.672   6.905   5.897
  158DOPC   H7S19025   3.834   6.844   5.847
  158DOPC   C2819026   3.769   7.023   5.743
  158DOPC   H8R19027   3.701   7.110   5.762
  158DOPC   H8S19028   3.722   6.962   5.663
  158DOPC   C2919029   3.903   7.073   5.698
  158DOPC   H9R19030   3.989   7.039   5.757
  158DOPC  C21019031   3.924   7.149   5.589
  158DOPC  H10R19032   4.024   7.184   5.566
  158DOPC  C21119033   3.817   7.197   5.494
  158DOPC  H11R19034   3.726   7.133   5.502
  158DOPC  H11S19035   3.853   7.186   5.389
  158DOPC  C21219036   3.775   7.342   5.517
  158DOPC  H12R19037   3.855   7.413   5.487
  158DOPC  H12S19038   3.757   7.359   5.626
  158DOPC  C21319039   3.644   7.370   5.442
  158DOPC  H13R19040   3.597   7.462   5.482
  158DOPC  H13S19041   3.573   7.288   5.466
  158DOPC  C21419042   3.658   7.377   5.288
  158DOPC  H14R19043   3.565   7.424   5.249
  158DOPC  H14S19044   3.662   7.273   5.249
  158DOPC  C21519045   3.780   7.452   5.230
  158DOPC  H15R19046   3.867   7.386   5.231
  158DOPC  H15S19047   3.813   7.539   5.290
  158DOPC  C21619048   3.752   7.502   5.088
  158DOPC  H16R19049   3.651   7.548   5.084
  158DOPC  H16S19050   3.753   7.415   5.017
  158DOPC  C21719051   3.855   7.605   5.041
  158DOPC  H17R19052   3.954   7.555   5.048
  158DOPC  H17S19053   3.856   7.693   5.109
  158DOPC  C21819054   3.830   7.652   4.898
  158DOPC  H18R19055   3.923   7.695   4.853
  158DOPC  H18S19056   3.751   7.730   4.896
  158DOPC  H18T19057   3.797   7.567   4.834
  158DOPC   C3319058   4.203   7.365   6.433
  158DOPC   H3X19059   4.175   7.341   6.328
  158DOPC   H3Y19060   4.173   7.279   6.498
  158DOPC   C3419061   4.356   7.381   6.442
  158DOPC   H4X19062   4.384   7.426   6.540
  158DOPC   H4Y19063   4.389   7.452   6.363
  158DOPC   C3519064   4.432   7.248   6.427
  158DOPC   H5X19065   4.412   7.184   6.515
  158DOPC   H5Y19066   4.541   7.271   6.428
  158DOPC   C3619067   4.399   7.172   6.298
  158DOPC   H6X19068   4.454   7.075   6.299
  158DOPC   H6Y19069   4.290   7.148   6.293
  158DOPC   C3719070   4.442   7.250   6.173
  158DOPC   H7X19071   4.389   7.347   6.167
  158DOPC   H7Y19072   4.551   7.273   6.186
  158DOPC   C3819073   4.426   7.170   6.043
  158DOPC   H8X19074   4.461   7.066   6.059
  158DOPC   H8Y19075   4.493   7.217   5.968
  158DOPC   C3919076   4.284   7.173   5.994
  158DOPC   H9X19077   4.206   7.197   6.069
  158DOPC  C31019078   4.248   7.146   5.868
  158DOPC  H10X19079   4.143   7.159   5.838
  158DOPC  C31119080   4.344   7.108   5.758
  158DOPC  H11X19081   4.295   7.034   5.691
  158DOPC  H11Y19082   4.434   7.057   5.799
  158DOPC  C31219083   4.390   7.228   5.672
  158DOPC  H12X19084   4.466   7.190   5.601
  158DOPC  H12Y19085   4.438   7.306   5.735
  158DOPC  C31319086   4.272   7.286   5.593
  158DOPC  H13X19087   4.214   7.198   5.559
  158DOPC  H13Y19088   4.208   7.347   5.661
  158DOPC  C31419089   4.309   7.367   5.468
  158DOPC  H14X19090   4.226   7.436   5.443
  158DOPC  H14Y19091   4.399   7.429   5.490
  158DOPC  C31519092   4.338   7.277   5.346
  158DOPC  H15X19093   4.409   7.198   5.377
  158DOPC  H15Y19094   4.388   7.337   5.267
  158DOPC  C31619095   4.214   7.208   5.284
  158DOPC  H16X19096   4.251   7.127   5.217
  158DOPC  H16Y19097   4.152   7.159   5.362
  158DOPC  C31719098   4.125   7.299   5.200
  158DOPC  H17X19099   4.075   7.374   5.266
  158DOPC  H17Y19100   4.188   7.356   5.128
  158DOPC  C31819101   4.019   7.221   5.121
  158DOPC  H18X19102   4.066   7.142   5.058
  158DOPC  H18Y19103   3.946   7.172   5.190
  158DOPC  H18Z19104   3.962   7.289   5.055
  159DOPC     N19105   6.664   2.058   7.115
  159DOPC   C1219106   6.782   2.010   7.030
  159DOPC  H12A19107   6.757   1.918   6.977
  159DOPC  H12B19108   6.864   1.984   7.095
  159DOPC   C1319109   6.633   1.957   7.219
  159DOPC  H13A19110   6.550   1.991   7.280
  159DOPC  H13B19111   6.609   1.859   7.178
  159DOPC  H13C19112   6.718   1.942   7.285
  159DOPC   C1419113   6.545   2.077   7.026
  159DOPC  H14A19114   6.517   1.983   6.977
  159DOPC  H14B19115   6.460   2.122   7.074
  159DOPC  H14C19116   6.574   2.139   6.941
  159DOPC   C1519117   6.702   2.188   7.176
  159DOPC  H15A19118   6.798   2.184   7.226
  159DOPC  H15B19119   6.626   2.225   7.243
  159DOPC  H15C19120   6.713   2.259   7.094
  159DOPC   C1119121   6.832   2.108   6.920
  159DOPC  H11A19122   6.862   2.205   6.964
  159DOPC  H11B19123   6.924   2.067   6.872
  159DOPC     P19124   6.694   2.007   6.726
  159DOPC   O1319125   6.552   1.973   6.746
  159DOPC   O1419126   6.791   1.897   6.752
  159DOPC   O1219127   6.728   2.129   6.825
  159DOPC   O1119128   6.718   2.077   6.585
  159DOPC    C119129   6.790   2.202   6.590
  159DOPC    HA19130   6.878   2.193   6.660
  159DOPC    HB19131   6.725   2.284   6.627
  159DOPC    C219132   6.860   2.250   6.460
  159DOPC    HS19133   6.924   2.336   6.492
  159DOPC   O2119134   6.768   2.291   6.358
  159DOPC   C2119135   6.830   2.358   6.261
  159DOPC   O2219136   6.942   2.407   6.269
  159DOPC   C2219137   6.739   2.366   6.140
  159DOPC   H2R19138   6.644   2.415   6.170
  159DOPC   H2S19139   6.715   2.262   6.112
  159DOPC    C319140   6.954   2.141   6.403
  159DOPC    HX19141   7.035   2.133   6.477
  159DOPC    HY19142   7.003   2.173   6.309
  159DOPC   O3119143   6.889   2.012   6.388
  159DOPC   C3119144   6.831   1.991   6.273
  159DOPC   O3219145   6.830   2.067   6.178
  159DOPC   C3219146   6.778   1.847   6.266
  159DOPC   H2X19147   6.837   1.785   6.336
  159DOPC   H2Y19148   6.672   1.847   6.299
  159DOPC   C2319149   6.802   2.439   6.019
  159DOPC   H3R19150   6.902   2.396   5.994
  159DOPC   H3S19151   6.818   2.546   6.045
  159DOPC   C2419152   6.711   2.430   5.896
  159DOPC   H4R19153   6.750   2.497   5.817
  159DOPC   H4S19154   6.609   2.464   5.924
  159DOPC   C2519155   6.701   2.287   5.840
  159DOPC   H5R19156   6.658   2.219   5.917
  159DOPC   H5S19157   6.804   2.250   5.819
  159DOPC   C2619158   6.613   2.279   5.715
  159DOPC   H6R19159   6.525   2.346   5.728
  159DOPC   H6S19160   6.574   2.175   5.704
  159DOPC   C2719161   6.691   2.315   5.588
  159DOPC   H7R19162   6.750   2.407   5.607
  159DOPC   H7S19163   6.619   2.336   5.505
  159DOPC   C2819164   6.783   2.199   5.548
  159DOPC   H8R19165   6.721   2.118   5.504
  159DOPC   H8S19166   6.827   2.156   5.640
  159DOPC   C2919167   6.893   2.235   5.451
  159DOPC   H9R19168   6.876   2.323   5.388
  159DOPC  C21019169   7.011   2.172   5.443
  159DOPC  H10R19170   7.081   2.200   5.364
  159DOPC  C21119171   7.054   2.055   5.528
  159DOPC  H11R19172   7.010   2.059   5.630
  159DOPC  H11S19173   7.164   2.059   5.542
  159DOPC  C21219174   7.014   1.922   5.463
  159DOPC  H12R19175   6.907   1.926   5.433
  159DOPC  H12S19176   7.028   1.840   5.537
  159DOPC  C21319177   7.099   1.889   5.343
  159DOPC  H13R19178   7.206   1.908   5.370
  159DOPC  H13S19179   7.070   1.960   5.263
  159DOPC  C21419180   7.089   1.742   5.298
  159DOPC  H14R19181   6.990   1.722   5.252
  159DOPC  H14S19182   7.100   1.675   5.386
  159DOPC  C21519183   7.201   1.713   5.199
  159DOPC  H15R19184   7.216   1.607   5.177
  159DOPC  H15S19185   7.296   1.745   5.247
  159DOPC  C21619186   7.185   1.795   5.072
  159DOPC  H16R19187   7.277   1.790   5.010
  159DOPC  H16S19188   7.170   1.899   5.107
  159DOPC  C21719189   7.066   1.782   4.979
  159DOPC  H17R19190   7.047   1.887   4.945
  159DOPC  H17S19191   6.975   1.746   5.030
  159DOPC  C21819192   7.101   1.705   4.854
  159DOPC  H18R19193   7.094   1.598   4.877
  159DOPC  H18S19194   7.205   1.721   4.820
  159DOPC  H18T19195   7.034   1.733   4.769
  159DOPC   C3319196   6.793   1.791   6.122
  159DOPC   H3X19197   6.741   1.855   6.048
  159DOPC   H3Y19198   6.748   1.690   6.115
  159DOPC   C3419199   6.943   1.778   6.089
  159DOPC   H4X19200   6.991   1.739   6.180
  159DOPC   H4Y19201   6.982   1.880   6.066
  159DOPC   C3519202   6.982   1.681   5.977
  159DOPC   H5X19203   7.001   1.586   6.027
  159DOPC   H5Y19204   7.080   1.700   5.931
  159DOPC   C3619205   6.884   1.686   5.858
  159DOPC   H6X19206   6.913   1.608   5.784
  159DOPC   H6Y19207   6.780   1.665   5.891
  159DOPC   C3719208   6.892   1.822   5.788
  159DOPC   H7X19209   6.882   1.906   5.859
  159DOPC   H7Y19210   6.994   1.827   5.744
  159DOPC   C3819211   6.796   1.843   5.671
  159DOPC   H8X19212   6.829   1.772   5.592
  159DOPC   H8Y19213   6.813   1.944   5.631
  159DOPC   C3919214   6.649   1.831   5.699
  159DOPC   H9X19215   6.608   1.899   5.775
  159DOPC  C31019216   6.568   1.750   5.630
  159DOPC  H10X19217   6.460   1.746   5.652
  159DOPC  C31119218   6.614   1.661   5.519
  159DOPC  H11X19219   6.527   1.596   5.498
  159DOPC  H11Y19220   6.699   1.596   5.552
  159DOPC  C31219221   6.657   1.731   5.388
  159DOPC  H12X19222   6.687   1.655   5.313
  159DOPC  H12Y19223   6.746   1.795   5.403
  159DOPC  C31319224   6.545   1.816   5.326
  159DOPC  H13X19225   6.457   1.750   5.311
  159DOPC  H13Y19226   6.517   1.896   5.397
  159DOPC  C31419227   6.584   1.877   5.191
  159DOPC  H14X19228   6.640   1.803   5.130
  159DOPC  H14Y19229   6.490   1.900   5.135
  159DOPC  C31519230   6.665   2.008   5.202
  159DOPC  H15X19231   6.703   2.031   5.100
  159DOPC  H15Y19232   6.754   1.995   5.267
  159DOPC  C31619233   6.578   2.124   5.254
  159DOPC  H16X19234   6.475   2.109   5.217
  159DOPC  H16Y19235   6.568   2.114   5.364
  159DOPC  C31719236   6.625   2.268   5.221
  159DOPC  H17X19237   6.543   2.337   5.250
  159DOPC  H17Y19238   6.708   2.291   5.289
  159DOPC  C31819239   6.672   2.303   5.079
  159DOPC  H18X19240   6.594   2.363   5.026
  159DOPC  H18Y19241   6.764   2.364   5.082
  159DOPC  H18Z19242   6.693   2.214   5.017
  160DOPC     N19243   1.883   6.909   6.957
  160DOPC   C1219244   1.833   6.769   6.989
  160DOPC  H12A19245   1.799   6.727   6.895
  160DOPC  H12B19246   1.750   6.776   7.059
  160DOPC   C1319247   1.997   6.892   6.862
  160DOPC  H13A19248   2.078   6.838   6.911
  160DOPC  H13B19249   1.969   6.825   6.780
  160DOPC  H13C19250   2.034   6.984   6.819
  160DOPC   C1419251   1.931   6.973   7.084
  160DOPC  H14A19252   2.012   6.913   7.123
  160DOPC  H14B19253   1.966   7.074   7.068
  160DOPC  H14C19254   1.851   6.976   7.158
  160DOPC   C1519255   1.776   6.995   6.896
  160DOPC  H15A19256   1.811   7.096   6.874
  160DOPC  H15B19257   1.693   7.008   6.967
  160DOPC  H15C19258   1.738   6.952   6.805
  160DOPC   C1119259   1.934   6.663   7.046
  160DOPC  H11A19260   1.979   6.703   7.139
  160DOPC  H11B19261   1.877   6.572   7.074
  160DOPC     P19262   2.010   6.547   6.823
  160DOPC   O1319263   1.960   6.414   6.866
  160DOPC   O1419264   2.129   6.546   6.737
  160DOPC   O1219265   2.039   6.629   6.955
  160DOPC   O1119266   1.888   6.628   6.758
  160DOPC    C119267   1.812   6.578   6.649
  160DOPC    HA19268   1.722   6.528   6.690
  160DOPC    HB19269   1.870   6.504   6.588
  160DOPC    C219270   1.762   6.688   6.549
  160DOPC    HS19271   1.749   6.639   6.449
  160DOPC   O2119272   1.851   6.801   6.544
  160DOPC   C2119273   1.944   6.791   6.452
  160DOPC   O2219274   1.967   6.694   6.383
  160DOPC   C2219275   2.003   6.932   6.431
  160DOPC   H2R19276   2.058   6.955   6.524
  160DOPC   H2S19277   1.918   7.002   6.420
  160DOPC    C319278   1.622   6.748   6.586
  160DOPC    HX19279   1.629   6.774   6.693
  160DOPC    HY19280   1.541   6.672   6.575
  160DOPC   O3119281   1.591   6.870   6.512
  160DOPC   C3119282   1.563   6.849   6.382
  160DOPC   O3219283   1.541   6.740   6.333
  160DOPC   C3219284   1.563   6.984   6.308
  160DOPC   H2X19285   1.465   7.032   6.331
  160DOPC   H2Y19286   1.644   7.047   6.351
  160DOPC   C2319287   2.099   6.946   6.311
  160DOPC   H3R19288   2.132   6.842   6.288
  160DOPC   H3S19289   2.192   7.000   6.337
  160DOPC   C2419290   2.043   6.994   6.179
  160DOPC   H4R19291   2.127   6.999   6.105
  160DOPC   H4S19292   1.993   7.093   6.179
  160DOPC   C2519293   1.946   6.886   6.138
  160DOPC   H5R19294   1.853   6.894   6.197
  160DOPC   H5S19295   1.987   6.785   6.160
  160DOPC   C2619296   1.921   6.884   5.990
  160DOPC   H6R19297   2.018   6.870   5.937
  160DOPC   H6S19298   1.880   6.983   5.960
  160DOPC   C2719299   1.826   6.769   5.957
  160DOPC   H7R19300   1.756   6.752   6.043
  160DOPC   H7S19301   1.883   6.674   5.942
  160DOPC   C2819302   1.745   6.803   5.834
  160DOPC   H8R19303   1.689   6.894   5.863
  160DOPC   H8S19304   1.669   6.726   5.808
  160DOPC   C2919305   1.852   6.826   5.731
  160DOPC   H9R19306   1.898   6.926   5.735
  160DOPC  C21019307   1.888   6.745   5.632
  160DOPC  H10R19308   1.972   6.775   5.568
  160DOPC  C21119309   1.830   6.612   5.596
  160DOPC  H11R19310   1.748   6.582   5.665
  160DOPC  H11S19311   1.909   6.534   5.602
  160DOPC  C21219312   1.777   6.624   5.452
  160DOPC  H12R19313   1.763   6.524   5.409
  160DOPC  H12S19314   1.852   6.674   5.387
  160DOPC  C21319315   1.643   6.701   5.443
  160DOPC  H13R19316   1.661   6.805   5.475
  160DOPC  H13S19317   1.569   6.657   5.513
  160DOPC  C21419318   1.585   6.706   5.301
  160DOPC  H14R19319   1.498   6.638   5.294
  160DOPC  H14S19320   1.663   6.673   5.230
  160DOPC  C21519321   1.541   6.846   5.256
  160DOPC  H15R19322   1.631   6.912   5.262
  160DOPC  H15S19323   1.465   6.886   5.326
  160DOPC  C21619324   1.488   6.848   5.112
  160DOPC  H16R19325   1.427   6.759   5.091
  160DOPC  H16S19326   1.570   6.824   5.043
  160DOPC  C21719327   1.412   6.976   5.071
  160DOPC  H17R19328   1.303   6.956   5.073
  160DOPC  H17S19329   1.441   6.997   4.966
  160DOPC  C21819330   1.439   7.107   5.145
  160DOPC  H18R19331   1.362   7.183   5.121
  160DOPC  H18S19332   1.536   7.147   5.110
  160DOPC  H18T19333   1.443   7.093   5.255
  160DOPC   C3319334   1.579   6.977   6.154
  160DOPC   H3X19335   1.521   6.892   6.112
  160DOPC   H3Y19336   1.684   6.962   6.125
  160DOPC   C3419337   1.532   7.109   6.089
  160DOPC   H4X19338   1.604   7.187   6.122
  160DOPC   H4Y19339   1.434   7.140   6.130
  160DOPC   C3519340   1.527   7.112   5.935
  160DOPC   H5X19341   1.632   7.108   5.903
  160DOPC   H5Y19342   1.487   7.212   5.905
  160DOPC   C3619343   1.443   7.007   5.858
  160DOPC   H6X19344   1.481   6.904   5.872
  160DOPC   H6Y19345   1.340   7.010   5.897
  160DOPC   C3719346   1.422   7.037   5.708
  160DOPC   H7X19347   1.329   6.983   5.676
  160DOPC   H7Y19348   1.403   7.145   5.692
  160DOPC   C3819349   1.535   6.987   5.617
  160DOPC   H8X19350   1.504   7.001   5.511
  160DOPC   H8Y19351   1.544   6.877   5.634
  160DOPC   C3919352   1.664   7.058   5.647
  160DOPC   H9X19353   1.704   7.037   5.746
  160DOPC  C31019354   1.750   7.122   5.568
  160DOPC  H10X19355   1.841   7.166   5.611
  160DOPC  C31119356   1.733   7.137   5.421
  160DOPC  H11X19357   1.713   7.241   5.395
  160DOPC  H11Y19358   1.646   7.078   5.387
  160DOPC  C31219359   1.855   7.084   5.345
  160DOPC  H12X19360   1.933   7.161   5.331
  160DOPC  H12Y19361   1.815   7.058   5.245
  160DOPC  C31319362   1.924   6.961   5.404
  160DOPC  H13X19363   1.962   6.981   5.506
  160DOPC  H13Y19364   1.846   6.882   5.408
  160DOPC  C31419365   2.039   6.911   5.317
  160DOPC  H14X19366   2.123   6.984   5.319
  160DOPC  H14Y19367   2.077   6.814   5.357
  160DOPC  C31519368   1.988   6.893   5.174
  160DOPC  H15X19369   1.985   6.993   5.126
  160DOPC  H15Y19370   1.884   6.853   5.178
  160DOPC  C31619371   2.074   6.802   5.089
  160DOPC  H16X19372   2.041   6.811   4.983
  160DOPC  H16Y19373   2.176   6.844   5.098
  160DOPC  C31719374   2.074   6.654   5.129
  160DOPC  H17X19375   2.148   6.602   5.065
  160DOPC  H17Y19376   2.107   6.643   5.234
  160DOPC  C31819377   1.939   6.585   5.112
  160DOPC  H18X19378   1.948   6.476   5.129
  160DOPC  H18Y19379   1.865   6.626   5.184
  160DOPC  H18Z19380   1.899   6.602   5.010
  161DOPC     N19381   3.840   0.290   7.100
  161DOPC   C1219382   3.799   0.357   6.968
  161DOPC  H12A19383   3.864   0.444   6.951
  161DOPC  H12B19384   3.699   0.397   6.976
  161DOPC   C1319385   3.990   0.296   7.108
  161DOPC  H13A19386   4.023   0.400   7.099
  161DOPC  H13B19387   4.030   0.259   7.201
  161DOPC  H13C19388   4.034   0.244   7.023
  161DOPC   C1419389   3.791   0.148   7.102
  161DOPC  H14A19390   3.839   0.093   7.022
  161DOPC  H14B19391   3.807   0.097   7.196
  161DOPC  H14C19392   3.684   0.147   7.084
  161DOPC   C1519393   3.785   0.367   7.215
  161DOPC  H15A19394   3.677   0.375   7.211
  161DOPC  H15B19395   3.825   0.469   7.216
  161DOPC  H15C19396   3.812   0.322   7.309
  161DOPC   C1119397   3.812   0.272   6.840
  161DOPC  H11A19398   3.752   0.179   6.849
  161DOPC  H11B19399   3.766   0.326   6.753
  161DOPC     P19400   4.041   0.355   6.750
  161DOPC   O1319401   4.183   0.319   6.765
  161DOPC   O1419402   3.994   0.483   6.809
  161DOPC   O1219403   3.949   0.239   6.815
  161DOPC   O1119404   4.006   0.341   6.593
  161DOPC    C119405   3.993   0.206   6.544
  161DOPC    HA19406   3.886   0.180   6.549
  161DOPC    HB19407   4.046   0.132   6.609
  161DOPC    C219408   4.046   0.172   6.399
  161DOPC    HS19409   4.130   0.101   6.416
  161DOPC   O2119410   4.092   0.282   6.316
  161DOPC   C2119411   4.113   0.248   6.187
  161DOPC   O2219412   4.183   0.157   6.148
  161DOPC   C2219413   4.018   0.326   6.093
  161DOPC   H2R19414   3.947   0.252   6.052
  161DOPC   H2S19415   4.078   0.365   6.009
  161DOPC    C319416   3.932   0.099   6.323
  161DOPC    HX19417   3.881   0.180   6.265
  161DOPC    HY19418   3.853   0.057   6.388
  161DOPC   O3119419   3.989  -0.003   6.239
  161DOPC   C3119420   3.901  -0.038   6.146
  161DOPC   O3219421   3.785  -0.002   6.147
  161DOPC   C3219422   3.965  -0.124   6.038
  161DOPC   H2X19423   4.063  -0.162   6.075
  161DOPC   H2Y19424   3.899  -0.211   6.021
  161DOPC   C2319425   3.937   0.440   6.158
  161DOPC   H3R19426   3.997   0.489   6.238
  161DOPC   H3S19427   3.845   0.400   6.206
  161DOPC   C2419428   3.899   0.551   6.060
  161DOPC   H4R19429   3.991   0.599   6.021
  161DOPC   H4S19430   3.840   0.626   6.117
  161DOPC   C2519431   3.819   0.508   5.937
  161DOPC   H5R19432   3.754   0.422   5.963
  161DOPC   H5S19433   3.889   0.469   5.862
  161DOPC   C2619434   3.731   0.623   5.885
  161DOPC   H6R19435   3.702   0.688   5.970
  161DOPC   H6S19436   3.633   0.582   5.851
  161DOPC   C2719437   3.788   0.701   5.764
  161DOPC   H7R19438   3.876   0.762   5.794
  161DOPC   H7S19439   3.711   0.773   5.727
  161DOPC   C2819440   3.829   0.606   5.652
  161DOPC   H8R19441   3.916   0.548   5.685
  161DOPC   H8S19442   3.861   0.660   5.561
  161DOPC   C2919443   3.713   0.516   5.629
  161DOPC   H9R19444   3.696   0.440   5.707
  161DOPC  C21019445   3.632   0.520   5.524
  161DOPC  H10R19446   3.541   0.459   5.526
  161DOPC  C21119447   3.649   0.618   5.412
  161DOPC  H11R19448   3.744   0.593   5.361
  161DOPC  H11S19449   3.660   0.722   5.450
  161DOPC  C21219450   3.535   0.611   5.310
  161DOPC  H12R19451   3.466   0.696   5.329
  161DOPC  H12S19452   3.474   0.519   5.320
  161DOPC  C21319453   3.587   0.617   5.166
  161DOPC  H13R19454   3.649   0.708   5.152
  161DOPC  H13S19455   3.497   0.628   5.102
  161DOPC  C21419456   3.665   0.493   5.120
  161DOPC  H14R19457   3.605   0.401   5.137
  161DOPC  H14S19458   3.758   0.483   5.179
  161DOPC  C21519459   3.704   0.498   4.972
  161DOPC  H15R19460   3.772   0.414   4.954
  161DOPC  H15S19461   3.760   0.592   4.952
  161DOPC  C21619462   3.587   0.486   4.873
  161DOPC  H16R19463   3.607   0.545   4.781
  161DOPC  H16S19464   3.498   0.531   4.922
  161DOPC  C21719465   3.549   0.342   4.834
  161DOPC  H17R19466   3.446   0.345   4.792
  161DOPC  H17S19467   3.546   0.279   4.926
  161DOPC  C21819468   3.640   0.276   4.731
  161DOPC  H18R19469   3.590   0.194   4.676
  161DOPC  H18S19470   3.726   0.231   4.783
  161DOPC  H18T19471   3.677   0.351   4.657
  161DOPC   C3319472   3.985  -0.042   5.909
  161DOPC   H3X19473   4.019  -0.112   5.829
  161DOPC   H3Y19474   4.066   0.032   5.926
  161DOPC   C3419475   3.857   0.031   5.860
  161DOPC   H4X19476   3.825   0.104   5.938
  161DOPC   H4Y19477   3.776  -0.044   5.850
  161DOPC   C3519478   3.870   0.109   5.728
  161DOPC   H5X19479   3.776   0.165   5.711
  161DOPC   H5Y19480   3.883   0.036   5.645
  161DOPC   C3619481   3.985   0.210   5.724
  161DOPC   H6X19482   3.971   0.289   5.801
  161DOPC   H6Y19483   4.077   0.154   5.749
  161DOPC   C3719484   4.013   0.271   5.586
  161DOPC   H7X19485   4.019   0.187   5.514
  161DOPC   H7Y19486   3.929   0.336   5.555
  161DOPC   C3819487   4.148   0.346   5.579
  161DOPC   H8X19488   4.183   0.338   5.474
  161DOPC   H8Y19489   4.224   0.292   5.640
  161DOPC   C3919490   4.145   0.487   5.628
  161DOPC   H9X19491   4.137   0.501   5.737
  161DOPC  C31019492   4.149   0.594   5.548
  161DOPC  H10X19493   4.129   0.693   5.589
  161DOPC  C31119494   4.159   0.584   5.398
  161DOPC  H11X19495   4.241   0.514   5.375
  161DOPC  H11Y19496   4.194   0.681   5.356
  161DOPC  C31219497   4.035   0.533   5.323
  161DOPC  H12X19498   3.959   0.613   5.312
  161DOPC  H12Y19499   3.986   0.450   5.377
  161DOPC  C31319500   4.074   0.485   5.183
  161DOPC  H13X19501   4.153   0.408   5.194
  161DOPC  H13Y19502   3.987   0.436   5.134
  161DOPC  C31419503   4.126   0.602   5.100
  161DOPC  H14X19504   4.045   0.678   5.096
  161DOPC  H14Y19505   4.214   0.647   5.153
  161DOPC  C31519506   4.174   0.569   4.959
  161DOPC  H15X19507   4.240   0.480   4.962
  161DOPC  H15Y19508   4.238   0.654   4.923
  161DOPC  C31619509   4.058   0.552   4.861
  161DOPC  H16X19510   3.966   0.540   4.923
  161DOPC  H16Y19511   4.041   0.645   4.803
  161DOPC  C31719512   4.069   0.430   4.770
  161DOPC  H17X19513   4.068   0.461   4.663
  161DOPC  H17Y19514   4.164   0.375   4.788
  161DOPC  C31819515   3.952   0.337   4.794
  161DOPC  H18X19516   3.934   0.323   4.902
  161DOPC  H18Y19517   3.864   0.387   4.748
  161DOPC  H18Z19518   3.962   0.236   4.752
  162DOPC     N19519   1.301   6.498   6.889
  162DOPC   C1219520   1.312   6.383   6.792
  162DOPC  H12A19521   1.407   6.331   6.809
  162DOPC  H12B19522   1.310   6.421   6.691
  162DOPC   C1319523   1.158   6.541   6.893
  162DOPC  H13A19524   1.125   6.578   6.797
  162DOPC  H13B19525   1.098   6.454   6.920
  162DOPC  H13C19526   1.142   6.616   6.970
  162DOPC   C1419527   1.387   6.616   6.860
  162DOPC  H14A19528   1.350   6.666   6.772
  162DOPC  H14B19529   1.385   6.686   6.943
  162DOPC  H14C19530   1.491   6.589   6.843
  162DOPC   C1519531   1.332   6.444   7.024
  162DOPC  H15A19532   1.306   6.514   7.103
  162DOPC  H15B19533   1.432   6.405   7.032
  162DOPC  H15C19534   1.266   6.358   7.041
  162DOPC   C1119535   1.205   6.270   6.801
  162DOPC  H11A19536   1.106   6.311   6.771
  162DOPC  H11B19537   1.227   6.188   6.728
  162DOPC     P19538   1.290   6.102   6.987
  162DOPC   O1319539   1.274   5.980   6.906
  162DOPC   O1419540   1.268   6.093   7.133
  162DOPC   O1219541   1.194   6.218   6.932
  162DOPC   O1119542   1.438   6.159   6.962
  162DOPC    C119543   1.551   6.072   6.934
  162DOPC    HA19544   1.520   5.969   6.908
  162DOPC    HB19545   1.611   6.062   7.027
  162DOPC    C219546   1.645   6.128   6.820
  162DOPC    HS19547   1.712   6.203   6.865
  162DOPC   O2119548   1.545   6.196   6.737
  162DOPC   C2119549   1.579   6.271   6.634
  162DOPC   O2219550   1.691   6.316   6.620
  162DOPC   C2219551   1.461   6.287   6.532
  162DOPC   H2R19552   1.363   6.274   6.579
  162DOPC   H2S19553   1.467   6.204   6.461
  162DOPC    C319554   1.747   6.016   6.742
  162DOPC    HX19555   1.796   5.959   6.823
  162DOPC    HY19556   1.821   6.084   6.697
  162DOPC   O3119557   1.707   5.916   6.642
  162DOPC   C3119558   1.760   5.809   6.576
  162DOPC   O3219559   1.879   5.791   6.562
  162DOPC   C3219560   1.650   5.703   6.512
  162DOPC   H2X19561   1.724   5.627   6.485
  162DOPC   H2Y19562   1.592   5.658   6.592
  162DOPC   C2319563   1.462   6.399   6.425
  162DOPC   H3R19564   1.556   6.388   6.365
  162DOPC   H3S19565   1.464   6.499   6.473
  162DOPC   C2419566   1.344   6.391   6.325
  162DOPC   H4R19567   1.247   6.395   6.380
  162DOPC   H4S19568   1.346   6.295   6.269
  162DOPC   C2519569   1.348   6.507   6.224
  162DOPC   H5R19570   1.441   6.500   6.163
  162DOPC   H5S19571   1.354   6.602   6.282
  162DOPC   C2619572   1.227   6.523   6.129
  162DOPC   H6R19573   1.251   6.608   6.062
  162DOPC   H6S19574   1.139   6.552   6.190
  162DOPC   C2719575   1.189   6.403   6.040
  162DOPC   H7R19576   1.100   6.430   5.979
  162DOPC   H7S19577   1.158   6.320   6.106
  162DOPC   C2819578   1.301   6.354   5.947
  162DOPC   H8R19579   1.267   6.259   5.901
  162DOPC   H8S19580   1.390   6.330   6.011
  162DOPC   C2919581   1.339   6.452   5.839
  162DOPC   H9R19582   1.276   6.543   5.829
  162DOPC  C21019583   1.444   6.435   5.757
  162DOPC  H10R19584   1.466   6.510   5.680
  162DOPC  C21119585   1.536   6.315   5.763
  162DOPC  H11R19586   1.499   6.237   5.833
  162DOPC  H11S19587   1.636   6.347   5.800
  162DOPC  C21219588   1.555   6.245   5.627
  162DOPC  H12R19589   1.457   6.212   5.585
  162DOPC  H12S19590   1.616   6.154   5.646
  162DOPC  C21319591   1.629   6.332   5.527
  162DOPC  H13R19592   1.701   6.394   5.584
  162DOPC  H13S19593   1.559   6.400   5.474
  162DOPC  C21419594   1.712   6.252   5.426
  162DOPC  H14R19595   1.794   6.198   5.479
  162DOPC  H14S19596   1.760   6.324   5.356
  162DOPC  C21519597   1.631   6.151   5.345
  162DOPC  H15R19598   1.534   6.198   5.316
  162DOPC  H15S19599   1.607   6.062   5.407
  162DOPC  C21619600   1.708   6.111   5.220
  162DOPC  H16R19601   1.780   6.031   5.247
  162DOPC  H16S19602   1.769   6.197   5.185
  162DOPC  C21719603   1.623   6.062   5.104
  162DOPC  H17R19604   1.550   6.140   5.074
  162DOPC  H17S19605   1.565   5.972   5.137
  162DOPC  C21819606   1.713   6.025   4.987
  162DOPC  H18R19607   1.777   6.111   4.957
  162DOPC  H18S19608   1.658   5.988   4.899
  162DOPC  H18T19609   1.780   5.944   5.022
  162DOPC   C3319610   1.559   5.697   6.375
  162DOPC   H3X19611   1.564   5.591   6.342
  162DOPC   H3Y19612   1.605   5.756   6.295
  162DOPC   C3419613   1.406   5.728   6.374
  162DOPC   H4X19614   1.395   5.806   6.444
  162DOPC   H4Y19615   1.351   5.653   6.433
  162DOPC   C3519616   1.329   5.807   6.259
  162DOPC   H5X19617   1.283   5.745   6.181
  162DOPC   H5Y19618   1.401   5.873   6.206
  162DOPC   C3619619   1.220   5.901   6.325
  162DOPC   H6X19620   1.193   5.851   6.420
  162DOPC   H6Y19621   1.274   5.994   6.350
  162DOPC   C3719622   1.083   5.945   6.264
  162DOPC   H7X19623   1.006   5.865   6.259
  162DOPC   H7Y19624   1.040   6.017   6.337
  162DOPC   C3819625   1.093   6.018   6.130
  162DOPC   H8X19626   1.178   5.969   6.078
  162DOPC   H8Y19627   1.124   6.122   6.151
  162DOPC   C3919628   0.968   6.020   6.045
  162DOPC   H9X19629   0.871   6.039   6.095
  162DOPC  C31019630   0.968   5.998   5.913
  162DOPC  H10X19631   0.874   6.003   5.856
  162DOPC  C31119632   1.091   5.967   5.831
  162DOPC  H11X19633   1.171   5.916   5.890
  162DOPC  H11Y19634   1.135   6.060   5.789
  162DOPC  C31219635   1.051   5.870   5.720
  162DOPC  H12X19636   0.970   5.914   5.658
  162DOPC  H12Y19637   1.010   5.777   5.766
  162DOPC  C31319638   1.168   5.833   5.629
  162DOPC  H13X19639   1.265   5.857   5.677
  162DOPC  H13Y19640   1.162   5.724   5.609
  162DOPC  C31419641   1.155   5.901   5.494
  162DOPC  H14X19642   1.080   5.842   5.435
  162DOPC  H14Y19643   1.115   6.003   5.510
  162DOPC  C31519644   1.285   5.914   5.415
  162DOPC  H15X19645   1.317   5.816   5.374
  162DOPC  H15Y19646   1.366   5.950   5.482
  162DOPC  C31619647   1.267   6.014   5.301
  162DOPC  H16X19648   1.272   6.117   5.346
  162DOPC  H16Y19649   1.351   6.006   5.229
  162DOPC  C31719650   1.133   6.002   5.227
  162DOPC  H17X19651   1.046   5.994   5.295
  162DOPC  H17Y19652   1.118   6.100   5.180
  162DOPC  C31819653   1.130   5.890   5.123
  162DOPC  H18X19654   1.039   5.897   5.060
  162DOPC  H18Y19655   1.219   5.895   5.057
  162DOPC  H18Z19656   1.130   5.790   5.172
  163DOPC     N19657   0.243   2.812   6.934
  163DOPC   C1219658   0.328   2.727   6.839
  163DOPC  H12A19659   0.264   2.691   6.759
  163DOPC  H12B19660   0.366   2.640   6.891
  163DOPC   C1319661   0.119   2.737   6.968
  163DOPC  H13A19662   0.057   2.790   7.040
  163DOPC  H13B19663   0.061   2.719   6.878
  163DOPC  H13C19664   0.145   2.640   7.009
  163DOPC   C1419665   0.211   2.940   6.866
  163DOPC  H14A19666   0.304   2.985   6.833
  163DOPC  H14B19667   0.153   2.923   6.776
  163DOPC  H14C19668   0.156   3.010   6.928
  163DOPC   C1519669   0.323   2.840   7.058
  163DOPC  H15A19670   0.270   2.900   7.129
  163DOPC  H15B19671   0.415   2.892   7.031
  163DOPC  H15C19672   0.358   2.748   7.106
  163DOPC   C1119673   0.451   2.794   6.770
  163DOPC  H11A19674   0.493   2.724   6.695
  163DOPC  H11B19675   0.419   2.884   6.713
  163DOPC     P19676   0.639   2.724   6.941
  163DOPC   O1319677   0.594   2.730   7.082
  163DOPC   O1419678   0.782   2.746   6.913
  163DOPC   O1219679   0.550   2.832   6.864
  163DOPC   O1119680   0.584   2.588   6.878
  163DOPC    C119681   0.673   2.485   6.836
  163DOPC    HA19682   0.665   2.400   6.907
  163DOPC    HB19683   0.781   2.516   6.832
  163DOPC    C219684   0.638   2.436   6.693
  163DOPC    HS19685   0.697   2.343   6.676
  163DOPC   O2119686   0.667   2.543   6.601
  163DOPC   C2119687   0.768   2.517   6.522
  163DOPC   O2219688   0.830   2.412   6.517
  163DOPC   C2219689   0.797   2.634   6.432
  163DOPC   H2R19690   0.906   2.634   6.412
  163DOPC   H2S19691   0.767   2.730   6.479
  163DOPC    C319692   0.490   2.396   6.675
  163DOPC    HX19693   0.425   2.478   6.712
  163DOPC    HY19694   0.471   2.307   6.739
  163DOPC   O3119695   0.466   2.361   6.537
  163DOPC   C3119696   0.423   2.461   6.460
  163DOPC   O3219697   0.387   2.570   6.500
  163DOPC   C3219698   0.427   2.421   6.312
  163DOPC   H2X19699   0.533   2.406   6.283
  163DOPC   H2Y19700   0.376   2.324   6.302
  163DOPC   C2319701   0.727   2.611   6.301
  163DOPC   H3R19702   0.617   2.618   6.314
  163DOPC   H3S19703   0.749   2.509   6.259
  163DOPC   C2419704   0.772   2.716   6.201
  163DOPC   H4R19705   0.883   2.710   6.186
  163DOPC   H4S19706   0.744   2.816   6.239
  163DOPC   C2519707   0.698   2.681   6.076
  163DOPC   H5R19708   0.588   2.692   6.095
  163DOPC   H5S19709   0.720   2.573   6.057
  163DOPC   C2619710   0.731   2.755   5.949
  163DOPC   H6R19711   0.839   2.746   5.926
  163DOPC   H6S19712   0.705   2.862   5.953
  163DOPC   C2719713   0.643   2.684   5.847
  163DOPC   H7R19714   0.538   2.719   5.856
  163DOPC   H7S19715   0.639   2.576   5.874
  163DOPC   C2819716   0.696   2.686   5.707
  163DOPC   H8R19717   0.680   2.584   5.670
  163DOPC   H8S19718   0.807   2.697   5.707
  163DOPC   C2919719   0.634   2.797   5.628
  163DOPC   H9R19720   0.717   2.861   5.594
  163DOPC  C21019721   0.508   2.839   5.602
  163DOPC  H10R19722   0.505   2.935   5.549
  163DOPC  C21119723   0.363   2.802   5.634
  163DOPC  H11R19724   0.324   2.856   5.724
  163DOPC  H11S19725   0.341   2.695   5.653
  163DOPC  C21219726   0.279   2.855   5.514
  163DOPC  H12R19727   0.340   2.848   5.421
  163DOPC  H12S19728   0.259   2.964   5.526
  163DOPC  C21319729   0.147   2.782   5.484
  163DOPC  H13R19730   0.070   2.814   5.558
  163DOPC  H13S19731   0.162   2.672   5.497
  163DOPC  C21419732   0.094   2.805   5.341
  163DOPC  H14R19733   0.059   2.910   5.334
  163DOPC  H14S19734   0.003   2.742   5.327
  163DOPC  C21519735   0.193   2.778   5.224
  163DOPC  H15R19736   0.255   2.869   5.209
  163DOPC  H15S19737   0.131   2.767   5.132
  163DOPC  C21619738   0.289   2.657   5.237
  163DOPC  H16R19739   0.233   2.570   5.278
  163DOPC  H16S19740   0.368   2.678   5.311
  163DOPC  C21719741   0.359   2.616   5.104
  163DOPC  H17R19742   0.450   2.681   5.096
  163DOPC  H17S19743   0.293   2.639   5.018
  163DOPC  C21819744   0.405   2.471   5.091
  163DOPC  H18R19745   0.365   2.410   5.174
  163DOPC  H18S19746   0.515   2.467   5.087
  163DOPC  H18T19747   0.378   2.412   5.004
  163DOPC   C3319748   0.362   2.530   6.222
  163DOPC   H3X19749   0.407   2.629   6.248
  163DOPC   H3Y19750   0.253   2.537   6.242
  163DOPC   C3419751   0.381   2.511   6.071
  163DOPC   H4X19752   0.488   2.503   6.044
  163DOPC   H4Y19753   0.341   2.603   6.022
  163DOPC   C3519754   0.306   2.392   6.010
  163DOPC   H5X19755   0.292   2.422   5.903
  163DOPC   H5Y19756   0.205   2.381   6.055
  163DOPC   C3619757   0.383   2.260   6.013
  163DOPC   H6X19758   0.478   2.276   5.960
  163DOPC   H6Y19759   0.409   2.231   6.117
  163DOPC   C3719760   0.311   2.142   5.945
  163DOPC   H7X19761   0.382   2.056   5.936
  163DOPC   H7Y19762   0.231   2.107   6.013
  163DOPC   C3819763   0.248   2.178   5.807
  163DOPC   H8X19764   0.203   2.278   5.806
  163DOPC   H8Y19765   0.163   2.107   5.792
  163DOPC   C3919766   0.350   2.161   5.696
  163DOPC   H9X19767   0.385   2.058   5.698
  163DOPC  C31019768   0.395   2.238   5.594
  163DOPC  H10X19769   0.469   2.190   5.527
  163DOPC  C31119770   0.361   2.377   5.545
  163DOPC  H11X19771   0.279   2.415   5.611
  163DOPC  H11Y19772   0.316   2.366   5.444
  163DOPC  C31219773   0.458   2.501   5.536
  163DOPC  H12X19774   0.480   2.533   5.640
  163DOPC  H12Y19775   0.391   2.579   5.492
  163DOPC  C31319776   0.587   2.520   5.451
  163DOPC  H13X19777   0.590   2.626   5.418
  163DOPC  H13Y19778   0.684   2.505   5.502
  163DOPC  C31419779   0.606   2.434   5.329
  163DOPC  H14X19780   0.623   2.331   5.358
  163DOPC  H14Y19781   0.506   2.428   5.291
  163DOPC  C31519782   0.714   2.493   5.236
  163DOPC  H15X19783   0.796   2.536   5.299
  163DOPC  H15Y19784   0.671   2.581   5.183
  163DOPC  C31619785   0.783   2.392   5.141
  163DOPC  H16X19786   0.817   2.447   5.051
  163DOPC  H16Y19787   0.875   2.358   5.190
  163DOPC  C31719788   0.706   2.264   5.102
  163DOPC  H17X19789   0.668   2.215   5.193
  163DOPC  H17Y19790   0.619   2.290   5.038
  163DOPC  C31819791   0.794   2.161   5.030
  163DOPC  H18X19792   0.847   2.096   5.102
  163DOPC  H18Y19793   0.732   2.095   4.964
  163DOPC  H18Z19794   0.870   2.212   4.969
  164DOPC     N19795   1.160   1.350   7.022
  164DOPC   C1219796   1.249   1.327   6.899
  164DOPC  H12A19797   1.337   1.388   6.907
  164DOPC  H12B19798   1.193   1.357   6.811
  164DOPC   C1319799   1.232   1.312   7.148
  164DOPC  H13A19800   1.330   1.359   7.158
  164DOPC  H13B19801   1.173   1.335   7.236
  164DOPC  H13C19802   1.251   1.205   7.147
  164DOPC   C1419803   1.040   1.262   7.011
  164DOPC  H14A19804   0.984   1.285   6.921
  164DOPC  H14B19805   1.076   1.159   6.997
  164DOPC  H14C19806   0.979   1.264   7.100
  164DOPC   C1519807   1.110   1.488   7.031
  164DOPC  H15A19808   1.057   1.518   6.942
  164DOPC  H15B19809   1.189   1.557   7.057
  164DOPC  H15C19810   1.040   1.498   7.115
  164DOPC   C1119811   1.295   1.183   6.868
  164DOPC  H11A19812   1.355   1.186   6.774
  164DOPC  H11B19813   1.361   1.146   6.950
  164DOPC     P19814   1.196   0.949   6.810
  164DOPC   O1319815   1.066   0.907   6.754
  164DOPC   O1419816   1.243   0.880   6.932
  164DOPC   O1219817   1.182   1.100   6.849
  164DOPC   O1119818   1.307   0.952   6.696
  164DOPC    C119819   1.443   0.915   6.717
  164DOPC    HA19820   1.450   0.814   6.763
  164DOPC    HB19821   1.492   0.987   6.786
  164DOPC    C219822   1.527   0.914   6.584
  164DOPC    HS19823   1.628   0.878   6.612
  164DOPC   O2119824   1.534   1.047   6.530
  164DOPC   C2119825   1.616   1.062   6.428
  164DOPC   O2219826   1.695   0.980   6.386
  164DOPC   C2219827   1.587   1.195   6.365
  164DOPC   H2R19828   1.636   1.274   6.425
  164DOPC   H2S19829   1.477   1.211   6.364
  164DOPC    C319830   1.470   0.815   6.476
  164DOPC    HX19831   1.468   0.718   6.529
  164DOPC    HY19832   1.540   0.801   6.391
  164DOPC   O3119833   1.337   0.847   6.432
  164DOPC   C3119834   1.322   0.906   6.314
  164DOPC   O3219835   1.409   0.920   6.230
  164DOPC   C3219836   1.179   0.957   6.304
  164DOPC   H2X19837   1.111   0.872   6.284
  164DOPC   H2Y19838   1.152   0.999   6.403
  164DOPC   C2319839   1.637   1.193   6.222
  164DOPC   H3R19840   1.595   1.105   6.167
  164DOPC   H3S19841   1.748   1.182   6.218
  164DOPC   C2419842   1.592   1.319   6.151
  164DOPC   H4R19843   1.649   1.404   6.195
  164DOPC   H4S19844   1.485   1.339   6.168
  164DOPC   C2519845   1.621   1.305   6.003
  164DOPC   H5R19846   1.716   1.248   5.992
  164DOPC   H5S19847   1.637   1.405   5.959
  164DOPC   C2619848   1.511   1.234   5.922
  164DOPC   H6R19849   1.433   1.309   5.896
  164DOPC   H6S19850   1.463   1.153   5.981
  164DOPC   C2719851   1.578   1.178   5.796
  164DOPC   H7R19852   1.637   1.087   5.823
  164DOPC   H7S19853   1.653   1.255   5.769
  164DOPC   C2819854   1.489   1.154   5.673
  164DOPC   H8R19855   1.402   1.090   5.697
  164DOPC   H8S19856   1.551   1.102   5.596
  164DOPC   C2919857   1.455   1.293   5.624
  164DOPC   H9R19858   1.545   1.351   5.605
  164DOPC  C21019859   1.343   1.341   5.570
  164DOPC  H10R19860   1.342   1.445   5.534
  164DOPC  C21119861   1.219   1.263   5.544
  164DOPC  H11R19862   1.126   1.312   5.581
  164DOPC  H11S19863   1.222   1.161   5.590
  164DOPC  C21219864   1.215   1.257   5.391
  164DOPC  H12R19865   1.175   1.353   5.351
  164DOPC  H12S19866   1.139   1.181   5.366
  164DOPC  C21319867   1.347   1.229   5.315
  164DOPC  H13R19868   1.409   1.159   5.376
  164DOPC  H13S19869   1.408   1.321   5.304
  164DOPC  C21419870   1.322   1.162   5.179
  164DOPC  H14R19871   1.226   1.114   5.182
  164DOPC  H14S19872   1.394   1.081   5.166
  164DOPC  C21519873   1.283   1.243   5.058
  164DOPC  H15R19874   1.365   1.306   5.016
  164DOPC  H15S19875   1.208   1.315   5.095
  164DOPC  C21619876   1.222   1.154   4.945
  164DOPC  H16R19877   1.304   1.106   4.888
  164DOPC  H16S19878   1.172   1.231   4.882
  164DOPC  C21719879   1.112   1.045   4.959
  164DOPC  H17R19880   1.067   1.041   5.060
  164DOPC  H17S19881   1.158   0.944   4.942
  164DOPC  C21819882   1.003   1.066   4.852
  164DOPC  H18R19883   1.042   1.046   4.751
  164DOPC  H18S19884   0.967   1.171   4.851
  164DOPC  H18T19885   0.914   1.002   4.868
  164DOPC   C3319886   1.161   1.067   6.195
  164DOPC   H3X19887   1.251   1.132   6.190
  164DOPC   H3Y19888   1.078   1.132   6.230
  164DOPC   C3419889   1.121   1.014   6.056
  164DOPC   H4X19890   1.043   0.936   6.070
  164DOPC   H4Y19891   1.208   0.962   6.009
  164DOPC   C3519892   1.070   1.125   5.960
  164DOPC   H5X19893   1.146   1.142   5.881
  164DOPC   H5Y19894   1.067   1.219   6.021
  164DOPC   C3619895   0.934   1.100   5.885
  164DOPC   H6X19896   0.871   1.041   5.949
  164DOPC   H6Y19897   0.886   1.200   5.867
  164DOPC   C3719898   0.947   1.007   5.759
  164DOPC   H7X19899   1.028   1.062   5.708
  164DOPC   H7Y19900   0.987   0.912   5.797
  164DOPC   C3819901   0.838   0.965   5.657
  164DOPC   H8X19902   0.894   0.995   5.564
  164DOPC   H8Y19903   0.766   1.049   5.650
  164DOPC   C3919904   0.769   0.829   5.627
  164DOPC   H9X19905   0.675   0.830   5.692
  164DOPC  C31019906   0.781   0.693   5.573
  164DOPC  H10X19907   0.691   0.633   5.593
  164DOPC  C31119908   0.887   0.597   5.501
  164DOPC  H11X19909   0.807   0.529   5.475
  164DOPC  H11Y19910   0.941   0.540   5.584
  164DOPC  C31219911   0.974   0.536   5.376
  164DOPC  H12X19912   0.906   0.543   5.289
  164DOPC  H12Y19913   0.971   0.425   5.400
  164DOPC  C31319914   1.127   0.540   5.311
  164DOPC  H13X19915   1.152   0.432   5.306
  164DOPC  H13Y19916   1.117   0.579   5.208
  164DOPC  C31419917   1.267   0.606   5.354
  164DOPC  H14X19918   1.303   0.552   5.442
  164DOPC  H14Y19919   1.231   0.703   5.375
  164DOPC  C31519920   1.402   0.651   5.277
  164DOPC  H15X19921   1.485   0.581   5.291
  164DOPC  H15Y19922   1.435   0.738   5.341
  164DOPC  C31619923   1.406   0.716   5.135
  164DOPC  H16X19924   1.306   0.704   5.092
  164DOPC  H16Y19925   1.405   0.826   5.151
  164DOPC  C31719926   1.525   0.685   5.032
  164DOPC  H17X19927   1.489   0.631   4.944
  164DOPC  H17Y19928   1.554   0.777   4.980
  164DOPC  C31819929   1.648   0.598   5.063
  164DOPC  H18X19930   1.653   0.568   5.170
  164DOPC  H18Y19931   1.644   0.505   5.003
  164DOPC  H18Z19932   1.741   0.649   5.033
  165DOPC     N19933   6.143   0.769   7.101
  165DOPC   C1219934   6.125   0.640   7.020
  165DOPC  H12A19935   6.021   0.610   7.028
  165DOPC  H12B19936   6.189   0.562   7.060
  165DOPC   C1319937   6.227   0.865   7.026
  165DOPC  H13A19938   6.326   0.826   7.007
  165DOPC  H13B19939   6.182   0.879   6.926
  165DOPC  H13C19940   6.229   0.963   7.071
  165DOPC   C1419941   6.198   0.739   7.235
  165DOPC  H14A19942   6.297   0.695   7.227
  165DOPC  H14B19943   6.202   0.828   7.297
  165DOPC  H14C19944   6.133   0.669   7.286
  165DOPC   C1519945   6.009   0.837   7.110
  165DOPC  H15A19946   5.977   0.866   7.010
  165DOPC  H15B19947   6.013   0.927   7.171
  165DOPC  H15C19948   5.933   0.771   7.149
  165DOPC   C1119949   6.156   0.646   6.870
  165DOPC  H11A19950   6.265   0.654   6.855
  165DOPC  H11B19951   6.124   0.551   6.821
  165DOPC     P19952   5.976   0.749   6.712
  165DOPC   O1319953   5.929   0.884   6.677
  165DOPC   O1419954   5.878   0.659   6.775
  165DOPC   O1219955   6.098   0.760   6.810
  165DOPC   O1119956   6.045   0.681   6.588
  165DOPC    C119957   6.180   0.711   6.549
  165DOPC    HA19958   6.206   0.642   6.466
  165DOPC    HB19959   6.251   0.691   6.631
  165DOPC    C219960   6.199   0.856   6.498
  165DOPC    HS19961   6.173   0.926   6.581
  165DOPC   O2119962   6.112   0.869   6.388
  165DOPC   C2119963   6.059   0.986   6.367
  165DOPC   O2219964   6.090   1.091   6.421
  165DOPC   C2219965   5.958   0.972   6.255
  165DOPC   H2R19966   5.968   1.060   6.189
  165DOPC   H2S19967   5.857   0.974   6.301
  165DOPC    C319968   6.345   0.883   6.452
  165DOPC    HX19969   6.367   0.805   6.374
  165DOPC    HY19970   6.415   0.866   6.536
  165DOPC   O3119971   6.368   1.010   6.389
  165DOPC   C3119972   6.377   1.116   6.470
  165DOPC   O3219973   6.354   1.115   6.589
  165DOPC   C3219974   6.437   1.235   6.395
  165DOPC   H2X19975   6.378   1.326   6.417
  165DOPC   H2Y19976   6.535   1.250   6.446
  165DOPC   C2319977   5.978   0.842   6.174
  165DOPC   H3R19978   5.889   0.830   6.110
  165DOPC   H3S19979   5.980   0.751   6.239
  165DOPC   C2419980   6.105   0.848   6.088
  165DOPC   H4R19981   6.196   0.856   6.152
  165DOPC   H4S19982   6.099   0.943   6.031
  165DOPC   C2519983   6.119   0.728   5.994
  165DOPC   H5R19984   6.135   0.637   6.056
  165DOPC   H5S19985   6.210   0.741   5.931
  165DOPC   C2619986   5.997   0.705   5.900
  165DOPC   H6R19987   5.923   0.643   5.955
  165DOPC   H6S19988   6.034   0.642   5.816
  165DOPC   C2719989   5.926   0.830   5.839
  165DOPC   H7R19990   5.876   0.889   5.918
  165DOPC   H7S19991   5.848   0.794   5.768
  165DOPC   C2819992   6.026   0.917   5.759
  165DOPC   H8R19993   6.058   0.852   5.677
  165DOPC   H8S19994   6.107   0.919   5.833
  165DOPC   C2919995   6.028   1.061   5.708
  165DOPC   H9R19996   6.028   1.136   5.788
  165DOPC  C21019997   6.044   1.107   5.582
  165DOPC  H10R19998   6.045   1.216   5.568
  165DOPC  C21119999   6.062   1.030   5.453
  165DOPC  H11R20000   5.966   1.031   5.398
  165DOPC  H11S20001   6.085   0.922   5.470
  165DOPC  C21220002   6.168   1.090   5.358
  165DOPC  H12R20003   6.192   1.195   5.384
  165DOPC  H12S20004   6.128   1.091   5.255
  165DOPC  C21320005   6.296   1.006   5.357
  165DOPC  H13R20006   6.272   0.898   5.348
  165DOPC  H13S20007   6.346   1.024   5.454
  165DOPC  C21420008   6.394   1.049   5.250
  165DOPC  H14R20009   6.422   1.152   5.273
  165DOPC  H14S20010   6.341   1.054   5.153
  165DOPC  C21520011   6.521   0.961   5.247
  165DOPC  H15R20012   6.500   0.866   5.195
  165DOPC  H15S20013   6.550   0.937   5.352
  165DOPC  C21620014   6.642   1.029   5.183
  165DOPC  H16R20015   6.657   1.125   5.233
  165DOPC  H16S20016   6.625   1.055   5.077
  165DOPC  C21720017   6.772   0.950   5.197
  165DOPC  H17R20018   6.772   0.867   5.123
  165DOPC  H17S20019   6.777   0.906   5.299
  165DOPC  C21820020   6.894   1.038   5.175
  165DOPC  H18R20021   6.986   0.978   5.157
  165DOPC  H18S20022   6.911   1.105   5.262
  165DOPC  H18T20023   6.875   1.100   5.085
  165DOPC   C3320024   6.465   1.212   6.243
  165DOPC   H3X20025   6.508   1.112   6.225
  165DOPC   H3Y20026   6.539   1.288   6.218
  165DOPC   C3420027   6.351   1.244   6.144
  165DOPC   H4X20028   6.337   1.353   6.165
  165DOPC   H4Y20029   6.259   1.188   6.173
  165DOPC   C3520030   6.372   1.235   5.989
  165DOPC   H5X20031   6.473   1.270   5.961
  165DOPC   H5Y20032   6.306   1.311   5.943
  165DOPC   C3620033   6.333   1.102   5.919
  165DOPC   H6X20034   6.390   1.015   5.961
  165DOPC   H6Y20035   6.222   1.085   5.930
  165DOPC   C3720036   6.338   1.100   5.764
  165DOPC   H7X20037   6.418   1.146   5.711
  165DOPC   H7Y20038   6.267   1.175   5.727
  165DOPC   C3820039   6.315   0.959   5.701
  165DOPC   H8X20040   6.236   0.965   5.626
  165DOPC   H8Y20041   6.286   0.906   5.793
  165DOPC   C3920042   6.412   0.865   5.637
  165DOPC   H9X20043   6.506   0.908   5.600
  165DOPC  C31020044   6.383   0.737   5.611
  165DOPC  H10X20045   6.462   0.675   5.571
  165DOPC  C31120046   6.259   0.656   5.632
  165DOPC  H11X20047   6.171   0.716   5.605
  165DOPC  H11Y20048   6.248   0.618   5.736
  165DOPC  C31220049   6.265   0.538   5.534
  165DOPC  H12X20050   6.346   0.468   5.564
  165DOPC  H12Y20051   6.288   0.572   5.430
  165DOPC  C31320052   6.134   0.460   5.527
  165DOPC  H13X20053   6.151   0.375   5.460
  165DOPC  H13Y20054   6.110   0.418   5.628
  165DOPC  C31420055   6.013   0.538   5.475
  165DOPC  H14X20056   5.926   0.470   5.485
  165DOPC  H14Y20057   5.992   0.627   5.539
  165DOPC  C31520058   6.023   0.583   5.328
  165DOPC  H15X20059   6.072   0.502   5.269
  165DOPC  H15Y20060   6.086   0.674   5.318
  165DOPC  C31620061   5.882   0.608   5.271
  165DOPC  H16X20062   5.809   0.547   5.329
  165DOPC  H16Y20063   5.855   0.714   5.285
  165DOPC  C31720064   5.865   0.565   5.125
  165DOPC  H17X20065   5.884   0.456   5.117
  165DOPC  H17Y20066   5.759   0.581   5.097
  165DOPC  C31820067   5.951   0.641   5.026
  165DOPC  H18X20068   5.922   0.747   5.027
  165DOPC  H18Y20069   6.059   0.632   5.050
  165DOPC  H18Z20070   5.933   0.603   4.922
  166DOPC     N20071   7.313   2.640   6.875
  166DOPC   C1220072   7.349   2.546   6.990
  166DOPC  H12A20073   7.271   2.470   7.001
  166DOPC  H12B20074   7.352   2.598   7.084
  166DOPC   C1320075   7.197   2.726   6.911
  166DOPC  H13A20076   7.111   2.663   6.932
  166DOPC  H13B20077   7.215   2.784   7.000
  166DOPC  H13C20078   7.171   2.791   6.829
  166DOPC   C1420079   7.275   2.555   6.756
  166DOPC  H14A20080   7.245   2.612   6.669
  166DOPC  H14B20081   7.359   2.492   6.729
  166DOPC  H14C20082   7.195   2.485   6.780
  166DOPC   C1520083   7.433   2.722   6.837
  166DOPC  H15A20084   7.508   2.654   6.796
  166DOPC  H15B20085   7.477   2.769   6.924
  166DOPC  H15C20086   7.410   2.796   6.761
  166DOPC   C1120087   7.479   2.464   6.973
  166DOPC  H11A20088   7.565   2.525   6.941
  166DOPC  H11B20089   7.512   2.418   7.070
  166DOPC     P20090   7.376   2.234   6.922
  166DOPC   O1320091   7.253   2.278   6.991
  166DOPC   O1420092   7.462   2.139   6.996
  166DOPC   O1220093   7.456   2.363   6.876
  166DOPC   O1120094   7.345   2.167   6.781
  166DOPC    C120095   7.466   2.149   6.703
  166DOPC    HA20096   7.537   2.080   6.754
  166DOPC    HB20097   7.519   2.245   6.687
  166DOPC    C220098   7.436   2.088   6.565
  166DOPC    HS20099   7.530   2.083   6.506
  166DOPC   O2120100   7.337   2.166   6.494
  166DOPC   C2120101   7.384   2.284   6.456
  166DOPC   O2220102   7.496   2.327   6.473
  166DOPC   C2220103   7.278   2.361   6.379
  166DOPC   H2R20104   7.290   2.470   6.399
  166DOPC   H2S20105   7.179   2.329   6.416
  166DOPC    C320106   7.387   1.943   6.582
  166DOPC    HX20107   7.314   1.936   6.666
  166DOPC    HY20108   7.474   1.879   6.609
  166DOPC   O3120109   7.335   1.899   6.457
  166DOPC   C3120110   7.204   1.914   6.444
  166DOPC   O3220111   7.126   1.931   6.535
  166DOPC   C3220112   7.173   1.909   6.296
  166DOPC   H2X20113   7.150   1.805   6.269
  166DOPC   H2Y20114   7.084   1.969   6.277
  166DOPC   C2320115   7.288   2.333   6.227
  166DOPC   H3R20116   7.195   2.369   6.176
  166DOPC   H3S20117   7.289   2.224   6.215
  166DOPC   C2420118   7.411   2.391   6.156
  166DOPC   H4R20119   7.503   2.375   6.216
  166DOPC   H4S20120   7.398   2.501   6.143
  166DOPC   C2520121   7.433   2.330   6.017
  166DOPC   H5R20122   7.454   2.221   6.025
  166DOPC   H5S20123   7.525   2.374   5.971
  166DOPC   C2620124   7.314   2.354   5.923
  166DOPC   H6R20125   7.274   2.457   5.938
  166DOPC   H6S20126   7.232   2.282   5.945
  166DOPC   C2720127   7.356   2.339   5.777
  166DOPC   H7R20128   7.419   2.247   5.773
  166DOPC   H7S20129   7.419   2.425   5.748
  166DOPC   C2820130   7.238   2.325   5.680
  166DOPC   H8R20131   7.178   2.418   5.677
  166DOPC   H8S20132   7.171   2.243   5.713
  166DOPC   C2920133   7.302   2.292   5.549
  166DOPC   H9R20134   7.379   2.215   5.556
  166DOPC  C21020135   7.285   2.351   5.432
  166DOPC  H10R20136   7.335   2.305   5.345
  166DOPC  C21120137   7.194   2.469   5.405
  166DOPC  H11R20138   7.228   2.555   5.467
  166DOPC  H11S20139   7.090   2.445   5.436
  166DOPC  C21220140   7.197   2.514   5.257
  166DOPC  H12R20141   7.140   2.607   5.243
  166DOPC  H12S20142   7.153   2.436   5.192
  166DOPC  C21320143   7.340   2.545   5.216
  166DOPC  H13R20144   7.389   2.447   5.226
  166DOPC  H13S20145   7.387   2.616   5.288
  166DOPC  C21420146   7.364   2.593   5.072
  166DOPC  H14R20147   7.321   2.694   5.056
  166DOPC  H14S20148   7.312   2.523   5.004
  166DOPC  C21520149   7.515   2.594   5.041
  166DOPC  H15R20150   7.560   2.692   5.067
  166DOPC  H15S20151   7.530   2.579   4.931
  166DOPC  C21620152   7.590   2.483   5.116
  166DOPC  H16R20153   7.539   2.387   5.093
  166DOPC  H16S20154   7.586   2.499   5.227
  166DOPC  C21720155   7.736   2.468   5.083
  166DOPC  H17R20156   7.784   2.553   5.130
  166DOPC  H17S20157   7.756   2.478   4.975
  166DOPC  C21820158   7.789   2.335   5.137
  166DOPC  H18R20159   7.843   2.347   5.233
  166DOPC  H18S20160   7.855   2.284   5.063
  166DOPC  H18T20161   7.703   2.267   5.156
  166DOPC   C3320162   7.287   1.963   6.209
  166DOPC   H3X20163   7.360   1.882   6.187
  166DOPC   H3Y20164   7.346   2.041   6.262
  166DOPC   C3420165   7.230   2.022   6.080
  166DOPC   H4X20166   7.291   2.107   6.047
  166DOPC   H4Y20167   7.125   2.056   6.089
  166DOPC   C3520168   7.246   1.916   5.975
  166DOPC   H5X20169   7.193   1.826   6.007
  166DOPC   H5Y20170   7.353   1.890   5.983
  166DOPC   C3620171   7.210   1.959   5.833
  166DOPC   H6X20172   7.101   1.977   5.824
  166DOPC   H6Y20173   7.256   2.058   5.811
  166DOPC   C3720174   7.261   1.853   5.734
  166DOPC   H7X20175   7.203   1.759   5.745
  166DOPC   H7Y20176   7.247   1.889   5.630
  166DOPC   C3820177   7.411   1.822   5.756
  166DOPC   H8X20178   7.448   1.760   5.672
  166DOPC   H8Y20179   7.425   1.762   5.847
  166DOPC   C3920180   7.486   1.951   5.771
  166DOPC   H9X20181   7.504   1.987   5.873
  166DOPC  C31020182   7.520   2.027   5.669
  166DOPC  H10X20183   7.568   2.124   5.686
  166DOPC  C31120184   7.487   1.991   5.527
  166DOPC  H11X20185   7.386   2.026   5.497
  166DOPC  H11Y20186   7.488   1.882   5.508
  166DOPC  C31220187   7.593   2.061   5.446
  166DOPC  H12X20188   7.694   2.021   5.464
  166DOPC  H12Y20189   7.596   2.170   5.469
  166DOPC  C31320190   7.563   2.044   5.300
  166DOPC  H13X20191   7.464   2.093   5.285
  166DOPC  H13Y20192   7.639   2.105   5.247
  166DOPC  C31420193   7.563   1.900   5.247
  166DOPC  H14X20194   7.657   1.848   5.271
  166DOPC  H14Y20195   7.483   1.841   5.297
  166DOPC  C31520196   7.545   1.890   5.094
  166DOPC  H15X20197   7.467   1.813   5.074
  166DOPC  H15Y20198   7.637   1.852   5.045
  166DOPC  C31620199   7.502   2.023   5.032
  166DOPC  H16X20200   7.564   2.108   5.064
  166DOPC  H16Y20201   7.512   2.020   4.922
  166DOPC  C31720202   7.355   2.042   5.069
  166DOPC  H17X20203   7.301   1.992   4.987
  166DOPC  H17Y20204   7.338   1.985   5.163
  166DOPC  C31820205   7.294   2.179   5.093
  166DOPC  H18X20206   7.368   2.253   5.128
  166DOPC  H18Y20207   7.253   2.210   4.996
  166DOPC  H18Z20208   7.209   2.174   5.164
  167DOPC     N20209   6.519   1.197   6.885
  167DOPC   C1220210   6.644   1.192   6.798
  167DOPC  H12A20211   6.702   1.282   6.821
  167DOPC  H12B20212   6.613   1.197   6.694
  167DOPC   C1320213   6.443   1.320   6.848
  167DOPC  H13A20214   6.501   1.410   6.852
  167DOPC  H13B20215   6.397   1.308   6.750
  167DOPC  H13C20216   6.361   1.332   6.919
  167DOPC   C1420217   6.558   1.203   7.028
  167DOPC  H14A20218   6.472   1.203   7.094
  167DOPC  H14B20219   6.626   1.120   7.049
  167DOPC  H14C20220   6.618   1.291   7.050
  167DOPC   C1520221   6.428   1.080   6.867
  167DOPC  H15A20222   6.411   1.056   6.762
  167DOPC  H15B20223   6.328   1.103   6.903
  167DOPC  H15C20224   6.468   0.994   6.918
  167DOPC   C1120225   6.742   1.074   6.815
  167DOPC  H11A20226   6.694   0.983   6.780
  167DOPC  H11B20227   6.826   1.087   6.743
  167DOPC     P20228   6.922   1.116   6.997
  167DOPC   O1320229   6.971   1.045   7.116
  167DOPC   O1420230   6.914   1.264   6.995
  167DOPC   O1220231   6.787   1.054   6.948
  167DOPC   O1120232   7.021   1.065   6.884
  167DOPC    C120233   7.120   1.152   6.831
  167DOPC    HA20234   7.221   1.113   6.854
  167DOPC    HB20235   7.118   1.256   6.873
  167DOPC    C220236   7.106   1.165   6.678
  167DOPC    HS20237   7.188   1.234   6.651
  167DOPC   O2120238   6.975   1.213   6.643
  167DOPC   C2120239   6.980   1.324   6.577
  167DOPC   O2220240   7.066   1.409   6.584
  167DOPC   C2220241   6.871   1.323   6.475
  167DOPC   H2R20242   6.778   1.277   6.512
  167DOPC   H2S20243   6.913   1.258   6.395
  167DOPC    C320244   7.132   1.033   6.598
  167DOPC    HX20245   7.190   0.965   6.663
  167DOPC    HY20246   7.201   1.063   6.516
  167DOPC   O3120247   7.012   0.973   6.542
  167DOPC   C3120248   6.964   0.871   6.613
  167DOPC   O3220249   7.025   0.811   6.699
  167DOPC   C3220250   6.818   0.839   6.583
  167DOPC   H2X20251   6.818   0.746   6.524
  167DOPC   H2Y20252   6.773   0.809   6.679
  167DOPC   C2320253   6.849   1.466   6.424
  167DOPC   H3R20254   6.944   1.507   6.382
  167DOPC   H3S20255   6.820   1.534   6.507
  167DOPC   C2420256   6.742   1.465   6.316
  167DOPC   H4R20257   6.735   1.566   6.272
  167DOPC   H4S20258   6.645   1.444   6.366
  167DOPC   C2520259   6.765   1.357   6.209
  167DOPC   H5R20260   6.697   1.379   6.124
  167DOPC   H5S20261   6.735   1.258   6.250
  167DOPC   C2620262   6.906   1.335   6.154
  167DOPC   H6R20263   6.939   1.230   6.170
  167DOPC   H6S20264   6.981   1.402   6.204
  167DOPC   C2720265   6.911   1.370   6.008
  167DOPC   H7R20266   7.018   1.386   5.982
  167DOPC   H7S20267   6.851   1.464   5.998
  167DOPC   C2820268   6.850   1.275   5.909
  167DOPC   H8R20269   6.739   1.268   5.923
  167DOPC   H8S20270   6.892   1.172   5.920
  167DOPC   C2920271   6.887   1.344   5.780
  167DOPC   H9R20272   6.817   1.424   5.751
  167DOPC  C21020273   6.986   1.308   5.698
  167DOPC  H10R20274   7.009   1.372   5.611
  167DOPC  C21120275   7.075   1.190   5.727
  167DOPC  H11R20276   7.078   1.178   5.837
  167DOPC  H11S20277   7.176   1.226   5.704
  167DOPC  C21220278   7.051   1.048   5.653
  167DOPC  H12R20279   6.972   1.047   5.732
  167DOPC  H12S20280   7.153   1.024   5.688
  167DOPC  C21320281   7.029   0.890   5.678
  167DOPC  H13R20282   6.932   0.860   5.635
  167DOPC  H13S20283   7.022   0.866   5.786
  167DOPC  C21420284   7.140   0.795   5.625
  167DOPC  H14R20285   7.162   0.720   5.706
  167DOPC  H14S20286   7.229   0.853   5.609
  167DOPC  C21520287   7.122   0.715   5.495
  167DOPC  H15R20288   7.079   0.616   5.518
  167DOPC  H15S20289   7.224   0.695   5.454
  167DOPC  C21620290   7.036   0.777   5.383
  167DOPC  H16R20291   7.099   0.843   5.321
  167DOPC  H16S20292   6.953   0.837   5.425
  167DOPC  C21720293   6.977   0.668   5.294
  167DOPC  H17R20294   6.903   0.713   5.225
  167DOPC  H17S20295   6.922   0.594   5.357
  167DOPC  C21820296   7.082   0.594   5.212
  167DOPC  H18R20297   7.035   0.510   5.156
  167DOPC  H18S20298   7.161   0.552   5.278
  167DOPC  H18T20299   7.129   0.663   5.139
  167DOPC   C3320300   6.732   0.950   6.520
  167DOPC   H3X20301   6.788   1.044   6.502
  167DOPC   H3Y20302   6.643   0.974   6.583
  167DOPC   C3420303   6.676   0.897   6.391
  167DOPC   H4X20304   6.621   0.979   6.338
  167DOPC   H4Y20305   6.604   0.815   6.409
  167DOPC   C3520306   6.786   0.845   6.301
  167DOPC   H5X20307   6.825   0.746   6.332
  167DOPC   H5Y20308   6.873   0.914   6.300
  167DOPC   C3620309   6.722   0.836   6.167
  167DOPC   H6X20310   6.652   0.921   6.150
  167DOPC   H6Y20311   6.802   0.841   6.090
  167DOPC   C3720312   6.646   0.706   6.148
  167DOPC   H7X20313   6.701   0.632   6.211
  167DOPC   H7Y20314   6.541   0.706   6.185
  167DOPC   C3820315   6.661   0.673   5.999
  167DOPC   H8X20316   6.626   0.573   5.973
  167DOPC   H8Y20317   6.769   0.669   5.982
  167DOPC   C3920318   6.585   0.780   5.923
  167DOPC   H9X20319   6.478   0.754   5.928
  167DOPC  C31020320   6.616   0.893   5.853
  167DOPC  H10X20321   6.532   0.955   5.822
  167DOPC  C31120322   6.737   0.977   5.824
  167DOPC  H11X20323   6.835   0.932   5.850
  167DOPC  H11Y20324   6.723   1.060   5.893
  167DOPC  C31220325   6.727   1.040   5.680
  167DOPC  H12X20326   6.701   0.964   5.604
  167DOPC  H12Y20327   6.819   1.083   5.640
  167DOPC  C31320328   6.645   1.169   5.677
  167DOPC  H13X20329   6.592   1.179   5.772
  167DOPC  H13Y20330   6.702   1.261   5.682
  167DOPC  C31420331   6.576   1.202   5.546
  167DOPC  H14X20332   6.530   1.111   5.503
  167DOPC  H14Y20333   6.493   1.274   5.568
  167DOPC  C31520334   6.675   1.267   5.450
  167DOPC  H15X20335   6.735   1.185   5.406
  167DOPC  H15Y20336   6.747   1.333   5.503
  167DOPC  C31620337   6.604   1.355   5.348
  167DOPC  H16X20338   6.508   1.309   5.322
  167DOPC  H16Y20339   6.575   1.450   5.392
  167DOPC  C31720340   6.684   1.382   5.222
  167DOPC  H17X20341   6.728   1.484   5.221
  167DOPC  H17Y20342   6.770   1.311   5.223
  167DOPC  C31820343   6.600   1.360   5.096
  167DOPC  H18X20344   6.649   1.285   5.030
  167DOPC  H18Y20345   6.500   1.321   5.121
  167DOPC  H18Z20346   6.587   1.456   5.041
  168DOPC     N20347   2.104   7.533   6.993
  168DOPC   C1220348   2.075   7.596   6.857
  168DOPC  H12A20349   2.052   7.517   6.786
  168DOPC  H12B20350   2.164   7.645   6.820
  168DOPC   C1320351   2.247   7.493   7.005
  168DOPC  H13A20352   2.265   7.449   7.103
  168DOPC  H13B20353   2.275   7.421   6.929
  168DOPC  H13C20354   2.312   7.579   6.995
  168DOPC   C1420355   2.012   7.415   7.010
  168DOPC  H14A20356   2.022   7.346   6.926
  168DOPC  H14B20357   2.023   7.366   7.105
  168DOPC  H14C20358   1.909   7.451   7.000
  168DOPC   C1520359   2.078   7.631   7.102
  168DOPC  H15A20360   2.142   7.717   7.089
  168DOPC  H15B20361   2.099   7.589   7.200
  168DOPC  H15C20362   1.975   7.665   7.094
  168DOPC   C1120363   1.958   7.698   6.845
  168DOPC  H11A20364   1.986   7.791   6.898
  168DOPC  H11B20365   1.946   7.727   6.738
  168DOPC     P20366   1.745   7.555   6.810
  168DOPC   O1320367   1.699   7.634   6.694
  168DOPC   O1420368   1.647   7.485   6.896
  168DOPC   O1220369   1.836   7.648   6.901
  168DOPC   O1120370   1.853   7.446   6.763
  168DOPC    C120371   1.808   7.312   6.737
  168DOPC    HA20372   1.697   7.298   6.747
  168DOPC    HB20373   1.856   7.246   6.811
  168DOPC    C220374   1.842   7.258   6.596
  168DOPC    HS20375   1.822   7.148   6.595
  168DOPC   O2120376   1.975   7.288   6.554
  168DOPC   C2120377   2.060   7.208   6.602
  168DOPC   O2220378   2.043   7.128   6.693
  168DOPC   C2220379   2.182   7.214   6.510
  168DOPC   H2R20380   2.233   7.116   6.519
  168DOPC   H2S20381   2.246   7.295   6.548
  168DOPC    C320382   1.759   7.315   6.482
  168DOPC    HX20383   1.653   7.292   6.496
  168DOPC    HY20384   1.796   7.259   6.391
  168DOPC   O3120385   1.782   7.457   6.471
  168DOPC   C3120386   1.745   7.497   6.352
  168DOPC   O3220387   1.694   7.422   6.270
  168DOPC   C3220388   1.778   7.644   6.330
  168DOPC   H2X20389   1.825   7.685   6.421
  168DOPC   H2Y20390   1.850   7.648   6.246
  168DOPC   C2320391   2.148   7.245   6.362
  168DOPC   H3R20392   2.050   7.199   6.339
  168DOPC   H3S20393   2.226   7.196   6.298
  168DOPC   C2420394   2.138   7.393   6.324
  168DOPC   H4R20395   2.175   7.456   6.407
  168DOPC   H4S20396   2.030   7.413   6.312
  168DOPC   C2520397   2.210   7.432   6.193
  168DOPC   H5R20398   2.233   7.341   6.133
  168DOPC   H5S20399   2.309   7.477   6.219
  168DOPC   C2620400   2.129   7.529   6.106
  168DOPC   H6R20401   2.185   7.624   6.095
  168DOPC   H6S20402   2.034   7.555   6.158
  168DOPC   C2720403   2.093   7.476   5.966
  168DOPC   H7R20404   2.187   7.464   5.907
  168DOPC   H7S20405   2.035   7.556   5.915
  168DOPC   C2820406   2.015   7.343   5.961
  168DOPC   H8R20407   2.075   7.263   6.009
  168DOPC   H8S20408   2.004   7.314   5.854
  168DOPC   C2920409   1.881   7.353   6.028
  168DOPC   H9R20410   1.885   7.363   6.138
  168DOPC  C21020411   1.760   7.354   5.969
  168DOPC  H10R20412   1.670   7.371   6.030
  168DOPC  C21120413   1.737   7.346   5.821
  168DOPC  H11R20414   1.630   7.326   5.796
  168DOPC  H11S20415   1.797   7.265   5.778
  168DOPC  C21220416   1.774   7.481   5.762
  168DOPC  H12R20417   1.875   7.513   5.793
  168DOPC  H12S20418   1.700   7.552   5.804
  168DOPC  C21320419   1.774   7.489   5.610
  168DOPC  H13R20420   1.727   7.585   5.577
  168DOPC  H13S20421   1.712   7.406   5.569
  168DOPC  C21420422   1.916   7.486   5.552
  168DOPC  H14R20423   1.975   7.406   5.602
  168DOPC  H14S20424   1.967   7.583   5.572
  168DOPC  C21520425   1.918   7.458   5.404
  168DOPC  H15R20426   1.933   7.349   5.391
  168DOPC  H15S20427   2.003   7.510   5.354
  168DOPC  C21620428   1.789   7.493   5.332
  168DOPC  H16R20429   1.764   7.601   5.336
  168DOPC  H16S20430   1.700   7.447   5.378
  168DOPC  C21720431   1.802   7.434   5.193
  168DOPC  H17R20432   1.877   7.352   5.196
  168DOPC  H17S20433   1.842   7.508   5.122
  168DOPC  C21820434   1.671   7.369   5.154
  168DOPC  H18R20435   1.677   7.261   5.172
  168DOPC  H18S20436   1.641   7.391   5.050
  168DOPC  H18T20437   1.590   7.410   5.218
  168DOPC   C3320438   1.651   7.724   6.295
  168DOPC   H3X20439   1.585   7.725   6.385
  168DOPC   H3Y20440   1.596   7.674   6.212
  168DOPC   C3420441   1.678   7.870   6.255
  168DOPC   H4X20442   1.722   7.921   6.343
  168DOPC   H4Y20443   1.581   7.920   6.233
  168DOPC   C3520444   1.771   7.888   6.135
  168DOPC   H5X20445   1.874   7.855   6.164
  168DOPC   H5Y20446   1.776   7.998   6.112
  168DOPC   C3620447   1.733   7.816   6.006
  168DOPC   H6X20448   1.714   7.708   6.022
  168DOPC   H6Y20449   1.640   7.862   5.964
  168DOPC   C3720450   1.847   7.831   5.906
  168DOPC   H7X20451   1.891   7.932   5.914
  168DOPC   H7Y20452   1.928   7.758   5.931
  168DOPC   C3820453   1.810   7.815   5.759
  168DOPC   H8X20454   1.759   7.721   5.740
  168DOPC   H8Y20455   1.909   7.806   5.710
  168DOPC   C3920456   1.722   7.923   5.701
  168DOPC   H9X20457   1.618   7.925   5.737
  168DOPC  C31020458   1.762   8.007   5.605
  168DOPC  H10X20459   1.693   8.082   5.563
  168DOPC  C31120460   1.901   8.000   5.548
  168DOPC  H11X20461   1.978   8.006   5.628
  168DOPC  H11Y20462   1.920   8.086   5.480
  168DOPC  C31220463   1.924   7.875   5.464
  168DOPC  H12X20464   1.907   7.780   5.519
  168DOPC  H12Y20465   2.031   7.873   5.434
  168DOPC  C31320466   1.831   7.873   5.343
  168DOPC  H13X20467   1.732   7.831   5.374
  168DOPC  H13Y20468   1.814   7.977   5.307
  168DOPC  C31420469   1.892   7.793   5.231
  168DOPC  H14X20470   1.920   7.691   5.264
  168DOPC  H14Y20471   1.816   7.781   5.150
  168DOPC  C31520472   2.023   7.852   5.182
  168DOPC  H15X20473   2.106   7.806   5.241
  168DOPC  H15Y20474   2.027   7.961   5.199
  168DOPC  C31620475   2.040   7.817   5.036
  168DOPC  H16X20476   2.145   7.839   5.004
  168DOPC  H16Y20477   2.024   7.707   5.031
  168DOPC  C31720478   1.942   7.890   4.943
  168DOPC  H17X20479   1.967   7.866   4.837
  168DOPC  H17Y20480   1.838   7.855   4.960
  168DOPC  C31820481   1.945   8.042   4.954
  168DOPC  H18X20482   2.049   8.079   4.937
  168DOPC  H18Y20483   1.879   8.082   4.875
  168DOPC  H18Z20484   1.908   8.077   5.052
  169DOPC     N20485   0.575   1.133   7.035
  169DOPC   C1220486   0.517   1.268   6.997
  169DOPC  H12A20487   0.521   1.283   6.890
  169DOPC  H12B20488   0.574   1.347   7.044
  169DOPC   C1320489   0.518   1.030   6.943
  169DOPC  H13A20490   0.536   0.930   6.980
  169DOPC  H13B20491   0.409   1.046   6.934
  169DOPC  H13C20492   0.557   1.038   6.843
  169DOPC   C1420493   0.538   1.099   7.177
  169DOPC  H14A20494   0.586   1.009   7.212
  169DOPC  H14B20495   0.567   1.182   7.243
  169DOPC  H14C20496   0.430   1.088   7.184
  169DOPC   C1520497   0.723   1.134   7.026
  169DOPC  H15A20498   0.761   1.143   6.925
  169DOPC  H15B20499   0.764   1.043   7.068
  169DOPC  H15C20500   0.760   1.216   7.087
  169DOPC   C1120501   0.368   1.291   7.032
  169DOPC  H11A20502   0.346   1.269   7.139
  169DOPC  H11B20503   0.350   1.401   7.023
  169DOPC     P20504   0.227   1.287   6.819
  169DOPC   O1320505   0.166   1.415   6.861
  169DOPC   O1420506   0.150   1.194   6.736
  169DOPC   O1220507   0.283   1.211   6.948
  169DOPC   O1120508   0.364   1.319   6.752
  169DOPC    C120509   0.439   1.251   6.655
  169DOPC    HA20510   0.375   1.205   6.577
  169DOPC    HB20511   0.500   1.172   6.703
  169DOPC    C220512   0.530   1.358   6.594
  169DOPC    HS20513   0.555   1.435   6.671
  169DOPC   O2120514   0.460   1.415   6.485
  169DOPC   C2120515   0.377   1.514   6.501
  169DOPC   O2220516   0.353   1.579   6.601
  169DOPC   C2220517   0.336   1.547   6.358
  169DOPC   H2R20518   0.253   1.618   6.362
  169DOPC   H2S20519   0.304   1.453   6.310
  169DOPC    C320520   0.664   1.302   6.539
  169DOPC    HX20521   0.704   1.229   6.612
  169DOPC    HY20522   0.737   1.385   6.532
  169DOPC   O3120523   0.643   1.234   6.414
  169DOPC   C3120524   0.684   1.301   6.307
  169DOPC   O3220525   0.742   1.408   6.304
  169DOPC   C3220526   0.661   1.217   6.187
  169DOPC   H2X20527   0.573   1.152   6.198
  169DOPC   H2Y20528   0.651   1.277   6.094
  169DOPC   C2320529   0.463   1.606   6.293
  169DOPC   H3R20530   0.554   1.550   6.326
  169DOPC   H3S20531   0.475   1.707   6.336
  169DOPC   C2420532   0.475   1.603   6.141
  169DOPC   H4R20533   0.582   1.624   6.115
  169DOPC   H4S20534   0.416   1.684   6.093
  169DOPC   C2520535   0.440   1.468   6.080
  169DOPC   H5R20536   0.335   1.440   6.104
  169DOPC   H5S20537   0.503   1.393   6.126
  169DOPC   C2620538   0.455   1.470   5.929
  169DOPC   H6R20539   0.484   1.370   5.890
  169DOPC   H6S20540   0.535   1.539   5.895
  169DOPC   C2720541   0.319   1.507   5.874
  169DOPC   H7R20542   0.295   1.609   5.910
  169DOPC   H7S20543   0.243   1.443   5.922
  169DOPC   C2820544   0.312   1.487   5.723
  169DOPC   H8R20545   0.208   1.469   5.688
  169DOPC   H8S20546   0.373   1.400   5.692
  169DOPC   C2920547   0.361   1.618   5.675
  169DOPC   H9R20548   0.315   1.704   5.726
  169DOPC  C21020549   0.454   1.641   5.585
  169DOPC  H10R20550   0.467   1.744   5.551
  169DOPC  C21120551   0.531   1.539   5.511
  169DOPC  H11R20552   0.510   1.571   5.407
  169DOPC  H11S20553   0.490   1.436   5.524
  169DOPC  C21220554   0.683   1.534   5.529
  169DOPC  H12R20555   0.711   1.454   5.602
  169DOPC  H12S20556   0.724   1.630   5.568
  169DOPC  C21320557   0.743   1.501   5.393
  169DOPC  H13R20558   0.853   1.481   5.400
  169DOPC  H13S20559   0.729   1.587   5.324
  169DOPC  C21420560   0.666   1.381   5.336
  169DOPC  H14R20561   0.563   1.413   5.316
  169DOPC  H14S20562   0.664   1.297   5.409
  169DOPC  C21520563   0.715   1.334   5.202
  169DOPC  H15R20564   0.730   1.423   5.138
  169DOPC  H15S20565   0.643   1.277   5.142
  169DOPC  C21620566   0.831   1.242   5.230
  169DOPC  H16R20567   0.795   1.136   5.228
  169DOPC  H16S20568   0.868   1.260   5.334
  169DOPC  C21720569   0.943   1.270   5.135
  169DOPC  H17R20570   0.909   1.234   5.035
  169DOPC  H17S20571   1.029   1.208   5.168
  169DOPC  C21820572   0.986   1.417   5.127
  169DOPC  H18R20573   1.060   1.439   5.207
  169DOPC  H18S20574   0.906   1.492   5.138
  169DOPC  H18T20575   1.034   1.436   5.029
  169DOPC   C3320576   0.788   1.138   6.165
  169DOPC   H3X20577   0.875   1.204   6.142
  169DOPC   H3Y20578   0.755   1.084   6.077
  169DOPC   C3420579   0.822   1.033   6.270
  169DOPC   H4X20580   0.845   1.087   6.365
  169DOPC   H4Y20581   0.914   0.979   6.241
  169DOPC   C3520582   0.712   0.929   6.293
  169DOPC   H5X20583   0.614   0.978   6.310
  169DOPC   H5Y20584   0.738   0.879   6.390
  169DOPC   C3620585   0.701   0.818   6.187
  169DOPC   H6X20586   0.799   0.766   6.181
  169DOPC   H6Y20587   0.629   0.743   6.224
  169DOPC   C3720588   0.658   0.855   6.043
  169DOPC   H7X20589   0.744   0.895   5.986
  169DOPC   H7Y20590   0.638   0.758   5.995
  169DOPC   C3820591   0.536   0.950   6.028
  169DOPC   H8X20592   0.576   1.049   5.997
  169DOPC   H8Y20593   0.491   0.963   6.129
  169DOPC   C3920594   0.425   0.911   5.935
  169DOPC   H9X20595   0.394   0.807   5.940
  169DOPC  C31020596   0.366   0.987   5.843
  169DOPC  H10X20597   0.284   0.943   5.784
  169DOPC  C31120598   0.398   1.130   5.809
  169DOPC  H11X20599   0.421   1.187   5.901
  169DOPC  H11Y20600   0.310   1.179   5.762
  169DOPC  C31220601   0.514   1.141   5.709
  169DOPC  H12X20602   0.611   1.133   5.764
  169DOPC  H12Y20603   0.514   1.241   5.661
  169DOPC  C31320604   0.511   1.034   5.598
  169DOPC  H13X20605   0.594   1.051   5.526
  169DOPC  H13Y20606   0.527   0.936   5.646
  169DOPC  C31420607   0.377   1.022   5.524
  169DOPC  H14X20608   0.373   0.923   5.473
  169DOPC  H14Y20609   0.292   1.027   5.594
  169DOPC  C31520610   0.358   1.132   5.420
  169DOPC  H15X20611   0.393   1.229   5.461
  169DOPC  H15Y20612   0.249   1.141   5.401
  169DOPC  C31620613   0.431   1.097   5.291
  169DOPC  H16X20614   0.539   1.084   5.313
  169DOPC  H16Y20615   0.392   0.999   5.254
  169DOPC  C31720616   0.417   1.205   5.184
  169DOPC  H17X20617   0.452   1.298   5.230
  169DOPC  H17Y20618   0.478   1.187   5.095
  169DOPC  C31820619   0.280   1.243   5.142
  169DOPC  H18X20620   0.224   1.163   5.089
  169DOPC  H18Y20621   0.230   1.264   5.236
  169DOPC  H18Z20622   0.284   1.337   5.083
  170DOPC     N20623   6.959   7.076   6.801
  170DOPC   C1220624   6.898   7.036   6.936
  170DOPC  H12A20625   6.899   7.124   7.000
  170DOPC  H12B20626   6.962   6.963   6.983
  170DOPC   C1320627   7.106   7.103   6.816
  170DOPC  H13A20628   7.144   7.147   6.724
  170DOPC  H13B20629   7.128   7.171   6.897
  170DOPC  H13C20630   7.162   7.011   6.834
  170DOPC   C1420631   6.887   7.199   6.754
  170DOPC  H14A20632   6.779   7.180   6.755
  170DOPC  H14B20633   6.899   7.281   6.825
  170DOPC  H14C20634   6.916   7.232   6.656
  170DOPC   C1520635   6.943   6.965   6.702
  170DOPC  H15A20636   6.994   6.987   6.609
  170DOPC  H15B20637   6.838   6.949   6.683
  170DOPC  H15C20638   6.983   6.871   6.740
  170DOPC   C1120639   6.752   6.983   6.939
  170DOPC  H11A20640   6.740   6.901   6.866
  170DOPC  H11B20641   6.730   6.939   7.039
  170DOPC     P20642   6.630   7.198   7.018
  170DOPC   O1320643   6.755   7.277   7.034
  170DOPC   O1420644   6.580   7.121   7.134
  170DOPC   O1220645   6.659   7.087   6.907
  170DOPC   O1120646   6.511   7.276   6.952
  170DOPC    C120647   6.514   7.331   6.820
  170DOPC    HA20648   6.616   7.365   6.790
  170DOPC    HB20649   6.450   7.423   6.822
  170DOPC    C220650   6.453   7.235   6.713
  170DOPC    HS20651   6.354   7.202   6.752
  170DOPC   O2120652   6.539   7.125   6.680
  170DOPC   C2120653   6.487   7.006   6.665
  170DOPC   O2220654   6.375   6.971   6.700
  170DOPC   C2220655   6.596   6.916   6.603
  170DOPC   H2R20656   6.622   6.843   6.682
  170DOPC   H2S20657   6.685   6.977   6.579
  170DOPC    C320658   6.432   7.312   6.582
  170DOPC    HX20659   6.375   7.404   6.603
  170DOPC    HY20660   6.369   7.248   6.516
  170DOPC   O3120661   6.565   7.343   6.531
  170DOPC   C3120662   6.590   7.288   6.413
  170DOPC   O3220663   6.505   7.247   6.337
  170DOPC   C3220664   6.740   7.278   6.384
  170DOPC   H2X20665   6.774   7.180   6.424
  170DOPC   H2Y20666   6.749   7.274   6.273
  170DOPC   C2320667   6.556   6.838   6.475
  170DOPC   H3R20668   6.453   6.795   6.486
  170DOPC   H3S20669   6.626   6.751   6.464
  170DOPC   C2420670   6.564   6.921   6.346
  170DOPC   H4R20671   6.665   6.967   6.337
  170DOPC   H4S20672   6.489   7.003   6.353
  170DOPC   C2520673   6.535   6.838   6.220
  170DOPC   H5R20674   6.434   6.793   6.230
  170DOPC   H5S20675   6.608   6.754   6.213
  170DOPC   C2620676   6.540   6.918   6.090
  170DOPC   H6R20677   6.513   6.849   6.006
  170DOPC   H6S20678   6.644   6.954   6.071
  170DOPC   C2720679   6.444   7.039   6.085
  170DOPC   H7R20680   6.490   7.122   6.141
  170DOPC   H7S20681   6.349   7.013   6.136
  170DOPC   C2820682   6.413   7.086   5.941
  170DOPC   H8R20683   6.349   7.177   5.944
  170DOPC   H8S20684   6.352   7.006   5.892
  170DOPC   C2920685   6.540   7.110   5.864
  170DOPC   H9R20686   6.565   7.030   5.792
  170DOPC  C21020687   6.622   7.216   5.872
  170DOPC  H10R20688   6.719   7.210   5.819
  170DOPC  C21120689   6.610   7.338   5.959
  170DOPC  H11R20690   6.712   7.370   5.990
  170DOPC  H11S20691   6.559   7.312   6.054
  170DOPC  C21220692   6.535   7.459   5.898
  170DOPC  H12R20693   6.569   7.550   5.953
  170DOPC  H12S20694   6.428   7.444   5.924
  170DOPC  C21320695   6.538   7.483   5.743
  170DOPC  H13R20696   6.477   7.572   5.722
  170DOPC  H13S20697   6.485   7.399   5.694
  170DOPC  C21420698   6.682   7.497   5.687
  170DOPC  H14R20699   6.706   7.391   5.701
  170DOPC  H14S20700   6.733   7.566   5.757
  170DOPC  C21520701   6.740   7.529   5.543
  170DOPC  H15R20702   6.807   7.617   5.548
  170DOPC  H15S20703   6.668   7.547   5.464
  170DOPC  C21620704   6.815   7.415   5.474
  170DOPC  H16R20705   6.753   7.326   5.499
  170DOPC  H16S20706   6.916   7.405   5.516
  170DOPC  C21720707   6.828   7.421   5.320
  170DOPC  H17R20708   6.727   7.421   5.275
  170DOPC  H17S20709   6.879   7.327   5.286
  170DOPC  C21820710   6.907   7.539   5.265
  170DOPC  H18R20711   6.924   7.528   5.155
  170DOPC  H18S20712   7.007   7.548   5.314
  170DOPC  H18T20713   6.850   7.633   5.281
  170DOPC   C3320714   6.830   7.390   6.440
  170DOPC   H3X20715   6.811   7.405   6.548
  170DOPC   H3Y20716   6.807   7.486   6.388
  170DOPC   C3420717   6.979   7.358   6.420
  170DOPC   H4X20718   7.005   7.265   6.475
  170DOPC   H4Y20719   7.041   7.441   6.460
  170DOPC   C3520720   7.017   7.338   6.273
  170DOPC   H5X20721   6.963   7.252   6.227
  170DOPC   H5Y20722   7.126   7.313   6.270
  170DOPC   C3620723   6.997   7.462   6.186
  170DOPC   H6X20724   6.890   7.472   6.156
  170DOPC   H6Y20725   7.026   7.553   6.243
  170DOPC   C3720726   7.089   7.452   6.065
  170DOPC   H7X20727   7.191   7.467   6.104
  170DOPC   H7Y20728   7.087   7.348   6.023
  170DOPC   C3820729   7.067   7.557   5.959
  170DOPC   H8X20730   7.156   7.569   5.893
  170DOPC   H8Y20731   7.045   7.656   6.004
  170DOPC   C3920732   6.953   7.506   5.878
  170DOPC   H9X20733   6.854   7.542   5.910
  170DOPC  C31020734   6.964   7.418   5.778
  170DOPC  H10X20735   6.879   7.388   5.723
  170DOPC  C31120736   7.079   7.347   5.717
  170DOPC  H11X20737   7.165   7.368   5.781
  170DOPC  H11Y20738   7.100   7.389   5.616
  170DOPC  C31220739   7.051   7.195   5.704
  170DOPC  H12X20740   7.032   7.155   5.806
  170DOPC  H12Y20741   7.142   7.146   5.664
  170DOPC  C31320742   6.932   7.158   5.612
  170DOPC  H13X20743   6.840   7.205   5.651
  170DOPC  H13Y20744   6.953   7.198   5.511
  170DOPC  C31420745   6.896   7.009   5.595
  170DOPC  H14X20746   6.982   6.955   5.551
  170DOPC  H14Y20747   6.878   6.965   5.696
  170DOPC  C31520748   6.769   6.987   5.508
  170DOPC  H15X20749   6.681   7.021   5.567
  170DOPC  H15Y20750   6.757   6.878   5.490
  170DOPC  C31620751   6.766   7.061   5.373
  170DOPC  H16X20752   6.750   7.168   5.393
  170DOPC  H16Y20753   6.863   7.052   5.319
  170DOPC  C31720754   6.650   7.021   5.279
  170DOPC  H17X20755   6.559   6.999   5.338
  170DOPC  H17Y20756   6.627   7.109   5.214
  170DOPC  C31820757   6.683   6.905   5.186
  170DOPC  H18X20758   6.601   6.888   5.113
  170DOPC  H18Y20759   6.776   6.927   5.128
  170DOPC  H18Z20760   6.699   6.811   5.243
  171DOPC     N20761   3.900   2.885   3.095
  171DOPC   C1220762   3.800   2.975   3.166
  171DOPC  H12A20763   3.853   3.051   3.224
  171DOPC  H12B20764   3.740   2.917   3.234
  171DOPC   C1320765   3.828   2.805   2.990
  171DOPC  H13A20766   3.752   2.739   3.031
  171DOPC  H13B20767   3.776   2.877   2.926
  171DOPC  H13C20768   3.895   2.751   2.925
  171DOPC   C1420769   3.971   2.794   3.190
  171DOPC  H14A20770   3.901   2.727   3.238
  171DOPC  H14B20771   4.045   2.735   3.137
  171DOPC  H14C20772   4.023   2.850   3.266
  171DOPC   C1520773   4.000   2.974   3.028
  171DOPC  H15A20774   4.078   2.920   2.975
  171DOPC  H15B20775   4.046   3.041   3.100
  171DOPC  H15C20776   3.947   3.041   2.960
  171DOPC   C1120777   3.702   3.055   3.075
  171DOPC  H11A20778   3.646   2.987   3.007
  171DOPC  H11B20779   3.622   3.099   3.140
  171DOPC     P20780   3.785   3.297   3.063
  171DOPC   O1320781   3.652   3.362   3.062
  171DOPC   O1420782   3.901   3.367   3.001
  171DOPC   O1220783   3.772   3.153   2.999
  171DOPC   O1120784   3.821   3.256   3.211
  171DOPC    C120785   3.886   3.351   3.295
  171DOPC    HA20786   3.845   3.338   3.397
  171DOPC    HB20787   3.866   3.457   3.266
  171DOPC    C220788   4.040   3.329   3.301
  171DOPC    HS20789   4.080   3.344   3.198
  171DOPC   O2120790   4.068   3.197   3.347
  171DOPC   C2120791   4.194   3.156   3.343
  171DOPC   O2220792   4.289   3.215   3.295
  171DOPC   C2220793   4.202   3.017   3.406
  171DOPC   H2R20794   4.303   3.007   3.451
  171DOPC   H2S20795   4.191   2.941   3.326
  171DOPC    C320796   4.100   3.438   3.393
  171DOPC    HX20797   4.087   3.531   3.333
  171DOPC    HY20798   4.209   3.422   3.409
  171DOPC   O3120799   4.026   3.458   3.515
  171DOPC   C3120800   4.069   3.395   3.623
  171DOPC   O3220801   4.166   3.322   3.629
  171DOPC   C3220802   3.979   3.432   3.740
  171DOPC   H2X20803   4.029   3.400   3.833
  171DOPC   H2Y20804   3.969   3.543   3.742
  171DOPC   C2320805   4.095   2.999   3.515
  171DOPC   H3R20806   3.992   3.003   3.471
  171DOPC   H3S20807   4.102   3.086   3.585
  171DOPC   C2420808   4.108   2.873   3.600
  171DOPC   H4R20809   4.214   2.860   3.632
  171DOPC   H4S20810   4.079   2.783   3.541
  171DOPC   C2520811   4.020   2.886   3.724
  171DOPC   H5R20812   3.914   2.893   3.693
  171DOPC   H5S20813   4.047   2.980   3.778
  171DOPC   C2620814   4.036   2.769   3.822
  171DOPC   H6R20815   4.136   2.774   3.870
  171DOPC   H6S20816   4.032   2.673   3.765
  171DOPC   C2720817   3.926   2.766   3.929
  171DOPC   H7R20818   3.941   2.680   3.997
  171DOPC   H7S20819   3.831   2.749   3.875
  171DOPC   C2820820   3.910   2.896   4.011
  171DOPC   H8R20821   3.818   2.885   4.073
  171DOPC   H8S20822   3.889   2.980   3.941
  171DOPC   C2920823   4.028   2.922   4.102
  171DOPC   H9R20824   4.053   2.838   4.168
  171DOPC  C21020825   4.104   3.033   4.109
  171DOPC  H10R20826   4.186   3.036   4.182
  171DOPC  C21120827   4.089   3.160   4.027
  171DOPC  H11R20828   4.021   3.144   3.940
  171DOPC  H11S20829   4.187   3.190   3.983
  171DOPC  C21220830   4.032   3.278   4.109
  171DOPC  H12R20831   3.931   3.250   4.144
  171DOPC  H12S20832   4.019   3.365   4.041
  171DOPC  C21320833   4.118   3.324   4.229
  171DOPC  H13R20834   4.225   3.323   4.200
  171DOPC  H13S20835   4.104   3.253   4.313
  171DOPC  C21420836   4.081   3.467   4.275
  171DOPC  H14R20837   3.971   3.481   4.269
  171DOPC  H14S20838   4.124   3.538   4.201
  171DOPC  C21520839   4.128   3.503   4.417
  171DOPC  H15R20840   4.150   3.613   4.422
  171DOPC  H15S20841   4.221   3.448   4.443
  171DOPC  C21620842   4.020   3.477   4.521
  171DOPC  H16R20843   3.998   3.369   4.521
  171DOPC  H16S20844   3.930   3.534   4.487
  171DOPC  C21720845   4.050   3.523   4.664
  171DOPC  H17R20846   3.952   3.548   4.713
  171DOPC  H17S20847   4.111   3.616   4.662
  171DOPC  C21820848   4.117   3.416   4.750
  171DOPC  H18R20849   4.055   3.323   4.752
  171DOPC  H18S20850   4.131   3.451   4.854
  171DOPC  H18T20851   4.217   3.390   4.708
  171DOPC   C3320852   3.839   3.366   3.727
  171DOPC   H3X20853   3.834   3.276   3.791
  171DOPC   H3Y20854   3.823   3.330   3.623
  171DOPC   C3420855   3.724   3.464   3.757
  171DOPC   H4X20856   3.627   3.416   3.728
  171DOPC   H4Y20857   3.736   3.553   3.692
  171DOPC   C3520858   3.715   3.508   3.903
  171DOPC   H5X20859   3.635   3.585   3.913
  171DOPC   H5Y20860   3.811   3.555   3.934
  171DOPC   C3620861   3.681   3.392   3.997
  171DOPC   H6X20862   3.580   3.352   3.973
  171DOPC   H6Y20863   3.754   3.310   3.982
  171DOPC   C3720864   3.687   3.431   4.145
  171DOPC   H7X20865   3.785   3.481   4.161
  171DOPC   H7Y20866   3.608   3.506   4.170
  171DOPC   C3820867   3.673   3.306   4.234
  171DOPC   H8X20868   3.698   3.216   4.173
  171DOPC   H8Y20869   3.566   3.295   4.262
  171DOPC   C3920870   3.764   3.306   4.354
  171DOPC   H9X20871   3.866   3.270   4.337
  171DOPC  C31020872   3.731   3.351   4.475
  171DOPC  H10X20873   3.804   3.347   4.557
  171DOPC  C31120874   3.601   3.410   4.514
  171DOPC  H11X20875   3.539   3.443   4.427
  171DOPC  H11Y20876   3.621   3.499   4.577
  171DOPC  C31220877   3.523   3.314   4.603
  171DOPC  H12X20878   3.588   3.288   4.689
  171DOPC  H12Y20879   3.503   3.219   4.550
  171DOPC  C31320880   3.397   3.387   4.648
  171DOPC  H13X20881   3.428   3.491   4.676
  171DOPC  H13Y20882   3.326   3.394   4.563
  171DOPC  C31420883   3.326   3.330   4.770
  171DOPC  H14X20884   3.258   3.408   4.811
  171DOPC  H14Y20885   3.262   3.246   4.737
  171DOPC  C31520886   3.421   3.281   4.880
  171DOPC  H15X20887   3.477   3.191   4.845
  171DOPC  H15Y20888   3.358   3.246   4.965
  171DOPC  C31620889   3.519   3.387   4.933
  171DOPC  H16X20890   3.592   3.416   4.855
  171DOPC  H16Y20891   3.460   3.478   4.958
  171DOPC  C31720892   3.593   3.339   5.059
  171DOPC  H17X20893   3.621   3.428   5.119
  171DOPC  H17Y20894   3.522   3.279   5.119
  171DOPC  C31820895   3.717   3.255   5.034
  171DOPC  H18X20896   3.792   3.311   4.974
  171DOPC  H18Y20897   3.764   3.227   5.132
  171DOPC  H18Z20898   3.691   3.161   4.980
  172DOPC     N20899   3.188   4.435   2.949
  172DOPC   C1220900   3.170   4.410   3.099
  172DOPC  H12A20901   3.195   4.502   3.153
  172DOPC  H12B20902   3.239   4.335   3.133
  172DOPC   C1320903   3.114   4.337   2.861
  172DOPC  H13A20904   3.156   4.237   2.861
  172DOPC  H13B20905   3.011   4.328   2.892
  172DOPC  H13C20906   3.116   4.369   2.756
  172DOPC   C1420907   3.333   4.424   2.918
  172DOPC  H14A20908   3.369   4.324   2.939
  172DOPC  H14B20909   3.351   4.444   2.813
  172DOPC  H14C20910   3.393   4.493   2.976
  172DOPC   C1520911   3.135   4.572   2.917
  172DOPC  H15A20912   3.176   4.646   2.985
  172DOPC  H15B20913   3.028   4.571   2.937
  172DOPC  H15C20914   3.153   4.600   2.814
  172DOPC   C1120915   3.030   4.372   3.152
  172DOPC  H11A20916   2.996   4.278   3.103
  172DOPC  H11B20917   3.036   4.351   3.262
  172DOPC     P20918   2.914   4.599   3.223
  172DOPC   O1320919   2.891   4.552   3.362
  172DOPC   O1420920   2.810   4.682   3.157
  172DOPC   O1220921   2.938   4.476   3.124
  172DOPC   O1120922   3.049   4.682   3.219
  172DOPC    C120923   3.055   4.796   3.309
  172DOPC    HA20924   2.964   4.813   3.372
  172DOPC    HB20925   3.067   4.888   3.248
  172DOPC    C220926   3.176   4.785   3.405
  172DOPC    HS20927   3.254   4.725   3.352
  172DOPC   O2120928   3.136   4.727   3.530
  172DOPC   C2120929   3.179   4.603   3.555
  172DOPC   O2220930   3.252   4.538   3.482
  172DOPC   C2220931   3.139   4.560   3.696
  172DOPC   H2R20932   3.158   4.451   3.704
  172DOPC   H2S20933   3.030   4.578   3.710
  172DOPC    C320934   3.240   4.925   3.432
  172DOPC    HX20935   3.270   4.966   3.333
  172DOPC    HY20936   3.332   4.913   3.492
  172DOPC   O3120937   3.147   5.017   3.492
  172DOPC   C3120938   3.151   5.016   3.624
  172DOPC   O3220939   3.250   4.998   3.693
  172DOPC   C3220940   3.010   5.035   3.676
  172DOPC   H2X20941   3.008   5.119   3.749
  172DOPC   H2Y20942   2.942   5.057   3.591
  172DOPC   C2320943   3.224   4.632   3.803
  172DOPC   H3R20944   3.252   4.734   3.766
  172DOPC   H3S20945   3.315   4.572   3.820
  172DOPC   C2420946   3.155   4.654   3.937
  172DOPC   H4R20947   3.053   4.686   3.911
  172DOPC   H4S20948   3.204   4.739   3.990
  172DOPC   C2520949   3.156   4.532   4.032
  172DOPC   H5R20950   3.097   4.450   3.987
  172DOPC   H5S20951   3.103   4.558   4.127
  172DOPC   C2620952   3.294   4.481   4.076
  172DOPC   H6R20953   3.344   4.432   3.990
  172DOPC   H6S20954   3.277   4.400   4.152
  172DOPC   C2720955   3.392   4.584   4.138
  172DOPC   H7R20956   3.429   4.652   4.059
  172DOPC   H7S20957   3.479   4.529   4.179
  172DOPC   C2820958   3.335   4.671   4.252
  172DOPC   H8R20959   3.263   4.741   4.207
  172DOPC   H8S20960   3.417   4.734   4.295
  172DOPC   C2920961   3.270   4.584   4.357
  172DOPC   H9R20962   3.192   4.517   4.319
  172DOPC  C21020963   3.286   4.589   4.490
  172DOPC  H10R20964   3.226   4.519   4.550
  172DOPC  C21120965   3.372   4.683   4.570
  172DOPC  H11R20966   3.442   4.741   4.506
  172DOPC  H11S20967   3.434   4.626   4.641
  172DOPC  C21220968   3.285   4.783   4.648
  172DOPC  H12R20969   3.237   4.855   4.577
  172DOPC  H12S20970   3.349   4.842   4.717
  172DOPC  C21320971   3.172   4.718   4.730
  172DOPC  H13R20972   3.098   4.677   4.660
  172DOPC  H13S20973   3.119   4.796   4.786
  172DOPC  C21420974   3.212   4.599   4.818
  172DOPC  H14R20975   3.262   4.520   4.758
  172DOPC  H14S20976   3.119   4.554   4.859
  172DOPC  C21520977   3.303   4.638   4.934
  172DOPC  H15R20978   3.394   4.690   4.895
  172DOPC  H15S20979   3.336   4.546   4.987
  172DOPC  C21620980   3.228   4.727   5.032
  172DOPC  H16R20981   3.140   4.671   5.071
  172DOPC  H16S20982   3.193   4.818   4.979
  172DOPC  C21720983   3.312   4.777   5.147
  172DOPC  H17R20984   3.350   4.878   5.119
  172DOPC  H17S20985   3.396   4.706   5.164
  172DOPC  C21820986   3.233   4.793   5.274
  172DOPC  H18R20987   3.221   4.694   5.325
  172DOPC  H18S20988   3.135   4.834   5.245
  172DOPC  H18T20989   3.280   4.864   5.345
  172DOPC   C3320990   2.962   4.907   3.744
  172DOPC   H3X20991   3.019   4.894   3.838
  172DOPC   H3Y20992   2.980   4.816   3.682
  172DOPC   C3420993   2.812   4.916   3.768
  172DOPC   H4X20994   2.755   4.886   3.677
  172DOPC   H4Y20995   2.786   5.021   3.791
  172DOPC   C3520996   2.768   4.834   3.887
  172DOPC   H5X20997   2.800   4.728   3.874
  172DOPC   H5Y20998   2.657   4.842   3.894
  172DOPC   C3620999   2.818   4.888   4.019
  172DOPC   H6X21000   2.927   4.902   4.011
  172DOPC   H6Y21001   2.782   4.991   4.034
  172DOPC   C3721002   2.780   4.792   4.132
  172DOPC   H7X21003   2.756   4.842   4.228
  172DOPC   H7Y21004   2.690   4.733   4.104
  172DOPC   C3821005   2.900   4.702   4.151
  172DOPC   H8X21006   2.925   4.664   4.050
  172DOPC   H8Y21007   2.878   4.609   4.208
  172DOPC   C3921008   3.010   4.787   4.210
  172DOPC   H9X21009   3.077   4.839   4.139
  172DOPC  C31021010   3.033   4.797   4.340
  172DOPC  H10X21011   3.121   4.852   4.376
  172DOPC  C31121012   2.952   4.721   4.439
  172DOPC  H11X21013   3.020   4.649   4.487
  172DOPC  H11Y21014   2.873   4.657   4.396
  172DOPC  C31221015   2.884   4.810   4.542
  172DOPC  H12X21016   2.802   4.868   4.495
  172DOPC  H12Y21017   2.958   4.881   4.585
  172DOPC  C31321018   2.829   4.717   4.649
  172DOPC  H13X21019   2.742   4.663   4.605
  172DOPC  H13Y21020   2.903   4.637   4.673
  172DOPC  C31421021   2.786   4.782   4.780
  172DOPC  H14X21022   2.682   4.817   4.761
  172DOPC  H14Y21023   2.784   4.701   4.857
  172DOPC  C31521024   2.860   4.901   4.841
  172DOPC  H15X21025   2.781   4.968   4.880
  172DOPC  H15Y21026   2.918   4.959   4.767
  172DOPC  C31621027   2.943   4.866   4.964
  172DOPC  H16X21028   2.978   4.761   4.953
  172DOPC  H16Y21029   3.031   4.933   4.968
  172DOPC  C31721030   2.867   4.880   5.097
  172DOPC  H17X21031   2.779   4.811   5.096
  172DOPC  H17Y21032   2.935   4.844   5.177
  172DOPC  C31821033   2.822   5.021   5.135
  172DOPC  H18X21034   2.782   5.022   5.239
  172DOPC  H18Y21035   2.906   5.093   5.129
  172DOPC  H18Z21036   2.741   5.055   5.067
  173DOPC     N21037   2.083   3.023   2.899
  173DOPC   C1221038   2.195   2.978   2.992
  173DOPC  H12A21039   2.292   3.005   2.950
  173DOPC  H12B21040   2.197   2.870   2.995
  173DOPC   C1321041   2.113   2.975   2.760
  173DOPC  H13A21042   2.036   3.008   2.691
  173DOPC  H13B21043   2.209   3.012   2.726
  173DOPC  H13C21044   2.119   2.867   2.756
  173DOPC   C1421045   2.079   3.173   2.896
  173DOPC  H14A21046   2.071   3.209   2.999
  173DOPC  H14B21047   2.174   3.213   2.862
  173DOPC  H14C21048   1.999   3.212   2.836
  173DOPC   C1521049   1.951   2.972   2.948
  173DOPC  H15A21050   1.940   2.992   3.054
  173DOPC  H15B21051   1.945   2.864   2.935
  173DOPC  H15C21052   1.865   3.015   2.897
  173DOPC   C1121053   2.194   3.033   3.137
  173DOPC  H11A21054   2.098   3.003   3.185
  173DOPC  H11B21055   2.277   2.985   3.193
  173DOPC     P21056   2.202   3.255   3.275
  173DOPC   O1321057   2.189   3.401   3.243
  173DOPC   O1421058   2.309   3.210   3.366
  173DOPC   O1221059   2.213   3.175   3.138
  173DOPC   O1121060   2.059   3.207   3.328
  173DOPC    C121061   1.940   3.244   3.257
  173DOPC    HA21062   1.904   3.158   3.196
  173DOPC    HB21063   1.959   3.329   3.187
  173DOPC    C221064   1.819   3.292   3.346
  173DOPC    HS21065   1.743   3.334   3.278
  173DOPC   O2121066   1.865   3.391   3.438
  173DOPC   C2121067   1.785   3.486   3.481
  173DOPC   O2221068   1.684   3.525   3.426
  173DOPC   C2221069   1.861   3.562   3.592
  173DOPC   H2R21070   1.824   3.520   3.688
  173DOPC   H2S21071   1.832   3.668   3.588
  173DOPC    C321072   1.750   3.176   3.425
  173DOPC    HX21073   1.714   3.103   3.350
  173DOPC    HY21074   1.658   3.216   3.476
  173DOPC   O3121075   1.837   3.107   3.518
  173DOPC   C3121076   1.844   3.162   3.638
  173DOPC   O3221077   1.791   3.266   3.672
  173DOPC   C3221078   1.912   3.065   3.734
  173DOPC   H2X21079   1.911   2.963   3.690
  173DOPC   H2Y21080   2.018   3.098   3.746
  173DOPC   C2321081   2.016   3.548   3.591
  173DOPC   H3R21082   2.064   3.643   3.560
  173DOPC   H3S21083   2.056   3.469   3.523
  173DOPC   C2421084   2.066   3.510   3.730
  173DOPC   H4R21085   2.028   3.408   3.755
  173DOPC   H4S21086   2.023   3.581   3.803
  173DOPC   C2521087   2.219   3.508   3.742
  173DOPC   H5R21088   2.255   3.612   3.735
  173DOPC   H5S21089   2.262   3.451   3.656
  173DOPC   C2621090   2.266   3.441   3.873
  173DOPC   H6R21091   2.377   3.441   3.879
  173DOPC   H6S21092   2.234   3.335   3.864
  173DOPC   C2721093   2.205   3.504   3.999
  173DOPC   H7R21094   2.096   3.521   3.986
  173DOPC   H7S21095   2.251   3.602   4.019
  173DOPC   C2821096   2.219   3.423   4.127
  173DOPC   H8R21097   2.176   3.477   4.211
  173DOPC   H8S21098   2.326   3.411   4.150
  173DOPC   C2921099   2.143   3.297   4.103
  173DOPC   H9R21100   2.198   3.212   4.060
  173DOPC  C21021101   2.015   3.278   4.131
  173DOPC  H10R21102   1.975   3.181   4.109
  173DOPC  C21121103   1.910   3.366   4.192
  173DOPC  H11R21104   1.816   3.350   4.136
  173DOPC  H11S21105   1.934   3.474   4.187
  173DOPC  C21221106   1.892   3.314   4.337
  173DOPC  H12R21107   1.789   3.340   4.371
  173DOPC  H12S21108   1.964   3.365   4.406
  173DOPC  C21321109   1.914   3.162   4.352
  173DOPC  H13R21110   2.022   3.137   4.356
  173DOPC  H13S21111   1.869   3.111   4.264
  173DOPC  C21421112   1.841   3.098   4.469
  173DOPC  H14R21113   1.736   3.132   4.459
  173DOPC  H14S21114   1.884   3.134   4.564
  173DOPC  C21521115   1.843   2.944   4.459
  173DOPC  H15R21116   1.948   2.911   4.469
  173DOPC  H15S21117   1.807   2.915   4.358
  173DOPC  C21621118   1.756   2.871   4.562
  173DOPC  H16R21119   1.784   2.763   4.563
  173DOPC  H16S21120   1.650   2.876   4.531
  173DOPC  C21721121   1.774   2.927   4.702
  173DOPC  H17R21122   1.706   2.875   4.773
  173DOPC  H17S21123   1.750   3.034   4.710
  173DOPC  C21821124   1.918   2.919   4.747
  173DOPC  H18R21125   1.976   3.002   4.702
  173DOPC  H18S21126   1.966   2.824   4.717
  173DOPC  H18T21127   1.918   2.928   4.857
  173DOPC   C3321128   1.838   3.068   3.869
  173DOPC   H3X21129   1.736   3.025   3.860
  173DOPC   H3Y21130   1.827   3.174   3.902
  173DOPC   C3421131   1.916   2.997   3.980
  173DOPC   H4X21132   1.868   3.021   4.077
  173DOPC   H4Y21133   2.020   3.037   3.978
  173DOPC   C3521134   1.925   2.846   3.971
  173DOPC   H5X21135   1.954   2.821   3.868
  173DOPC   H5Y21136   1.826   2.799   3.992
  173DOPC   C3621137   2.032   2.788   4.065
  173DOPC   H6X21138   2.033   2.680   4.041
  173DOPC   H6Y21139   2.133   2.830   4.042
  173DOPC   C3721140   2.008   2.799   4.216
  173DOPC   H7X21141   2.036   2.901   4.252
  173DOPC   H7Y21142   1.899   2.783   4.233
  173DOPC   C3821143   2.087   2.691   4.294
  173DOPC   H8X21144   2.193   2.699   4.262
  173DOPC   H8Y21145   2.049   2.594   4.254
  173DOPC   C3921146   2.080   2.683   4.444
  173DOPC   H9X21147   1.997   2.624   4.484
  173DOPC  C31021148   2.164   2.742   4.532
  173DOPC  H10X21149   2.148   2.725   4.639
  173DOPC  C31121150   2.283   2.830   4.500
  173DOPC  H11X21151   2.309   2.826   4.392
  173DOPC  H11Y21152   2.373   2.795   4.556
  173DOPC  C31221153   2.257   2.978   4.537
  173DOPC  H12X21154   2.161   3.012   4.492
  173DOPC  H12Y21155   2.338   3.040   4.492
  173DOPC  C31321156   2.257   3.003   4.689
  173DOPC  H13X21157   2.186   2.934   4.739
  173DOPC  H13Y21158   2.358   2.978   4.727
  173DOPC  C31421159   2.223   3.147   4.733
  173DOPC  H14X21160   2.262   3.220   4.659
  173DOPC  H14Y21161   2.113   3.161   4.734
  173DOPC  C31521162   2.282   3.183   4.872
  173DOPC  H15X21163   2.252   3.286   4.899
  173DOPC  H15Y21164   2.392   3.184   4.870
  173DOPC  C31621165   2.247   3.084   4.984
  173DOPC  H16X21166   2.284   2.982   4.959
  173DOPC  H16Y21167   2.296   3.116   5.079
  173DOPC  C31721168   2.098   3.080   5.003
  173DOPC  H17X21169   2.055   3.047   4.908
  173DOPC  H17Y21170   2.067   3.006   5.078
  173DOPC  C31821171   2.039   3.215   5.033
  173DOPC  H18X21172   2.079   3.260   5.126
  173DOPC  H18Y21173   2.050   3.286   4.949
  173DOPC  H18Z21174   1.931   3.194   5.040
  174DOPC     N21175   4.890   2.472   3.044
  174DOPC   C1221176   4.957   2.364   2.959
  174DOPC  H12A21177   5.057   2.399   2.936
  174DOPC  H12B21178   4.906   2.353   2.863
  174DOPC   C1321179   4.842   2.582   2.955
  174DOPC  H13A21180   4.815   2.670   3.011
  174DOPC  H13B21181   4.922   2.612   2.886
  174DOPC  H13C21182   4.760   2.549   2.893
  174DOPC   C1421183   4.996   2.523   3.138
  174DOPC  H14A21184   5.052   2.437   3.176
  174DOPC  H14B21185   5.071   2.583   3.087
  174DOPC  H14C21186   4.959   2.577   3.223
  174DOPC   C1521187   4.776   2.413   3.120
  174DOPC  H15A21188   4.811   2.326   3.176
  174DOPC  H15B21189   4.697   2.379   3.055
  174DOPC  H15C21190   4.735   2.486   3.188
  174DOPC   C1121191   4.971   2.222   3.019
  174DOPC  H11A21192   4.871   2.177   3.035
  174DOPC  H11B21193   5.022   2.155   2.945
  174DOPC     P21194   5.195   2.208   3.150
  174DOPC   O1321195   5.252   2.338   3.110
  174DOPC   O1421196   5.237   2.093   3.068
  174DOPC   O1221197   5.038   2.224   3.145
  174DOPC   O1121198   5.226   2.185   3.303
  174DOPC    C121199   5.119   2.174   3.398
  174DOPC    HA21200   5.158   2.129   3.492
  174DOPC    HB21201   5.039   2.106   3.360
  174DOPC    C221202   5.055   2.312   3.434
  174DOPC    HS21203   5.042   2.368   3.339
  174DOPC   O2121204   5.141   2.384   3.524
  174DOPC   C2121205   5.111   2.512   3.533
  174DOPC   O2221206   5.028   2.570   3.463
  174DOPC   C2221207   5.191   2.577   3.645
  174DOPC   H2R21208   5.264   2.646   3.599
  174DOPC   H2S21209   5.247   2.498   3.700
  174DOPC    C321210   4.914   2.291   3.496
  174DOPC    HX21211   4.851   2.246   3.416
  174DOPC    HY21212   4.868   2.388   3.525
  174DOPC   O3121213   4.926   2.206   3.610
  174DOPC   C3121214   4.813   2.148   3.646
  174DOPC   O3221215   4.705   2.164   3.592
  174DOPC   C3221216   4.837   2.055   3.764
  174DOPC   H2X21217   4.755   2.070   3.837
  174DOPC   H2Y21218   4.828   1.952   3.725
  174DOPC   C2321219   5.096   2.652   3.741
  174DOPC   H3R21220   5.055   2.742   3.691
  174DOPC   H3S21221   5.156   2.687   3.828
  174DOPC   C2421222   4.980   2.564   3.790
  174DOPC   H4R21223   5.004   2.455   3.781
  174DOPC   H4S21224   4.893   2.583   3.723
  174DOPC   C2521225   4.938   2.593   3.934
  174DOPC   H5R21226   4.832   2.561   3.947
  174DOPC   H5S21227   4.943   2.703   3.950
  174DOPC   C2621228   5.022   2.521   4.041
  174DOPC   H6R21229   5.130   2.529   4.017
  174DOPC   H6S21230   4.995   2.413   4.042
  174DOPC   C2721231   4.993   2.583   4.178
  174DOPC   H7R21232   4.883   2.575   4.197
  174DOPC   H7S21233   5.018   2.692   4.169
  174DOPC   C2821234   5.067   2.528   4.302
  174DOPC   H8R21235   5.065   2.608   4.380
  174DOPC   H8S21236   5.174   2.514   4.276
  174DOPC   C2921237   5.006   2.401   4.355
  174DOPC   H9R21238   5.034   2.311   4.298
  174DOPC  C21021239   4.922   2.385   4.460
  174DOPC  H10R21240   4.885   2.283   4.479
  174DOPC  C21121241   4.866   2.487   4.555
  174DOPC  H11R21242   4.758   2.506   4.533
  174DOPC  H11S21243   4.916   2.586   4.543
  174DOPC  C21221244   4.880   2.448   4.704
  174DOPC  H12R21245   4.819   2.518   4.765
  174DOPC  H12S21246   4.987   2.462   4.731
  174DOPC  C21321247   4.844   2.305   4.750
  174DOPC  H13R21248   4.889   2.293   4.851
  174DOPC  H13S21249   4.890   2.226   4.687
  174DOPC  C21421250   4.695   2.278   4.770
  174DOPC  H14R21251   4.638   2.277   4.675
  174DOPC  H14S21252   4.654   2.362   4.832
  174DOPC  C21521253   4.672   2.146   4.845
  174DOPC  H15R21254   4.592   2.166   4.918
  174DOPC  H15S21255   4.764   2.120   4.901
  174DOPC  C21621256   4.626   2.030   4.755
  174DOPC  H16R21257   4.693   2.023   4.667
  174DOPC  H16S21258   4.524   2.057   4.718
  174DOPC  C21721259   4.620   1.892   4.823
  174DOPC  H17R21260   4.567   1.820   4.757
  174DOPC  H17S21261   4.561   1.900   4.916
  174DOPC  C21821262   4.751   1.823   4.851
  174DOPC  H18R21263   4.735   1.736   4.918
  174DOPC  H18S21264   4.817   1.892   4.903
  174DOPC  H18T21265   4.800   1.790   4.757
  174DOPC   C3321266   4.973   2.071   3.835
  174DOPC   H3X21267   4.993   2.178   3.860
  174DOPC   H3Y21268   5.054   2.037   3.766
  174DOPC   C3421269   4.977   1.992   3.965
  174DOPC   H4X21270   4.925   1.895   3.952
  174DOPC   H4Y21271   4.921   2.049   4.042
  174DOPC   C3521272   5.122   1.979   4.013
  174DOPC   H5X21273   5.191   1.989   3.925
  174DOPC   H5Y21274   5.143   1.880   4.058
  174DOPC   C3621275   5.151   2.091   4.114
  174DOPC   H6X21276   5.115   2.188   4.072
  174DOPC   H6Y21277   5.093   2.071   4.206
  174DOPC   C3721278   5.299   2.108   4.148
  174DOPC   H7X21279   5.340   2.010   4.181
  174DOPC   H7Y21280   5.353   2.140   4.057
  174DOPC   C3821281   5.321   2.211   4.261
  174DOPC   H8X21282   5.270   2.175   4.353
  174DOPC   H8Y21283   5.275   2.309   4.237
  174DOPC   C3921284   5.470   2.224   4.277
  174DOPC   H9X21285   5.519   2.291   4.205
  174DOPC  C31021286   5.543   2.166   4.374
  174DOPC  H10X21287   5.652   2.184   4.380
  174DOPC  C31121288   5.483   2.081   4.482
  174DOPC  H11X21289   5.558   2.014   4.530
  174DOPC  H11Y21290   5.404   2.015   4.440
  174DOPC  C31221291   5.421   2.175   4.586
  174DOPC  H12X21292   5.360   2.253   4.534
  174DOPC  H12Y21293   5.499   2.229   4.643
  174DOPC  C31321294   5.323   2.105   4.680
  174DOPC  H13X21295   5.267   2.027   4.626
  174DOPC  H13Y21296   5.379   2.055   4.762
  174DOPC  C31421297   5.223   2.208   4.732
  174DOPC  H14X21298   5.178   2.267   4.649
  174DOPC  H14Y21299   5.136   2.156   4.776
  174DOPC  C31521300   5.287   2.305   4.830
  174DOPC  H15X21301   5.199   2.340   4.888
  174DOPC  H15Y21302   5.333   2.392   4.779
  174DOPC  C31621303   5.388   2.247   4.930
  174DOPC  H16X21304   5.368   2.139   4.947
  174DOPC  H16Y21305   5.493   2.256   4.893
  174DOPC  C31721306   5.370   2.324   5.060
  174DOPC  H17X21307   5.390   2.431   5.044
  174DOPC  H17Y21308   5.262   2.316   5.087
  174DOPC  C31821309   5.449   2.270   5.178
  174DOPC  H18X21310   5.559   2.277   5.166
  174DOPC  H18Y21311   5.417   2.318   5.272
  174DOPC  H18Z21312   5.424   2.164   5.188
  175DOPC     N21313   3.167   5.701   3.071
  175DOPC   C1221314   3.142   5.850   3.050
  175DOPC  H12A21315   3.075   5.865   2.965
  175DOPC  H12B21316   3.235   5.897   3.023
  175DOPC   C1321317   3.263   5.655   2.965
  175DOPC  H13A21318   3.212   5.647   2.869
  175DOPC  H13B21319   3.345   5.724   2.954
  175DOPC  H13C21320   3.302   5.556   2.987
  175DOPC   C1421321   3.038   5.627   3.054
  175DOPC  H14A21322   3.051   5.520   3.063
  175DOPC  H14B21323   2.963   5.662   3.125
  175DOPC  H14C21324   2.997   5.644   2.954
  175DOPC   C1521325   3.221   5.670   3.208
  175DOPC  H15A21326   3.319   5.714   3.224
  175DOPC  H15B21327   3.232   5.564   3.224
  175DOPC  H15C21328   3.152   5.709   3.282
  175DOPC   C1121329   3.077   5.930   3.165
  175DOPC  H11A21330   3.132   5.915   3.261
  175DOPC  H11B21331   3.082   6.039   3.143
  175DOPC     P21332   2.821   5.969   3.120
  175DOPC   O1321333   2.830   5.975   2.973
  175DOPC   O1421334   2.815   6.100   3.188
  175DOPC   O1221335   2.943   5.886   3.181
  175DOPC   O1121336   2.697   5.882   3.163
  175DOPC    C121337   2.701   5.766   3.246
  175DOPC    HA21338   2.786   5.698   3.222
  175DOPC    HB21339   2.608   5.709   3.224
  175DOPC    C221340   2.698   5.797   3.399
  175DOPC    HS21341   2.621   5.875   3.416
  175DOPC   O2121342   2.829   5.839   3.443
  175DOPC   C2121343   2.835   5.890   3.564
  175DOPC   O2221344   2.743   5.903   3.642
  175DOPC   C2221345   2.981   5.929   3.590
  175DOPC   H2R21346   3.004   6.018   3.529
  175DOPC   H2S21347   3.044   5.844   3.555
  175DOPC    C321348   2.655   5.667   3.472
  175DOPC    HX21349   2.551   5.645   3.438
  175DOPC    HY21350   2.648   5.683   3.582
  175DOPC   O3121351   2.743   5.558   3.433
  175DOPC   C3121352   2.835   5.523   3.523
  175DOPC   O3221353   2.841   5.564   3.637
  175DOPC   C3221354   2.934   5.427   3.459
  175DOPC   H2X21355   2.881   5.370   3.381
  175DOPC   H2Y21356   3.011   5.486   3.408
  175DOPC   C2321357   3.013   5.955   3.739
  175DOPC   H3R21358   3.119   5.925   3.755
  175DOPC   H3S21359   2.952   5.890   3.806
  175DOPC   C2421360   3.002   6.103   3.778
  175DOPC   H4R21361   2.897   6.137   3.765
  175DOPC   H4S21362   3.066   6.162   3.708
  175DOPC   C2521363   3.052   6.128   3.921
  175DOPC   H5R21364   3.065   6.237   3.938
  175DOPC   H5S21365   3.150   6.078   3.929
  175DOPC   C2621366   2.964   6.070   4.032
  175DOPC   H6R21367   3.019   6.071   4.129
  175DOPC   H6S21368   2.941   5.964   4.010
  175DOPC   C2721369   2.835   6.150   4.049
  175DOPC   H7R21370   2.827   6.219   3.963
  175DOPC   H7S21371   2.840   6.212   4.141
  175DOPC   C2821372   2.710   6.061   4.048
  175DOPC   H8R21373   2.718   5.996   3.958
  175DOPC   H8S21374   2.619   6.121   4.033
  175DOPC   C2921375   2.694   5.986   4.176
  175DOPC   H9R21376   2.688   6.047   4.268
  175DOPC  C21021377   2.690   5.852   4.187
  175DOPC  H10R21378   2.681   5.807   4.286
  175DOPC  C21121379   2.700   5.753   4.074
  175DOPC  H11R21380   2.695   5.800   3.973
  175DOPC  H11S21381   2.613   5.684   4.075
  175DOPC  C21221382   2.834   5.679   4.087
  175DOPC  H12R21383   2.917   5.753   4.075
  175DOPC  H12S21384   2.843   5.607   4.002
  175DOPC  C21321385   2.850   5.604   4.221
  175DOPC  H13R21386   2.845   5.676   4.305
  175DOPC  H13S21387   2.951   5.557   4.224
  175DOPC  C21421388   2.739   5.499   4.239
  175DOPC  H14R21389   2.758   5.422   4.160
  175DOPC  H14S21390   2.640   5.544   4.219
  175DOPC  C21521391   2.730   5.432   4.376
  175DOPC  H15R21392   2.826   5.380   4.394
  175DOPC  H15S21393   2.651   5.355   4.368
  175DOPC  C21621394   2.685   5.520   4.494
  175DOPC  H16R21395   2.580   5.492   4.518
  175DOPC  H16S21396   2.685   5.627   4.464
  175DOPC  C21721397   2.767   5.510   4.624
  175DOPC  H17R21398   2.695   5.512   4.709
  175DOPC  H17S21399   2.829   5.602   4.632
  175DOPC  C21821400   2.860   5.388   4.642
  175DOPC  H18R21401   2.959   5.409   4.598
  175DOPC  H18S21402   2.818   5.297   4.594
  175DOPC  H18T21403   2.874   5.365   4.750
  175DOPC   C3321404   2.991   5.329   3.563
  175DOPC   H3X21405   3.032   5.242   3.507
  175DOPC   H3Y21406   2.912   5.291   3.631
  175DOPC   C3421407   3.101   5.384   3.653
  175DOPC   H4X21408   3.136   5.305   3.724
  175DOPC   H4Y21409   3.058   5.465   3.716
  175DOPC   C3521410   3.221   5.435   3.574
  175DOPC   H5X21411   3.191   5.503   3.492
  175DOPC   H5Y21412   3.275   5.348   3.529
  175DOPC   C3621413   3.314   5.513   3.663
  175DOPC   H6X21414   3.335   5.456   3.757
  175DOPC   H6Y21415   3.412   5.527   3.611
  175DOPC   C3721416   3.259   5.651   3.699
  175DOPC   H7X21417   3.239   5.710   3.606
  175DOPC   H7Y21418   3.164   5.645   3.757
  175DOPC   C3821419   3.366   5.716   3.784
  175DOPC   H8X21420   3.461   5.694   3.733
  175DOPC   H8Y21421   3.367   5.659   3.879
  175DOPC   C3921422   3.360   5.863   3.804
  175DOPC   H9X21423   3.358   5.925   3.713
  175DOPC  C31021424   3.366   5.922   3.924
  175DOPC  H10X21425   3.354   6.029   3.924
  175DOPC  C31121426   3.380   5.859   4.060
  175DOPC  H11X21427   3.476   5.891   4.107
  175DOPC  H11Y21428   3.379   5.748   4.058
  175DOPC  C31221429   3.265   5.906   4.150
  175DOPC  H12X21430   3.167   5.885   4.101
  175DOPC  H12Y21431   3.273   6.017   4.164
  175DOPC  C31321432   3.269   5.838   4.286
  175DOPC  H13X21433   3.246   5.729   4.275
  175DOPC  H13Y21434   3.373   5.846   4.325
  175DOPC  C31421435   3.175   5.903   4.388
  175DOPC  H14X21436   3.216   5.879   4.489
  175DOPC  H14Y21437   3.175   6.013   4.374
  175DOPC  C31521438   3.031   5.852   4.384
  175DOPC  H15X21439   3.034   5.741   4.384
  175DOPC  H15Y21440   2.983   5.884   4.288
  175DOPC  C31621441   2.946   5.900   4.502
  175DOPC  H16X21442   2.941   6.011   4.503
  175DOPC  H16Y21443   2.842   5.862   4.488
  175DOPC  C31721444   2.996   5.851   4.639
  175DOPC  H17X21445   3.015   5.741   4.634
  175DOPC  H17Y21446   3.093   5.900   4.664
  175DOPC  C31821447   2.896   5.879   4.751
  175DOPC  H18X21448   2.937   5.849   4.849
  175DOPC  H18Y21449   2.873   5.988   4.755
  175DOPC  H18Z21450   2.801   5.824   4.735
  176DOPC     N21451   2.985   1.859   3.043
  176DOPC   C1221452   2.939   1.791   3.171
  176DOPC  H12A21453   2.830   1.792   3.174
  176DOPC  H12B21454   2.975   1.850   3.255
  176DOPC   C1321455   3.117   1.804   2.997
  176DOPC  H13A21456   3.106   1.699   2.971
  176DOPC  H13B21457   3.157   1.858   2.912
  176DOPC  H13C21458   3.191   1.814   3.075
  176DOPC   C1421459   3.007   2.005   3.073
  176DOPC  H14A21460   2.919   2.055   3.112
  176DOPC  H14B21461   3.084   2.017   3.149
  176DOPC  H14C21462   3.045   2.061   2.988
  176DOPC   C1521463   2.884   1.833   2.935
  176DOPC  H15A21464   2.922   1.858   2.838
  176DOPC  H15B21465   2.788   1.880   2.956
  176DOPC  H15C21466   2.859   1.726   2.933
  176DOPC   C1121467   2.983   1.645   3.196
  176DOPC  H11A21468   3.094   1.638   3.200
  176DOPC  H11B21469   2.948   1.614   3.297
  176DOPC     P21470   2.784   1.512   3.095
  176DOPC   O1321471   2.778   1.383   3.023
  176DOPC   O1421472   2.698   1.624   3.050
  176DOPC   O1221473   2.936   1.558   3.093
  176DOPC   O1121474   2.757   1.483   3.251
  176DOPC    C121475   2.648   1.402   3.296
  176DOPC    HA21476   2.684   1.297   3.305
  176DOPC    HB21477   2.564   1.399   3.222
  176DOPC    C221478   2.584   1.442   3.435
  176DOPC    HS21479   2.479   1.471   3.416
  176DOPC   O2121480   2.652   1.548   3.505
  176DOPC   C2121481   2.653   1.668   3.453
  176DOPC   O2221482   2.602   1.702   3.348
  176DOPC   C2221483   2.717   1.769   3.550
  176DOPC   H2R21484   2.694   1.868   3.504
  176DOPC   H2S21485   2.826   1.758   3.550
  176DOPC    C321486   2.581   1.321   3.533
  176DOPC    HX21487   2.526   1.237   3.487
  176DOPC    HY21488   2.526   1.348   3.626
  176DOPC   O3121489   2.717   1.280   3.557
  176DOPC   C3121490   2.772   1.337   3.665
  176DOPC   O3221491   2.719   1.345   3.774
  176DOPC   C3221492   2.917   1.375   3.628
  176DOPC   H2X21493   2.970   1.362   3.724
  176DOPC   H2Y21494   2.953   1.304   3.551
  176DOPC   C2321495   2.654   1.771   3.692
  176DOPC   H3R21496   2.545   1.753   3.685
  176DOPC   H3S21497   2.668   1.873   3.736
  176DOPC   C2421498   2.711   1.670   3.792
  176DOPC   H4R21499   2.817   1.691   3.815
  176DOPC   H4S21500   2.703   1.570   3.746
  176DOPC   C2521501   2.631   1.670   3.921
  176DOPC   H5R21502   2.532   1.623   3.904
  176DOPC   H5S21503   2.617   1.778   3.947
  176DOPC   C2621504   2.698   1.605   4.042
  176DOPC   H6R21505   2.688   1.681   4.124
  176DOPC   H6S21506   2.806   1.590   4.022
  176DOPC   C2721507   2.633   1.473   4.088
  176DOPC   H7R21508   2.656   1.394   4.013
  176DOPC   H7S21509   2.523   1.486   4.090
  176DOPC   C2821510   2.677   1.426   4.228
  176DOPC   H8R21511   2.784   1.393   4.225
  176DOPC   H8S21512   2.618   1.335   4.254
  176DOPC   C2921513   2.659   1.536   4.330
  176DOPC   H9R21514   2.732   1.617   4.319
  176DOPC  C21021515   2.563   1.552   4.421
  176DOPC  H10R21516   2.565   1.640   4.487
  176DOPC  C21121517   2.447   1.460   4.443
  176DOPC  H11R21518   2.416   1.412   4.349
  176DOPC  H11S21519   2.360   1.518   4.479
  176DOPC  C21221520   2.474   1.356   4.551
  176DOPC  H12R21521   2.383   1.296   4.568
  176DOPC  H12S21522   2.494   1.414   4.643
  176DOPC  C21321523   2.586   1.254   4.525
  176DOPC  H13R21524   2.684   1.306   4.514
  176DOPC  H13S21525   2.570   1.195   4.432
  176DOPC  C21421526   2.593   1.158   4.644
  176DOPC  H14R21527   2.683   1.096   4.625
  176DOPC  H14S21528   2.506   1.090   4.645
  176DOPC  C21521529   2.602   1.233   4.779
  176DOPC  H15R21530   2.612   1.162   4.862
  176DOPC  H15S21531   2.507   1.286   4.799
  176DOPC  C21621532   2.723   1.328   4.775
  176DOPC  H16R21533   2.700   1.418   4.713
  176DOPC  H16S21534   2.801   1.272   4.721
  176DOPC  C21721535   2.782   1.376   4.909
  176DOPC  H17R21536   2.721   1.463   4.937
  176DOPC  H17S21537   2.884   1.416   4.889
  176DOPC  C21821538   2.787   1.276   5.026
  176DOPC  H18R21539   2.693   1.219   5.032
  176DOPC  H18S21540   2.798   1.331   5.121
  176DOPC  H18T21541   2.870   1.204   5.025
  176DOPC   C3321542   2.954   1.518   3.584
  176DOPC   H3X21543   2.904   1.584   3.657
  176DOPC   H3Y21544   2.913   1.540   3.483
  176DOPC   C3421545   3.106   1.542   3.591
  176DOPC   H4X21546   3.160   1.477   3.519
  176DOPC   H4Y21547   3.139   1.511   3.693
  176DOPC   C3521548   3.149   1.688   3.575
  176DOPC   H5X21549   3.117   1.730   3.477
  176DOPC   H5Y21550   3.261   1.696   3.581
  176DOPC   C3621551   3.092   1.770   3.689
  176DOPC   H6X21552   2.983   1.755   3.700
  176DOPC   H6Y21553   3.139   1.733   3.783
  176DOPC   C3721554   3.108   1.920   3.677
  176DOPC   H7X21555   3.213   1.950   3.656
  176DOPC   H7Y21556   3.044   1.958   3.595
  176DOPC   C3821557   3.060   1.979   3.809
  176DOPC   H8X21558   2.955   1.947   3.830
  176DOPC   H8Y21559   3.054   2.086   3.793
  176DOPC   C3921560   3.154   1.948   3.922
  176DOPC   H9X21561   3.258   1.980   3.906
  176DOPC  C31021562   3.123   1.886   4.037
  176DOPC  H10X21563   3.203   1.877   4.113
  176DOPC  C31121564   2.989   1.834   4.080
  176DOPC  H11X21565   2.924   1.810   3.993
  176DOPC  H11Y21566   2.935   1.912   4.138
  176DOPC  C31221567   3.001   1.706   4.165
  176DOPC  H12X21568   3.025   1.621   4.097
  176DOPC  H12Y21569   2.900   1.685   4.208
  176DOPC  C31321570   3.103   1.708   4.280
  176DOPC  H13X21571   3.205   1.711   4.237
  176DOPC  H13Y21572   3.089   1.798   4.344
  176DOPC  C31421573   3.093   1.581   4.366
  176DOPC  H14X21574   3.073   1.497   4.296
  176DOPC  H14Y21575   3.191   1.562   4.416
  176DOPC  C31521576   2.983   1.587   4.473
  176DOPC  H15X21577   2.970   1.487   4.520
  176DOPC  H15Y21578   2.888   1.613   4.424
  176DOPC  C31621579   3.009   1.692   4.581
  176DOPC  H16X21580   3.117   1.716   4.580
  176DOPC  H16Y21581   2.952   1.784   4.553
  176DOPC  C31721582   2.971   1.649   4.722
  176DOPC  H17X21583   2.949   1.740   4.782
  176DOPC  H17Y21584   2.877   1.588   4.719
  176DOPC  C31821585   3.084   1.573   4.792
  176DOPC  H18X21586   3.113   1.483   4.734
  176DOPC  H18Y21587   3.174   1.637   4.801
  176DOPC  H18Z21588   3.054   1.541   4.894
  177DOPC     N21589   4.897   5.995   2.904
  177DOPC   C1221590   4.958   5.934   3.029
  177DOPC  H12A21591   5.042   5.872   3.003
  177DOPC  H12B21592   4.883   5.869   3.076
  177DOPC   C1321593   4.764   6.051   2.944
  177DOPC  H13A21594   4.776   6.109   3.036
  177DOPC  H13B21595   4.715   6.113   2.870
  177DOPC  H13C21596   4.697   5.970   2.977
  177DOPC   C1421597   4.880   5.890   2.798
  177DOPC  H14A21598   4.969   5.831   2.784
  177DOPC  H14B21599   4.800   5.821   2.826
  177DOPC  H14C21600   4.852   5.933   2.703
  177DOPC   C1521601   4.988   6.105   2.857
  177DOPC  H15A21602   5.081   6.061   2.820
  177DOPC  H15B21603   5.014   6.170   2.940
  177DOPC  H15C21604   4.946   6.160   2.774
  177DOPC   C1121605   5.004   6.032   3.140
  177DOPC  H11A21606   5.068   5.979   3.214
  177DOPC  H11B21607   5.070   6.112   3.100
  177DOPC     P21608   4.794   5.999   3.289
  177DOPC   O1321609   4.694   5.943   3.197
  177DOPC   O1421610   4.745   6.074   3.406
  177DOPC   O1221611   4.891   6.092   3.202
  177DOPC   O1121612   4.888   5.878   3.333
  177DOPC    C121613   4.831   5.750   3.362
  177DOPC    HA21614   4.864   5.677   3.285
  177DOPC    HB21615   4.720   5.750   3.361
  177DOPC    C221616   4.878   5.699   3.501
  177DOPC    HS21617   4.832   5.600   3.523
  177DOPC   O2121618   4.842   5.793   3.604
  177DOPC   C2121619   4.713   5.798   3.632
  177DOPC   O2221620   4.627   5.724   3.587
  177DOPC   C2221621   4.689   5.904   3.740
  177DOPC   H2R21622   4.593   5.879   3.791
  177DOPC   H2S21623   4.677   6.000   3.687
  177DOPC    C321624   5.032   5.680   3.501
  177DOPC    HX21625   5.077   5.769   3.454
  177DOPC    HY21626   5.055   5.593   3.435
  177DOPC   O3121627   5.079   5.653   3.635
  177DOPC   C3121628   5.141   5.754   3.694
  177DOPC   O3221629   5.182   5.855   3.639
  177DOPC   C3221630   5.153   5.729   3.842
  177DOPC   H2X21631   5.052   5.731   3.887
  177DOPC   H2Y21632   5.196   5.628   3.857
  177DOPC   C2321633   4.804   5.914   3.843
  177DOPC   H3R21634   4.903   5.914   3.792
  177DOPC   H3S21635   4.801   5.826   3.911
  177DOPC   C2421636   4.799   6.044   3.923
  177DOPC   H4R21637   4.700   6.056   3.973
  177DOPC   H4S21638   4.812   6.129   3.852
  177DOPC   C2521639   4.911   6.048   4.027
  177DOPC   H5R21640   5.006   6.009   3.984
  177DOPC   H5S21641   4.882   5.978   4.109
  177DOPC   C2621642   4.937   6.189   4.081
  177DOPC   H6R21643   4.841   6.243   4.094
  177DOPC   H6S21644   4.995   6.246   4.005
  177DOPC   C2721645   5.013   6.187   4.215
  177DOPC   H7R21646   5.029   6.291   4.248
  177DOPC   H7S21647   5.113   6.141   4.196
  177DOPC   C2821648   4.946   6.106   4.328
  177DOPC   H8R21649   5.001   6.129   4.422
  177DOPC   H8S21650   4.962   5.998   4.309
  177DOPC   C2921651   4.799   6.136   4.337
  177DOPC   H9R21652   4.742   6.113   4.246
  177DOPC  C21021653   4.729   6.173   4.446
  177DOPC  H10R21654   4.621   6.189   4.436
  177DOPC  C21121655   4.782   6.194   4.585
  177DOPC  H11R21656   4.769   6.299   4.619
  177DOPC  H11S21657   4.891   6.170   4.594
  177DOPC  C21221658   4.703   6.100   4.674
  177DOPC  H12R21659   4.594   6.121   4.666
  177DOPC  H12S21660   4.731   6.122   4.779
  177DOPC  C21321661   4.729   5.951   4.644
  177DOPC  H13R21662   4.838   5.931   4.652
  177DOPC  H13S21663   4.698   5.928   4.539
  177DOPC  C21421664   4.649   5.861   4.739
  177DOPC  H14R21665   4.582   5.930   4.795
  177DOPC  H14S21666   4.717   5.819   4.815
  177DOPC  C21521667   4.558   5.758   4.670
  177DOPC  H15R21668   4.506   5.812   4.587
  177DOPC  H15S21669   4.479   5.728   4.741
  177DOPC  C21621670   4.620   5.629   4.609
  177DOPC  H16R21671   4.671   5.659   4.515
  177DOPC  H16S21672   4.539   5.557   4.583
  177DOPC  C21721673   4.724   5.557   4.695
  177DOPC  H17R21674   4.782   5.638   4.737
  177DOPC  H17S21675   4.793   5.494   4.636
  177DOPC  C21821676   4.675   5.483   4.817
  177DOPC  H18R21677   4.659   5.561   4.893
  177DOPC  H18S21678   4.749   5.414   4.861
  177DOPC  H18T21679   4.581   5.427   4.796
  177DOPC   C3321680   5.244   5.834   3.908
  177DOPC   H3X21681   5.195   5.934   3.906
  177DOPC   H3Y21682   5.340   5.844   3.852
  177DOPC   C3421683   5.273   5.792   4.051
  177DOPC   H4X21684   5.323   5.693   4.048
  177DOPC   H4Y21685   5.176   5.779   4.103
  177DOPC   C3521686   5.363   5.888   4.130
  177DOPC   H5X21687   5.317   5.989   4.136
  177DOPC   H5Y21688   5.460   5.898   4.076
  177DOPC   C3621689   5.389   5.834   4.270
  177DOPC   H6X21690   5.422   5.727   4.260
  177DOPC   H6Y21691   5.472   5.888   4.320
  177DOPC   C3721692   5.264   5.837   4.360
  177DOPC   H7X21693   5.262   5.932   4.417
  177DOPC   H7Y21694   5.172   5.840   4.299
  177DOPC   C3821695   5.255   5.713   4.451
  177DOPC   H8X21696   5.242   5.626   4.384
  177DOPC   H8Y21697   5.160   5.718   4.509
  177DOPC   C3921698   5.374   5.689   4.541
  177DOPC   H9X21699   5.410   5.585   4.538
  177DOPC  C31021700   5.438   5.774   4.623
  177DOPC  H10X21701   5.524   5.734   4.679
  177DOPC  C31121702   5.414   5.919   4.654
  177DOPC  H11X21703   5.335   5.966   4.591
  177DOPC  H11Y21704   5.507   5.977   4.637
  177DOPC  C31221705   5.369   5.941   4.799
  177DOPC  H12X21706   5.258   5.927   4.799
  177DOPC  H12Y21707   5.382   6.047   4.827
  177DOPC  C31321708   5.434   5.855   4.911
  177DOPC  H13X21709   5.507   5.780   4.876
  177DOPC  H13Y21710   5.498   5.930   4.962
  177DOPC  C31421711   5.321   5.812   5.009
  177DOPC  H14X21712   5.310   5.904   5.070
  177DOPC  H14Y21713   5.228   5.805   4.952
  177DOPC  C31521714   5.308   5.692   5.108
  177DOPC  H15X21715   5.219   5.712   5.168
  177DOPC  H15Y21716   5.376   5.703   5.191
  177DOPC  C31621717   5.321   5.543   5.068
  177DOPC  H16X21718   5.364   5.539   4.965
  177DOPC  H16Y21719   5.399   5.502   5.136
  177DOPC  C31721720   5.208   5.432   5.073
  177DOPC  H17X21721   5.162   5.427   4.972
  177DOPC  H17Y21722   5.275   5.349   5.093
  177DOPC  C31821723   5.105   5.381   5.177
  177DOPC  H18X21724   5.103   5.271   5.180
  177DOPC  H18Y21725   5.125   5.397   5.282
  177DOPC  H18Z21726   5.001   5.405   5.149
  178DOPC     N21727   2.183   5.778   2.892
  178DOPC   C1221728   2.080   5.805   3.003
  178DOPC  H12A21729   2.093   5.729   3.082
  178DOPC  H12B21730   1.979   5.791   2.968
  178DOPC   C1321731   2.322   5.788   2.951
  178DOPC  H13A21732   2.329   5.881   3.008
  178DOPC  H13B21733   2.343   5.710   3.023
  178DOPC  H13C21734   2.399   5.787   2.876
  178DOPC   C1421735   2.173   5.881   2.784
  178DOPC  H14A21736   2.245   5.865   2.705
  178DOPC  H14B21737   2.075   5.884   2.738
  178DOPC  H14C21738   2.191   5.979   2.827
  178DOPC   C1521739   2.163   5.643   2.832
  178DOPC  H15A21740   2.231   5.629   2.748
  178DOPC  H15B21741   2.062   5.630   2.794
  178DOPC  H15C21742   2.182   5.564   2.903
  178DOPC   C1121743   2.088   5.941   3.080
  178DOPC  H11A21744   2.083   6.026   3.009
  178DOPC  H11B21745   1.997   5.950   3.145
  178DOPC     P21746   2.213   5.855   3.287
  178DOPC   O1321747   2.354   5.822   3.315
  178DOPC   O1421748   2.122   5.741   3.264
  178DOPC   O1221749   2.206   5.951   3.159
  178DOPC   O1121750   2.154   5.942   3.405
  178DOPC    C121751   2.236   5.968   3.519
  178DOPC    HA21752   2.188   6.047   3.580
  178DOPC    HB21753   2.336   6.008   3.488
  178DOPC    C221754   2.255   5.843   3.608
  178DOPC    HS21755   2.281   5.756   3.542
  178DOPC   O2121756   2.133   5.818   3.680
  178DOPC   C2121757   2.116   5.695   3.722
  178DOPC   O2221758   2.199   5.605   3.715
  178DOPC   C2221759   1.973   5.678   3.774
  178DOPC   H2R21760   1.918   5.620   3.698
  178DOPC   H2S21761   1.925   5.777   3.784
  178DOPC    C321762   2.375   5.864   3.703
  178DOPC    HX21763   2.469   5.866   3.644
  178DOPC    HY21764   2.379   5.773   3.768
  178DOPC   O3121765   2.359   5.988   3.776
  178DOPC   C3121766   2.394   5.979   3.904
  178DOPC   O3221767   2.452   5.885   3.953
  178DOPC   C3221768   2.348   6.101   3.981
  178DOPC   H2X21769   2.405   6.100   4.077
  178DOPC   H2Y21770   2.372   6.194   3.925
  178DOPC   C2321771   1.971   5.603   3.908
  178DOPC   H3R21772   2.051   5.525   3.911
  178DOPC   H3S21773   1.875   5.548   3.919
  178DOPC   C2421774   1.990   5.693   4.031
  178DOPC   H4R21775   1.898   5.752   4.051
  178DOPC   H4S21776   2.073   5.764   4.011
  178DOPC   C2521777   2.025   5.609   4.154
  178DOPC   H5R21778   2.099   5.530   4.128
  178DOPC   H5S21779   1.932   5.556   4.187
  178DOPC   C2621780   2.081   5.692   4.270
  178DOPC   H6R21781   2.064   5.636   4.364
  178DOPC   H6S21782   2.022   5.785   4.280
  178DOPC   C2721783   2.232   5.722   4.263
  178DOPC   H7R21784   2.252   5.804   4.191
  178DOPC   H7S21785   2.286   5.632   4.228
  178DOPC   C2821786   2.282   5.761   4.404
  178DOPC   H8R21787   2.255   5.678   4.472
  178DOPC   H8S21788   2.220   5.846   4.438
  178DOPC   C2921789   2.429   5.783   4.425
  178DOPC   H9R21790   2.490   5.692   4.416
  178DOPC  C21021791   2.490   5.901   4.446
  178DOPC  H10R21792   2.599   5.904   4.459
  178DOPC  C21121793   2.422   6.035   4.450
  178DOPC  H11R21794   2.315   6.020   4.426
  178DOPC  H11S21795   2.461   6.098   4.367
  178DOPC  C21221796   2.429   6.119   4.578
  178DOPC  H12R21797   2.374   6.214   4.555
  178DOPC  H12S21798   2.533   6.148   4.603
  178DOPC  C21321799   2.360   6.056   4.700
  178DOPC  H13R21800   2.431   5.991   4.756
  178DOPC  H13S21801   2.276   5.992   4.666
  178DOPC  C21421802   2.304   6.165   4.793
  178DOPC  H14R21803   2.232   6.123   4.865
  178DOPC  H14S21804   2.248   6.238   4.731
  178DOPC  C21521805   2.417   6.239   4.865
  178DOPC  H15R21806   2.487   6.276   4.786
  178DOPC  H15S21807   2.474   6.170   4.931
  178DOPC  C21621808   2.372   6.363   4.943
  178DOPC  H16R21809   2.312   6.429   4.877
  178DOPC  H16S21810   2.465   6.417   4.973
  178DOPC  C21721811   2.294   6.333   5.071
  178DOPC  H17R21812   2.201   6.281   5.041
  178DOPC  H17S21813   2.264   6.428   5.120
  178DOPC  C21821814   2.372   6.250   5.173
  178DOPC  H18R21815   2.478   6.283   5.178
  178DOPC  H18S21816   2.370   6.143   5.144
  178DOPC  H18T21817   2.328   6.259   5.275
  178DOPC   C3321818   2.198   6.087   4.011
  178DOPC   H3X21819   2.180   5.986   4.054
  178DOPC   H3Y21820   2.138   6.095   3.918
  178DOPC   C3421821   2.147   6.188   4.114
  178DOPC   H4X21822   2.130   6.287   4.064
  178DOPC   H4Y21823   2.221   6.203   4.195
  178DOPC   C3521824   2.018   6.134   4.174
  178DOPC   H5X21825   1.960   6.079   4.096
  178DOPC   H5Y21826   1.953   6.217   4.205
  178DOPC   C3621827   2.045   6.042   4.295
  178DOPC   H6X21828   1.954   5.981   4.312
  178DOPC   H6Y21829   2.130   5.975   4.272
  178DOPC   C3721830   2.074   6.120   4.424
  178DOPC   H7X21831   2.178   6.156   4.430
  178DOPC   H7Y21832   2.019   6.214   4.408
  178DOPC   C3821833   2.035   6.050   4.557
  178DOPC   H8X21834   2.072   6.112   4.641
  178DOPC   H8Y21835   2.087   5.952   4.565
  178DOPC   C3921836   1.886   6.033   4.572
  178DOPC   H9X21837   1.836   6.126   4.597
  178DOPC  C31021838   1.810   5.925   4.584
  178DOPC  H10X21839   1.701   5.938   4.577
  178DOPC  C31121840   1.860   5.784   4.588
  178DOPC  H11X21841   1.959   5.774   4.539
  178DOPC  H11Y21842   1.789   5.716   4.537
  178DOPC  C31221843   1.873   5.748   4.737
  178DOPC  H12X21844   1.905   5.642   4.741
  178DOPC  H12Y21845   1.775   5.753   4.790
  178DOPC  C31321846   1.978   5.829   4.816
  178DOPC  H13X21847   2.075   5.818   4.762
  178DOPC  H13Y21848   1.953   5.937   4.819
  178DOPC  C31421849   1.994   5.779   4.959
  178DOPC  H14X21850   1.917   5.816   5.027
  178DOPC  H14Y21851   1.974   5.670   4.961
  178DOPC  C31521852   2.133   5.802   5.017
  178DOPC  H15X21853   2.212   5.776   4.942
  178DOPC  H15Y21854   2.138   5.724   5.097
  178DOPC  C31621855   2.165   5.939   5.082
  178DOPC  H16X21856   2.222   5.918   5.175
  178DOPC  H16Y21857   2.235   5.995   5.018
  178DOPC  C31721858   2.046   6.027   5.121
  178DOPC  H17X21859   2.006   6.081   5.032
  178DOPC  H17Y21860   1.966   5.959   5.157
  178DOPC  C31821861   2.072   6.126   5.236
  178DOPC  H18X21862   1.984   6.134   5.303
  178DOPC  H18Y21863   2.158   6.090   5.298
  178DOPC  H18Z21864   2.094   6.228   5.200
  179DOPC     N21865   5.924   5.223   2.893
  179DOPC   C1221866   5.898   5.150   3.024
  179DOPC  H12A21867   5.953   5.057   3.022
  179DOPC  H12B21868   5.793   5.122   3.033
  179DOPC   C1321869   6.072   5.239   2.878
  179DOPC  H13A21870   6.102   5.310   2.802
  179DOPC  H13B21871   6.114   5.271   2.974
  179DOPC  H13C21872   6.120   5.143   2.857
  179DOPC   C1421873   5.859   5.358   2.894
  179DOPC  H14A21874   5.898   5.413   2.980
  179DOPC  H14B21875   5.880   5.410   2.802
  179DOPC  H14C21876   5.752   5.350   2.904
  179DOPC   C1521877   5.878   5.143   2.776
  179DOPC  H15A21878   5.770   5.136   2.767
  179DOPC  H15B21879   5.918   5.042   2.783
  179DOPC  H15C21880   5.917   5.184   2.684
  179DOPC   C1121881   5.940   5.219   3.156
  179DOPC  H11A21882   5.890   5.317   3.168
  179DOPC  H11B21883   5.909   5.153   3.241
  179DOPC     P21884   6.165   5.271   3.285
  179DOPC   O1321885   6.301   5.302   3.235
  179DOPC   O1421886   6.148   5.166   3.388
  179DOPC   O1221887   6.080   5.235   3.157
  179DOPC   O1121888   6.097   5.406   3.335
  179DOPC    C121889   6.075   5.520   3.251
  179DOPC    HA21890   6.046   5.490   3.147
  179DOPC    HB21891   6.171   5.576   3.245
  179DOPC    C221892   5.967   5.621   3.305
  179DOPC    HS21893   6.005   5.724   3.283
  179DOPC   O2121894   5.946   5.604   3.444
  179DOPC   C2121895   6.041   5.650   3.522
  179DOPC   O2221896   6.129   5.729   3.488
  179DOPC   C2221897   6.013   5.603   3.665
  179DOPC   H2R21898   5.902   5.592   3.675
  179DOPC   H2S21899   6.047   5.683   3.735
  179DOPC    C321900   5.825   5.617   3.237
  179DOPC    HX21901   5.840   5.638   3.129
  179DOPC    HY21902   5.767   5.703   3.278
  179DOPC   O3121903   5.752   5.493   3.251
  179DOPC   C3121904   5.683   5.480   3.364
  179DOPC   O3221905   5.663   5.567   3.447
  179DOPC   C3221906   5.630   5.338   3.375
  179DOPC   H2X21907   5.520   5.338   3.363
  179DOPC   H2Y21908   5.674   5.274   3.296
  179DOPC   C2321909   6.075   5.468   3.701
  179DOPC   H3R21910   6.051   5.394   3.622
  179DOPC   H3S21911   6.035   5.433   3.799
  179DOPC   C2421912   6.225   5.475   3.713
  179DOPC   H4R21913   6.249   5.534   3.805
  179DOPC   H4S21914   6.259   5.528   3.622
  179DOPC   C2521915   6.291   5.339   3.727
  179DOPC   H5R21916   6.402   5.351   3.731
  179DOPC   H5S21917   6.265   5.276   3.639
  179DOPC   C2621918   6.243   5.274   3.856
  179DOPC   H6R21919   6.143   5.230   3.835
  179DOPC   H6S21920   6.226   5.352   3.934
  179DOPC   C2721921   6.342   5.172   3.914
  179DOPC   H7R21922   6.433   5.226   3.948
  179DOPC   H7S21923   6.372   5.101   3.833
  179DOPC   C2821924   6.281   5.098   4.032
  179DOPC   H8R21925   6.248   5.171   4.109
  179DOPC   H8S21926   6.354   5.028   4.078
  179DOPC   C2921927   6.163   5.024   3.977
  179DOPC   H9R21928   6.166   4.999   3.869
  179DOPC  C21021929   6.057   4.988   4.047
  179DOPC  H10R21930   5.976   4.940   3.993
  179DOPC  C21121931   6.038   5.017   4.193
  179DOPC  H11R21932   6.135   5.016   4.249
  179DOPC  H11S21933   5.975   4.938   4.239
  179DOPC  C21221934   5.974   5.154   4.215
  179DOPC  H12R21935   6.009   5.219   4.134
  179DOPC  H12S21936   6.018   5.193   4.309
  179DOPC  C21321937   5.821   5.150   4.235
  179DOPC  H13R21938   5.798   5.048   4.267
  179DOPC  H13S21939   5.763   5.152   4.143
  179DOPC  C21421940   5.759   5.231   4.349
  179DOPC  H14R21941   5.651   5.205   4.350
  179DOPC  H14S21942   5.764   5.340   4.330
  179DOPC  C21521943   5.824   5.197   4.486
  179DOPC  H15R21944   5.753   5.224   4.567
  179DOPC  H15S21945   5.912   5.263   4.496
  179DOPC  C21621946   5.869   5.049   4.505
  179DOPC  H16R21947   5.917   5.010   4.414
  179DOPC  H16S21948   5.782   4.984   4.524
  179DOPC  C21721949   5.983   5.026   4.607
  179DOPC  H17R21950   5.989   5.125   4.657
  179DOPC  H17S21951   6.079   5.009   4.554
  179DOPC  C21821952   5.955   4.920   4.714
  179DOPC  H18R21953   5.999   4.937   4.815
  179DOPC  H18S21954   5.981   4.818   4.687
  179DOPC  H18T21955   5.846   4.919   4.720
  179DOPC   C3321956   5.668   5.279   3.511
  179DOPC   H3X21957   5.628   5.176   3.521
  179DOPC   H3Y21958   5.616   5.339   3.589
  179DOPC   C3421959   5.820   5.280   3.533
  179DOPC   H4X21960   5.850   5.383   3.562
  179DOPC   H4Y21961   5.874   5.257   3.438
  179DOPC   C3521962   5.869   5.182   3.639
  179DOPC   H5X21963   5.971   5.210   3.673
  179DOPC   H5Y21964   5.879   5.080   3.597
  179DOPC   C3621965   5.776   5.179   3.760
  179DOPC   H6X21966   5.679   5.129   3.736
  179DOPC   H6Y21967   5.827   5.117   3.837
  179DOPC   C3721968   5.748   5.318   3.818
  179DOPC   H7X21969   5.836   5.384   3.803
  179DOPC   H7Y21970   5.660   5.369   3.774
  179DOPC   C3821971   5.726   5.300   3.966
  179DOPC   H8X21972   5.825   5.259   3.996
  179DOPC   H8Y21973   5.651   5.218   3.981
  179DOPC   C3921974   5.689   5.419   4.048
  179DOPC   H9X21975   5.583   5.435   4.068
  179DOPC  C31021976   5.778   5.503   4.101
  179DOPC  H10X21977   5.744   5.583   4.168
  179DOPC  C31121978   5.927   5.489   4.084
  179DOPC  H11X21979   5.960   5.531   3.988
  179DOPC  H11Y21980   5.958   5.385   4.078
  179DOPC  C31221981   6.002   5.555   4.199
  179DOPC  H12X21982   5.958   5.654   4.220
  179DOPC  H12Y21983   6.108   5.566   4.168
  179DOPC  C31321984   6.001   5.485   4.334
  179DOPC  H13X21985   5.900   5.490   4.381
  179DOPC  H13Y21986   6.029   5.380   4.323
  179DOPC  C31421987   6.106   5.550   4.421
  179DOPC  H14X21988   6.206   5.521   4.383
  179DOPC  H14Y21989   6.096   5.661   4.412
  179DOPC  C31521990   6.095   5.515   4.568
  179DOPC  H15X21991   6.076   5.407   4.584
  179DOPC  H15Y21992   6.006   5.570   4.607
  179DOPC  C31621993   6.224   5.558   4.636
  179DOPC  H16X21994   6.307   5.491   4.602
  179DOPC  H16Y21995   6.249   5.661   4.601
  179DOPC  C31721996   6.221   5.557   4.788
  179DOPC  H17X21997   6.229   5.453   4.824
  179DOPC  H17Y21998   6.313   5.608   4.824
  179DOPC  C31821999   6.098   5.622   4.852
  179DOPC  H18X22000   6.096   5.732   4.837
  179DOPC  H18Y22001   6.003   5.579   4.814
  179DOPC  H18Z22002   6.103   5.601   4.961
  180DOPC     N22003   6.455   3.260   2.900
  180DOPC   C1222004   6.343   3.276   3.001
  180DOPC  H12A22005   6.315   3.178   3.039
  180DOPC  H12B22006   6.257   3.316   2.949
  180DOPC   C1322007   6.538   3.142   2.939
  180DOPC  H13A22008   6.567   3.151   3.045
  180DOPC  H13B22009   6.483   3.049   2.931
  180DOPC  H13C22010   6.629   3.135   2.881
  180DOPC   C1422011   6.541   3.380   2.907
  180DOPC  H14A22012   6.632   3.369   2.849
  180DOPC  H14B22013   6.486   3.468   2.876
  180DOPC  H14C22014   6.567   3.395   3.013
  180DOPC   C1522015   6.400   3.248   2.761
  180DOPC  H15A22016   6.342   3.157   2.751
  180DOPC  H15B22017   6.480   3.251   2.690
  180DOPC  H15C22018   6.334   3.333   2.741
  180DOPC   C1122019   6.365   3.364   3.127
  180DOPC  H11A22020   6.382   3.469   3.095
  180DOPC  H11B22021   6.271   3.365   3.187
  180DOPC     P22022   6.458   3.183   3.286
  180DOPC   O1322023   6.591   3.117   3.293
  180DOPC   O1422024   6.349   3.105   3.222
  180DOPC   O1222025   6.476   3.319   3.205
  180DOPC   O1122026   6.410   3.231   3.427
  180DOPC    C122027   6.493   3.274   3.534
  180DOPC    HA22028   6.535   3.374   3.514
  180DOPC    HB22029   6.579   3.203   3.547
  180DOPC    C222030   6.406   3.272   3.663
  180DOPC    HS22031   6.465   3.309   3.749
  180DOPC   O2122032   6.381   3.129   3.674
  180DOPC   C2122033   6.475   3.047   3.726
  180DOPC   O2222034   6.580   3.082   3.776
  180DOPC   C2222035   6.423   2.899   3.714
  180DOPC   H2R22036   6.423   2.882   3.604
  180DOPC   H2S22037   6.318   2.901   3.747
  180DOPC    C322038   6.272   3.371   3.644
  180DOPC    HX22039   6.251   3.369   3.535
  180DOPC    HY22040   6.314   3.472   3.665
  180DOPC   O3122041   6.147   3.357   3.723
  180DOPC   C3122042   6.013   3.392   3.689
  180DOPC   O3222043   5.990   3.451   3.586
  180DOPC   C3222044   5.886   3.347   3.786
  180DOPC   H2X22045   5.909   3.384   3.885
  180DOPC   H2Y22046   5.803   3.413   3.752
  180DOPC   C2322047   6.489   2.772   3.782
  180DOPC   H3R22048   6.597   2.769   3.758
  180DOPC   H3S22049   6.442   2.684   3.732
  180DOPC   C2422050   6.470   2.747   3.934
  180DOPC   H4R22051   6.521   2.651   3.960
  180DOPC   H4S22052   6.362   2.733   3.958
  180DOPC   C2522053   6.531   2.859   4.018
  180DOPC   H5R22054   6.485   2.953   3.981
  180DOPC   H5S22055   6.640   2.864   3.998
  180DOPC   C2622056   6.510   2.858   4.170
  180DOPC   H6R22057   6.556   2.769   4.218
  180DOPC   H6S22058   6.400   2.857   4.188
  180DOPC   C2722059   6.569   2.985   4.234
  180DOPC   H7R22060   6.669   3.002   4.188
  180DOPC   H7S22061   6.586   2.972   4.343
  180DOPC   C2822062   6.479   3.108   4.216
  180DOPC   H8R22063   6.390   3.098   4.283
  180DOPC   H8S22064   6.440   3.111   4.112
  180DOPC   C2922065   6.559   3.232   4.249
  180DOPC   H9R22066   6.642   3.216   4.319
  180DOPC  C21022067   6.537   3.357   4.203
  180DOPC  H10R22068   6.603   3.439   4.234
  180DOPC  C21122069   6.426   3.396   4.110
  180DOPC  H11R22070   6.398   3.308   4.048
  180DOPC  H11S22071   6.461   3.473   4.038
  180DOPC  C21222072   6.302   3.450   4.187
  180DOPC  H12R22073   6.217   3.459   4.115
  180DOPC  H12S22074   6.326   3.553   4.222
  180DOPC  C21322075   6.258   3.366   4.310
  180DOPC  H13R22076   6.341   3.361   4.383
  180DOPC  H13S22077   6.237   3.262   4.277
  180DOPC  C21422078   6.135   3.422   4.382
  180DOPC  H14R22079   6.046   3.403   4.319
  180DOPC  H14S22080   6.147   3.532   4.393
  180DOPC  C21522081   6.096   3.361   4.518
  180DOPC  H15R22082   6.184   3.330   4.576
  180DOPC  H15S22083   6.033   3.271   4.498
  180DOPC  C21622084   6.004   3.457   4.594
  180DOPC  H16R22085   5.905   3.452   4.543
  180DOPC  H16S22086   6.044   3.561   4.585
  180DOPC  C21722087   5.972   3.425   4.739
  180DOPC  H17R22088   5.922   3.327   4.739
  180DOPC  H17S22089   5.897   3.499   4.776
  180DOPC  C21822090   6.092   3.427   4.833
  180DOPC  H18R22091   6.138   3.528   4.834
  180DOPC  H18S22092   6.169   3.354   4.799
  180DOPC  H18T22093   6.062   3.400   4.936
  180DOPC   C3322094   5.824   3.196   3.793
  180DOPC   H3X22095   5.914   3.144   3.816
  180DOPC   H3Y22096   5.788   3.162   3.695
  180DOPC   C3422097   5.750   3.112   3.906
  180DOPC   H4X22098   5.643   3.108   3.877
  180DOPC   H4Y22099   5.746   3.161   4.003
  180DOPC   C3522100   5.799   2.958   3.921
  180DOPC   H5X22101   5.832   2.925   3.821
  180DOPC   H5Y22102   5.707   2.902   3.945
  180DOPC   C3622103   5.909   2.916   4.030
  180DOPC   H6X22104   6.008   2.943   3.992
  180DOPC   H6Y22105   5.879   2.978   4.115
  180DOPC   C3722106   5.949   2.777   4.090
  180DOPC   H7X22107   5.869   2.752   4.162
  180DOPC   H7Y22108   5.953   2.700   4.011
  180DOPC   C3822109   6.087   2.765   4.167
  180DOPC   H8X22110   6.140   2.863   4.167
  180DOPC   H8Y22111   6.152   2.697   4.107
  180DOPC   C3922112   6.071   2.706   4.306
  180DOPC   H9X22113   5.966   2.695   4.336
  180DOPC  C31022114   6.165   2.663   4.394
  180DOPC  H10X22115   6.134   2.618   4.490
  180DOPC  C31122116   6.314   2.667   4.369
  180DOPC  H11X22117   6.337   2.772   4.347
  180DOPC  H11Y22118   6.335   2.607   4.278
  180DOPC  C31222119   6.422   2.624   4.474
  180DOPC  H12X22120   6.520   2.633   4.422
  180DOPC  H12Y22121   6.414   2.518   4.503
  180DOPC  C31322122   6.430   2.713   4.599
  180DOPC  H13X22123   6.333   2.717   4.652
  180DOPC  H13Y22124   6.505   2.670   4.669
  180DOPC  C31422125   6.476   2.852   4.557
  180DOPC  H14X22126   6.564   2.837   4.490
  180DOPC  H14Y22127   6.397   2.904   4.499
  180DOPC  C31522128   6.522   2.943   4.670
  180DOPC  H15X22129   6.577   3.026   4.619
  180DOPC  H15Y22130   6.594   2.890   4.736
  180DOPC  C31622131   6.406   3.000   4.751
  180DOPC  H16X22132   6.335   3.050   4.681
  180DOPC  H16Y22133   6.351   2.918   4.802
  180DOPC  C31722134   6.454   3.104   4.853
  180DOPC  H17X22135   6.364   3.155   4.895
  180DOPC  H17Y22136   6.503   3.050   4.938
  180DOPC  C31822137   6.552   3.207   4.796
  180DOPC  H18X22138   6.649   3.159   4.773
  180DOPC  H18Y22139   6.511   3.252   4.703
  180DOPC  H18Z22140   6.573   3.289   4.867
  181DOPC     N22141   0.717   3.842   2.994
  181DOPC   C1222142   0.849   3.919   2.980
  181DOPC  H12A22143   0.874   3.970   3.073
  181DOPC  H12B22144   0.841   3.997   2.906
  181DOPC   C1322145   0.726   3.765   3.123
  181DOPC  H13A22146   0.817   3.705   3.121
  181DOPC  H13B22147   0.741   3.832   3.207
  181DOPC  H13C22148   0.642   3.700   3.140
  181DOPC   C1422149   0.702   3.748   2.879
  181DOPC  H14A22150   0.618   3.682   2.891
  181DOPC  H14B22151   0.690   3.800   2.783
  181DOPC  H14C22152   0.792   3.689   2.869
  181DOPC   C1522153   0.599   3.933   3.003
  181DOPC  H15A22154   0.507   3.876   2.990
  181DOPC  H15B22155   0.596   4.007   2.924
  181DOPC  H15C22156   0.596   3.984   3.098
  181DOPC   C1122157   0.976   3.834   2.947
  181DOPC  H11A22158   0.961   3.777   2.853
  181DOPC  H11B22159   1.062   3.903   2.927
  181DOPC     P22160   1.084   3.802   3.180
  181DOPC   O1322161   1.057   3.948   3.186
  181DOPC   O1422162   1.221   3.748   3.169
  181DOPC   O1222163   1.007   3.743   3.053
  181DOPC   O1122164   1.007   3.718   3.296
  181DOPC    C122165   1.023   3.573   3.293
  181DOPC    HA22166   1.130   3.545   3.295
  181DOPC    HB22167   0.978   3.535   3.197
  181DOPC    C222168   0.955   3.481   3.405
  181DOPC    HS22169   0.917   3.390   3.355
  181DOPC   O2122170   0.845   3.549   3.466
  181DOPC   C2122171   0.770   3.482   3.554
  181DOPC   O2222172   0.783   3.365   3.586
  181DOPC   C2222173   0.668   3.577   3.613
  181DOPC   H2R22174   0.616   3.524   3.695
  181DOPC   H2S22175   0.594   3.593   3.534
  181DOPC    C322176   1.059   3.435   3.515
  181DOPC    HX22177   1.138   3.376   3.463
  181DOPC    HY22178   1.013   3.366   3.587
  181DOPC   O3122179   1.120   3.546   3.582
  181DOPC   C3122180   1.192   3.517   3.690
  181DOPC   O3222181   1.197   3.408   3.744
  181DOPC   C3222182   1.273   3.639   3.731
  181DOPC   H2X22183   1.218   3.696   3.808
  181DOPC   H2Y22184   1.367   3.601   3.778
  181DOPC   C2322185   0.740   3.704   3.661
  181DOPC   H3R22186   0.670   3.779   3.698
  181DOPC   H3S22187   0.800   3.752   3.580
  181DOPC   C2422188   0.830   3.675   3.780
  181DOPC   H4R22189   0.870   3.771   3.820
  181DOPC   H4S22190   0.916   3.616   3.740
  181DOPC   C2522191   0.760   3.598   3.894
  181DOPC   H5R22192   0.738   3.494   3.860
  181DOPC   H5S22193   0.664   3.647   3.922
  181DOPC   C2622194   0.850   3.588   4.016
  181DOPC   H6R22195   0.817   3.504   4.082
  181DOPC   H6S22196   0.845   3.681   4.074
  181DOPC   C2722197   0.994   3.565   3.970
  181DOPC   H7R22198   1.034   3.650   3.912
  181DOPC   H7S22199   0.993   3.473   3.906
  181DOPC   C2822200   1.088   3.550   4.086
  181DOPC   H8R22201   1.029   3.501   4.166
  181DOPC   H8S22202   1.113   3.652   4.125
  181DOPC   C2922203   1.209   3.472   4.040
  181DOPC   H9R22204   1.189   3.389   3.971
  181DOPC  C21022205   1.334   3.492   4.082
  181DOPC  H10R22206   1.419   3.434   4.041
  181DOPC  C21122207   1.364   3.597   4.183
  181DOPC  H11R22208   1.327   3.697   4.151
  181DOPC  H11S22209   1.473   3.608   4.203
  181DOPC  C21222210   1.291   3.552   4.311
  181DOPC  H12R22211   1.341   3.463   4.355
  181DOPC  H12S22212   1.183   3.532   4.302
  181DOPC  C21322213   1.295   3.668   4.402
  181DOPC  H13R22214   1.252   3.760   4.356
  181DOPC  H13S22215   1.404   3.681   4.396
  181DOPC  C21422216   1.237   3.653   4.543
  181DOPC  H14R22217   1.285   3.571   4.600
  181DOPC  H14S22218   1.128   3.632   4.541
  181DOPC  C21522219   1.265   3.784   4.612
  181DOPC  H15R22220   1.241   3.782   4.718
  181DOPC  H15S22221   1.199   3.866   4.575
  181DOPC  C21622222   1.412   3.821   4.584
  181DOPC  H16R22223   1.441   3.908   4.640
  181DOPC  H16S22224   1.412   3.862   4.481
  181DOPC  C21722225   1.522   3.708   4.591
  181DOPC  H17R22226   1.571   3.705   4.491
  181DOPC  H17S22227   1.475   3.609   4.604
  181DOPC  C21822228   1.630   3.716   4.698
  181DOPC  H18R22229   1.698   3.628   4.694
  181DOPC  H18S22230   1.581   3.726   4.797
  181DOPC  H18T22231   1.695   3.803   4.687
  181DOPC   C3322232   1.307   3.727   3.608
  181DOPC   H3X22233   1.331   3.665   3.519
  181DOPC   H3Y22234   1.399   3.779   3.635
  181DOPC   C3422235   1.202   3.833   3.569
  181DOPC   H4X22236   1.113   3.784   3.525
  181DOPC   H4Y22237   1.248   3.897   3.489
  181DOPC   C3522238   1.158   3.924   3.685
  181DOPC   H5X22239   1.249   3.963   3.736
  181DOPC   H5Y22240   1.100   3.865   3.759
  181DOPC   C3622241   1.072   4.043   3.640
  181DOPC   H6X22242   1.122   4.093   3.554
  181DOPC   H6Y22243   0.974   4.003   3.603
  181DOPC   C3722244   1.047   4.149   3.750
  181DOPC   H7X22245   1.136   4.216   3.753
  181DOPC   H7Y22246   0.959   4.211   3.719
  181DOPC   C3822247   1.023   4.092   3.892
  181DOPC   H8X22248   1.111   4.029   3.920
  181DOPC   H8Y22249   0.935   4.025   3.888
  181DOPC   C3922250   1.003   4.200   3.995
  181DOPC   H9X22251   0.960   4.293   3.956
  181DOPC  C31022252   1.025   4.190   4.128
  181DOPC  H10X22253   1.001   4.278   4.190
  181DOPC  C31122254   1.075   4.070   4.205
  181DOPC  H11X22255   1.159   4.102   4.271
  181DOPC  H11Y22256   1.116   3.991   4.138
  181DOPC  C31222257   0.967   4.004   4.295
  181DOPC  H12X22258   0.898   4.081   4.334
  181DOPC  H12Y22259   1.018   3.958   4.383
  181DOPC  C31322260   0.889   3.892   4.223
  181DOPC  H13X22261   0.839   3.931   4.133
  181DOPC  H13Y22262   0.964   3.818   4.186
  181DOPC  C31422263   0.786   3.815   4.309
  181DOPC  H14X22264   0.721   3.883   4.366
  181DOPC  H14Y22265   0.719   3.757   4.241
  181DOPC  C31522266   0.854   3.719   4.407
  181DOPC  H15X22267   0.917   3.781   4.475
  181DOPC  H15Y22268   0.922   3.651   4.351
  181DOPC  C31622269   0.755   3.636   4.490
  181DOPC  H16X22270   0.670   3.699   4.523
  181DOPC  H16Y22271   0.714   3.554   4.426
  181DOPC  C31722272   0.821   3.574   4.614
  181DOPC  H17X22273   0.745   3.511   4.665
  181DOPC  H17Y22274   0.903   3.507   4.580
  181DOPC  C31822275   0.878   3.675   4.714
  181DOPC  H18X22276   0.973   3.720   4.677
  181DOPC  H18Y22277   0.806   3.758   4.731
  181DOPC  H18Z22278   0.900   3.627   4.812
  182DOPC     N22279   2.562   0.933   3.225
  182DOPC   C1222280   2.542   1.028   3.107
  182DOPC  H12A22281   2.542   0.970   3.015
  182DOPC  H12B22282   2.630   1.092   3.100
  182DOPC   C1322283   2.590   1.013   3.348
  182DOPC  H13A22284   2.605   0.948   3.433
  182DOPC  H13B22285   2.681   1.070   3.335
  182DOPC  H13C22286   2.507   1.080   3.368
  182DOPC   C1422287   2.682   0.849   3.193
  182DOPC  H14A22288   2.765   0.912   3.159
  182DOPC  H14B22289   2.717   0.792   3.278
  182DOPC  H14C22290   2.661   0.779   3.112
  182DOPC   C1522291   2.440   0.848   3.243
  182DOPC  H15A22292   2.351   0.912   3.249
  182DOPC  H15B22293   2.447   0.786   3.332
  182DOPC  H15C22294   2.425   0.786   3.156
  182DOPC   C1122295   2.416   1.120   3.104
  182DOPC  H11A22296   2.414   1.179   3.198
  182DOPC  H11B22297   2.429   1.193   3.021
  182DOPC     P22298   2.211   1.043   2.958
  182DOPC   O1322299   2.297   1.027   2.840
  182DOPC   O1422300   2.117   1.158   2.959
  182DOPC   O1222301   2.296   1.045   3.094
  182DOPC   O1122302   2.127   0.909   2.962
  182DOPC    C122303   2.070   0.848   3.075
  182DOPC    HA22304   2.149   0.800   3.137
  182DOPC    HB22305   2.002   0.767   3.042
  182DOPC    C222306   1.990   0.948   3.161
  182DOPC    HS22307   1.959   1.034   3.097
  182DOPC   O2122308   2.082   0.987   3.264
  182DOPC   C2122309   2.060   1.106   3.312
  182DOPC   O2222310   1.962   1.176   3.294
  182DOPC   C2222311   2.185   1.148   3.390
  182DOPC   H2R22312   2.247   1.209   3.321
  182DOPC   H2S22313   2.243   1.058   3.420
  182DOPC    C322314   1.861   0.886   3.217
  182DOPC    HX22315   1.789   0.870   3.134
  182DOPC    HY22316   1.813   0.961   3.284
  182DOPC   O3122317   1.892   0.759   3.279
  182DOPC   C3122318   1.918   0.775   3.409
  182DOPC   O3222319   1.891   0.874   3.474
  182DOPC   C3222320   2.007   0.665   3.462
  182DOPC   H2X22321   1.946   0.601   3.529
  182DOPC   H2Y22322   2.044   0.603   3.377
  182DOPC   C2322323   2.148   1.232   3.513
  182DOPC   H3R22324   2.080   1.314   3.478
  182DOPC   H3S22325   2.238   1.280   3.557
  182DOPC   C2422326   2.075   1.153   3.621
  182DOPC   H4R22327   1.984   1.104   3.578
  182DOPC   H4S22328   2.039   1.227   3.693
  182DOPC   C2522329   2.156   1.048   3.698
  182DOPC   H5R22330   2.249   1.022   3.643
  182DOPC   H5S22331   2.093   0.957   3.705
  182DOPC   C2622332   2.190   1.089   3.843
  182DOPC   H6R22333   2.097   1.121   3.895
  182DOPC   H6S22334   2.260   1.175   3.841
  182DOPC   C2722335   2.252   0.972   3.920
  182DOPC   H7R22336   2.347   0.948   3.868
  182DOPC   H7S22337   2.185   0.884   3.913
  182DOPC   C2822338   2.282   0.996   4.068
  182DOPC   H8R22339   2.342   0.914   4.112
  182DOPC   H8S22340   2.187   0.996   4.125
  182DOPC   C2922341   2.356   1.124   4.089
  182DOPC   H9R22342   2.420   1.157   4.007
  182DOPC  C21022343   2.355   1.189   4.205
  182DOPC  H10R22344   2.415   1.281   4.212
  182DOPC  C21122345   2.281   1.144   4.329
  182DOPC  H11R22346   2.354   1.138   4.412
  182DOPC  H11S22347   2.241   1.041   4.319
  182DOPC  C21222348   2.165   1.231   4.378
  182DOPC  H12R22349   2.078   1.223   4.310
  182DOPC  H12S22350   2.196   1.337   4.381
  182DOPC  C21322351   2.127   1.198   4.523
  182DOPC  H13R22352   2.037   1.254   4.548
  182DOPC  H13S22353   2.202   1.240   4.593
  182DOPC  C21422354   2.114   1.049   4.559
  182DOPC  H14R22355   2.207   0.994   4.532
  182DOPC  H14S22356   2.031   1.001   4.503
  182DOPC  C21522357   2.091   1.031   4.709
  182DOPC  H15R22358   2.030   1.114   4.750
  182DOPC  H15S22359   2.190   1.036   4.758
  182DOPC  C21622360   2.020   0.902   4.746
  182DOPC  H16R22361   2.063   0.822   4.681
  182DOPC  H16S22362   1.912   0.910   4.722
  182DOPC  C21722363   2.042   0.865   4.894
  182DOPC  H17R22364   2.141   0.902   4.924
  182DOPC  H17S22365   2.042   0.756   4.913
  182DOPC  C21822366   1.946   0.934   4.987
  182DOPC  H18R22367   1.947   1.043   4.966
  182DOPC  H18S22368   1.978   0.917   5.092
  182DOPC  H18T22369   1.843   0.895   4.976
  182DOPC   C3322370   2.122   0.728   3.542
  182DOPC   H3X22371   2.099   0.713   3.650
  182DOPC   H3Y22372   2.128   0.838   3.525
  182DOPC   C3422373   2.258   0.672   3.503
  182DOPC   H4X22374   2.275   0.693   3.395
  182DOPC   H4Y22375   2.257   0.562   3.516
  182DOPC   C3522376   2.371   0.733   3.587
  182DOPC   H5X22377   2.374   0.844   3.574
  182DOPC   H5Y22378   2.469   0.692   3.553
  182DOPC   C3622379   2.350   0.697   3.734
  182DOPC   H6X22380   2.262   0.752   3.773
  182DOPC   H6Y22381   2.323   0.589   3.736
  182DOPC   C3722382   2.468   0.720   3.829
  182DOPC   H7X22383   2.559   0.669   3.790
  182DOPC   H7Y22384   2.497   0.827   3.832
  182DOPC   C3822385   2.436   0.671   3.972
  182DOPC   H8X22386   2.372   0.747   4.018
  182DOPC   H8Y22387   2.531   0.671   4.029
  182DOPC   C3922388   2.366   0.537   3.988
  182DOPC   H9X22389   2.410   0.456   3.928
  182DOPC  C31022390   2.258   0.507   4.063
  182DOPC  H10X22391   2.231   0.400   4.074
  182DOPC  C31122392   2.179   0.600   4.152
  182DOPC  H11X22393   2.070   0.578   4.146
  182DOPC  H11Y22394   2.192   0.707   4.124
  182DOPC  C31222395   2.227   0.585   4.297
  182DOPC  H12X22396   2.241   0.477   4.323
  182DOPC  H12Y22397   2.151   0.625   4.368
  182DOPC  C31322398   2.357   0.664   4.316
  182DOPC  H13X22399   2.430   0.630   4.240
  182DOPC  H13Y22400   2.335   0.771   4.294
  182DOPC  C31422401   2.417   0.655   4.456
  182DOPC  H14X22402   2.392   0.559   4.505
  182DOPC  H14Y22403   2.528   0.663   4.451
  182DOPC  C31522404   2.363   0.761   4.551
  182DOPC  H15X22405   2.252   0.749   4.556
  182DOPC  H15Y22406   2.384   0.862   4.510
  182DOPC  C31622407   2.424   0.746   4.691
  182DOPC  H16X22408   2.404   0.643   4.728
  182DOPC  H16Y22409   2.533   0.764   4.689
  182DOPC  C31722410   2.359   0.843   4.789
  182DOPC  H17X22411   2.384   0.948   4.764
  182DOPC  H17Y22412   2.252   0.828   4.767
  182DOPC  C31822413   2.380   0.815   4.938
  182DOPC  H18X22414   2.336   0.897   4.999
  182DOPC  H18Y22415   2.332   0.719   4.967
  182DOPC  H18Z22416   2.487   0.806   4.963
  183DOPC     N22417   6.693   5.198   3.075
  183DOPC   C1222418   6.718   5.327   2.996
  183DOPC  H12A22419   6.627   5.383   2.984
  183DOPC  H12B22420   6.753   5.300   2.897
  183DOPC   C1322421   6.648   5.222   3.216
  183DOPC  H13A22422   6.555   5.279   3.223
  183DOPC  H13B22423   6.631   5.130   3.270
  183DOPC  H13C22424   6.723   5.282   3.269
  183DOPC   C1422425   6.825   5.131   3.079
  183DOPC  H14A22426   6.870   5.130   2.981
  183DOPC  H14B22427   6.894   5.192   3.139
  183DOPC  H14C22428   6.821   5.033   3.122
  183DOPC   C1522429   6.596   5.113   3.002
  183DOPC  H15A22430   6.637   5.082   2.905
  183DOPC  H15B22431   6.505   5.170   2.981
  183DOPC  H15C22432   6.569   5.024   3.057
  183DOPC   C1122433   6.825   5.423   3.051
  183DOPC  H11A22434   6.839   5.512   2.986
  183DOPC  H11B22435   6.786   5.465   3.144
  183DOPC     P22436   7.082   5.381   3.004
  183DOPC   O1322437   7.050   5.414   2.863
  183DOPC   O1422438   7.161   5.257   3.026
  183DOPC   O1222439   6.948   5.360   3.080
  183DOPC   O1122440   7.143   5.503   3.081
  183DOPC    C122441   7.230   5.484   3.192
  183DOPC    HA22442   7.278   5.583   3.208
  183DOPC    HB22443   7.314   5.416   3.169
  183DOPC    C222444   7.165   5.454   3.333
  183DOPC    HS22445   7.244   5.444   3.411
  183DOPC   O2122446   7.072   5.343   3.343
  183DOPC   C2122447   7.133   5.235   3.392
  183DOPC   O2222448   7.250   5.208   3.376
  183DOPC   C2222449   7.046   5.154   3.488
  183DOPC   H2R22450   7.025   5.056   3.441
  183DOPC   H2S22451   6.950   5.206   3.505
  183DOPC    C322452   7.099   5.589   3.366
  183DOPC    HX22453   7.027   5.597   3.283
  183DOPC    HY22454   7.170   5.672   3.348
  183DOPC   O3122455   7.051   5.614   3.499
  183DOPC   C3122456   6.960   5.549   3.564
  183DOPC   O3222457   6.911   5.440   3.539
  183DOPC   C3222458   6.922   5.629   3.687
  183DOPC   H2X22459   6.981   5.723   3.693
  183DOPC   H2Y22460   6.814   5.655   3.685
  183DOPC   C2322461   7.123   5.133   3.622
  183DOPC   H3R22462   7.148   5.231   3.667
  183DOPC   H3S22463   7.220   5.081   3.599
  183DOPC   C2422464   7.051   5.048   3.728
  183DOPC   H4R22465   7.123   5.019   3.808
  183DOPC   H4S22466   7.019   4.953   3.680
  183DOPC   C2522467   6.929   5.114   3.793
  183DOPC   H5R22468   6.864   5.033   3.832
  183DOPC   H5S22469   6.871   5.171   3.717
  183DOPC   C2622470   6.961   5.206   3.912
  183DOPC   H6R22471   7.023   5.291   3.876
  183DOPC   H6S22472   7.023   5.152   3.986
  183DOPC   C2722473   6.832   5.258   3.979
  183DOPC   H7R22474   6.772   5.312   3.902
  183DOPC   H7S22475   6.857   5.330   4.059
  183DOPC   C2822476   6.742   5.148   4.039
  183DOPC   H8R22477   6.695   5.089   3.956
  183DOPC   H8S22478   6.657   5.198   4.091
  183DOPC   C2922479   6.818   5.057   4.132
  183DOPC   H9R22480   6.868   4.971   4.084
  183DOPC  C21022481   6.836   5.078   4.263
  183DOPC  H10R22482   6.898   5.008   4.321
  183DOPC  C21122483   6.782   5.196   4.339
  183DOPC  H11R22484   6.701   5.166   4.410
  183DOPC  H11S22485   6.738   5.272   4.271
  183DOPC  C21222486   6.893   5.267   4.418
  183DOPC  H12R22487   6.988   5.268   4.361
  183DOPC  H12S22488   6.911   5.213   4.514
  183DOPC  C21322489   6.856   5.413   4.446
  183DOPC  H13R22490   6.747   5.424   4.467
  183DOPC  H13S22491   6.877   5.470   4.353
  183DOPC  C21422492   6.937   5.472   4.561
  183DOPC  H14R22493   6.942   5.582   4.545
  183DOPC  H14S22494   7.042   5.436   4.555
  183DOPC  C21522495   6.882   5.452   4.704
  183DOPC  H15R22496   6.892   5.554   4.748
  183DOPC  H15S22497   6.947   5.383   4.762
  183DOPC  C21622498   6.733   5.425   4.727
  183DOPC  H16R22499   6.702   5.328   4.683
  183DOPC  H16S22500   6.678   5.506   4.674
  183DOPC  C21722501   6.690   5.432   4.876
  183DOPC  H17R22502   6.579   5.432   4.882
  183DOPC  H17S22503   6.725   5.529   4.920
  183DOPC  C21822504   6.744   5.323   4.968
  183DOPC  H18R22505   6.855   5.325   4.965
  183DOPC  H18S22506   6.709   5.222   4.939
  183DOPC  H18T22507   6.711   5.343   5.073
  183DOPC   C3322508   6.956   5.535   3.801
  183DOPC   H3X22509   7.061   5.499   3.787
  183DOPC   H3Y22510   6.890   5.446   3.797
  183DOPC   C3422511   6.947   5.601   3.936
  183DOPC   H4X22512   6.847   5.576   3.978
  183DOPC   H4Y22513   6.955   5.712   3.927
  183DOPC   C3522514   7.057   5.548   4.025
  183DOPC   H5X22515   7.152   5.533   3.968
  183DOPC   H5Y22516   7.027   5.448   4.063
  183DOPC   C3622517   7.089   5.640   4.140
  183DOPC   H6X22518   7.145   5.729   4.106
  183DOPC   H6Y22519   6.996   5.674   4.191
  183DOPC   C3722520   7.171   5.557   4.236
  183DOPC   H7X22521   7.117   5.461   4.256
  183DOPC   H7Y22522   7.268   5.532   4.186
  183DOPC   C3822523   7.193   5.630   4.366
  183DOPC   H8X22524   7.096   5.652   4.416
  183DOPC   H8Y22525   7.246   5.725   4.342
  183DOPC   C3922526   7.281   5.540   4.446
  183DOPC   H9X22527   7.266   5.433   4.426
  183DOPC  C31022528   7.346   5.577   4.556
  183DOPC  H10X22529   7.415   5.506   4.603
  183DOPC  C31122530   7.339   5.713   4.616
  183DOPC  H11X22531   7.232   5.730   4.637
  183DOPC  H11Y22532   7.374   5.788   4.542
  183DOPC  C31222533   7.413   5.737   4.750
  183DOPC  H12X22534   7.409   5.845   4.773
  183DOPC  H12Y22535   7.518   5.706   4.737
  183DOPC  C31322536   7.360   5.659   4.869
  183DOPC  H13X22537   7.250   5.651   4.863
  183DOPC  H13Y22538   7.400   5.557   4.853
  183DOPC  C31422539   7.406   5.699   5.012
  183DOPC  H14X22540   7.344   5.637   5.081
  183DOPC  H14Y22541   7.512   5.664   5.020
  183DOPC  C31522542   7.407   5.843   5.069
  183DOPC  H15X22543   7.497   5.893   5.030
  183DOPC  H15Y22544   7.421   5.835   5.179
  183DOPC  C31622545   7.290   5.940   5.044
  183DOPC  H16X22546   7.322   6.040   5.081
  183DOPC  H16Y22547   7.274   5.948   4.936
  183DOPC  C31722548   7.161   5.905   5.120
  183DOPC  H17X22549   7.158   5.796   5.132
  183DOPC  H17Y22550   7.173   5.947   5.222
  183DOPC  C31822551   7.028   5.958   5.064
  183DOPC  H18X22552   6.940   5.906   5.105
  183DOPC  H18Y22553   7.011   6.063   5.091
  183DOPC  H18Z22554   7.020   5.946   4.955
  184DOPC     N22555   4.621   0.479   3.193
  184DOPC   C1222556   4.600   0.557   3.064
  184DOPC  H12A22557   4.500   0.594   3.062
  184DOPC  H12B22558   4.613   0.491   2.978
  184DOPC   C1322559   4.752   0.407   3.186
  184DOPC  H13A22560   4.757   0.342   3.099
  184DOPC  H13B22561   4.833   0.478   3.169
  184DOPC  H13C22562   4.780   0.353   3.275
  184DOPC   C1422563   4.512   0.379   3.215
  184DOPC  H14A22564   4.416   0.427   3.222
  184DOPC  H14B22565   4.510   0.305   3.135
  184DOPC  H14C22566   4.529   0.327   3.309
  184DOPC   C1522567   4.624   0.572   3.311
  184DOPC  H15A22568   4.542   0.642   3.309
  184DOPC  H15B22569   4.717   0.630   3.310
  184DOPC  H15C22570   4.621   0.518   3.405
  184DOPC   C1122571   4.696   0.674   3.036
  184DOPC  H11A22572   4.653   0.744   2.961
  184DOPC  H11B22573   4.715   0.734   3.128
  184DOPC     P22574   4.960   0.646   3.030
  184DOPC   O1322575   5.049   0.670   2.914
  184DOPC   O1422576   5.000   0.537   3.122
  184DOPC   O1222577   4.813   0.616   2.981
  184DOPC   O1122578   4.939   0.780   3.109
  184DOPC    C122579   5.036   0.839   3.195
  184DOPC    HA22580   5.046   0.947   3.171
  184DOPC    HB22581   5.138   0.795   3.181
  184DOPC    C222582   4.996   0.826   3.345
  184DOPC    HS22583   5.085   0.854   3.406
  184DOPC   O2122584   4.946   0.695   3.374
  184DOPC   C2122585   5.036   0.611   3.422
  184DOPC   O2222586   5.153   0.637   3.443
  184DOPC   C2222587   4.969   0.480   3.461
  184DOPC   H2R22588   5.018   0.402   3.399
  184DOPC   H2S22589   4.862   0.484   3.435
  184DOPC    C322590   4.884   0.924   3.386
  184DOPC    HX22591   4.795   0.901   3.324
  184DOPC    HY22592   4.915   1.028   3.361
  184DOPC   O3122593   4.851   0.905   3.527
  184DOPC   C3122594   4.912   0.989   3.611
  184DOPC   O3222595   4.978   1.085   3.578
  184DOPC   C3222596   4.889   0.946   3.756
  184DOPC   H2X22597   4.789   0.902   3.765
  184DOPC   H2Y22598   4.965   0.870   3.781
  184DOPC   C2322599   4.987   0.448   3.611
  184DOPC   H3R22600   5.095   0.452   3.637
  184DOPC   H3S22601   4.952   0.344   3.629
  184DOPC   C2422602   4.908   0.542   3.704
  184DOPC   H4R22603   4.799   0.529   3.683
  184DOPC   H4S22604   4.934   0.648   3.682
  184DOPC   C2522605   4.935   0.513   3.853
  184DOPC   H5R22606   4.954   0.404   3.865
  184DOPC   H5S22607   4.844   0.537   3.913
  184DOPC   C2622608   5.053   0.594   3.908
  184DOPC   H6R22609   5.021   0.700   3.921
  184DOPC   H6S22610   5.135   0.593   3.832
  184DOPC   C2722611   5.110   0.539   4.040
  184DOPC   H7R22612   5.206   0.592   4.061
  184DOPC   H7S22613   5.134   0.431   4.026
  184DOPC   C2822614   5.017   0.553   4.162
  184DOPC   H8R22615   5.063   0.502   4.249
  184DOPC   H8S22616   4.922   0.499   4.141
  184DOPC   C2922617   4.995   0.698   4.196
  184DOPC   H9R22618   5.087   0.757   4.213
  184DOPC  C21022619   4.876   0.760   4.204
  184DOPC  H10R22620   4.874   0.867   4.231
  184DOPC  C21122621   4.741   0.698   4.181
  184DOPC  H11R22622   4.745   0.603   4.124
  184DOPC  H11S22623   4.677   0.768   4.122
  184DOPC  C21222624   4.671   0.672   4.316
  184DOPC  H12R22625   4.730   0.602   4.379
  184DOPC  H12S22626   4.572   0.624   4.297
  184DOPC  C21322627   4.649   0.805   4.388
  184DOPC  H13R22628   4.598   0.871   4.315
  184DOPC  H13S22629   4.747   0.851   4.416
  184DOPC  C21422630   4.564   0.800   4.514
  184DOPC  H14R22631   4.472   0.742   4.495
  184DOPC  H14S22632   4.534   0.905   4.540
  184DOPC  C21522633   4.639   0.743   4.634
  184DOPC  H15R22634   4.726   0.806   4.657
  184DOPC  H15S22635   4.677   0.642   4.607
  184DOPC  C21622636   4.549   0.733   4.757
  184DOPC  H16R22637   4.463   0.666   4.733
  184DOPC  H16S22638   4.507   0.833   4.784
  184DOPC  C21722639   4.623   0.679   4.879
  184DOPC  H17R22640   4.686   0.759   4.921
  184DOPC  H17S22641   4.692   0.598   4.849
  184DOPC  C21822642   4.525   0.626   4.983
  184DOPC  H18R22643   4.465   0.542   4.942
  184DOPC  H18S22644   4.455   0.706   5.015
  184DOPC  H18T22645   4.581   0.591   5.072
  184DOPC   C3322646   4.903   1.068   3.851
  184DOPC   H3X22647   4.844   1.153   3.809
  184DOPC   H3Y22648   5.009   1.100   3.856
  184DOPC   C3422649   4.854   1.045   3.994
  184DOPC   H4X22650   4.934   0.993   4.052
  184DOPC   H4Y22651   4.763   0.981   3.995
  184DOPC   C3522652   4.823   1.180   4.059
  184DOPC   H5X22653   4.742   1.232   4.001
  184DOPC   H5Y22654   4.914   1.244   4.053
  184DOPC   C3622655   4.780   1.170   4.205
  184DOPC   H6X22656   4.841   1.093   4.258
  184DOPC   H6Y22657   4.803   1.268   4.252
  184DOPC   C3722658   4.630   1.141   4.222
  184DOPC   H7X22659   4.572   1.221   4.171
  184DOPC   H7Y22660   4.606   1.046   4.170
  184DOPC   C3822661   4.588   1.132   4.369
  184DOPC   H8X22662   4.641   1.048   4.415
  184DOPC   H8Y22663   4.479   1.108   4.374
  184DOPC   C3922664   4.620   1.255   4.449
  184DOPC   H9X22665   4.549   1.338   4.434
  184DOPC  C31022666   4.729   1.274   4.527
  184DOPC  H10X22667   4.739   1.374   4.573
  184DOPC  C31122668   4.845   1.180   4.557
  184DOPC  H11X22669   4.933   1.221   4.503
  184DOPC  H11Y22670   4.828   1.081   4.510
  184DOPC  C31222671   4.897   1.153   4.702
  184DOPC  H12X22672   4.855   1.225   4.775
  184DOPC  H12Y22673   5.007   1.171   4.704
  184DOPC  C31322674   4.870   1.009   4.748
  184DOPC  H13X22675   4.763   0.999   4.778
  184DOPC  H13Y22676   4.887   0.942   4.660
  184DOPC  C31422677   4.960   0.952   4.860
  184DOPC  H14X22678   4.926   0.847   4.876
  184DOPC  H14Y22679   5.066   0.949   4.829
  184DOPC  C31522680   4.947   1.028   4.992
  184DOPC  H15X22681   4.838   1.043   5.009
  184DOPC  H15Y22682   4.993   1.128   4.982
  184DOPC  C31622683   5.008   0.959   5.116
  184DOPC  H16X22684   5.117   0.980   5.121
  184DOPC  H16Y22685   4.961   1.006   5.206
  184DOPC  C31722686   4.989   0.807   5.128
  184DOPC  H17X22687   4.883   0.780   5.110
  184DOPC  H17Y22688   5.050   0.757   5.049
  184DOPC  C31822689   5.035   0.759   5.266
  184DOPC  H18X22690   5.146   0.747   5.265
  184DOPC  H18Y22691   5.009   0.835   5.343
  184DOPC  H18Z22692   4.990   0.662   5.295
  185DOPC     N22693   6.317   6.056   3.152
  185DOPC   C1222694   6.389   5.929   3.201
  185DOPC  H12A22695   6.331   5.881   3.279
  185DOPC  H12B22696   6.484   5.956   3.246
  185DOPC   C1322697   6.194   6.013   3.077
  185DOPC  H13A22698   6.224   5.947   2.995
  185DOPC  H13B22699   6.123   5.962   3.141
  185DOPC  H13C22700   6.145   6.099   3.032
  185DOPC   C1422701   6.412   6.121   3.056
  185DOPC  H14A22702   6.507   6.146   3.102
  185DOPC  H14B22703   6.440   6.048   2.979
  185DOPC  H14C22704   6.373   6.208   3.007
  185DOPC   C1522705   6.278   6.153   3.260
  185DOPC  H15A22706   6.364   6.192   3.314
  185DOPC  H15B22707   6.210   6.112   3.334
  185DOPC  H15C22708   6.227   6.240   3.217
  185DOPC   C1122709   6.422   5.820   3.093
  185DOPC  H11A22710   6.458   5.728   3.145
  185DOPC  H11B22711   6.328   5.791   3.043
  185DOPC     P22712   6.668   5.815   2.990
  185DOPC   O1322713   6.755   5.927   2.948
  185DOPC   O1422714   6.678   5.684   2.921
  185DOPC   O1222715   6.516   5.863   2.993
  185DOPC   O1122716   6.687   5.790   3.142
  185DOPC    C122717   6.815   5.747   3.184
  185DOPC    HA22718   6.897   5.820   3.160
  185DOPC    HB22719   6.844   5.654   3.133
  185DOPC    C222720   6.814   5.718   3.335
  185DOPC    HS22721   6.866   5.625   3.355
  185DOPC   O2122722   6.680   5.702   3.383
  185DOPC   C2122723   6.637   5.576   3.365
  185DOPC   O2222724   6.702   5.477   3.342
  185DOPC   C2222725   6.495   5.567   3.405
  185DOPC   H2R22726   6.458   5.464   3.385
  185DOPC   H2S22727   6.434   5.640   3.349
  185DOPC    C322728   6.890   5.835   3.404
  185DOPC    HX22729   6.992   5.838   3.361
  185DOPC    HY22730   6.906   5.818   3.512
  185DOPC   O3122731   6.829   5.961   3.375
  185DOPC   C3122732   6.742   5.995   3.465
  185DOPC   O3222733   6.719   5.937   3.570
  185DOPC   C3222734   6.673   6.123   3.424
  185DOPC   H2X22735   6.746   6.181   3.362
  185DOPC   H2Y22736   6.585   6.101   3.362
  185DOPC   C2322737   6.506   5.594   3.553
  185DOPC   H3R22738   6.607   5.584   3.599
  185DOPC   H3S22739   6.448   5.518   3.607
  185DOPC   C2422740   6.458   5.734   3.583
  185DOPC   H4R22741   6.363   5.758   3.530
  185DOPC   H4S22742   6.533   5.809   3.550
  185DOPC   C2522743   6.439   5.736   3.731
  185DOPC   H5R22744   6.518   5.679   3.784
  185DOPC   H5S22745   6.341   5.689   3.749
  185DOPC   C2622746   6.428   5.874   3.785
  185DOPC   H6R22747   6.373   5.938   3.713
  185DOPC   H6S22748   6.530   5.915   3.801
  185DOPC   C2722749   6.346   5.865   3.913
  185DOPC   H7R22750   6.248   5.818   3.890
  185DOPC   H7S22751   6.329   5.971   3.940
  185DOPC   C2822752   6.414   5.789   4.026
  185DOPC   H8R22753   6.445   5.687   3.993
  185DOPC   H8S22754   6.345   5.775   4.112
  185DOPC   C2922755   6.530   5.880   4.056
  185DOPC   H9R22756   6.508   5.987   4.041
  185DOPC  C21022757   6.650   5.846   4.100
  185DOPC  H10R22758   6.728   5.923   4.110
  185DOPC  C21122759   6.690   5.705   4.130
  185DOPC  H11R22760   6.801   5.698   4.136
  185DOPC  H11S22761   6.654   5.634   4.052
  185DOPC  C21222762   6.634   5.671   4.268
  185DOPC  H12R22763   6.638   5.561   4.286
  185DOPC  H12S22764   6.528   5.703   4.278
  185DOPC  C21322765   6.721   5.741   4.372
  185DOPC  H13R22766   6.752   5.842   4.335
  185DOPC  H13S22767   6.815   5.684   4.386
  185DOPC  C21422768   6.654   5.765   4.506
  185DOPC  H14R22769   6.617   5.670   4.550
  185DOPC  H14S22770   6.567   5.834   4.493
  185DOPC  C21522771   6.761   5.831   4.592
  185DOPC  H15R22772   6.798   5.916   4.530
  185DOPC  H15S22773   6.846   5.762   4.609
  185DOPC  C21622774   6.713   5.888   4.724
  185DOPC  H16R22775   6.619   5.945   4.707
  185DOPC  H16S22776   6.789   5.956   4.766
  185DOPC  C21722777   6.691   5.781   4.827
  185DOPC  H17R22778   6.725   5.817   4.927
  185DOPC  H17S22779   6.752   5.692   4.802
  185DOPC  C21822780   6.544   5.749   4.832
  185DOPC  H18R22781   6.504   5.725   4.732
  185DOPC  H18S22782   6.493   5.842   4.866
  185DOPC  H18T22783   6.522   5.666   4.902
  185DOPC   C3322784   6.639   6.202   3.552
  185DOPC   H3X22785   6.640   6.307   3.522
  185DOPC   H3Y22786   6.720   6.194   3.628
  185DOPC   C3422787   6.505   6.161   3.618
  185DOPC   H4X22788   6.528   6.069   3.674
  185DOPC   H4Y22789   6.427   6.139   3.542
  185DOPC   C3522790   6.452   6.264   3.719
  185DOPC   H5X22791   6.358   6.313   3.684
  185DOPC   H5Y22792   6.531   6.341   3.720
  185DOPC   C3622793   6.434   6.218   3.864
  185DOPC   H6X22794   6.340   6.161   3.870
  185DOPC   H6Y22795   6.516   6.148   3.888
  185DOPC   C3722796   6.422   6.338   3.961
  185DOPC   H7X22797   6.428   6.432   3.903
  185DOPC   H7Y22798   6.318   6.340   4.000
  185DOPC   C3822799   6.519   6.347   4.081
  185DOPC   H8X22800   6.453   6.365   4.169
  185DOPC   H8Y22801   6.579   6.439   4.079
  185DOPC   C3922802   6.614   6.233   4.100
  185DOPC   H9X22803   6.670   6.196   4.013
  185DOPC  C31022804   6.638   6.182   4.221
  185DOPC  H10X22805   6.700   6.093   4.235
  185DOPC  C31122806   6.571   6.240   4.341
  185DOPC  H11X22807   6.461   6.226   4.336
  185DOPC  H11Y22808   6.589   6.349   4.347
  185DOPC  C31222809   6.626   6.176   4.466
  185DOPC  H12X22810   6.616   6.065   4.463
  185DOPC  H12Y22811   6.561   6.209   4.551
  185DOPC  C31322812   6.771   6.218   4.494
  185DOPC  H13X22813   6.839   6.168   4.421
  185DOPC  H13Y22814   6.785   6.328   4.484
  185DOPC  C31422815   6.801   6.174   4.636
  185DOPC  H14X22816   6.706   6.136   4.675
  185DOPC  H14Y22817   6.864   6.086   4.631
  185DOPC  C31522818   6.859   6.269   4.740
  185DOPC  H15X22819   6.827   6.373   4.719
  185DOPC  H15Y22820   6.970   6.268   4.731
  185DOPC  C31622821   6.823   6.223   4.885
  185DOPC  H16X22822   6.882   6.131   4.902
  185DOPC  H16Y22823   6.858   6.300   4.957
  185DOPC  C31722824   6.679   6.187   4.924
  185DOPC  H17X22825   6.621   6.280   4.938
  185DOPC  H17Y22826   6.624   6.129   4.847
  185DOPC  C31822827   6.676   6.103   5.052
  185DOPC  H18X22828   6.723   6.004   5.034
  185DOPC  H18Y22829   6.734   6.153   5.133
  185DOPC  H18Z22830   6.572   6.086   5.087
  186DOPC     N22831   0.503   2.991   2.950
  186DOPC   C1222832   0.441   3.122   2.908
  186DOPC  H12A22833   0.353   3.098   2.848
  186DOPC  H12B22834   0.512   3.176   2.845
  186DOPC   C1322835   0.396   2.908   3.011
  186DOPC  H13A22836   0.437   2.814   3.046
  186DOPC  H13B22837   0.351   2.961   3.095
  186DOPC  H13C22838   0.317   2.885   2.940
  186DOPC   C1422839   0.613   3.016   3.050
  186DOPC  H14A22840   0.689   3.083   3.008
  186DOPC  H14B22841   0.573   3.061   3.140
  186DOPC  H14C22842   0.666   2.925   3.076
  186DOPC   C1522843   0.557   2.916   2.833
  186DOPC  H15A22844   0.607   2.824   2.865
  186DOPC  H15B22845   0.628   2.976   2.778
  186DOPC  H15C22846   0.478   2.881   2.768
  186DOPC   C1122847   0.393   3.218   3.020
  186DOPC  H11A22848   0.476   3.232   3.094
  186DOPC  H11B22849   0.374   3.317   2.975
  186DOPC     P22850   0.235   3.216   3.232
  186DOPC   O1322851   0.168   3.348   3.215
  186DOPC   O1422852   0.356   3.218   3.314
  186DOPC   O1222853   0.273   3.169   3.082
  186DOPC   O1122854   0.134   3.108   3.284
  186DOPC    C122855   0.017   3.058   3.219
  186DOPC    HA22856   0.043   3.012   3.121
  186DOPC    HB22857  -0.054   3.142   3.199
  186DOPC    C222858  -0.067   2.956   3.306
  186DOPC    HS22859  -0.173   2.961   3.270
  186DOPC   O2122860  -0.051   2.996   3.446
  186DOPC   C2122861  -0.158   3.051   3.505
  186DOPC   O2222862  -0.271   3.044   3.460
  186DOPC   C2222863  -0.123   3.120   3.641
  186DOPC   H2R22864  -0.177   3.065   3.721
  186DOPC   H2S22865  -0.165   3.222   3.639
  186DOPC    C322866  -0.027   2.802   3.281
  186DOPC    HX22867  -0.012   2.794   3.171
  186DOPC    HY22868  -0.117   2.739   3.300
  186DOPC   O3122869   0.092   2.744   3.338
  186DOPC   C3122870   0.082   2.625   3.401
  186DOPC   O3222871  -0.021   2.573   3.439
  186DOPC   C3222872   0.221   2.555   3.413
  186DOPC   H2X22873   0.198   2.458   3.369
  186DOPC   H2Y22874   0.275   2.601   3.331
  186DOPC   C2322875   0.028   3.131   3.677
  186DOPC   H3R22876   0.075   3.215   3.622
  186DOPC   H3S22877   0.077   3.046   3.631
  186DOPC   C2422878   0.075   3.131   3.825
  186DOPC   H4R22879   0.047   3.040   3.880
  186DOPC   H4S22880   0.026   3.209   3.884
  186DOPC   C2522881   0.229   3.136   3.830
  186DOPC   H5R22882   0.266   3.239   3.807
  186DOPC   H5S22883   0.270   3.073   3.749
  186DOPC   C2622884   0.289   3.084   3.962
  186DOPC   H6R22885   0.394   3.054   3.945
  186DOPC   H6S22886   0.234   2.994   3.996
  186DOPC   C2722887   0.284   3.197   4.066
  186DOPC   H7R22888   0.178   3.217   4.090
  186DOPC   H7S22889   0.328   3.285   4.014
  186DOPC   C2822890   0.367   3.178   4.194
  186DOPC   H8R22891   0.475   3.176   4.167
  186DOPC   H8S22892   0.343   3.078   4.237
  186DOPC   C2922893   0.336   3.292   4.289
  186DOPC   H9R22894   0.378   3.389   4.260
  186DOPC  C21022895   0.259   3.284   4.400
  186DOPC  H10R22896   0.239   3.374   4.460
  186DOPC  C21122897   0.193   3.156   4.445
  186DOPC  H11R22898   0.272   3.078   4.435
  186DOPC  H11S22899   0.110   3.130   4.375
  186DOPC  C21222900   0.142   3.134   4.589
  186DOPC  H12R22901   0.227   3.152   4.660
  186DOPC  H12S22902   0.116   3.026   4.599
  186DOPC  C21322903   0.019   3.215   4.633
  186DOPC  H13R22904  -0.004   3.288   4.551
  186DOPC  H13S22905   0.047   3.275   4.722
  186DOPC  C21422906  -0.112   3.138   4.664
  186DOPC  H14R22907  -0.151   3.093   4.570
  186DOPC  H14S22908  -0.186   3.215   4.696
  186DOPC  C21522909  -0.115   3.027   4.773
  186DOPC  H15R22910  -0.113   2.929   4.721
  186DOPC  H15S22911  -0.214   3.031   4.823
  186DOPC  C21622912  -0.009   3.031   4.883
  186DOPC  H16R22913   0.090   3.053   4.839
  186DOPC  H16S22914  -0.003   2.932   4.933
  186DOPC  C21722915  -0.039   3.136   4.990
  186DOPC  H17R22916  -0.143   3.120   5.027
  186DOPC  H17S22917  -0.035   3.236   4.941
  186DOPC  C21822918   0.057   3.134   5.110
  186DOPC  H18R22919   0.026   3.208   5.186
  186DOPC  H18S22920   0.160   3.158   5.078
  186DOPC  H18T22921   0.057   3.034   5.157
  186DOPC   C3322922   0.307   2.541   3.551
  186DOPC   H3X22923   0.226   2.536   3.625
  186DOPC   H3Y22924   0.322   2.641   3.505
  186DOPC   C3422925   0.432   2.615   3.624
  186DOPC   H4X22926   0.411   2.722   3.647
  186DOPC   H4Y22927   0.517   2.619   3.553
  186DOPC   C3522928   0.485   2.585   3.766
  186DOPC   H5X22929   0.579   2.646   3.774
  186DOPC   H5Y22930   0.516   2.481   3.784
  186DOPC   C3622931   0.403   2.644   3.881
  186DOPC   H6X22932   0.457   2.627   3.978
  186DOPC   H6Y22933   0.393   2.754   3.869
  186DOPC   C3722934   0.264   2.583   3.892
  186DOPC   H7X22935   0.203   2.612   3.804
  186DOPC   H7Y22936   0.273   2.472   3.894
  186DOPC   C3822937   0.194   2.635   4.016
  186DOPC   H8X22938   0.177   2.744   4.009
  186DOPC   H8Y22939   0.264   2.621   4.100
  186DOPC   C3922940   0.065   2.563   4.039
  186DOPC   H9X22941  -0.023   2.601   3.986
  186DOPC  C31022942   0.046   2.467   4.128
  186DOPC  H10X22943  -0.053   2.423   4.132
  186DOPC  C31122944   0.149   2.411   4.222
  186DOPC  H11X22945   0.247   2.452   4.199
  186DOPC  H11Y22946   0.165   2.303   4.199
  186DOPC  C31222947   0.112   2.423   4.372
  186DOPC  H12X22948   0.198   2.391   4.434
  186DOPC  H12Y22949   0.031   2.349   4.380
  186DOPC  C31322950   0.057   2.557   4.430
  186DOPC  H13X22951   0.128   2.624   4.378
  186DOPC  H13Y22952  -0.047   2.576   4.397
  186DOPC  C31422953   0.078   2.599   4.580
  186DOPC  H14X22954   0.009   2.554   4.653
  186DOPC  H14Y22955   0.168   2.540   4.587
  186DOPC  C31522956   0.110   2.751   4.619
  186DOPC  H15X22957   0.026   2.800   4.669
  186DOPC  H15Y22958   0.122   2.799   4.521
  186DOPC  C31622959   0.247   2.802   4.679
  186DOPC  H16X22960   0.312   2.715   4.687
  186DOPC  H16Y22961   0.293   2.875   4.608
  186DOPC  C31722962   0.274   2.855   4.820
  186DOPC  H17X22963   0.262   2.965   4.825
  186DOPC  H17Y22964   0.207   2.806   4.893
  186DOPC  C31822965   0.423   2.821   4.848
  186DOPC  H18X22966   0.432   2.714   4.873
  186DOPC  H18Y22967   0.484   2.839   4.756
  186DOPC  H18Z22968   0.469   2.880   4.929
  187DOPC     N22969   5.805   1.214   3.003
  187DOPC   C1222970   5.949   1.214   3.053
  187DOPC  H12A22971   5.995   1.312   3.052
  187DOPC  H12B22972   6.010   1.158   2.982
  187DOPC   C1322973   5.750   1.351   2.997
  187DOPC  H13A22974   5.822   1.413   2.944
  187DOPC  H13B22975   5.654   1.355   2.947
  187DOPC  H13C22976   5.740   1.393   3.097
  187DOPC   C1422977   5.719   1.120   3.084
  187DOPC  H14A22978   5.767   1.021   3.082
  187DOPC  H14B22979   5.714   1.144   3.189
  187DOPC  H14C22980   5.620   1.105   3.044
  187DOPC   C1522981   5.810   1.148   2.869
  187DOPC  H15A22982   5.862   1.206   2.795
  187DOPC  H15B22983   5.712   1.117   2.833
  187DOPC  H15C22984   5.863   1.053   2.884
  187DOPC   C1122985   5.976   1.139   3.181
  187DOPC  H11A22986   6.075   1.171   3.224
  187DOPC  H11B22987   5.901   1.155   3.261
  187DOPC     P22988   6.107   0.922   3.136
  187DOPC   O1322989   6.213   1.006   3.075
  187DOPC   O1422990   6.074   0.791   3.076
  187DOPC   O1222991   5.975   1.005   3.135
  187DOPC   O1122992   6.113   0.920   3.294
  187DOPC    C122993   6.006   0.847   3.358
  187DOPC    HA22994   6.009   0.740   3.325
  187DOPC    HB22995   5.906   0.888   3.332
  187DOPC    C222996   6.025   0.846   3.512
  187DOPC    HS22997   5.945   0.782   3.557
  187DOPC   O2122998   6.024   0.978   3.572
  187DOPC   C2122999   5.903   1.028   3.577
  187DOPC   O2223000   5.802   0.976   3.535
  187DOPC   C2223001   5.904   1.160   3.656
  187DOPC   H2R23002   5.908   1.242   3.581
  187DOPC   H2S23003   5.994   1.165   3.720
  187DOPC    C323004   6.159   0.777   3.542
  187DOPC    HX23005   6.230   0.814   3.465
  187DOPC    HY23006   6.146   0.668   3.524
  187DOPC   O3123007   6.202   0.803   3.678
  187DOPC   C3123008   6.319   0.865   3.687
  187DOPC   O3223009   6.397   0.884   3.596
  187DOPC   C3223010   6.342   0.912   3.828
  187DOPC   H2X23011   6.368   1.020   3.823
  187DOPC   H2Y23012   6.249   0.901   3.888
  187DOPC   C2323013   5.775   1.177   3.741
  187DOPC   H3R23014   5.686   1.152   3.678
  187DOPC   H3S23015   5.763   1.283   3.771
  187DOPC   C2423016   5.771   1.089   3.867
  187DOPC   H4R23017   5.805   0.986   3.842
  187DOPC   H4S23018   5.664   1.081   3.899
  187DOPC   C2523019   5.851   1.143   3.986
  187DOPC   H5R23020   5.822   1.250   4.000
  187DOPC   H5S23021   5.959   1.141   3.962
  187DOPC   C2623022   5.823   1.071   4.120
  187DOPC   H6R23023   5.713   1.075   4.139
  187DOPC   H6S23024   5.868   1.128   4.202
  187DOPC   C2723025   5.867   0.923   4.130
  187DOPC   H7R23026   5.905   0.891   4.031
  187DOPC   H7S23027   5.776   0.863   4.152
  187DOPC   C2823028   5.974   0.884   4.237
  187DOPC   H8R23029   6.069   0.931   4.203
  187DOPC   H8S23030   5.990   0.774   4.226
  187DOPC   C2923031   5.955   0.920   4.383
  187DOPC   H9R23032   5.941   1.027   4.399
  187DOPC  C21023033   5.951   0.843   4.494
  187DOPC  H10R23034   5.935   0.896   4.590
  187DOPC  C21123035   5.964   0.694   4.515
  187DOPC  H11R23036   5.965   0.638   4.419
  187DOPC  H11S23037   5.873   0.660   4.570
  187DOPC  C21223038   6.078   0.644   4.605
  187DOPC  H12R23039   6.172   0.633   4.548
  187DOPC  H12S23040   6.052   0.542   4.641
  187DOPC  C21323041   6.108   0.731   4.727
  187DOPC  H13R23042   6.015   0.751   4.785
  187DOPC  H13S23043   6.145   0.830   4.693
  187DOPC  C21423044   6.214   0.659   4.811
  187DOPC  H14R23045   6.291   0.622   4.738
  187DOPC  H14S23046   6.170   0.571   4.862
  187DOPC  C21523047   6.289   0.747   4.910
  187DOPC  H15R23048   6.346   0.686   4.983
  187DOPC  H15S23049   6.218   0.807   4.968
  187DOPC  C21623050   6.384   0.838   4.834
  187DOPC  H16R23051   6.326   0.893   4.757
  187DOPC  H16S23052   6.459   0.773   4.785
  187DOPC  C21723053   6.455   0.940   4.920
  187DOPC  H17R23054   6.556   0.903   4.948
  187DOPC  H17S23055   6.394   0.940   5.012
  187DOPC  C21823056   6.460   1.084   4.866
  187DOPC  H18R23057   6.445   1.156   4.948
  187DOPC  H18S23058   6.382   1.101   4.789
  187DOPC  H18T23059   6.559   1.105   4.820
  187DOPC   C3323060   6.457   0.830   3.887
  187DOPC   H3X23061   6.552   0.842   3.835
  187DOPC   H3Y23062   6.434   0.723   3.872
  187DOPC   C3423063   6.480   0.853   4.034
  187DOPC   H4X23064   6.558   0.785   4.075
  187DOPC   H4Y23065   6.384   0.828   4.083
  187DOPC   C3523066   6.512   0.993   4.077
  187DOPC   H5X23067   6.491   1.069   3.999
  187DOPC   H5Y23068   6.619   0.999   4.106
  187DOPC   C3623069   6.434   1.019   4.203
  187DOPC   H6X23070   6.332   0.976   4.200
  187DOPC   H6Y23071   6.489   0.968   4.284
  187DOPC   C3723072   6.419   1.166   4.227
  187DOPC   H7X23073   6.412   1.178   4.336
  187DOPC   H7Y23074   6.513   1.216   4.196
  187DOPC   C3823075   6.299   1.215   4.143
  187DOPC   H8X23076   6.310   1.166   4.044
  187DOPC   H8Y23077   6.312   1.322   4.119
  187DOPC   C3923078   6.157   1.194   4.190
  187DOPC   H9X23079   6.092   1.157   4.110
  187DOPC  C31023080   6.101   1.211   4.312
  187DOPC  H10X23081   5.992   1.205   4.322
  187DOPC  C31123082   6.165   1.257   4.439
  187DOPC  H11X23083   6.127   1.358   4.465
  187DOPC  H11Y23084   6.270   1.269   4.413
  187DOPC  C31223085   6.174   1.173   4.568
  187DOPC  H12X23086   6.263   1.210   4.625
  187DOPC  H12Y23087   6.194   1.065   4.549
  187DOPC  C31323088   6.056   1.194   4.661
  187DOPC  H13X23089   6.005   1.290   4.636
  187DOPC  H13Y23090   5.982   1.112   4.646
  187DOPC  C31423091   6.099   1.197   4.808
  187DOPC  H14X23092   6.009   1.163   4.861
  187DOPC  H14Y23093   6.175   1.119   4.827
  187DOPC  C31523094   6.148   1.330   4.867
  187DOPC  H15X23095   6.075   1.412   4.846
  187DOPC  H15Y23096   6.243   1.358   4.819
  187DOPC  C31623097   6.173   1.315   5.019
  187DOPC  H16X23098   6.109   1.233   5.053
  187DOPC  H16Y23099   6.277   1.282   5.038
  187DOPC  C31723100   6.134   1.429   5.112
  187DOPC  H17X23101   6.131   1.388   5.216
  187DOPC  H17Y23102   6.213   1.506   5.111
  187DOPC  C31823103   5.997   1.489   5.081
  187DOPC  H18X23104   5.950   1.530   5.173
  187DOPC  H18Y23105   6.005   1.570   5.005
  187DOPC  H18Z23106   5.931   1.412   5.039
  188DOPC     N23107   1.422   0.765   2.904
  188DOPC   C1223108   1.407   0.688   3.034
  188DOPC  H12A23109   1.460   0.595   3.032
  188DOPC  H12B23110   1.301   0.669   3.048
  188DOPC   C1323111   1.550   0.844   2.910
  188DOPC  H13A23112   1.637   0.783   2.900
  188DOPC  H13B23113   1.553   0.921   2.835
  188DOPC  H13C23114   1.557   0.897   3.007
  188DOPC   C1423115   1.310   0.866   2.898
  188DOPC  H14A23116   1.213   0.820   2.890
  188DOPC  H14B23117   1.311   0.925   2.991
  188DOPC  H14C23118   1.323   0.934   2.815
  188DOPC   C1523119   1.415   0.683   2.780
  188DOPC  H15A23120   1.506   0.626   2.766
  188DOPC  H15B23121   1.407   0.748   2.692
  188DOPC  H15C23122   1.329   0.617   2.777
  188DOPC   C1123123   1.451   0.763   3.162
  188DOPC  H11A23124   1.415   0.706   3.250
  188DOPC  H11B23125   1.563   0.767   3.169
  188DOPC     P23126   1.452   1.010   3.246
  188DOPC   O1323127   1.377   1.130   3.203
  188DOPC   O1423128   1.598   1.010   3.224
  188DOPC   O1223129   1.394   0.892   3.162
  188DOPC   O1123130   1.413   0.961   3.393
  188DOPC    C123131   1.274   0.935   3.424
  188DOPC    HA23132   1.242   0.839   3.380
  188DOPC    HB23133   1.208   1.014   3.381
  188DOPC    C223134   1.240   0.932   3.579
  188DOPC    HS23135   1.129   0.941   3.585
  188DOPC   O2123136   1.299   1.034   3.662
  188DOPC   C2123137   1.350   1.145   3.617
  188DOPC   O2223138   1.345   1.192   3.506
  188DOPC   C2223139   1.415   1.220   3.731
  188DOPC   H2R23140   1.415   1.327   3.703
  188DOPC   H2S23141   1.521   1.186   3.732
  188DOPC    C323142   1.275   0.799   3.653
  188DOPC    HX23143   1.230   0.710   3.604
  188DOPC    HY23144   1.228   0.805   3.754
  188DOPC   O3123145   1.418   0.788   3.675
  188DOPC   C3123146   1.478   0.750   3.563
  188DOPC   O3223147   1.421   0.683   3.477
  188DOPC   C3223148   1.619   0.807   3.560
  188DOPC   H2X23149   1.666   0.756   3.474
  188DOPC   H2Y23150   1.613   0.915   3.534
  188DOPC   C2323151   1.349   1.197   3.869
  188DOPC   H3R23152   1.256   1.138   3.866
  188DOPC   H3S23153   1.327   1.297   3.913
  188DOPC   C2423154   1.455   1.135   3.958
  188DOPC   H4R23155   1.523   1.217   3.957
  188DOPC   H4S23156   1.506   1.050   3.909
  188DOPC   C2523157   1.434   1.118   4.107
  188DOPC   H5R23158   1.382   1.208   4.146
  188DOPC   H5S23159   1.532   1.109   4.158
  188DOPC   C2623160   1.361   0.991   4.137
  188DOPC   H6R23161   1.261   1.017   4.097
  188DOPC   H6S23162   1.355   0.974   4.246
  188DOPC   C2723163   1.424   0.871   4.065
  188DOPC   H7R23164   1.533   0.889   4.080
  188DOPC   H7S23165   1.406   0.873   3.955
  188DOPC   C2823166   1.386   0.732   4.118
  188DOPC   H8R23167   1.338   0.670   4.038
  188DOPC   H8S23168   1.312   0.742   4.200
  188DOPC   C2923169   1.509   0.667   4.173
  188DOPC   H9R23170   1.568   0.602   4.106
  188DOPC  C21023171   1.555   0.696   4.295
  188DOPC  H10R23172   1.653   0.652   4.322
  188DOPC  C21123173   1.498   0.793   4.398
  188DOPC  H11R23174   1.501   0.895   4.356
  188DOPC  H11S23175   1.570   0.795   4.483
  188DOPC  C21223176   1.362   0.769   4.470
  188DOPC  H12R23177   1.314   0.677   4.433
  188DOPC  H12S23178   1.301   0.856   4.438
  188DOPC  C21323179   1.363   0.765   4.627
  188DOPC  H13R23180   1.286   0.837   4.662
  188DOPC  H13S23181   1.460   0.805   4.662
  188DOPC  C21423182   1.336   0.629   4.701
  188DOPC  H14R23183   1.431   0.576   4.714
  188DOPC  H14S23184   1.268   0.564   4.643
  188DOPC  C21523185   1.280   0.643   4.845
  188DOPC  H15R23186   1.181   0.686   4.838
  188DOPC  H15S23187   1.331   0.729   4.892
  188DOPC  C21623188   1.255   0.518   4.939
  188DOPC  H16R23189   1.192   0.449   4.881
  188DOPC  H16S23190   1.191   0.561   5.018
  188DOPC  C21723191   1.359   0.429   5.016
  188DOPC  H17R23192   1.434   0.485   5.068
  188DOPC  H17S23193   1.418   0.359   4.955
  188DOPC  C21823194   1.314   0.355   5.141
  188DOPC  H18R23195   1.385   0.277   5.164
  188DOPC  H18S23196   1.213   0.310   5.137
  188DOPC  H18T23197   1.333   0.418   5.229
  188DOPC   C3323198   1.702   0.787   3.691
  188DOPC   H3X23199   1.807   0.764   3.663
  188DOPC   H3Y23200   1.666   0.700   3.748
  188DOPC   C3423201   1.708   0.907   3.788
  188DOPC   H4X23202   1.621   0.900   3.856
  188DOPC   H4Y23203   1.696   1.001   3.728
  188DOPC   C3523204   1.837   0.920   3.870
  188DOPC   H5X23205   1.863   1.029   3.872
  188DOPC   H5Y23206   1.924   0.870   3.822
  188DOPC   C3623207   1.828   0.877   4.018
  188DOPC   H6X23208   1.726   0.895   4.057
  188DOPC   H6Y23209   1.850   0.768   4.027
  188DOPC   C3723210   1.923   0.962   4.102
  188DOPC   H7X23211   2.014   0.972   4.040
  188DOPC   H7Y23212   1.880   1.064   4.114
  188DOPC   C3823213   1.961   0.914   4.243
  188DOPC   H8X23214   2.027   0.993   4.287
  188DOPC   H8Y23215   2.023   0.822   4.236
  188DOPC   C3923216   1.843   0.891   4.332
  188DOPC   H9X23217   1.808   0.787   4.331
  188DOPC  C31023218   1.773   0.980   4.405
  188DOPC  H10X23219   1.689   0.943   4.461
  188DOPC  C31123220   1.790   1.129   4.422
  188DOPC  H11X23221   1.698   1.178   4.382
  188DOPC  H11Y23222   1.876   1.162   4.360
  188DOPC  C31223223   1.803   1.193   4.562
  188DOPC  H12X23224   1.847   1.295   4.552
  188DOPC  H12Y23225   1.870   1.130   4.625
  188DOPC  C31323226   1.674   1.216   4.639
  188DOPC  H13X23227   1.699   1.256   4.740
  188DOPC  H13Y23228   1.614   1.294   4.587
  188DOPC  C31423229   1.602   1.083   4.652
  188DOPC  H14X23230   1.537   1.067   4.564
  188DOPC  H14Y23231   1.679   1.003   4.651
  188DOPC  C31523232   1.533   1.062   4.785
  188DOPC  H15X23233   1.447   0.993   4.772
  188DOPC  H15Y23234   1.494   1.159   4.823
  188DOPC  C31623235   1.632   1.002   4.886
  188DOPC  H16X23236   1.655   0.898   4.853
  188DOPC  H16Y23237   1.726   1.060   4.877
  188DOPC  C31723238   1.569   1.010   5.026
  188DOPC  H17X23239   1.558   1.119   5.045
  188DOPC  H17Y23240   1.467   0.967   5.015
  188DOPC  C31823241   1.628   0.951   5.156
  188DOPC  H18X23242   1.586   1.002   5.246
  188DOPC  H18Y23243   1.607   0.846   5.177
  188DOPC  H18Z23244   1.737   0.956   5.156
  189DOPC     N23245   3.692   0.257   3.026
  189DOPC   C1223246   3.637   0.135   3.100
  189DOPC  H12A23247   3.718   0.064   3.113
  189DOPC  H12B23248   3.565   0.085   3.034
  189DOPC   C1323249   3.819   0.220   2.956
  189DOPC  H13A23250   3.813   0.126   2.902
  189DOPC  H13B23251   3.849   0.297   2.885
  189DOPC  H13C23252   3.900   0.210   3.027
  189DOPC   C1423253   3.719   0.374   3.115
  189DOPC  H14A23254   3.630   0.397   3.173
  189DOPC  H14B23255   3.804   0.356   3.178
  189DOPC  H14C23256   3.742   0.461   3.053
  189DOPC   C1523257   3.591   0.298   2.925
  189DOPC  H15A23258   3.579   0.217   2.854
  189DOPC  H15B23259   3.617   0.390   2.875
  189DOPC  H15C23260   3.494   0.310   2.973
  189DOPC   C1123261   3.562   0.159   3.233
  189DOPC  H11A23262   3.541   0.061   3.282
  189DOPC  H11B23263   3.628   0.215   3.303
  189DOPC     P23264   3.313   0.159   3.153
  189DOPC   O1323265   3.358   0.036   3.086
  189DOPC   O1423266   3.231   0.256   3.076
  189DOPC   O1223267   3.442   0.233   3.213
  189DOPC   O1123268   3.233   0.125   3.285
  189DOPC    C123269   3.170   0.237   3.349
  189DOPC    HA23270   3.067   0.250   3.310
  189DOPC    HB23271   3.223   0.334   3.329
  189DOPC    C223272   3.166   0.219   3.503
  189DOPC    HS23273   3.130   0.315   3.548
  189DOPC   O2123274   3.296   0.182   3.556
  189DOPC   C2123275   3.379   0.285   3.554
  189DOPC   O2223276   3.349   0.397   3.520
  189DOPC   C2223277   3.519   0.251   3.603
  189DOPC   H2R23278   3.576   0.213   3.516
  189DOPC   H2S23279   3.514   0.173   3.681
  189DOPC    C323280   3.061   0.113   3.544
  189DOPC    HX23281   3.080   0.019   3.489
  189DOPC    HY23282   2.959   0.148   3.516
  189DOPC   O3123283   3.078   0.090   3.685
  189DOPC   C3123284   2.987   0.134   3.768
  189DOPC   O3223285   2.878   0.181   3.738
  189DOPC   C3223286   3.035   0.107   3.910
  189DOPC   H2X23287   3.144   0.088   3.910
  189DOPC   H2Y23288   3.015   0.198   3.971
  189DOPC   C2323289   3.586   0.379   3.657
  189DOPC   H3R23290   3.567   0.465   3.589
  189DOPC   H3S23291   3.697   0.367   3.661
  189DOPC   C2423292   3.536   0.414   3.797
  189DOPC   H4R23293   3.425   0.401   3.806
  189DOPC   H4S23294   3.556   0.521   3.816
  189DOPC   C2523295   3.609   0.340   3.909
  189DOPC   H5R23296   3.712   0.317   3.876
  189DOPC   H5S23297   3.558   0.244   3.932
  189DOPC   C2623298   3.619   0.429   4.033
  189DOPC   H6R23299   3.682   0.518   4.008
  189DOPC   H6S23300   3.672   0.376   4.114
  189DOPC   C2723301   3.482   0.480   4.081
  189DOPC   H7R23302   3.426   0.526   3.997
  189DOPC   H7S23303   3.499   0.561   4.156
  189DOPC   C2823304   3.389   0.374   4.141
  189DOPC   H8R23305   3.356   0.303   4.062
  189DOPC   H8S23306   3.298   0.426   4.178
  189DOPC   C2923307   3.462   0.302   4.252
  189DOPC   H9R23308   3.520   0.214   4.220
  189DOPC  C21023309   3.462   0.338   4.382
  189DOPC  H10R23310   3.519   0.277   4.453
  189DOPC  C21123311   3.390   0.456   4.441
  189DOPC  H11R23312   3.388   0.543   4.370
  189DOPC  H11S23313   3.441   0.491   4.533
  189DOPC  C21223314   3.244   0.419   4.474
  189DOPC  H12R23315   3.190   0.393   4.381
  189DOPC  H12S23316   3.193   0.509   4.518
  189DOPC  C21323317   3.231   0.302   4.573
  189DOPC  H13R23318   3.280   0.330   4.669
  189DOPC  H13S23319   3.284   0.214   4.533
  189DOPC  C21423320   3.086   0.263   4.600
  189DOPC  H14R23321   3.037   0.235   4.503
  189DOPC  H14S23322   3.031   0.352   4.640
  189DOPC  C21523323   3.072   0.146   4.698
  189DOPC  H15R23324   2.963   0.136   4.720
  189DOPC  H15S23325   3.125   0.169   4.793
  189DOPC  C21623326   3.119   0.012   4.640
  189DOPC  H16R23327   3.224   0.018   4.604
  189DOPC  H16S23328   3.054  -0.006   4.552
  189DOPC  C21723329   3.104  -0.109   4.733
  189DOPC  H17R23330   3.036  -0.080   4.816
  189DOPC  H17S23331   3.201  -0.134   4.781
  189DOPC  C21823332   3.045  -0.235   4.668
  189DOPC  H18R23333   3.125  -0.298   4.625
  189DOPC  H18S23334   2.971  -0.210   4.588
  189DOPC  H18T23335   2.993  -0.296   4.744
  189DOPC   C3323336   2.955  -0.013   3.964
  189DOPC   H3X23337   2.989  -0.107   3.914
  189DOPC   H3Y23338   2.849   0.003   3.937
  189DOPC   C3423339   2.958  -0.031   4.116
  189DOPC   H4X23340   2.870  -0.092   4.145
  189DOPC   H4Y23341   2.951   0.067   4.167
  189DOPC   C3523342   3.083  -0.105   4.161
  189DOPC   H5X23343   3.172  -0.046   4.130
  189DOPC   H5Y23344   3.089  -0.205   4.111
  189DOPC   C3623345   3.086  -0.124   4.312
  189DOPC   H6X23346   3.095  -0.023   4.358
  189DOPC   H6Y23347   2.990  -0.169   4.345
  189DOPC   C3723348   3.202  -0.213   4.357
  189DOPC   H7X23349   3.205  -0.219   4.467
  189DOPC   H7Y23350   3.183  -0.315   4.317
  189DOPC   C3823351   3.342  -0.168   4.313
  189DOPC   H8X23352   3.338  -0.144   4.207
  189DOPC   H8Y23353   3.407  -0.258   4.324
  189DOPC   C3923354   3.405  -0.045   4.369
  189DOPC   H9X23355   3.344   0.047   4.363
  189DOPC  C31023356   3.524  -0.044   4.431
  189DOPC  H10X23357   3.558   0.050   4.478
  189DOPC  C31123358   3.612  -0.166   4.454
  189DOPC  H11X23359   3.713  -0.132   4.486
  189DOPC  H11Y23360   3.624  -0.229   4.364
  189DOPC  C31223361   3.552  -0.253   4.568
  189DOPC  H12X23362   3.626  -0.325   4.608
  189DOPC  H12Y23363   3.464  -0.311   4.535
  189DOPC  C31323364   3.509  -0.158   4.679
  189DOPC  H13X23365   3.590  -0.081   4.689
  189DOPC  H13Y23366   3.415  -0.108   4.645
  189DOPC  C31423367   3.480  -0.208   4.817
  189DOPC  H14X23368   3.391  -0.275   4.820
  189DOPC  H14Y23369   3.566  -0.260   4.865
  189DOPC  C31523370   3.454  -0.075   4.884
  189DOPC  H15X23371   3.386  -0.011   4.822
  189DOPC  H15Y23372   3.550  -0.020   4.891
  189DOPC  C31623373   3.391  -0.084   5.020
  189DOPC  H16X23374   3.284  -0.111   5.008
  189DOPC  H16Y23375   3.441  -0.163   5.080
  189DOPC  C31723376   3.406   0.053   5.085
  189DOPC  H17X23377   3.401   0.038   5.194
  189DOPC  H17Y23378   3.506   0.096   5.065
  189DOPC  C31823379   3.296   0.149   5.040
  189DOPC  H18X23380   3.198   0.096   5.037
  189DOPC  H18Y23381   3.287   0.234   5.111
  189DOPC  H18Z23382   3.317   0.188   4.939
  190DOPC     N23383   2.175   7.140   3.255
  190DOPC   C1223384   2.301   7.189   3.185
  190DOPC  H12A23385   2.387   7.145   3.234
  190DOPC  H12B23386   2.307   7.297   3.197
  190DOPC   C1323387   2.147   6.997   3.217
  190DOPC  H13A23388   2.049   6.963   3.250
  190DOPC  H13B23389   2.145   6.986   3.109
  190DOPC  H13C23390   2.221   6.928   3.254
  190DOPC   C1423391   2.062   7.224   3.206
  190DOPC  H14A23392   2.070   7.329   3.231
  190DOPC  H14B23393   2.059   7.218   3.097
  190DOPC  H14C23394   1.963   7.187   3.235
  190DOPC   C1523395   2.185   7.152   3.403
  190DOPC  H15A23396   2.266   7.091   3.441
  190DOPC  H15B23397   2.095   7.112   3.448
  190DOPC  H15C23398   2.197   7.255   3.435
  190DOPC   C1123399   2.313   7.162   3.032
  190DOPC  H11A23400   2.418   7.184   3.002
  190DOPC  H11B23401   2.301   7.053   3.012
  190DOPC     P23402   2.256   7.388   2.918
  190DOPC   O1323403   2.164   7.449   2.820
  190DOPC   O1423404   2.401   7.393   2.889
  190DOPC   O1223405   2.219   7.237   2.952
  190DOPC   O1123406   2.230   7.454   3.056
  190DOPC    C123407   2.196   7.592   3.059
  190DOPC    HA23408   2.104   7.615   3.000
  190DOPC    HB23409   2.283   7.653   3.024
  190DOPC    C223410   2.172   7.636   3.203
  190DOPC    HS23411   2.193   7.745   3.215
  190DOPC   O2123412   2.253   7.556   3.289
  190DOPC   C2123413   2.372   7.600   3.308
  190DOPC   O2223414   2.439   7.673   3.237
  190DOPC   C2223415   2.406   7.547   3.445
  190DOPC   H2R23416   2.369   7.443   3.456
  190DOPC   H2S23417   2.353   7.611   3.519
  190DOPC    C323418   2.026   7.614   3.246
  190DOPC    HX23419   1.992   7.517   3.203
  190DOPC    HY23420   1.961   7.693   3.204
  190DOPC   O3123421   2.009   7.605   3.386
  190DOPC   C3123422   2.079   7.675   3.473
  190DOPC   O3223423   2.166   7.759   3.456
  190DOPC   C3223424   2.042   7.610   3.604
  190DOPC   H2X23425   1.931   7.616   3.607
  190DOPC   H2Y23426   2.072   7.503   3.598
  190DOPC   C2323427   2.554   7.552   3.476
  190DOPC   H3R23428   2.599   7.651   3.458
  190DOPC   H3S23429   2.607   7.480   3.411
  190DOPC   C2423430   2.568   7.509   3.621
  190DOPC   H4R23431   2.668   7.467   3.634
  190DOPC   H4S23432   2.492   7.432   3.646
  190DOPC   C2523433   2.561   7.618   3.726
  190DOPC   H5R23434   2.457   7.654   3.739
  190DOPC   H5S23435   2.627   7.703   3.697
  190DOPC   C2623436   2.617   7.556   3.853
  190DOPC   H6R23437   2.726   7.539   3.838
  190DOPC   H6S23438   2.570   7.457   3.868
  190DOPC   C2723439   2.597   7.642   3.975
  190DOPC   H7R23440   2.652   7.735   3.950
  190DOPC   H7S23441   2.647   7.598   4.064
  190DOPC   C2823442   2.452   7.685   4.009
  190DOPC   H8R23443   2.427   7.767   3.940
  190DOPC   H8S23444   2.460   7.731   4.110
  190DOPC   C2923445   2.332   7.597   4.007
  190DOPC   H9R23446   2.299   7.566   3.907
  190DOPC  C21023447   2.277   7.539   4.116
  190DOPC  H10R23448   2.188   7.476   4.106
  190DOPC  C21123449   2.335   7.555   4.253
  190DOPC  H11R23450   2.445   7.566   4.237
  190DOPC  H11S23451   2.323   7.458   4.305
  190DOPC  C21223452   2.309   7.659   4.365
  190DOPC  H12R23453   2.297   7.763   4.332
  190DOPC  H12S23454   2.403   7.644   4.422
  190DOPC  C21323455   2.191   7.625   4.453
  190DOPC  H13R23456   2.207   7.517   4.468
  190DOPC  H13S23457   2.099   7.650   4.395
  190DOPC  C21423458   2.177   7.666   4.599
  190DOPC  H14R23459   2.213   7.764   4.631
  190DOPC  H14S23460   2.226   7.587   4.661
  190DOPC  C21523461   2.029   7.665   4.629
  190DOPC  H15R23462   1.975   7.599   4.557
  190DOPC  H15S23463   1.986   7.767   4.617
  190DOPC  C21623464   2.001   7.618   4.769
  190DOPC  H16R23465   2.047   7.687   4.838
  190DOPC  H16S23466   2.052   7.526   4.802
  190DOPC  C21723467   1.851   7.607   4.779
  190DOPC  H17R23468   1.809   7.602   4.675
  190DOPC  H17S23469   1.809   7.699   4.821
  190DOPC  C21823470   1.806   7.479   4.844
  190DOPC  H18R23471   1.876   7.441   4.920
  190DOPC  H18S23472   1.789   7.416   4.756
  190DOPC  H18T23473   1.706   7.473   4.888
  190DOPC   C3323474   2.105   7.671   3.730
  190DOPC   H3X23475   2.083   7.780   3.735
  190DOPC   H3Y23476   2.216   7.664   3.726
  190DOPC   C3423477   2.052   7.598   3.854
  190DOPC   H4X23478   2.062   7.666   3.942
  190DOPC   H4Y23479   2.114   7.508   3.872
  190DOPC   C3523480   1.907   7.545   3.843
  190DOPC   H5X23481   1.906   7.454   3.780
  190DOPC   H5Y23482   1.846   7.624   3.793
  190DOPC   C3623483   1.842   7.517   3.980
  190DOPC   H6X23484   1.919   7.546   4.054
  190DOPC   H6Y23485   1.758   7.590   3.989
  190DOPC   C3723486   1.800   7.372   4.018
  190DOPC   H7X23487   1.729   7.335   3.940
  190DOPC   H7Y23488   1.894   7.312   4.009
  190DOPC   C3823489   1.763   7.353   4.181
  190DOPC   H8X23490   1.688   7.419   4.139
  190DOPC   H8Y23491   1.832   7.432   4.206
  190DOPC   C3923492   1.699   7.336   4.322
  190DOPC   H9X23493   1.635   7.423   4.336
  190DOPC  C31023494   1.694   7.218   4.394
  190DOPC  H10X23495   1.635   7.209   4.489
  190DOPC  C31123496   1.755   7.074   4.351
  190DOPC  H11X23497   1.788   7.024   4.250
  190DOPC  H11Y23498   1.682   6.998   4.374
  190DOPC  C31223499   1.840   7.008   4.481
  190DOPC  H12X23500   1.792   6.922   4.533
  190DOPC  H12Y23501   1.824   7.076   4.566
  190DOPC  C31323502   1.996   6.957   4.485
  190DOPC  H13X23503   2.008   6.859   4.436
  190DOPC  H13Y23504   2.057   7.026   4.427
  190DOPC  C31423505   2.077   6.953   4.623
  190DOPC  H14X23506   2.021   7.028   4.675
  190DOPC  H14Y23507   2.066   6.857   4.678
  190DOPC  C31523508   2.223   7.015   4.646
  190DOPC  H15X23509   2.242   7.091   4.568
  190DOPC  H15Y23510   2.296   6.933   4.631
  190DOPC  C31623511   2.243   7.071   4.793
  190DOPC  H16X23512   2.149   7.115   4.821
  190DOPC  H16Y23513   2.252   6.987   4.862
  190DOPC  C31723514   2.333   7.189   4.845
  190DOPC  H17X23515   2.439   7.174   4.818
  190DOPC  H17Y23516   2.301   7.285   4.800
  190DOPC  C31823517   2.320   7.209   5.000
  190DOPC  H18X23518   2.329   7.112   5.054
  190DOPC  H18Y23519   2.401   7.275   5.040
  190DOPC  H18Z23520   2.223   7.254   5.028
  191DOPC     N23521   4.965   7.284   3.211
  191DOPC   C1223522   4.922   7.423   3.166
  191DOPC  H12A23523   4.973   7.495   3.231
  191DOPC  H12B23524   4.816   7.435   3.181
  191DOPC   C1323525   4.940   7.262   3.356
  191DOPC  H13A23526   4.833   7.257   3.375
  191DOPC  H13B23527   4.983   7.169   3.388
  191DOPC  H13C23528   4.981   7.343   3.416
  191DOPC   C1423529   5.109   7.274   3.179
  191DOPC  H14A23530   5.123   7.299   3.073
  191DOPC  H14B23531   5.169   7.347   3.233
  191DOPC  H14C23532   5.146   7.174   3.196
  191DOPC   C1523533   4.892   7.178   3.132
  191DOPC  H15A23534   4.787   7.171   3.158
  191DOPC  H15B23535   4.933   7.078   3.149
  191DOPC  H15C23536   4.899   7.198   3.026
  191DOPC   C1123537   4.955   7.465   3.018
  191DOPC  H11A23538   4.906   7.395   2.947
  191DOPC  H11B23539   4.907   7.564   3.000
  191DOPC     P23540   5.175   7.601   3.017
  191DOPC   O1323541   5.130   7.706   2.923
  191DOPC   O1423542   5.320   7.578   3.029
  191DOPC   O1223543   5.095   7.468   2.987
  191DOPC   O1123544   5.120   7.636   3.161
  191DOPC    C123545   5.178   7.745   3.234
  191DOPC    HA23546   5.165   7.841   3.179
  191DOPC    HB23547   5.286   7.729   3.251
  191DOPC    C223548   5.104   7.759   3.370
  191DOPC    HS23549   5.141   7.849   3.423
  191DOPC   O2123550   5.120   7.642   3.452
  191DOPC   C2123551   5.239   7.618   3.500
  191DOPC   O2223552   5.339   7.687   3.485
  191DOPC   C2223553   5.233   7.486   3.578
  191DOPC   H2R23554   5.289   7.411   3.519
  191DOPC   H2S23555   5.127   7.453   3.586
  191DOPC    C323556   4.952   7.779   3.343
  191DOPC    HX23557   4.915   7.703   3.271
  191DOPC    HY23558   4.939   7.877   3.293
  191DOPC   O3123559   4.877   7.779   3.466
  191DOPC   C3123560   4.837   7.659   3.509
  191DOPC   O3223561   4.844   7.555   3.445
  191DOPC   C3223562   4.782   7.677   3.651
  191DOPC   H2X23563   4.866   7.712   3.715
  191DOPC   H2Y23564   4.708   7.759   3.645
  191DOPC   C2323565   5.292   7.494   3.721
  191DOPC   H3R23566   5.388   7.550   3.722
  191DOPC   H3S23567   5.314   7.390   3.755
  191DOPC   C2423568   5.194   7.556   3.822
  191DOPC   H4R23569   5.099   7.498   3.817
  191DOPC   H4S23570   5.171   7.661   3.794
  191DOPC   C2523571   5.246   7.552   3.966
  191DOPC   H5R23572   5.342   7.609   3.972
  191DOPC   H5S23573   5.269   7.447   3.994
  191DOPC   C2623574   5.149   7.611   4.070
  191DOPC   H6R23575   5.137   7.720   4.053
  191DOPC   H6S23576   5.193   7.598   4.171
  191DOPC   C2723577   5.009   7.546   4.067
  191DOPC   H7R23578   5.022   7.435   4.070
  191DOPC   H7S23579   4.956   7.571   3.973
  191DOPC   C2823580   4.922   7.586   4.188
  191DOPC   H8R23581   4.977   7.556   4.280
  191DOPC   H8S23582   4.829   7.524   4.186
  191DOPC   C2923583   4.885   7.732   4.186
  191DOPC   H9R23584   4.855   7.772   4.088
  191DOPC  C21023585   4.889   7.816   4.291
  191DOPC  H10R23586   4.863   7.922   4.275
  191DOPC  C21123587   4.930   7.780   4.431
  191DOPC  H11R23588   4.932   7.670   4.447
  191DOPC  H11S23589   4.856   7.819   4.504
  191DOPC  C21223590   5.069   7.836   4.464
  191DOPC  H12R23591   5.065   7.947   4.470
  191DOPC  H12S23592   5.140   7.808   4.382
  191DOPC  C21323593   5.125   7.779   4.595
  191DOPC  H13R23594   5.234   7.801   4.602
  191DOPC  H13S23595   5.113   7.668   4.595
  191DOPC  C21423596   5.056   7.837   4.719
  191DOPC  H14R23597   4.946   7.821   4.709
  191DOPC  H14S23598   5.074   7.946   4.724
  191DOPC  C21523599   5.104   7.771   4.848
  191DOPC  H15R23600   5.215   7.780   4.856
  191DOPC  H15S23601   5.079   7.662   4.844
  191DOPC  C21623602   5.039   7.830   4.974
  191DOPC  H16R23603   5.067   7.937   4.985
  191DOPC  H16S23604   5.077   7.775   5.063
  191DOPC  C21723605   4.886   7.817   4.970
  191DOPC  H17R23606   4.861   7.713   4.939
  191DOPC  H17S23607   4.844   7.886   4.894
  191DOPC  C21823608   4.821   7.845   5.104
  191DOPC  H18R23609   4.872   7.792   5.187
  191DOPC  H18S23610   4.715   7.812   5.102
  191DOPC  H18T23611   4.824   7.954   5.125
  191DOPC   C3323612   4.717   7.553   3.717
  191DOPC   H3X23613   4.796   7.485   3.754
  191DOPC   H3Y23614   4.654   7.496   3.645
  191DOPC   C3423615   4.629   7.597   3.836
  191DOPC   H4X23616   4.529   7.630   3.801
  191DOPC   H4Y23617   4.680   7.684   3.885
  191DOPC   C3523618   4.609   7.492   3.945
  191DOPC   H5X23619   4.551   7.538   4.028
  191DOPC   H5Y23620   4.711   7.470   3.984
  191DOPC   C3623621   4.538   7.364   3.900
  191DOPC   H6X23622   4.436   7.390   3.863
  191DOPC   H6Y23623   4.594   7.319   3.815
  191DOPC   C3723624   4.527   7.260   4.012
  191DOPC   H7X23625   4.461   7.302   4.092
  191DOPC   H7Y23626   4.476   7.169   3.973
  191DOPC   C3823627   4.663   7.221   4.073
  191DOPC   H8X23628   4.719   7.313   4.101
  191DOPC   H8Y23629   4.725   7.171   3.995
  191DOPC   C3923630   4.653   7.136   4.196
  191DOPC   H9X23631   4.657   7.027   4.178
  191DOPC  C31023632   4.638   7.184   4.321
  191DOPC  H10X23633   4.634   7.114   4.406
  191DOPC  C31123634   4.630   7.331   4.356
  191DOPC  H11X23635   4.595   7.390   4.268
  191DOPC  H11Y23636   4.731   7.370   4.381
  191DOPC  C31223637   4.533   7.361   4.471
  191DOPC  H12X23638   4.438   7.306   4.454
  191DOPC  H12Y23639   4.508   7.470   4.470
  191DOPC  C31323640   4.587   7.326   4.611
  191DOPC  H13X23641   4.497   7.308   4.676
  191DOPC  H13Y23642   4.645   7.231   4.610
  191DOPC  C31423643   4.666   7.439   4.678
  191DOPC  H14X23644   4.620   7.537   4.652
  191DOPC  H14Y23645   4.656   7.427   4.788
  191DOPC  C31523646   4.817   7.445   4.645
  191DOPC  H15X23647   4.855   7.536   4.696
  191DOPC  H15Y23648   4.834   7.460   4.537
  191DOPC  C31623649   4.898   7.324   4.695
  191DOPC  H16X23650   4.843   7.274   4.777
  191DOPC  H16Y23651   4.910   7.248   4.614
  191DOPC  C31723652   5.036   7.369   4.748
  191DOPC  H17X23653   5.101   7.398   4.663
  191DOPC  H17Y23654   5.019   7.460   4.810
  191DOPC  C31823655   5.108   7.268   4.837
  191DOPC  H18X23656   5.145   7.181   4.778
  191DOPC  H18Y23657   5.195   7.315   4.888
  191DOPC  H18Z23658   5.039   7.231   4.916
  192DOPC     N23659   7.728   5.114   2.936
  192DOPC   C1223660   7.788   5.051   3.061
  192DOPC  H12A23661   7.796   4.944   3.045
  192DOPC  H12B23662   7.716   5.063   3.142
  192DOPC   C1323663   7.627   5.219   2.976
  192DOPC  H13A23664   7.675   5.292   3.042
  192DOPC  H13B23665   7.584   5.272   2.891
  192DOPC  H13C23666   7.546   5.182   3.037
  192DOPC   C1423667   7.667   5.006   2.854
  192DOPC  H14A23668   7.608   5.045   2.773
  192DOPC  H14B23669   7.745   4.937   2.819
  192DOPC  H14C23670   7.601   4.944   2.914
  192DOPC   C1523671   7.837   5.181   2.859
  192DOPC  H15A23672   7.912   5.109   2.830
  192DOPC  H15B23673   7.887   5.250   2.927
  192DOPC  H15C23674   7.800   5.235   2.774
  192DOPC   C1123675   7.927   5.101   3.112
  192DOPC  H11A23676   7.947   5.054   3.212
  192DOPC  H11B23677   8.006   5.060   3.045
  192DOPC     P23678   7.899   5.325   3.248
  192DOPC   O1323679   7.917   5.468   3.214
  192DOPC   O1423680   7.971   5.269   3.364
  192DOPC   O1223681   7.937   5.244   3.117
  192DOPC   O1123682   7.745   5.301   3.252
  192DOPC    C123683   7.680   5.197   3.322
  192DOPC    HA23684   7.734   5.101   3.312
  192DOPC    HB23685   7.578   5.186   3.276
  192DOPC    C223686   7.655   5.219   3.473
  192DOPC    HS23687   7.582   5.300   3.487
  192DOPC   O2123688   7.773   5.244   3.553
  192DOPC   C2123689   7.799   5.375   3.563
  192DOPC   O2223690   7.744   5.461   3.498
  192DOPC   C2223691   7.898   5.411   3.673
  192DOPC   H2R23692   7.999   5.382   3.639
  192DOPC   H2S23693   7.872   5.353   3.763
  192DOPC    C323694   7.581   5.092   3.520
  192DOPC    HX23695   7.640   5.001   3.495
  192DOPC    HY23696   7.487   5.085   3.462
  192DOPC   O3123697   7.548   5.105   3.660
  192DOPC   C3123698   7.651   5.069   3.734
  192DOPC   O3223699   7.754   5.017   3.692
  192DOPC   C3223700   7.617   5.092   3.880
  192DOPC   H2X23701   7.568   5.192   3.888
  192DOPC   H2Y23702   7.545   5.016   3.914
  192DOPC   C2323703   7.889   5.564   3.701
  192DOPC   H3R23704   7.794   5.585   3.754
  192DOPC   H3S23705   7.883   5.621   3.605
  192DOPC   C2423706   8.005   5.627   3.780
  192DOPC   H4R23707   7.977   5.731   3.807
  192DOPC   H4S23708   8.094   5.634   3.714
  192DOPC   C2523709   8.047   5.552   3.907
  192DOPC   H5R23710   8.121   5.612   3.964
  192DOPC   H5S23711   8.097   5.458   3.874
  192DOPC   C2623712   7.931   5.515   3.999
  192DOPC   H6R23713   7.845   5.478   3.939
  192DOPC   H6S23714   7.894   5.602   4.056
  192DOPC   C2723715   7.971   5.400   4.093
  192DOPC   H7R23716   8.037   5.438   4.174
  192DOPC   H7S23717   8.030   5.326   4.035
  192DOPC   C2823718   7.847   5.328   4.147
  192DOPC   H8R23719   7.873   5.222   4.167
  192DOPC   H8S23720   7.768   5.330   4.068
  192DOPC   C2923721   7.795   5.393   4.270
  192DOPC   H9R23722   7.860   5.472   4.310
  192DOPC  C21023723   7.685   5.359   4.339
  192DOPC  H10R23724   7.660   5.419   4.427
  192DOPC  C21123725   7.589   5.246   4.307
  192DOPC  H11R23726   7.570   5.192   4.401
  192DOPC  H11S23727   7.631   5.174   4.235
  192DOPC  C21223728   7.452   5.296   4.259
  192DOPC  H12R23729   7.464   5.364   4.173
  192DOPC  H12S23730   7.415   5.354   4.344
  192DOPC  C21323731   7.346   5.190   4.222
  192DOPC  H13R23732   7.373   5.146   4.123
  192DOPC  H13S23733   7.249   5.242   4.209
  192DOPC  C21423734   7.325   5.075   4.321
  192DOPC  H14R23735   7.420   5.018   4.330
  192DOPC  H14S23736   7.249   5.005   4.279
  192DOPC  C21523737   7.278   5.117   4.461
  192DOPC  H15R23738   7.174   5.158   4.455
  192DOPC  H15S23739   7.344   5.198   4.498
  192DOPC  C21623740   7.280   5.003   4.564
  192DOPC  H16R23741   7.384   4.963   4.565
  192DOPC  H16S23742   7.210   4.924   4.531
  192DOPC  C21723743   7.244   5.050   4.705
  192DOPC  H17R23744   7.145   5.101   4.701
  192DOPC  H17S23745   7.325   5.121   4.731
  192DOPC  C21823746   7.242   4.954   4.823
  192DOPC  H18R23747   7.208   5.005   4.916
  192DOPC  H18S23748   7.347   4.922   4.841
  192DOPC  H18T23749   7.177   4.866   4.806
  192DOPC   C3323750   7.744   5.090   3.967
  192DOPC   H3X23751   7.713   5.109   4.071
  192DOPC   H3Y23752   7.813   5.170   3.933
  192DOPC   C3423753   7.821   4.958   3.967
  192DOPC   H4X23754   7.887   4.953   3.877
  192DOPC   H4Y23755   7.750   4.873   3.962
  192DOPC   C3523756   7.910   4.936   4.090
  192DOPC   H5X23757   7.851   4.936   4.183
  192DOPC   H5Y23758   7.982   5.021   4.098
  192DOPC   C3623759   7.987   4.805   4.076
  192DOPC   H6X23760   8.038   4.806   3.977
  192DOPC   H6Y23761   8.069   4.806   4.151
  192DOPC   C3723762   7.904   4.674   4.084
  192DOPC   H7X23763   7.876   4.652   3.978
  192DOPC   H7Y23764   7.969   4.590   4.116
  192DOPC   C3823765   7.769   4.672   4.165
  192DOPC   H8X23766   7.710   4.591   4.116
  192DOPC   H8Y23767   7.715   4.766   4.142
  192DOPC   C3923768   7.757   4.640   4.312
  192DOPC   H9X23769   7.773   4.533   4.334
  192DOPC  C31023770   7.720   4.720   4.415
  192DOPC  H10X23771   7.717   4.675   4.516
  192DOPC  C31123772   7.678   4.866   4.409
  192DOPC  H11X23773   7.570   4.865   4.434
  192DOPC  H11Y23774   7.684   4.906   4.306
  192DOPC  C31223775   7.732   4.975   4.504
  192DOPC  H12X23776   7.744   4.939   4.608
  192DOPC  H12Y23777   7.651   5.051   4.513
  192DOPC  C31323778   7.856   5.050   4.455
  192DOPC  H13X23779   7.942   4.981   4.447
  192DOPC  H13Y23780   7.836   5.088   4.352
  192DOPC  C31423781   7.888   5.169   4.546
  192DOPC  H14X23782   7.802   5.239   4.544
  192DOPC  H14Y23783   7.898   5.135   4.651
  192DOPC  C31523784   8.017   5.243   4.507
  192DOPC  H15X23785   8.031   5.232   4.397
  192DOPC  H15Y23786   8.103   5.194   4.557
  192DOPC  C31623787   8.019   5.394   4.540
  192DOPC  H16X23788   8.121   5.434   4.521
  192DOPC  H16Y23789   7.953   5.447   4.471
  192DOPC  C31723790   7.971   5.435   4.680
  192DOPC  H17X23791   7.952   5.545   4.678
  192DOPC  H17Y23792   7.874   5.386   4.702
  192DOPC  C31823793   8.073   5.404   4.789
  192DOPC  H18X23794   8.037   5.442   4.887
  192DOPC  H18Y23795   8.090   5.295   4.796
  192DOPC  H18Z23796   8.170   5.454   4.765
  193DOPC     N23797   7.358   1.644   2.988
  193DOPC   C1223798   7.289   1.653   3.122
  193DOPC  H12A23799   7.280   1.553   3.164
  193DOPC  H12B23800   7.187   1.689   3.107
  193DOPC   C1323801   7.318   1.518   2.917
  193DOPC  H13A23802   7.354   1.521   2.814
  193DOPC  H13B23803   7.358   1.429   2.964
  193DOPC  H13C23804   7.210   1.509   2.914
  193DOPC   C1423805   7.506   1.651   3.008
  193DOPC  H14A23806   7.528   1.745   3.058
  193DOPC  H14B23807   7.542   1.571   3.071
  193DOPC  H14C23808   7.559   1.646   2.914
  193DOPC   C1523809   7.315   1.761   2.906
  193DOPC  H15A23810   7.368   1.767   2.813
  193DOPC  H15B23811   7.329   1.854   2.962
  193DOPC  H15C23812   7.208   1.758   2.888
  193DOPC   C1123813   7.354   1.747   3.227
  193DOPC  H11A23814   7.294   1.734   3.316
  193DOPC  H11B23815   7.456   1.714   3.255
  193DOPC     P23816   7.215   1.964   3.176
  193DOPC   O1323817   7.104   1.867   3.169
  193DOPC   O1423818   7.236   2.048   3.056
  193DOPC   O1223819   7.354   1.885   3.190
  193DOPC   O1123820   7.208   2.059   3.304
  193DOPC    C123821   7.095   2.077   3.391
  193DOPC    HA23822   7.000   2.057   3.337
  193DOPC    HB23823   7.093   2.182   3.425
  193DOPC    C223824   7.100   1.985   3.516
  193DOPC    HS23825   7.183   2.018   3.582
  193DOPC   O2123826   7.119   1.855   3.466
  193DOPC   C2123827   7.194   1.773   3.527
  193DOPC   O2223828   7.284   1.795   3.606
  193DOPC   C2223829   7.143   1.636   3.480
  193DOPC   H2R23830   7.230   1.578   3.441
  193DOPC   H2S23831   7.068   1.647   3.399
  193DOPC    C323832   6.966   1.981   3.597
  193DOPC    HX23833   6.917   1.887   3.563
  193DOPC    HY23834   6.904   2.065   3.562
  193DOPC   O3123835   6.973   1.971   3.742
  193DOPC   C3123836   6.853   1.985   3.800
  193DOPC   O3223837   6.758   2.043   3.751
  193DOPC   C3223838   6.838   1.908   3.929
  193DOPC   H2X23839   6.727   1.903   3.941
  193DOPC   H2Y23840   6.875   1.806   3.916
  193DOPC   C2323841   7.088   1.562   3.600
  193DOPC   H3R23842   7.170   1.572   3.675
  193DOPC   H3S23843   7.080   1.455   3.574
  193DOPC   C2423844   6.953   1.614   3.655
  193DOPC   H4R23845   6.871   1.604   3.580
  193DOPC   H4S23846   6.965   1.722   3.677
  193DOPC   C2523847   6.914   1.548   3.788
  193DOPC   H5R23848   6.863   1.451   3.770
  193DOPC   H5S23849   6.842   1.612   3.841
  193DOPC   C2623850   7.042   1.527   3.870
  193DOPC   H6R23851   7.093   1.624   3.880
  193DOPC   H6S23852   7.110   1.456   3.817
  193DOPC   C2723853   7.033   1.458   4.004
  193DOPC   H7R23854   7.131   1.460   4.056
  193DOPC   H7S23855   7.010   1.353   3.978
  193DOPC   C2823856   6.920   1.500   4.094
  193DOPC   H8R23857   6.896   1.416   4.163
  193DOPC   H8S23858   6.829   1.511   4.032
  193DOPC   C2923859   6.956   1.624   4.168
  193DOPC   H9R23860   6.924   1.718   4.122
  193DOPC  C21023861   6.997   1.624   4.295
  193DOPC  H10R23862   7.021   1.719   4.346
  193DOPC  C21123863   7.010   1.498   4.374
  193DOPC  H11R23864   7.089   1.514   4.445
  193DOPC  H11S23865   7.044   1.411   4.314
  193DOPC  C21223866   6.889   1.463   4.459
  193DOPC  H12R23867   6.915   1.370   4.515
  193DOPC  H12S23868   6.800   1.441   4.397
  193DOPC  C21323869   6.861   1.574   4.561
  193DOPC  H13R23870   6.795   1.651   4.519
  193DOPC  H13S23871   6.956   1.626   4.587
  193DOPC  C21423872   6.803   1.516   4.689
  193DOPC  H14R23873   6.725   1.440   4.667
  193DOPC  H14S23874   6.756   1.598   4.748
  193DOPC  C21523875   6.912   1.453   4.773
  193DOPC  H15R23876   7.008   1.498   4.747
  193DOPC  H15S23877   6.932   1.353   4.735
  193DOPC  C21623878   6.871   1.454   4.920
  193DOPC  H16R23879   6.769   1.412   4.918
  193DOPC  H16S23880   6.864   1.559   4.955
  193DOPC  C21723881   6.952   1.372   5.021
  193DOPC  H17R23882   6.932   1.266   5.006
  193DOPC  H17S23883   6.917   1.398   5.123
  193DOPC  C21823884   7.102   1.394   5.024
  193DOPC  H18R23885   7.119   1.495   5.061
  193DOPC  H18S23886   7.146   1.386   4.922
  193DOPC  H18T23887   7.151   1.320   5.091
  193DOPC   C3323888   6.892   1.977   4.055
  193DOPC   H3X23889   6.857   1.915   4.140
  193DOPC   H3Y23890   6.845   2.077   4.070
  193DOPC   C3423891   7.045   1.984   4.066
  193DOPC   H4X23892   7.071   1.982   4.175
  193DOPC   H4Y23893   7.086   2.077   4.024
  193DOPC   C3523894   7.120   1.873   3.993
  193DOPC   H5X23895   7.125   1.890   3.884
  193DOPC   H5Y23896   7.066   1.778   4.007
  193DOPC   C3623897   7.263   1.854   4.042
  193DOPC   H6X23898   7.328   1.928   3.992
  193DOPC   H6Y23899   7.268   1.869   4.152
  193DOPC   C3723900   7.310   1.712   4.011
  193DOPC   H7X23901   7.244   1.644   4.070
  193DOPC   H7Y23902   7.295   1.690   3.903
  193DOPC   C3823903   7.457   1.690   4.047
  193DOPC   H8X23904   7.480   1.749   4.137
  193DOPC   H8Y23905   7.521   1.728   3.964
  193DOPC   C3923906   7.478   1.542   4.067
  193DOPC   H9X23907   7.480   1.482   3.975
  193DOPC  C31023908   7.485   1.480   4.186
  193DOPC  H10X23909   7.482   1.370   4.186
  193DOPC  C31123910   7.475   1.541   4.323
  193DOPC  H11X23911   7.485   1.651   4.320
  193DOPC  H11Y23912   7.558   1.505   4.387
  193DOPC  C31223913   7.337   1.506   4.385
  193DOPC  H12X23914   7.308   1.401   4.363
  193DOPC  H12Y23915   7.265   1.570   4.328
  193DOPC  C31323916   7.319   1.533   4.537
  193DOPC  H13X23917   7.215   1.539   4.572
  193DOPC  H13Y23918   7.354   1.450   4.598
  193DOPC  C31423919   7.379   1.664   4.582
  193DOPC  H14X23920   7.362   1.675   4.691
  193DOPC  H14Y23921   7.489   1.666   4.564
  193DOPC  C31523922   7.310   1.777   4.507
  193DOPC  H15X23923   7.201   1.778   4.529
  193DOPC  H15Y23924   7.319   1.764   4.396
  193DOPC  C31623925   7.374   1.910   4.537
  193DOPC  H16X23926   7.478   1.906   4.499
  193DOPC  H16Y23927   7.313   1.984   4.480
  193DOPC  C31723928   7.368   1.954   4.683
  193DOPC  H17X23929   7.411   1.878   4.752
  193DOPC  H17Y23930   7.431   2.045   4.693
  193DOPC  C31823931   7.224   1.989   4.717
  193DOPC  H18X23932   7.185   2.063   4.644
  193DOPC  H18Y23933   7.161   1.900   4.709
  193DOPC  H18Z23934   7.212   2.033   4.818
  194DOPC     N23935   1.741   0.393   2.877
  194DOPC   C1223936   1.822   0.280   2.939
  194DOPC  H12A23937   1.925   0.318   2.947
  194DOPC  H12B23938   1.828   0.196   2.872
  194DOPC   C1323939   1.595   0.370   2.899
  194DOPC  H13A23940   1.536   0.452   2.861
  194DOPC  H13B23941   1.562   0.280   2.848
  194DOPC  H13C23942   1.578   0.357   3.006
  194DOPC   C1423943   1.778   0.410   2.732
  194DOPC  H14A23944   1.883   0.441   2.727
  194DOPC  H14B23945   1.771   0.319   2.675
  194DOPC  H14C23946   1.720   0.486   2.682
  194DOPC   C1523947   1.788   0.516   2.949
  194DOPC  H15A23948   1.896   0.526   2.932
  194DOPC  H15B23949   1.777   0.503   3.057
  194DOPC  H15C23950   1.740   0.604   2.913
  194DOPC   C1123951   1.785   0.233   3.081
  194DOPC  H11A23952   1.685   0.186   3.083
  194DOPC  H11B23953   1.860   0.154   3.106
  194DOPC     P23954   1.818   0.312   3.327
  194DOPC   O1323955   1.851   0.439   3.393
  194DOPC   O1423956   1.914   0.201   3.342
  194DOPC   O1223957   1.793   0.342   3.173
  194DOPC   O1123958   1.673   0.261   3.362
  194DOPC    C123959   1.558   0.321   3.301
  194DOPC    HA23960   1.531   0.266   3.209
  194DOPC    HB23961   1.576   0.427   3.273
  194DOPC    C223962   1.438   0.317   3.398
  194DOPC    HS23963   1.366   0.396   3.369
  194DOPC   O2123964   1.476   0.340   3.534
  194DOPC   C2123965   1.559   0.439   3.563
  194DOPC   O2223966   1.612   0.515   3.485
  194DOPC   C2223967   1.566   0.459   3.714
  194DOPC   H2R23968   1.506   0.384   3.765
  194DOPC   H2S23969   1.522   0.558   3.738
  194DOPC    C323970   1.366   0.178   3.384
  194DOPC    HX23971   1.304   0.185   3.293
  194DOPC    HY23972   1.291   0.165   3.465
  194DOPC   O3123973   1.458   0.066   3.370
  194DOPC   C3123974   1.498   0.023   3.491
  194DOPC   O3223975   1.443   0.056   3.594
  194DOPC   C3223976   1.617  -0.069   3.494
  194DOPC   H2X23977   1.606  -0.155   3.425
  194DOPC   H2Y23978   1.706  -0.008   3.467
  194DOPC   C2323979   1.709   0.441   3.764
  194DOPC   H3R23980   1.717   0.477   3.869
  194DOPC   H3S23981   1.781   0.498   3.701
  194DOPC   C2423982   1.741   0.291   3.759
  194DOPC   H4R23983   1.727   0.256   3.653
  194DOPC   H4S23984   1.667   0.235   3.820
  194DOPC   C2523985   1.884   0.255   3.798
  194DOPC   H5R23986   1.953   0.308   3.729
  194DOPC   H5S23987   1.891   0.146   3.777
  194DOPC   C2623988   1.923   0.278   3.945
  194DOPC   H6R23989   1.932   0.388   3.964
  194DOPC   H6S23990   2.024   0.234   3.961
  194DOPC   C2723991   1.826   0.214   4.046
  194DOPC   H7R23992   1.759   0.147   3.987
  194DOPC   H7S23993   1.762   0.292   4.091
  194DOPC   C2823994   1.889   0.122   4.153
  194DOPC   H8R23995   1.979   0.072   4.112
  194DOPC   H8S23996   1.815   0.039   4.167
  194DOPC   C2923997   1.922   0.178   4.289
  194DOPC   H9R23998   2.012   0.241   4.295
  194DOPC  C21023999   1.838   0.175   4.394
  194DOPC  H10R24000   1.863   0.227   4.487
  194DOPC  C21124001   1.699   0.115   4.389
  194DOPC  H11R24002   1.659   0.105   4.492
  194DOPC  H11S24003   1.698   0.013   4.345
  194DOPC  C21224004   1.609   0.210   4.305
  194DOPC  H12R24005   1.504   0.193   4.338
  194DOPC  H12S24006   1.612   0.181   4.199
  194DOPC  C21324007   1.642   0.363   4.318
  194DOPC  H13R24008   1.602   0.426   4.238
  194DOPC  H13S24009   1.749   0.387   4.316
  194DOPC  C21424010   1.583   0.397   4.452
  194DOPC  H14R24011   1.630   0.318   4.513
  194DOPC  H14S24012   1.472   0.380   4.447
  194DOPC  C21524013   1.611   0.519   4.537
  194DOPC  H15R24014   1.584   0.489   4.640
  194DOPC  H15S24015   1.534   0.593   4.519
  194DOPC  C21624016   1.754   0.572   4.538
  194DOPC  H16R24017   1.747   0.683   4.551
  194DOPC  H16S24018   1.807   0.554   4.443
  194DOPC  C21724019   1.827   0.519   4.661
  194DOPC  H17R24020   1.887   0.428   4.640
  194DOPC  H17S24021   1.750   0.490   4.736
  194DOPC  C21824022   1.905   0.625   4.733
  194DOPC  H18R24023   1.915   0.602   4.841
  194DOPC  H18S24024   1.849   0.721   4.728
  194DOPC  H18T24025   2.006   0.637   4.689
  194DOPC   C3324026   1.631  -0.118   3.642
  194DOPC   H3X24027   1.628  -0.032   3.712
  194DOPC   H3Y24028   1.729  -0.166   3.655
  194DOPC   C3424029   1.524  -0.220   3.684
  194DOPC   H4X24030   1.556  -0.319   3.643
  194DOPC   H4Y24031   1.426  -0.195   3.636
  194DOPC   C3524032   1.502  -0.226   3.836
  194DOPC   H5X24033   1.597  -0.199   3.885
  194DOPC   H5Y24034   1.472  -0.329   3.866
  194DOPC   C3624035   1.398  -0.127   3.890
  194DOPC   H6X24036   1.434  -0.024   3.873
  194DOPC   H6Y24037   1.312  -0.139   3.825
  194DOPC   C3724038   1.341  -0.146   4.032
  194DOPC   H7X24039   1.285  -0.057   4.067
  194DOPC   H7Y24040   1.270  -0.231   4.027
  194DOPC   C3824041   1.447  -0.181   4.135
  194DOPC   H8X24042   1.499  -0.091   4.173
  194DOPC   H8Y24043   1.515  -0.245   4.076
  194DOPC   C3924044   1.395  -0.272   4.240
  194DOPC   H9X24045   1.346  -0.361   4.196
  194DOPC  C31024046   1.407  -0.259   4.374
  194DOPC  H10X24047   1.371  -0.342   4.437
  194DOPC  C31124048   1.479  -0.147   4.450
  194DOPC  H11X24049   1.470  -0.051   4.395
  194DOPC  H11Y24050   1.589  -0.156   4.466
  194DOPC  C31224051   1.434  -0.139   4.594
  194DOPC  H12X24052   1.386  -0.235   4.621
  194DOPC  H12Y24053   1.359  -0.059   4.591
  194DOPC  C31324054   1.543  -0.111   4.699
  194DOPC  H13X24055   1.605  -0.203   4.697
  194DOPC  H13Y24056   1.604  -0.024   4.668
  194DOPC  C31424057   1.492  -0.089   4.845
  194DOPC  H14X24058   1.403  -0.025   4.831
  194DOPC  H14Y24059   1.458  -0.187   4.884
  194DOPC  C31524060   1.577  -0.019   4.957
  194DOPC  H15X24061   1.569   0.090   4.948
  194DOPC  H15Y24062   1.685  -0.033   4.961
  194DOPC  C31624063   1.538  -0.056   5.101
  194DOPC  H16X24064   1.479  -0.150   5.100
  194DOPC  H16Y24065   1.629  -0.064   5.164
  194DOPC  C31724066   1.461   0.055   5.163
  194DOPC  H17X24067   1.431   0.056   5.269
  194DOPC  H17Y24068   1.529   0.143   5.151
  194DOPC  C31824069   1.339   0.060   5.079
  194DOPC  H18X24070   1.374   0.140   5.010
  194DOPC  H18Y24071   1.325  -0.036   5.024
  194DOPC  H18Z24072   1.244   0.089   5.128
  195DOPC     N24073   5.699   7.563   3.087
  195DOPC   C1224074   5.695   7.473   3.210
  195DOPC  H12A24075   5.608   7.410   3.201
  195DOPC  H12B24076   5.683   7.535   3.299
  195DOPC   C1324077   5.591   7.665   3.096
  195DOPC  H13A24078   5.492   7.619   3.099
  195DOPC  H13B24079   5.602   7.729   3.182
  195DOPC  H13C24080   5.587   7.726   3.006
  195DOPC   C1424081   5.677   7.482   2.963
  195DOPC  H14A24082   5.696   7.540   2.874
  195DOPC  H14B24083   5.749   7.400   2.964
  195DOPC  H14C24084   5.577   7.441   2.959
  195DOPC   C1524085   5.834   7.625   3.074
  195DOPC  H15A24086   5.860   7.685   3.160
  195DOPC  H15B24087   5.842   7.686   2.984
  195DOPC  H15C24088   5.909   7.547   3.060
  195DOPC   C1124089   5.814   7.379   3.239
  195DOPC  H11A24090   5.906   7.437   3.265
  195DOPC  H11B24091   5.786   7.318   3.328
  195DOPC     P24092   5.973   7.262   3.064
  195DOPC   O1324093   5.999   7.375   2.973
  195DOPC   O1424094   5.960   7.128   3.002
  195DOPC   O1224095   5.833   7.290   3.131
  195DOPC   O1124096   6.077   7.259   3.182
  195DOPC    C124097   6.185   7.352   3.196
  195DOPC    HA24098   6.150   7.456   3.180
  195DOPC    HB24099   6.267   7.330   3.124
  195DOPC    C224100   6.242   7.344   3.340
  195DOPC    HS24101   6.304   7.250   3.342
  195DOPC   O2124102   6.130   7.346   3.431
  195DOPC   C2124103   6.104   7.226   3.479
  195DOPC   O2224104   6.180   7.131   3.473
  195DOPC   C2224105   5.968   7.223   3.546
  195DOPC   H2R24106   5.897   7.274   3.480
  195DOPC   H2S24107   5.979   7.281   3.640
  195DOPC    C324108   6.336   7.458   3.381
  195DOPC    HX24109   6.427   7.460   3.317
  195DOPC    HY24110   6.371   7.433   3.485
  195DOPC   O3124111   6.267   7.584   3.372
  195DOPC   C3124112   6.243   7.647   3.487
  195DOPC   O3224113   6.292   7.619   3.594
  195DOPC   C3224114   6.142   7.759   3.464
  195DOPC   H2X24115   6.154   7.833   3.546
  195DOPC   H2Y24116   6.168   7.808   3.368
  195DOPC   C2324117   5.914   7.081   3.579
  195DOPC   H3R24118   5.988   7.029   3.645
  195DOPC   H3S24119   5.905   7.019   3.486
  195DOPC   C2424120   5.777   7.085   3.650
  195DOPC   H4R24121   5.751   6.984   3.686
  195DOPC   H4S24122   5.700   7.113   3.575
  195DOPC   C2524123   5.768   7.186   3.765
  195DOPC   H5R24124   5.669   7.177   3.815
  195DOPC   H5S24125   5.775   7.289   3.724
  195DOPC   C2624126   5.877   7.172   3.871
  195DOPC   H6R24127   5.867   7.264   3.931
  195DOPC   H6S24128   5.979   7.178   3.829
  195DOPC   C2724129   5.864   7.041   3.950
  195DOPC   H7R24130   5.959   6.984   3.941
  195DOPC   H7S24131   5.783   6.977   3.910
  195DOPC   C2824132   5.839   7.058   4.100
  195DOPC   H8R24133   5.925   7.006   4.145
  195DOPC   H8S24134   5.749   7.001   4.133
  195DOPC   C2924135   5.843   7.195   4.157
  195DOPC   H9R24136   5.750   7.249   4.136
  195DOPC  C21024137   5.952   7.273   4.173
  195DOPC  H10R24138   5.935   7.361   4.234
  195DOPC  C21124139   6.097   7.248   4.137
  195DOPC  H11R24140   6.103   7.178   4.050
  195DOPC  H11S24141   6.159   7.207   4.219
  195DOPC  C21224142   6.169   7.380   4.106
  195DOPC  H12R24143   6.121   7.426   4.017
  195DOPC  H12S24144   6.275   7.359   4.077
  195DOPC  C21324145   6.168   7.481   4.223
  195DOPC  H13R24146   6.084   7.461   4.292
  195DOPC  H13S24147   6.145   7.578   4.177
  195DOPC  C21424148   6.294   7.485   4.312
  195DOPC  H14R24149   6.381   7.519   4.252
  195DOPC  H14S24150   6.316   7.382   4.348
  195DOPC  C21524151   6.286   7.577   4.436
  195DOPC  H15R24152   6.295   7.680   4.398
  195DOPC  H15S24153   6.375   7.561   4.500
  195DOPC  C21624154   6.158   7.568   4.522
  195DOPC  H16R24155   6.149   7.465   4.562
  195DOPC  H16S24156   6.070   7.588   4.457
  195DOPC  C21724157   6.146   7.669   4.639
  195DOPC  H17R24158   6.050   7.651   4.693
  195DOPC  H17S24159   6.136   7.771   4.596
  195DOPC  C21824160   6.259   7.666   4.743
  195DOPC  H18R24161   6.249   7.753   4.813
  195DOPC  H18S24162   6.358   7.674   4.695
  195DOPC  H18T24163   6.256   7.573   4.803
  195DOPC   C3324164   5.996   7.706   3.458
  195DOPC   H3X24165   5.991   7.608   3.406
  195DOPC   H3Y24166   5.939   7.778   3.395
  195DOPC   C3424167   5.925   7.698   3.595
  195DOPC   H4X24168   5.816   7.690   3.576
  195DOPC   H4Y24169   5.942   7.793   3.651
  195DOPC   C3524170   5.967   7.579   3.681
  195DOPC   H5X24171   6.073   7.592   3.714
  195DOPC   H5Y24172   5.963   7.488   3.618
  195DOPC   C3624173   5.881   7.556   3.807
  195DOPC   H6X24174   5.775   7.539   3.780
  195DOPC   H6Y24175   5.919   7.462   3.855
  195DOPC   C3724176   5.892   7.668   3.911
  195DOPC   H7X24177   6.000   7.695   3.920
  195DOPC   H7Y24178   5.838   7.759   3.877
  195DOPC   C3824179   5.846   7.628   4.053
  195DOPC   H8X24180   5.890   7.701   4.125
  195DOPC   H8Y24181   5.892   7.530   4.076
  195DOPC   C3924182   5.696   7.625   4.076
  195DOPC   H9X24183   5.635   7.671   3.996
  195DOPC  C31024184   5.635   7.566   4.181
  195DOPC  H10X24185   5.525   7.564   4.186
  195DOPC  C31124186   5.706   7.493   4.293
  195DOPC  H11X24187   5.816   7.502   4.281
  195DOPC  H11Y24188   5.679   7.385   4.288
  195DOPC  C31224189   5.681   7.532   4.439
  195DOPC  H12X24190   5.573   7.520   4.463
  195DOPC  H12Y24191   5.710   7.638   4.457
  195DOPC  C31324192   5.763   7.440   4.532
  195DOPC  H13X24193   5.712   7.342   4.538
  195DOPC  H13Y24194   5.864   7.421   4.488
  195DOPC  C31424195   5.783   7.496   4.673
  195DOPC  H14X24196   5.839   7.422   4.734
  195DOPC  H14Y24197   5.845   7.588   4.666
  195DOPC  C31524198   5.650   7.531   4.742
  195DOPC  H15X24199   5.588   7.439   4.749
  195DOPC  H15Y24200   5.594   7.604   4.679
  195DOPC  C31624201   5.668   7.591   4.882
  195DOPC  H16X24202   5.728   7.685   4.876
  195DOPC  H16Y24203   5.567   7.618   4.920
  195DOPC  C31724204   5.734   7.494   4.980
  195DOPC  H17X24205   5.691   7.393   4.963
  195DOPC  H17Y24206   5.843   7.488   4.958
  195DOPC  C31824207   5.714   7.532   5.127
  195DOPC  H18X24208   5.757   7.455   5.194
  195DOPC  H18Y24209   5.763   7.630   5.149
  195DOPC  H18Z24210   5.606   7.542   5.150
  196DOPC     N24211   0.785   1.147   2.940
  196DOPC   C1224212   0.921   1.088   2.974
  196DOPC  H12A24213   0.981   1.168   3.014
  196DOPC  H12B24214   0.971   1.053   2.885
  196DOPC   C1324215   0.685   1.035   2.932
  196DOPC  H13A24216   0.724   0.954   2.873
  196DOPC  H13B24217   0.670   0.992   3.031
  196DOPC  H13C24218   0.591   1.067   2.891
  196DOPC   C1424219   0.792   1.222   2.811
  196DOPC  H14A24220   0.818   1.151   2.731
  196DOPC  H14B24221   0.697   1.265   2.780
  196DOPC  H14C24222   0.867   1.300   2.810
  196DOPC   C1524223   0.738   1.231   3.055
  196DOPC  H15A24224   0.636   1.265   3.045
  196DOPC  H15B24225   0.804   1.313   3.076
  196DOPC  H15C24226   0.738   1.166   3.144
  196DOPC   C1124227   0.921   0.972   3.076
  196DOPC  H11A24228   0.882   0.879   3.030
  196DOPC  H11B24229   1.025   0.952   3.111
  196DOPC     P24230   0.770   0.914   3.284
  196DOPC   O1324231   0.706   1.002   3.385
  196DOPC   O1424232   0.869   0.815   3.328
  196DOPC   O1224233   0.842   1.012   3.186
  196DOPC   O1124234   0.660   0.847   3.190
  196DOPC    C124235   0.628   0.707   3.201
  196DOPC    HA24236   0.701   0.650   3.264
  196DOPC    HB24237   0.634   0.662   3.100
  196DOPC    C224238   0.485   0.684   3.258
  196DOPC    HS24239   0.413   0.723   3.183
  196DOPC   O2124240   0.477   0.747   3.385
  196DOPC   C2124241   0.416   0.860   3.384
  196DOPC   O2224242   0.366   0.917   3.288
  196DOPC   C2224243   0.399   0.905   3.528
  196DOPC   H2R24244   0.303   0.864   3.563
  196DOPC   H2S24245   0.392   1.015   3.521
  196DOPC    C324246   0.442   0.537   3.284
  196DOPC    HX24247   0.431   0.485   3.187
  196DOPC    HY24248   0.342   0.538   3.333
  196DOPC   O3124249   0.542   0.472   3.364
  196DOPC   C3124250   0.537   0.497   3.493
  196DOPC   O3224251   0.440   0.534   3.557
  196DOPC   C3224252   0.674   0.473   3.553
  196DOPC   H2X24253   0.653   0.455   3.659
  196DOPC   H2Y24254   0.716   0.381   3.509
  196DOPC   C2324255   0.513   0.866   3.625
  196DOPC   H3R24256   0.605   0.836   3.572
  196DOPC   H3S24257   0.482   0.783   3.692
  196DOPC   C2424258   0.547   0.990   3.705
  196DOPC   H4R24259   0.461   1.006   3.773
  196DOPC   H4S24260   0.559   1.076   3.636
  196DOPC   C2524261   0.674   0.982   3.787
  196DOPC   H5R24262   0.763   0.969   3.722
  196DOPC   H5S24263   0.665   0.897   3.858
  196DOPC   C2624264   0.684   1.109   3.870
  196DOPC   H6R24265   0.596   1.105   3.938
  196DOPC   H6S24266   0.676   1.198   3.804
  196DOPC   C2724267   0.809   1.118   3.953
  196DOPC   H7R24268   0.817   1.220   3.998
  196DOPC   H7S24269   0.898   1.102   3.887
  196DOPC   C2824270   0.808   1.014   4.064
  196DOPC   H8R24271   0.908   1.029   4.107
  196DOPC   H8S24272   0.800   0.910   4.026
  196DOPC   C2924273   0.708   1.039   4.171
  196DOPC   H9R24274   0.741   1.116   4.242
  196DOPC  C21024275   0.596   0.972   4.199
  196DOPC  H10R24276   0.542   1.002   4.289
  196DOPC  C21124277   0.531   0.852   4.136
  196DOPC  H11R24278   0.560   0.838   4.030
  196DOPC  H11S24279   0.421   0.862   4.141
  196DOPC  C21224280   0.574   0.732   4.220
  196DOPC  H12R24281   0.679   0.704   4.196
  196DOPC  H12S24282   0.510   0.644   4.195
  196DOPC  C21324283   0.562   0.756   4.372
  196DOPC  H13R24284   0.455   0.776   4.395
  196DOPC  H13S24285   0.623   0.841   4.409
  196DOPC  C21424286   0.609   0.637   4.450
  196DOPC  H14R24287   0.719   0.641   4.463
  196DOPC  H14S24288   0.589   0.545   4.391
  196DOPC  C21524289   0.542   0.634   4.587
  196DOPC  H15R24290   0.492   0.537   4.603
  196DOPC  H15S24291   0.467   0.715   4.596
  196DOPC  C21624292   0.645   0.642   4.696
  196DOPC  H16R24293   0.696   0.740   4.687
  196DOPC  H16S24294   0.719   0.563   4.673
  196DOPC  C21724295   0.589   0.621   4.837
  196DOPC  H17R24296   0.653   0.678   4.909
  196DOPC  H17S24297   0.594   0.514   4.864
  196DOPC  C21824298   0.444   0.664   4.853
  196DOPC  H18R24299   0.417   0.668   4.960
  196DOPC  H18S24300   0.373   0.598   4.801
  196DOPC  H18T24301   0.431   0.765   4.808
  196DOPC   C3324302   0.772   0.592   3.530
  196DOPC   H3X24303   0.716   0.685   3.506
  196DOPC   H3Y24304   0.833   0.571   3.439
  196DOPC   C3424305   0.867   0.622   3.646
  196DOPC   H4X24306   0.927   0.713   3.620
  196DOPC   H4Y24307   0.938   0.537   3.655
  196DOPC   C3524308   0.798   0.647   3.780
  196DOPC   H5X24309   0.709   0.582   3.795
  196DOPC   H5Y24310   0.759   0.749   3.780
  196DOPC   C3624311   0.889   0.625   3.899
  196DOPC   H6X24312   0.821   0.610   3.987
  196DOPC   H6Y24313   0.953   0.536   3.891
  196DOPC   C3724314   0.984   0.739   3.930
  196DOPC   H7X24315   1.078   0.727   3.873
  196DOPC   H7Y24316   0.941   0.837   3.902
  196DOPC   C3824317   1.013   0.724   4.079
  196DOPC   H8X24318   1.075   0.633   4.090
  196DOPC   H8Y24319   0.919   0.709   4.136
  196DOPC   C3924320   1.087   0.842   4.127
  196DOPC   H9X24321   1.158   0.873   4.051
  196DOPC  C31024322   1.068   0.914   4.239
  196DOPC  H10X24323   1.128   1.004   4.257
  196DOPC  C31124324   0.962   0.887   4.341
  196DOPC  H11X24325   0.906   0.793   4.321
  196DOPC  H11Y24326   0.888   0.969   4.343
  196DOPC  C31224327   1.024   0.878   4.479
  196DOPC  H12X24328   1.061   0.977   4.513
  196DOPC  H12Y24329   1.110   0.809   4.474
  196DOPC  C31324330   0.928   0.819   4.580
  196DOPC  H13X24331   0.856   0.897   4.613
  196DOPC  H13Y24332   0.873   0.734   4.536
  196DOPC  C31424333   1.012   0.766   4.694
  196DOPC  H14X24334   1.065   0.675   4.659
  196DOPC  H14Y24335   1.090   0.843   4.714
  196DOPC  C31524336   0.939   0.741   4.827
  196DOPC  H15X24337   0.838   0.785   4.824
  196DOPC  H15Y24338   0.995   0.793   4.907
  196DOPC  C31624339   0.938   0.591   4.860
  196DOPC  H16X24340   0.865   0.543   4.795
  196DOPC  H16Y24341   1.033   0.547   4.828
  196DOPC  C31724342   0.913   0.558   5.008
  196DOPC  H17X24343   0.961   0.640   5.066
  196DOPC  H17Y24344   0.804   0.566   5.027
  196DOPC  C31824345   0.965   0.423   5.059
  196DOPC  H18X24346   0.945   0.339   4.993
  196DOPC  H18Y24347   1.073   0.420   5.070
  196DOPC  H18Z24348   0.923   0.394   5.156
  197DOPC     N24349   1.300   7.369   2.948
  197DOPC   C1224350   1.363   7.429   3.074
  197DOPC  H12A24351   1.287   7.477   3.133
  197DOPC  H12B24352   1.438   7.502   3.045
  197DOPC   C1324353   1.193   7.269   2.981
  197DOPC  H13A24354   1.154   7.222   2.891
  197DOPC  H13B24355   1.233   7.190   3.044
  197DOPC  H13C24356   1.107   7.311   3.032
  197DOPC   C1424357   1.409   7.294   2.875
  197DOPC  H14A24358   1.441   7.209   2.936
  197DOPC  H14B24359   1.376   7.260   2.777
  197DOPC  H14C24360   1.497   7.356   2.863
  197DOPC   C1524361   1.246   7.476   2.862
  197DOPC  H15A24362   1.153   7.516   2.902
  197DOPC  H15B24363   1.227   7.437   2.762
  197DOPC  H15C24364   1.319   7.556   2.848
  197DOPC   C1124365   1.439   7.332   3.165
  197DOPC  H11A24366   1.437   7.373   3.270
  197DOPC  H11B24367   1.383   7.236   3.164
  197DOPC     P24368   1.650   7.200   3.205
  197DOPC   O1324369   1.629   7.227   3.348
  197DOPC   O1424370   1.789   7.188   3.157
  197DOPC   O1224371   1.575   7.315   3.122
  197DOPC   O1124372   1.565   7.076   3.155
  197DOPC    C124373   1.538   6.958   3.230
  197DOPC    HA24374   1.600   6.952   3.322
  197DOPC    HB24375   1.562   6.870   3.168
  197DOPC    C224376   1.388   6.945   3.272
  197DOPC    HS24377   1.332   6.919   3.179
  197DOPC   O2124378   1.342   7.070   3.325
  197DOPC   C2124379   1.213   7.091   3.316
  197DOPC   O2224380   1.131   7.016   3.268
  197DOPC   C2224381   1.186   7.231   3.371
  197DOPC   H2R24382   1.079   7.251   3.375
  197DOPC   H2S24383   1.231   7.307   3.306
  197DOPC    C324384   1.366   6.830   3.375
  197DOPC    HX24385   1.420   6.741   3.336
  197DOPC    HY24386   1.257   6.804   3.376
  197DOPC   O3124387   1.420   6.867   3.505
  197DOPC   C3124388   1.332   6.880   3.605
  197DOPC   O3224389   1.218   6.839   3.602
  197DOPC   C3224390   1.385   6.957   3.727
  197DOPC   H2X24391   1.302   7.025   3.756
  197DOPC   H2Y24392   1.398   6.888   3.812
  197DOPC   C2324393   1.240   7.243   3.512
  197DOPC   H3R24394   1.351   7.251   3.513
  197DOPC   H3S24395   1.211   7.152   3.569
  197DOPC   C2424396   1.178   7.362   3.580
  197DOPC   H4R24397   1.069   7.373   3.555
  197DOPC   H4S24398   1.230   7.455   3.548
  197DOPC   C2524399   1.189   7.341   3.729
  197DOPC   H5R24400   1.166   7.436   3.780
  197DOPC   H5S24401   1.292   7.305   3.753
  197DOPC   C2624402   1.086   7.244   3.784
  197DOPC   H6R24403   1.118   7.141   3.760
  197DOPC   H6S24404   0.986   7.261   3.738
  197DOPC   C2724405   1.075   7.272   3.934
  197DOPC   H7R24406   1.016   7.365   3.950
  197DOPC   H7S24407   1.179   7.292   3.970
  197DOPC   C2824408   1.020   7.158   4.016
  197DOPC   H8R24409   0.921   7.124   3.983
  197DOPC   H8S24410   1.003   7.200   4.118
  197DOPC   C2924411   1.130   7.054   4.009
  197DOPC   H9R24412   1.152   7.011   3.910
  197DOPC  C21024413   1.187   7.001   4.116
  197DOPC  H10R24414   1.265   6.924   4.105
  197DOPC  C21124415   1.146   7.036   4.254
  197DOPC  H11R24416   1.136   6.938   4.302
  197DOPC  H11S24417   1.042   7.073   4.257
  197DOPC  C21224418   1.232   7.120   4.345
  197DOPC  H12R24419   1.193   7.117   4.450
  197DOPC  H12S24420   1.231   7.227   4.318
  197DOPC  C21324421   1.369   7.059   4.359
  197DOPC  H13R24422   1.421   7.132   4.422
  197DOPC  H13S24423   1.418   7.040   4.261
  197DOPC  C21424424   1.361   6.935   4.445
  197DOPC  H14R24425   1.428   6.857   4.408
  197DOPC  H14S24426   1.260   6.893   4.437
  197DOPC  C21524427   1.377   6.961   4.594
  197DOPC  H15R24428   1.315   7.048   4.624
  197DOPC  H15S24429   1.483   6.982   4.620
  197DOPC  C21624430   1.320   6.836   4.660
  197DOPC  H16R24431   1.370   6.746   4.618
  197DOPC  H16S24432   1.212   6.831   4.633
  197DOPC  C21724433   1.328   6.840   4.809
  197DOPC  H17R24434   1.298   6.943   4.837
  197DOPC  H17S24435   1.432   6.821   4.842
  197DOPC  C21824436   1.231   6.746   4.879
  197DOPC  H18R24437   1.252   6.640   4.855
  197DOPC  H18S24438   1.127   6.770   4.850
  197DOPC  H18T24439   1.237   6.758   4.988
  197DOPC   C3324440   1.510   7.043   3.697
  197DOPC   H3X24441   1.474   7.126   3.632
  197DOPC   H3Y24442   1.581   6.984   3.635
  197DOPC   C3424443   1.588   7.102   3.816
  197DOPC   H4X24444   1.526   7.107   3.908
  197DOPC   H4Y24445   1.614   7.206   3.788
  197DOPC   C3524446   1.722   7.027   3.837
  197DOPC   H5X24447   1.768   7.009   3.737
  197DOPC   H5Y24448   1.701   6.931   3.882
  197DOPC   C3624449   1.829   7.090   3.927
  197DOPC   H6X24450   1.862   7.180   3.870
  197DOPC   H6Y24451   1.782   7.117   4.025
  197DOPC   C3724452   1.954   7.004   3.950
  197DOPC   H7X24453   1.920   6.898   3.941
  197DOPC   H7Y24454   2.026   7.024   3.868
  197DOPC   C3824455   2.028   7.013   4.086
  197DOPC   H8X24456   2.075   6.913   4.100
  197DOPC   H8Y24457   1.954   7.015   4.166
  197DOPC   C3924458   2.139   7.113   4.114
  197DOPC   H9X24459   2.234   7.089   4.066
  197DOPC  C31024460   2.135   7.217   4.200
  197DOPC  H10X24461   2.223   7.274   4.226
  197DOPC  C31124462   2.016   7.249   4.283
  197DOPC  H11X24463   1.978   7.158   4.324
  197DOPC  H11Y24464   1.944   7.257   4.209
  197DOPC  C31224465   2.011   7.358   4.393
  197DOPC  H12X24466   1.931   7.435   4.381
  197DOPC  H12Y24467   2.100   7.414   4.365
  197DOPC  C31324468   1.972   7.290   4.530
  197DOPC  H13X24469   1.867   7.320   4.548
  197DOPC  H13Y24470   1.977   7.186   4.515
  197DOPC  C31424471   2.038   7.294   4.669
  197DOPC  H14X24472   2.148   7.285   4.672
  197DOPC  H14Y24473   2.018   7.400   4.677
  197DOPC  C31524474   1.958   7.238   4.796
  197DOPC  H15X24475   1.854   7.255   4.765
  197DOPC  H15Y24476   1.997   7.293   4.885
  197DOPC  C31624477   1.909   7.102   4.855
  197DOPC  H16X24478   1.854   7.042   4.778
  197DOPC  H16Y24479   1.988   7.037   4.899
  197DOPC  C31724480   1.805   7.124   4.964
  197DOPC  H17X24481   1.854   7.160   5.057
  197DOPC  H17Y24482   1.729   7.200   4.934
  197DOPC  C31824483   1.734   6.993   4.989
  197DOPC  H18X24484   1.804   6.907   4.987
  197DOPC  H18Y24485   1.687   6.997   5.088
  197DOPC  H18Z24486   1.656   6.974   4.912
  198DOPC     N24487   7.126   6.725   2.982
  198DOPC   C1224488   7.065   6.612   2.898
  198DOPC  H12A24489   7.118   6.607   2.804
  198DOPC  H12B24490   6.961   6.636   2.874
  198DOPC   C1324491   7.053   6.738   3.112
  198DOPC  H13A24492   6.947   6.749   3.099
  198DOPC  H13B24493   7.064   6.645   3.169
  198DOPC  H13C24494   7.090   6.816   3.176
  198DOPC   C1424495   7.113   6.850   2.902
  198DOPC  H14A24496   7.013   6.862   2.861
  198DOPC  H14B24497   7.129   6.936   2.966
  198DOPC  H14C24498   7.186   6.855   2.823
  198DOPC   C1524499   7.268   6.689   3.018
  198DOPC  H15A24500   7.337   6.685   2.935
  198DOPC  H15B24501   7.267   6.590   3.066
  198DOPC  H15C24502   7.309   6.757   3.093
  198DOPC   C1124503   7.060   6.473   2.963
  198DOPC  H11A24504   7.020   6.399   2.890
  198DOPC  H11B24505   7.161   6.441   2.996
  198DOPC     P24506   6.896   6.376   3.150
  198DOPC   O1324507   6.988   6.298   3.233
  198DOPC   O1424508   6.802   6.314   3.054
  198DOPC   O1224509   6.976   6.485   3.074
  198DOPC   O1124510   6.812   6.477   3.235
  198DOPC    C124511   6.740   6.582   3.168
  198DOPC    HA24512   6.654   6.540   3.110
  198DOPC    HB24513   6.804   6.644   3.103
  198DOPC    C224514   6.686   6.664   3.282
  198DOPC    HS24515   6.778   6.690   3.343
  198DOPC   O2124516   6.595   6.578   3.347
  198DOPC   C2124517   6.630   6.545   3.466
  198DOPC   O2224518   6.743   6.538   3.512
  198DOPC   C2224519   6.499   6.519   3.535
  198DOPC   H2R24520   6.478   6.412   3.534
  198DOPC   H2S24521   6.416   6.557   3.472
  198DOPC    C324522   6.607   6.793   3.268
  198DOPC    HX24523   6.501   6.772   3.240
  198DOPC    HY24524   6.649   6.865   3.195
  198DOPC   O3124525   6.613   6.836   3.404
  198DOPC   C3124526   6.601   6.958   3.446
  198DOPC   O3224527   6.569   7.056   3.381
  198DOPC   C3224528   6.624   6.957   3.596
  198DOPC   H2X24529   6.592   7.055   3.636
  198DOPC   H2Y24530   6.561   6.877   3.639
  198DOPC   C2324531   6.488   6.591   3.671
  198DOPC   H3R24532   6.406   6.549   3.732
  198DOPC   H3S24533   6.456   6.690   3.634
  198DOPC   C2424534   6.612   6.631   3.753
  198DOPC   H4R24535   6.575   6.721   3.806
  198DOPC   H4S24536   6.698   6.664   3.692
  198DOPC   C2524537   6.661   6.538   3.863
  198DOPC   H5R24538   6.627   6.436   3.849
  198DOPC   H5S24539   6.616   6.580   3.956
  198DOPC   C2624540   6.812   6.526   3.884
  198DOPC   H6R24541   6.866   6.542   3.788
  198DOPC   H6S24542   6.835   6.422   3.918
  198DOPC   C2724543   6.853   6.622   3.994
  198DOPC   H7R24544   6.785   6.611   4.082
  198DOPC   H7S24545   6.838   6.724   3.955
  198DOPC   C2824546   6.995   6.598   4.042
  198DOPC   H8R24547   7.054   6.550   3.961
  198DOPC   H8S24548   6.990   6.527   4.128
  198DOPC   C2924549   7.057   6.728   4.078
  198DOPC   H9R24550   7.052   6.804   3.998
  198DOPC  C21024551   7.115   6.763   4.193
  198DOPC  H10R24552   7.163   6.859   4.188
  198DOPC  C21124553   7.136   6.682   4.320
  198DOPC  H11R24554   7.245   6.661   4.329
  198DOPC  H11S24555   7.085   6.584   4.309
  198DOPC  C21224556   7.092   6.736   4.459
  198DOPC  H12R24557   7.158   6.819   4.491
  198DOPC  H12S24558   7.106   6.654   4.533
  198DOPC  C21324559   6.945   6.779   4.466
  198DOPC  H13R24560   6.884   6.696   4.426
  198DOPC  H13S24561   6.928   6.867   4.399
  198DOPC  C21424562   6.893   6.814   4.608
  198DOPC  H14R24563   6.895   6.722   4.670
  198DOPC  H14S24564   6.787   6.846   4.598
  198DOPC  C21524565   6.968   6.925   4.682
  198DOPC  H15R24566   6.983   7.009   4.612
  198DOPC  H15S24567   7.069   6.888   4.712
  198DOPC  C21624568   6.894   6.979   4.806
  198DOPC  H16R24569   6.930   6.928   4.897
  198DOPC  H16S24570   6.785   6.957   4.795
  198DOPC  C21724571   6.909   7.130   4.826
  198DOPC  H17R24572   7.017   7.155   4.832
  198DOPC  H17S24573   6.863   7.156   4.925
  198DOPC  C21824574   6.841   7.211   4.716
  198DOPC  H18R24575   6.824   7.315   4.750
  198DOPC  H18S24576   6.742   7.166   4.691
  198DOPC  H18T24577   6.903   7.213   4.625
  198DOPC   C3324578   6.767   6.923   3.640
  198DOPC   H3X24579   6.835   7.001   3.601
  198DOPC   H3Y24580   6.799   6.824   3.600
  198DOPC   C3424581   6.781   6.920   3.793
  198DOPC   H4X24582   6.882   6.886   3.823
  198DOPC   H4Y24583   6.713   6.848   3.840
  198DOPC   C3524584   6.751   7.054   3.855
  198DOPC   H5X24585   6.644   7.080   3.838
  198DOPC   H5Y24586   6.813   7.132   3.806
  198DOPC   C3624587   6.777   7.049   4.004
  198DOPC   H6X24588   6.835   6.958   4.033
  198DOPC   H6Y24589   6.837   7.137   4.033
  198DOPC   C3724590   6.650   7.060   4.086
  198DOPC   H7X24591   6.683   7.110   4.180
  198DOPC   H7Y24592   6.574   7.123   4.036
  198DOPC   C3824593   6.595   6.924   4.122
  198DOPC   H8X24594   6.681   6.857   4.145
  198DOPC   H8Y24595   6.540   6.877   4.037
  198DOPC   C3924596   6.510   6.954   4.241
  198DOPC   H9X24597   6.438   7.037   4.231
  198DOPC  C31024598   6.513   6.881   4.352
  198DOPC  H10X24599   6.449   6.908   4.438
  198DOPC  C31124600   6.600   6.762   4.368
  198DOPC  H11X24601   6.697   6.796   4.407
  198DOPC  H11Y24602   6.618   6.707   4.273
  198DOPC  C31224603   6.532   6.664   4.463
  198DOPC  H12X24604   6.453   6.608   4.410
  198DOPC  H12Y24605   6.485   6.718   4.548
  198DOPC  C31324606   6.633   6.566   4.521
  198DOPC  H13X24607   6.686   6.514   4.438
  198DOPC  H13Y24608   6.712   6.622   4.575
  198DOPC  C31424609   6.562   6.466   4.613
  198DOPC  H14X24610   6.485   6.413   4.553
  198DOPC  H14Y24611   6.635   6.391   4.649
  198DOPC  C31524612   6.494   6.526   4.737
  198DOPC  H15X24613   6.477   6.444   4.810
  198DOPC  H15Y24614   6.395   6.567   4.709
  198DOPC  C31624615   6.571   6.637   4.807
  198DOPC  H16X24616   6.581   6.727   4.743
  198DOPC  H16Y24617   6.513   6.668   4.897
  198DOPC  C31724618   6.707   6.589   4.850
  198DOPC  H17X24619   6.699   6.488   4.898
  198DOPC  H17Y24620   6.776   6.578   4.764
  198DOPC  C31824621   6.766   6.684   4.950
  198DOPC  H18X24622   6.707   6.685   5.043
  198DOPC  H18Y24623   6.869   6.651   4.970
  198DOPC  H18Z24624   6.769   6.787   4.909
  199DOPC     N24625   6.428   0.293   2.968
  199DOPC   C1224626   6.398   0.442   2.965
  199DOPC  H12A24627   6.399   0.475   2.862
  199DOPC  H12B24628   6.477   0.496   3.018
  199DOPC   C1324629   6.453   0.251   3.109
  199DOPC  H13A24630   6.537   0.307   3.151
  199DOPC  H13B24631   6.368   0.283   3.170
  199DOPC  H13C24632   6.469   0.145   3.118
  199DOPC   C1424633   6.545   0.257   2.882
  199DOPC  H14A24634   6.553   0.149   2.875
  199DOPC  H14B24635   6.533   0.297   2.782
  199DOPC  H14C24636   6.637   0.295   2.925
  199DOPC   C1524637   6.308   0.223   2.912
  199DOPC  H15A24638   6.295   0.250   2.807
  199DOPC  H15B24639   6.219   0.259   2.964
  199DOPC  H15C24640   6.314   0.116   2.919
  199DOPC   C1124641   6.264   0.488   3.029
  199DOPC  H11A24642   6.250   0.598   3.013
  199DOPC  H11B24643   6.179   0.441   2.975
  199DOPC     P24644   6.339   0.547   3.263
  199DOPC   O1324645   6.258   0.667   3.288
  199DOPC   O1424646   6.478   0.562   3.212
  199DOPC   O1224647   6.257   0.452   3.168
  199DOPC   O1124648   6.342   0.463   3.396
  199DOPC    C124649   6.379   0.526   3.518
  199DOPC    HA24650   6.305   0.498   3.596
  199DOPC    HB24651   6.381   0.638   3.513
  199DOPC    C224652   6.519   0.479   3.560
  199DOPC    HS24653   6.593   0.517   3.485
  199DOPC   O2124654   6.517   0.337   3.570
  199DOPC   C2124655   6.591   0.268   3.488
  199DOPC   O2224656   6.663   0.309   3.399
  199DOPC   C2224657   6.582   0.125   3.535
  199DOPC   H2R24658   6.615   0.059   3.452
  199DOPC   H2S24659   6.477   0.101   3.561
  199DOPC    C324660   6.555   0.535   3.699
  199DOPC    HX24661   6.563   0.645   3.692
  199DOPC    HY24662   6.656   0.492   3.723
  199DOPC   O3124663   6.453   0.498   3.794
  199DOPC   C3124664   6.498   0.477   3.916
  199DOPC   O3224665   6.613   0.484   3.952
  199DOPC   C3224666   6.380   0.454   4.009
  199DOPC   H2X24667   6.293   0.415   3.953
  199DOPC   H2Y24668   6.412   0.383   4.088
  199DOPC   C2324669   6.674   0.109   3.657
  199DOPC   H3R24670   6.775   0.150   3.637
  199DOPC   H3S24671   6.681   0.001   3.675
  199DOPC   C2424672   6.622   0.160   3.791
  199DOPC   H4R24673   6.603   0.269   3.788
  199DOPC   H4S24674   6.701   0.142   3.868
  199DOPC   C2524675   6.496   0.083   3.833
  199DOPC   H5R24676   6.510  -0.026   3.815
  199DOPC   H5S24677   6.410   0.116   3.771
  199DOPC   C2624678   6.467   0.105   3.980
  199DOPC   H6R24679   6.460   0.213   3.995
  199DOPC   H6S24680   6.551   0.069   4.044
  199DOPC   C2724681   6.336   0.042   4.027
  199DOPC   H7R24682   6.356  -0.064   4.055
  199DOPC   H7S24683   6.262   0.040   3.944
  199DOPC   C2824684   6.284   0.123   4.147
  199DOPC   H8R24685   6.371   0.171   4.198
  199DOPC   H8S24686   6.242   0.055   4.220
  199DOPC   C2924687   6.179   0.224   4.111
  199DOPC   H9R24688   6.170   0.247   4.003
  199DOPC  C21024689   6.095   0.281   4.199
  199DOPC  H10R24690   6.022   0.356   4.163
  199DOPC  C21124691   6.092   0.253   4.347
  199DOPC  H11R24692   6.145   0.158   4.372
  199DOPC  H11S24693   5.986   0.235   4.375
  199DOPC  C21224694   6.147   0.361   4.442
  199DOPC  H12R24695   6.098   0.347   4.541
  199DOPC  H12S24696   6.118   0.461   4.405
  199DOPC  C21324697   6.299   0.360   4.470
  199DOPC  H13R24698   6.323   0.455   4.523
  199DOPC  H13S24699   6.360   0.356   4.378
  199DOPC  C21424700   6.341   0.244   4.559
  199DOPC  H14R24701   6.332   0.151   4.502
  199DOPC  H14S24702   6.273   0.238   4.646
  199DOPC  C21524703   6.483   0.253   4.609
  199DOPC  H15R24704   6.552   0.260   4.521
  199DOPC  H15S24705   6.510   0.160   4.663
  199DOPC  C21624706   6.502   0.373   4.700
  199DOPC  H16R24707   6.505   0.466   4.640
  199DOPC  H16S24708   6.602   0.354   4.742
  199DOPC  C21724709   6.411   0.392   4.821
  199DOPC  H17R24710   6.304   0.372   4.801
  199DOPC  H17S24711   6.419   0.500   4.849
  199DOPC  C21824712   6.462   0.316   4.944
  199DOPC  H18R24713   6.423   0.364   5.036
  199DOPC  H18S24714   6.572   0.320   4.949
  199DOPC  H18T24715   6.430   0.210   4.940
  199DOPC   C3324716   6.347   0.585   4.079
  199DOPC   H3X24717   6.303   0.657   4.007
  199DOPC   H3Y24718   6.443   0.622   4.122
  199DOPC   C3424719   6.249   0.576   4.194
  199DOPC   H4X24720   6.280   0.489   4.254
  199DOPC   H4Y24721   6.148   0.556   4.154
  199DOPC   C3524722   6.248   0.701   4.284
  199DOPC   H5X24723   6.163   0.689   4.354
  199DOPC   H5Y24724   6.227   0.791   4.223
  199DOPC   C3624725   6.377   0.725   4.364
  199DOPC   H6X24726   6.407   0.630   4.413
  199DOPC   H6Y24727   6.454   0.754   4.290
  199DOPC   C3724728   6.367   0.838   4.469
  199DOPC   H7X24729   6.317   0.926   4.425
  199DOPC   H7Y24730   6.299   0.799   4.548
  199DOPC   C3824731   6.497   0.884   4.546
  199DOPC   H8X24732   6.528   0.795   4.604
  199DOPC   H8Y24733   6.458   0.960   4.617
  199DOPC   C3924734   6.625   0.944   4.493
  199DOPC   H9X24735   6.650   1.046   4.527
  199DOPC  C31024736   6.712   0.878   4.416
  199DOPC  H10X24737   6.803   0.929   4.381
  199DOPC  C31124738   6.693   0.735   4.372
  199DOPC  H11X24739   6.676   0.732   4.262
  199DOPC  H11Y24740   6.605   0.692   4.423
  199DOPC  C31224741   6.794   0.626   4.404
  199DOPC  H12X24742   6.891   0.644   4.356
  199DOPC  H12Y24743   6.749   0.531   4.369
  199DOPC  C31324744   6.816   0.609   4.552
  199DOPC  H13X24745   6.918   0.644   4.574
  199DOPC  H13Y24746   6.743   0.678   4.599
  199DOPC  C31424747   6.804   0.464   4.601
  199DOPC  H14X24748   6.712   0.418   4.562
  199DOPC  H14Y24749   6.890   0.403   4.569
  199DOPC  C31524750   6.823   0.451   4.750
  199DOPC  H15X24751   6.932   0.462   4.769
  199DOPC  H15Y24752   6.798   0.349   4.785
  199DOPC  C31624753   6.746   0.558   4.827
  199DOPC  H16X24754   6.746   0.660   4.785
  199DOPC  H16Y24755   6.639   0.532   4.837
  199DOPC  C31724756   6.813   0.575   4.960
  199DOPC  H17X24757   6.875   0.486   4.980
  199DOPC  H17Y24758   6.879   0.665   4.953
  199DOPC  C31824759   6.709   0.591   5.067
  199DOPC  H18X24760   6.757   0.577   5.165
  199DOPC  H18Y24761   6.661   0.691   5.061
  199DOPC  H18Z24762   6.629   0.514   5.057
  200DOPC     N24763   1.202   0.204   2.937
  200DOPC   C1224764   1.204   0.354   2.968
  200DOPC  H12A24765   1.155   0.403   2.883
  200DOPC  H12B24766   1.306   0.389   2.975
  200DOPC   C1324767   1.253   0.124   3.053
  200DOPC  H13A24768   1.193   0.147   3.141
  200DOPC  H13B24769   1.244   0.018   3.037
  200DOPC  H13C24770   1.356   0.146   3.076
  200DOPC   C1424771   1.279   0.181   2.812
  200DOPC  H14A24772   1.385   0.195   2.829
  200DOPC  H14B24773   1.263   0.080   2.774
  200DOPC  H14C24774   1.249   0.249   2.733
  200DOPC   C1524775   1.064   0.149   2.909
  200DOPC  H15A24776   1.017   0.192   2.821
  200DOPC  H15B24777   0.997   0.172   2.993
  200DOPC  H15C24778   1.062   0.042   2.900
  200DOPC   C1124779   1.128   0.405   3.091
  200DOPC  H11A24780   1.179   0.380   3.187
  200DOPC  H11B24781   1.112   0.515   3.088
  200DOPC     P24782   0.880   0.340   3.165
  200DOPC   O1324783   0.827   0.202   3.167
  200DOPC   O1424784   0.793   0.450   3.119
  200DOPC   O1224785   1.006   0.342   3.077
  200DOPC   O1124786   0.945   0.368   3.307
  200DOPC    C124787   1.005   0.255   3.373
  200DOPC    HA24788   1.090   0.291   3.434
  200DOPC    HB24789   1.050   0.181   3.303
  200DOPC    C224790   0.902   0.182   3.463
  200DOPC    HS24791   0.801   0.188   3.415
  200DOPC   O2124792   0.902   0.251   3.590
  200DOPC   C2124793   0.843   0.206   3.700
  200DOPC   O2224794   0.790   0.099   3.715
  200DOPC   C2224795   0.858   0.313   3.809
  200DOPC   H2R24796   0.770   0.379   3.803
  200DOPC   H2S24797   0.946   0.373   3.781
  200DOPC    C324798   0.941   0.032   3.470
  200DOPC    HX24799   0.945  -0.005   3.364
  200DOPC    HY24800   0.862  -0.026   3.522
  200DOPC   O3124801   1.072   0.018   3.527
  200DOPC   C3124802   1.066  -0.024   3.653
  200DOPC   O3224803   0.985  -0.101   3.700
  200DOPC   C3224804   1.173   0.046   3.733
  200DOPC   H2X24805   1.161   0.019   3.840
  200DOPC   H2Y24806   1.265   0.000   3.699
  200DOPC   C2324807   0.873   0.270   3.958
  200DOPC   H3R24808   0.773   0.253   4.002
  200DOPC   H3S24809   0.919   0.355   4.014
  200DOPC   C2424810   0.958   0.146   3.985
  200DOPC   H4R24811   1.052   0.175   4.037
  200DOPC   H4S24812   0.984   0.097   3.890
  200DOPC   C2524813   0.887   0.040   4.068
  200DOPC   H5R24814   0.834  -0.025   3.995
  200DOPC   H5S24815   0.815   0.089   4.136
  200DOPC   C2624816   0.982  -0.041   4.156
  200DOPC   H6R24817   1.071  -0.071   4.097
  200DOPC   H6S24818   0.931  -0.133   4.190
  200DOPC   C2724819   1.021   0.044   4.278
  200DOPC   H7R24820   0.935   0.050   4.349
  200DOPC   H7S24821   1.038   0.146   4.241
  200DOPC   C2824822   1.145   0.000   4.354
  200DOPC   H8R24823   1.153   0.057   4.449
  200DOPC   H8S24824   1.237   0.026   4.296
  200DOPC   C2924825   1.136  -0.148   4.375
  200DOPC   H9R24826   1.160  -0.205   4.284
  200DOPC  C21024827   1.097  -0.216   4.483
  200DOPC  H10R24828   1.095  -0.326   4.477
  200DOPC  C21124829   1.049  -0.158   4.612
  200DOPC  H11R24830   0.958  -0.211   4.644
  200DOPC  H11S24831   1.013  -0.056   4.591
  200DOPC  C21224832   1.131  -0.164   4.742
  200DOPC  H12R24833   1.240  -0.176   4.731
  200DOPC  H12S24834   1.097  -0.250   4.805
  200DOPC  C21324835   1.114  -0.033   4.816
  200DOPC  H13R24836   1.183  -0.038   4.901
  200DOPC  H13S24837   1.015  -0.031   4.864
  200DOPC  C21424838   1.152   0.088   4.727
  200DOPC  H14R24839   1.073   0.126   4.664
  200DOPC  H14S24840   1.228   0.053   4.656
  200DOPC  C21524841   1.219   0.200   4.803
  200DOPC  H15R24842   1.279   0.137   4.864
  200DOPC  H15S24843   1.147   0.255   4.867
  200DOPC  C21624844   1.320   0.285   4.727
  200DOPC  H16R24845   1.351   0.376   4.777
  200DOPC  H16S24846   1.267   0.322   4.636
  200DOPC  C21724847   1.459   0.225   4.691
  200DOPC  H17R24848   1.466   0.304   4.618
  200DOPC  H17S24849   1.455   0.133   4.630
  200DOPC  C21824850   1.596   0.248   4.764
  200DOPC  H18R24851   1.669   0.301   4.700
  200DOPC  H18S24852   1.651   0.153   4.779
  200DOPC  H18T24853   1.593   0.307   4.857
  200DOPC   C3324854   1.171   0.198   3.712
  200DOPC   H3X24855   1.089   0.241   3.771
  200DOPC   H3Y24856   1.156   0.226   3.606
  200DOPC   C3424857   1.293   0.271   3.760
  200DOPC   H4X24858   1.282   0.380   3.739
  200DOPC   H4Y24859   1.382   0.235   3.706
  200DOPC   C3524860   1.316   0.244   3.907
  200DOPC   H5X24861   1.392   0.164   3.919
  200DOPC   H5Y24862   1.221   0.206   3.949
  200DOPC   C3624863   1.354   0.365   3.990
  200DOPC   H6X24864   1.456   0.399   3.964
  200DOPC   H6Y24865   1.283   0.449   3.976
  200DOPC   C3724866   1.353   0.317   4.134
  200DOPC   H7X24867   1.382   0.209   4.137
  200DOPC   H7Y24868   1.431   0.372   4.187
  200DOPC   C3824869   1.221   0.339   4.208
  200DOPC   H8X24870   1.212   0.256   4.281
  200DOPC   H8Y24871   1.136   0.333   4.137
  200DOPC   C3924872   1.223   0.469   4.282
  200DOPC   H9X24873   1.323   0.512   4.298
  200DOPC  C31024874   1.116   0.535   4.330
  200DOPC  H10X24875   1.131   0.634   4.374
  200DOPC  C31124876   0.974   0.491   4.321
  200DOPC  H11X24877   0.946   0.474   4.215
  200DOPC  H11Y24878   0.907   0.571   4.359
  200DOPC  C31224879   0.950   0.362   4.401
  200DOPC  H12X24880   1.027   0.287   4.377
  200DOPC  H12Y24881   0.852   0.319   4.370
  200DOPC  C31324882   0.953   0.378   4.553
  200DOPC  H13X24883   1.059   0.375   4.587
  200DOPC  H13Y24884   0.912   0.477   4.580
  200DOPC  C31424885   0.874   0.267   4.621
  200DOPC  H14X24886   0.774   0.264   4.581
  200DOPC  H14Y24887   0.909   0.167   4.594
  200DOPC  C31524888   0.859   0.287   4.771
  200DOPC  H15X24889   0.786   0.369   4.783
  200DOPC  H15Y24890   0.959   0.318   4.806
  200DOPC  C31624891   0.805   0.164   4.845
  200DOPC  H16X24892   0.712   0.140   4.793
  200DOPC  H16Y24893   0.873   0.082   4.827
  200DOPC  C31724894   0.762   0.175   4.992
  200DOPC  H17X24895   0.709   0.082   5.023
  200DOPC  H17Y24896   0.850   0.179   5.059
  200DOPC  C31824897   0.671   0.296   5.015
  200DOPC  H18X24898   0.665   0.323   5.122
  200DOPC  H18Y24899   0.711   0.384   4.963
  200DOPC  H18Z24900   0.569   0.276   4.973
  201SOD    SOD24901   7.232   1.902   7.529
  202SOD    SOD24902   6.580   6.403   2.469
  203SOD    SOD24903   7.052   1.849   9.961
  204SOD    SOD24904   7.373   6.963  -0.018
  205SOD    SOD24905   6.185   3.149   9.714
  206SOD    SOD24906   2.714   2.568   1.448
  207SOD    SOD24907   1.628   1.192   2.022
  208SOD    SOD24908   3.731   3.191   8.792
  209SOD    SOD24909   1.069   2.707   2.662
  210SOD    SOD24910   4.706   0.718   7.247
  211SOD    SOD24911   2.359   2.549   9.291
  212SOD    SOD24912   0.548   5.029   9.194
  213SOD    SOD24913   2.469   5.577   0.031
  214SOD    SOD24914   2.312   3.229   8.817
  215SOD    SOD24915   6.657   5.096   9.370
  216SOD    SOD24916   1.904   5.698   8.565
  217SOD    SOD24917   0.947   2.670   1.490
  218SOD    SOD24918   5.921   4.122   9.390
  219SOD    SOD24919   7.093   2.841   9.649
  220SOD    SOD24920   4.025   2.158   0.595
  221SOD    SOD24921   0.338   7.032   1.292
  222SOD    SOD24922   4.931   5.409   8.089
  223SOD    SOD24923   2.802   6.096   1.531
  224SOD    SOD24924   0.384   4.700   0.741
  225SOD    SOD24925   3.101   2.126   1.550
  226SOD    SOD24926   0.881   7.293   9.381
  227CLA    CLA24927   6.017   3.624   1.540
  228CLA    CLA24928   4.970   4.893   0.120
  229CLA    CLA24929   0.455   4.669   1.914
  230CLA    CLA24930   5.826   3.096   8.127
  231CLA    CLA24931   4.588   6.648   9.899
  232CLA    CLA24932   4.703   2.804   9.732
  233CLA    CLA24933   4.592   1.257   8.200
  234CLA    CLA24934   6.232   5.713   9.022
  235CLA    CLA24935   1.470   0.681   0.091
  236CLA    CLA24936   2.691   0.600   8.509
  237CLA    CLA24937   2.522   2.126   7.724
  238CLA    CLA24938   5.286   1.444   1.733
  239CLA    CLA24939   7.302   0.712   2.204
  240CLA    CLA24940   6.433   4.039   7.159
  241CLA    CLA24941   4.859   7.277   2.392
  242CLA    CLA24942   5.226   3.184   8.216
  243CLA    CLA24943   0.806   0.662   1.567
  244CLA    CLA24944   3.430   2.502   2.083
  245CLA    CLA24945   7.168   6.374   2.014
  246CLA    CLA24946   1.099   0.767   9.734
  247CLA    CLA24947   4.101   0.760   1.576
  248CLA    CLA24948   4.539   4.452   1.863
  249CLA    CLA24949   1.901   6.194   1.909
  250CLA    CLA24950   4.613   2.815   8.784
  251CLA    CLA24951   1.272   3.287   7.973
  252CLA    CLA24952   0.657   2.299   2.378
  253TIP3   OH224953   4.100   4.888   6.965
  253TIP3    H124954   4.097   4.800   6.923
  253TIP3    H224955   4.160   4.874   7.039
  254TIP3   OH224956   4.100   4.471   7.149
  254TIP3    H124957   4.027   4.514   7.196
  254TIP3    H224958   4.091   4.507   7.060
  255TIP3   OH224959   2.844   4.425   6.977
  255TIP3    H124960   2.870   4.495   7.038
  255TIP3    H224961   2.778   4.470   6.921
  256TIP3   OH224962   2.523   4.750   7.051
  256TIP3    H124963   2.442   4.759   7.000
  256TIP3    H224964   2.487   4.724   7.138
  257TIP3   OH224965   2.313   2.854   6.994
  257TIP3    H124966   2.332   2.903   7.075
  257TIP3    H224967   2.397   2.862   6.946
  258TIP3   OH224968   6.046   4.052   7.202
  258TIP3    H124969   6.077   4.142   7.183
  258TIP3    H224970   6.088   4.001   7.130
  259TIP3   OH224971   5.817   4.040   6.891
  259TIP3    H124972   5.888   4.102   6.868
  259TIP3    H224973   5.763   4.034   6.812
  260TIP3   OH224974   6.190   3.920   7.017
  260TIP3    H124975   6.271   3.939   7.069
  260TIP3    H224976   6.210   3.835   6.974
  261TIP3   OH224977   1.656   2.476   7.024
  261TIP3    H124978   1.723   2.463   6.956
  261TIP3    H224979   1.579   2.499   6.972
  262TIP3   OH224980   6.246   2.379   7.059
  262TIP3    H124981   6.174   2.398   6.995
  262TIP3    H224982   6.251   2.283   7.063
  263TIP3   OH224983   5.818   2.546   6.987
  263TIP3    H124984   5.831   2.635   7.023
  263TIP3    H224985   5.758   2.561   6.913
  264TIP3   OH224986   2.910   6.312   7.060
  264TIP3    H124987   2.911   6.274   7.149
  264TIP3    H224988   2.821   6.354   7.059
  265TIP3   OH224989   2.758   6.056   6.975
  265TIP3    H124990   2.712   6.006   7.045
  265TIP3    H224991   2.832   6.093   7.023
  266TIP3   OH224992   2.661   6.506   7.045
  266TIP3    H124993   2.630   6.597   7.026
  266TIP3    H224994   2.643   6.460   6.960
  267TIP3   OH224995   1.358   5.770   7.130
  267TIP3    H124996   1.398   5.683   7.119
  267TIP3    H224997   1.369   5.815   7.044
  268TIP3   OH224998   1.057   5.606   7.034
  268TIP3    H124999   1.124   5.572   7.095
  268TIP3    H225000   1.095   5.690   7.007
  269TIP3   OH225001   1.237   5.458   7.172
  269TIP3    H125002   1.242   5.447   7.075
  269TIP3    H225003   1.282   5.379   7.206
  270TIP3   OH225004   1.216   5.207   6.961
  270TIP3    H125005   1.176   5.221   7.048
  270TIP3    H225006   1.213   5.110   6.952
  271TIP3   OH225007   3.425   0.652   7.106
  271TIP3    H125008   3.408   0.742   7.139
  271TIP3    H225009   3.348   0.600   7.136
  272TIP3   OH225010   0.637   5.345   7.054
  272TIP3    H125011   0.668   5.254   7.050
  272TIP3    H225012   0.626   5.370   6.961
  273TIP3   OH225013   5.574   7.065   7.010
  273TIP3    H125014   5.488   7.107   6.990
  273TIP3    H225015   5.638   7.133   6.992
  274TIP3   OH225016   1.899   0.469   7.003
  274TIP3    H125017   1.914   0.454   7.098
  274TIP3    H225018   1.986   0.447   6.968
  275TIP3   OH225019   2.644   0.082   7.072
  275TIP3    H125020   2.727   0.110   7.111
  275TIP3    H225021   2.580   0.123   7.133
  276TIP3   OH225022   2.397   0.365   7.119
  276TIP3    H125023   2.433   0.442   7.164
  276TIP3    H225024   2.460   0.354   7.046
  277TIP3   OH225025   5.295   0.169   7.121
  277TIP3    H125026   5.254   0.147   7.036
  277TIP3    H225027   5.313   0.263   7.110
  278TIP3   OH225028   5.434   0.575   6.967
  278TIP3    H125029   5.468   0.606   6.883
  278TIP3    H225030   5.374   0.646   6.992
  279TIP3   OH225031   7.202   1.836   6.983
  279TIP3    H125032   7.119   1.835   6.934
  279TIP3    H225033   7.239   1.923   6.960
  280TIP3   OH225034   7.491   1.693   7.183
  280TIP3    H125035   7.524   1.761   7.122
  280TIP3    H225036   7.497   1.615   7.125
  281TIP3   OH225037   7.404   1.079   6.703
  281TIP3    H125038   7.421   1.151   6.765
  281TIP3    H225039   7.478   1.022   6.733
  282TIP3   OH225040   1.011   0.248   7.023
  282TIP3    H125041   0.935   0.189   7.014
  282TIP3    H225042   1.024   0.251   7.119
  283TIP3   OH225043   1.477   0.487   6.893
  283TIP3    H125044   1.443   0.423   6.958
  283TIP3    H225045   1.420   0.465   6.818
  284TIP3   OH225046   4.147   3.660   2.913
  284TIP3    H125047   4.217   3.606   2.952
  284TIP3    H225048   4.168   3.746   2.952
  285TIP3   OH225049   4.468   3.969   2.929
  285TIP3    H125050   4.424   4.019   2.859
  285TIP3    H225051   4.561   3.975   2.901
  286TIP3   OH225052   5.002   3.709   3.027
  286TIP3    H125053   5.054   3.783   3.064
  286TIP3    H225054   5.062   3.634   3.036
  287TIP3   OH225055   4.837   4.067   3.010
  287TIP3    H125056   4.916   4.115   2.984
  287TIP3    H225057   4.781   4.135   3.049
  288TIP3   OH225058   3.231   5.227   3.053
  288TIP3    H125059   3.225   5.131   3.053
  288TIP3    H225060   3.146   5.251   3.010
  289TIP3   OH225061   3.790   5.282   2.976
  289TIP3    H125062   3.757   5.369   2.952
  289TIP3    H225063   3.721   5.253   3.039
  290TIP3   OH225064   4.552   5.418   2.990
  290TIP3    H125065   4.511   5.338   3.026
  290TIP3    H225066   4.578   5.463   3.072
  291TIP3   OH225067   4.328   5.018   2.949
  291TIP3    H125068   4.258   4.953   2.930
  291TIP3    H225069   4.407   4.962   2.941
  292TIP3   OH225070   2.945   5.228   2.950
  292TIP3    H125071   2.871   5.289   2.968
  292TIP3    H225072   2.902   5.141   2.953
  293TIP3   OH225073   2.383   5.289   2.875
  293TIP3    H125074   2.399   5.195   2.856
  293TIP3    H225075   2.418   5.295   2.965
  294TIP3   OH225076   2.583   5.495   3.077
  294TIP3    H125077   2.592   5.458   2.988
  294TIP3    H225078   2.596   5.415   3.133
  295TIP3   OH225079   2.527   5.065   2.917
  295TIP3    H125080   2.500   4.975   2.941
  295TIP3    H225081   2.598   5.048   2.854
  296TIP3   OH225082   2.670   5.337   2.820
  296TIP3    H125083   2.698   5.307   2.732
  296TIP3    H225084   2.578   5.306   2.826
  297TIP3   OH225085   2.446   1.624   3.149
  297TIP3    H125086   2.503   1.565   3.097
  297TIP3    H225087   2.515   1.657   3.211
  298TIP3   OH225088   2.526   1.910   3.160
  298TIP3    H125089   2.521   1.842   3.093
  298TIP3    H225090   2.515   1.860   3.242
  299TIP3   OH225091   1.927   1.517   3.008
  299TIP3    H125092   1.846   1.481   2.969
  299TIP3    H225093   1.999   1.486   2.948
  300TIP3   OH225094   2.160   1.473   2.877
  300TIP3    H125095   2.221   1.548   2.892
  300TIP3    H225096   2.200   1.397   2.922
  301TIP3   OH225097   1.991   1.981   2.946
  301TIP3    H125098   2.021   1.918   3.013
  301TIP3    H225099   1.972   2.061   2.995
  302TIP3   OH225100   2.309   1.718   2.933
  302TIP3    H125101   2.239   1.752   2.991
  302TIP3    H225102   2.375   1.692   3.000
  303TIP3   OH225103   5.822   6.047   2.937
  303TIP3    H125104   5.761   6.090   2.875
  303TIP3    H225105   5.897   6.107   2.934
  304TIP3   OH225106   2.835   6.587   2.943
  304TIP3    H125107   2.889   6.627   2.873
  304TIP3    H225108   2.872   6.499   2.953
  305TIP3   OH225109   2.371   6.727   3.093
  305TIP3    H125110   2.423   6.645   3.102
  305TIP3    H225111   2.307   6.705   3.026
  306TIP3   OH225112   0.800   5.481   3.009
  306TIP3    H125113   0.797   5.569   3.052
  306TIP3    H225114   0.875   5.437   3.048
  307TIP3   OH225115   0.588   5.132   2.914
  307TIP3    H125116   0.682   5.120   2.933
  307TIP3    H225117   0.558   5.041   2.919
  308TIP3   OH225118   0.810   4.934   2.904
  308TIP3    H125119   0.905   4.931   2.914
  308TIP3    H225120   0.781   4.844   2.928
  309TIP3   OH225121   3.988   7.252   2.997
  309TIP3    H125122   3.936   7.184   3.043
  309TIP3    H225123   4.061   7.200   2.961
  310TIP3   OH225124   3.628   7.220   2.918
  310TIP3    H125125   3.619   7.262   2.831
  310TIP3    H225126   3.551   7.256   2.963
  311TIP3   OH225127   1.033   2.398   2.900
  311TIP3    H125128   1.055   2.316   2.850
  311TIP3    H225129   1.114   2.450   2.898
  312TIP3   OH225130   0.691   2.494   2.869
  312TIP3    H125131   0.682   2.409   2.824
  312TIP3    H225132   0.680   2.469   2.962
  313TIP3   OH225133   7.057   2.560   2.805
  313TIP3    H125134   7.140   2.516   2.824
  313TIP3    H225135   6.999   2.516   2.869
  314TIP3   OH225136   6.723   2.295   3.042
  314TIP3    H125137   6.683   2.217   3.081
  314TIP3    H225138   6.742   2.264   2.952
  315TIP3   OH225139   6.789   2.825   3.076
  315TIP3    H125140   6.821   2.737   3.101
  315TIP3    H225141   6.713   2.839   3.134
  316TIP3   OH225142   5.492   0.234   2.948
  316TIP3    H125143   5.419   0.177   2.922
  316TIP3    H225144   5.452   0.295   3.013
  317TIP3   OH225145   5.748   0.237   3.040
  317TIP3    H125146   5.735   0.143   3.026
  317TIP3    H225147   5.664   0.273   3.005
  318TIP3   OH225148   5.931   0.441   2.995
  318TIP3    H125149   5.843   0.412   3.022
  318TIP3    H225150   5.967   0.484   3.075
  319TIP3   OH225151   6.971   1.192   2.907
  319TIP3    H125152   6.911   1.186   2.984
  319TIP3    H225153   6.942   1.119   2.853
  320TIP3   OH225154   0.245   6.720   2.892
  320TIP3    H125155   0.267   6.814   2.901
  320TIP3    H225156   0.244   6.691   2.984
  321TIP3   OH225157   7.312   0.281   2.975
  321TIP3    H125158   7.252   0.231   2.913
  321TIP3    H225159   7.383   0.299   2.913
  322TIP3   OH225160   6.999   0.390   2.906
  322TIP3    H125161   7.019   0.300   2.876
  322TIP3    H225162   7.048   0.400   2.989
  323TIP3   OH225163   1.214   1.010   7.681
  323TIP3    H125164   1.216   1.101   7.717
  323TIP3    H225165   1.147   1.018   7.611
  324TIP3   OH225166   1.106   0.887   8.029
  324TIP3    H125167   1.107   0.852   8.122
  324TIP3    H225168   1.062   0.813   7.981
  325TIP3   OH225169   0.341   0.918   8.205
  325TIP3    H125170   0.299   0.842   8.250
  325TIP3    H225171   0.413   0.938   8.267
  326TIP3   OH225172   1.419   1.202   7.878
  326TIP3    H125173   1.406   1.131   7.943
  326TIP3    H225174   1.433   1.277   7.937
  327TIP3   OH225175   0.371   1.352   8.019
  327TIP3    H125176   0.350   1.260   7.989
  327TIP3    H225177   0.467   1.346   8.016
  328TIP3   OH225178   0.143   0.757   7.533
  328TIP3    H125179   0.050   0.725   7.532
  328TIP3    H225180   0.193   0.676   7.511
  329TIP3   OH225181   0.171   0.936   7.823
  329TIP3    H125182   0.166   0.843   7.850
  329TIP3    H225183   0.176   0.929   7.726
  330TIP3   OH225184   1.188   1.756   7.862
  330TIP3    H125185   1.257   1.699   7.820
  330TIP3    H225186   1.147   1.689   7.919
  331TIP3   OH225187   0.923   1.207   8.094
  331TIP3    H125188   0.958   1.135   8.040
  331TIP3    H225189   1.003   1.225   8.150
  332TIP3   OH225190   1.787   0.300   8.107
  332TIP3    H125191   1.800   0.380   8.162
  332TIP3    H225192   1.851   0.318   8.036
  333TIP3   OH225193   1.287   0.631   8.130
  333TIP3    H125194   1.306   0.538   8.152
  333TIP3    H225195   1.264   0.622   8.036
  334TIP3   OH225196   1.328   0.417   7.654
  334TIP3    H125197   1.379   0.393   7.734
  334TIP3    H225198   1.388   0.484   7.619
  335TIP3   OH225199   0.199   0.655   7.895
  335TIP3    H125200   0.288   0.627   7.918
  335TIP3    H225201   0.185   0.615   7.808
  336TIP3   OH225202   1.806   0.475   8.333
  336TIP3    H125203   1.761   0.562   8.322
  336TIP3    H225204   1.804   0.462   8.429
  337TIP3   OH225205   0.449   0.331   8.249
  337TIP3    H125206   0.421   0.388   8.177
  337TIP3    H225207   0.376   0.344   8.314
  338TIP3   OH225208   1.150   1.283   7.576
  338TIP3    H125209   1.097   1.278   7.495
  338TIP3    H225210   1.134   1.377   7.599
  339TIP3   OH225211   0.725   1.094   8.239
  339TIP3    H125212   0.668   1.166   8.271
  339TIP3    H225213   0.788   1.144   8.182
  340TIP3   OH225214   1.514   0.418   7.839
  340TIP3    H125215   1.488   0.404   7.931
  340TIP3    H225216   1.608   0.434   7.850
  341TIP3   OH225217   0.565   1.311   8.307
  341TIP3    H125218   0.562   1.381   8.241
  341TIP3    H225219   0.472   1.309   8.337
  342TIP3   OH225220   0.087   1.236   7.469
  342TIP3    H125221   0.124   1.218   7.382
  342TIP3    H225222   0.161   1.277   7.516
  343TIP3   OH225223   1.519   1.405   8.077
  343TIP3    H125224   1.427   1.424   8.105
  343TIP3    H225225   1.539   1.488   8.030
  344TIP3   OH225226   1.567   0.214   8.242
  344TIP3    H125227   1.506   0.242   8.172
  344TIP3    H225228   1.651   0.220   8.191
  345TIP3   OH225229   0.875   0.116   7.951
  345TIP3    H125230   0.852   0.025   7.980
  345TIP3    H225231   0.799   0.167   7.985
  346TIP3   OH225232   1.349   1.583   7.747
  346TIP3    H125233   1.363   1.503   7.692
  346TIP3    H225234   1.435   1.630   7.733
  347TIP3   OH225235   1.462   1.378   7.593
  347TIP3    H125236   1.447   1.315   7.520
  347TIP3    H225237   1.438   1.322   7.669
  348TIP3   OH225238   1.614   1.247   8.464
  348TIP3    H125239   1.634   1.177   8.397
  348TIP3    H225240   1.627   1.326   8.407
  349TIP3   OH225241   1.081   0.943   7.435
  349TIP3    H125242   1.016   1.000   7.389
  349TIP3    H225243   1.155   0.937   7.373
  350TIP3   OH225244   1.100   0.809   7.131
  350TIP3    H125245   1.182   0.812   7.182
  350TIP3    H225246   1.137   0.840   7.045
  351TIP3   OH225247   1.819   0.897   8.261
  351TIP3    H125248   1.751   0.966   8.246
  351TIP3    H225249   1.878   0.917   8.185
  352TIP3   OH225250   1.433   0.940   7.537
  352TIP3    H125251   1.359   0.958   7.599
  352TIP3    H225252   1.500   0.899   7.597
  353TIP3   OH225253   1.402   0.749   8.450
  353TIP3    H125254   1.385   0.842   8.475
  353TIP3    H225255   1.337   0.740   8.377
  354TIP3   OH225256   0.596   1.022   7.712
  354TIP3    H125257   0.546   1.004   7.629
  354TIP3    H225258   0.643   0.940   7.727
  355TIP3   OH225259   0.714   1.334   7.986
  355TIP3    H125260   0.715   1.316   7.891
  355TIP3    H225261   0.795   1.291   8.020
  356TIP3   OH225262   0.632   0.892   8.078
  356TIP3    H125263   0.664   0.940   8.001
  356TIP3    H225264   0.633   0.962   8.147
  357TIP3   OH225265   1.269   1.453   8.157
  357TIP3    H125266   1.256   1.523   8.224
  357TIP3    H225267   1.219   1.379   8.197
  358TIP3   OH225268   0.706   1.334   8.539
  358TIP3    H125269   0.633   1.374   8.593
  358TIP3    H225270   0.661   1.323   8.452
  359TIP3   OH225271   1.318   0.876   7.301
  359TIP3    H125272   1.367   0.908   7.382
  359TIP3    H225273   1.359   0.930   7.231
  360TIP3   OH225274   0.456   0.959   8.453
  360TIP3    H125275   0.438   1.035   8.512
  360TIP3    H225276   0.365   0.927   8.439
  361TIP3   OH225277   1.062   1.585   7.600
  361TIP3    H125278   1.065   1.612   7.692
  361TIP3    H225279   1.031   1.667   7.556
  362TIP3   OH225280   0.527   1.509   8.635
  362TIP3    H125281   0.520   1.533   8.540
  362TIP3    H225282   0.433   1.511   8.661
  363TIP3   OH225283   1.683   0.096   7.291
  363TIP3    H125284   1.624   0.152   7.345
  363TIP3    H225285   1.672   0.139   7.206
  364TIP3   OH225286   0.478   0.912   7.487
  364TIP3    H125287   0.419   0.976   7.445
  364TIP3    H225288   0.441   0.829   7.454
  365TIP3   OH225289   0.168   1.147   8.393
  365TIP3    H125290   0.079   1.158   8.354
  365TIP3    H225291   0.166   1.052   8.417
  366TIP3   OH225292   0.132   1.463   8.045
  366TIP3    H125293   0.207   1.400   8.043
  366TIP3    H225294   0.166   1.521   8.117
  367TIP3   OH225295   1.881   1.490   8.628
  367TIP3    H125296   1.867   1.397   8.605
  367TIP3    H225297   1.791   1.510   8.662
  368TIP3   OH225298   0.957   1.435   8.528
  368TIP3    H125299   0.963   1.512   8.587
  368TIP3    H225300   0.862   1.409   8.531
  369TIP3   OH225301   1.023   1.814   7.468
  369TIP3    H125302   0.983   1.844   7.386
  369TIP3    H225303   1.023   1.896   7.519
  370TIP3   OH225304   1.309   1.739   7.483
  370TIP3    H125305   1.213   1.727   7.475
  370TIP3    H225306   1.334   1.658   7.531
  371TIP3   OH225307   1.567   0.651   8.654
  371TIP3    H125308   1.520   0.691   8.577
  371TIP3    H225309   1.566   0.557   8.628
  372TIP3   OH225310   0.320   1.352   8.432
  372TIP3    H125311   0.333   1.325   8.524
  372TIP3    H225312   0.259   1.279   8.403
  373TIP3   OH225313   0.606   0.238   8.037
  373TIP3    H125314   0.513   0.222   8.011
  373TIP3    H225315   0.592   0.274   8.127
  374TIP3   OH225316   1.002   0.183   8.438
  374TIP3    H125317   1.055   0.102   8.438
  374TIP3    H225318   0.926   0.149   8.386
  375TIP3   OH225319   1.367   0.482   8.468
  375TIP3    H125320   1.307   0.468   8.545
  375TIP3    H225321   1.391   0.576   8.479
  376TIP3   OH225322   0.575   0.634   8.146
  376TIP3    H125323   0.504   0.640   8.212
  376TIP3    H225324   0.592   0.729   8.131
  377TIP3   OH225325   1.124   0.677   7.464
  377TIP3    H125326   1.119   0.775   7.458
  377TIP3    H225327   1.208   0.658   7.417
  378TIP3   OH225328   1.032   0.739   8.669
  378TIP3    H125329   0.988   0.656   8.701
  378TIP3    H225330   1.107   0.740   8.730
  379TIP3   OH225331   1.268   0.629   7.846
  379TIP3    H125332   1.234   0.708   7.801
  379TIP3    H225333   1.254   0.562   7.777
  380TIP3   OH225334   0.345   0.648   8.313
  380TIP3    H125335   0.380   0.687   8.394
  380TIP3    H225336   0.313   0.562   8.344
  381TIP3   OH225337   1.127   0.784   8.280
  381TIP3    H125338   1.184   0.729   8.222
  381TIP3    H225339   1.084   0.714   8.335
  382TIP3   OH225340   1.287   0.329   8.077
  382TIP3    H125341   1.230   0.335   8.157
  382TIP3    H225342   1.226   0.295   8.009
  383TIP3   OH225343   1.587   1.896   8.735
  383TIP3    H125344   1.612   1.939   8.650
  383TIP3    H225345   1.668   1.914   8.785
  384TIP3   OH225346   0.414   1.152   8.641
  384TIP3    H125347   0.480   1.149   8.714
  384TIP3    H225348   0.332   1.136   8.692
  385TIP3   OH225349   0.992   0.663   7.942
  385TIP3    H125350   1.036   0.584   7.908
  385TIP3    H225351   0.942   0.624   8.014
  386TIP3   OH225352   0.855   0.524   8.176
  386TIP3    H125353   0.779   0.581   8.197
  386TIP3    H225354   0.921   0.557   8.240
  387TIP3   OH225355   0.881   1.123   7.368
  387TIP3    H125356   0.805   1.066   7.363
  387TIP3    H225357   0.866   1.164   7.457
  388TIP3   OH225358   1.633   1.099   8.247
  388TIP3    H125359   1.683   1.151   8.178
  388TIP3    H225360   1.545   1.093   8.206
  389TIP3   OH225361   1.229   0.421   7.204
  389TIP3    H125362   1.159   0.470   7.159
  389TIP3    H225363   1.291   0.493   7.227
  390TIP3   OH225364   1.002   1.174   8.488
  390TIP3    H125365   0.980   1.145   8.577
  390TIP3    H225366   1.001   1.271   8.499
  391TIP3   OH225367   1.367   0.604   7.348
  391TIP3    H125368   1.442   0.601   7.409
  391TIP3    H225369   1.374   0.695   7.314
  392TIP3   OH225370   0.429   1.101   7.933
  392TIP3    H125371   0.468   1.083   7.846
  392TIP3    H225372   0.451   1.024   7.987
  393TIP3   OH225373   0.183   0.872   8.453
  393TIP3    H125374   0.180   0.858   8.549
  393TIP3    H225375   0.088   0.868   8.430
  394TIP3   OH225376   0.797   0.881   8.650
  394TIP3    H125377   0.740   0.827   8.593
  394TIP3    H225378   0.883   0.834   8.647
  395TIP3   OH225379   1.294   1.408   8.518
  395TIP3    H125380   1.213   1.417   8.467
  395TIP3    H225381   1.266   1.447   8.604
  396TIP3   OH225382   1.825   0.629   7.343
  396TIP3    H125383   1.761   0.612   7.271
  396TIP3    H225384   1.852   0.719   7.320
  397TIP3   OH225385   1.852   1.198   8.587
  397TIP3    H125386   1.762   1.214   8.551
  397TIP3    H225387   1.906   1.199   8.505
  398TIP3   OH225388   1.655   1.497   7.327
  398TIP3    H125389   1.665   1.434   7.400
  398TIP3    H225390   1.736   1.487   7.275
  399TIP3   OH225391   1.379   1.003   8.054
  399TIP3    H125392   1.291   0.971   8.031
  399TIP3    H225393   1.435   0.935   8.011
  400TIP3   OH225394   0.627   1.385   7.714
  400TIP3    H125395   0.680   1.461   7.680
  400TIP3    H225396   0.540   1.405   7.676
  401TIP3   OH225397   0.211   0.905   7.174
  401TIP3    H125398   0.194   0.929   7.082
  401TIP3    H225399   0.130   0.852   7.186
  402TIP3   OH225400   0.791   1.192   7.621
  402TIP3    H125401   0.738   1.270   7.646
  402TIP3    H225402   0.750   1.125   7.678
  403TIP3   OH225403   0.851   1.597   8.307
  403TIP3    H125404   0.909   1.668   8.272
  403TIP3    H225405   0.905   1.563   8.382
  404TIP3   OH225406   0.667   1.630   7.597
  404TIP3    H125407   0.576   1.642   7.623
  404TIP3    H225408   0.701   1.720   7.604
  405TIP3   OH225409   1.136   1.201   8.243
  405TIP3    H125410   1.095   1.154   8.320
  405TIP3    H225411   1.188   1.130   8.202
  406TIP3   OH225412   1.471   1.642   8.476
  406TIP3    H125413   1.383   1.600   8.463
  406TIP3    H225414   1.482   1.704   8.401
  407TIP3   OH225415   0.266   0.410   8.438
  407TIP3    H125416   0.188   0.459   8.465
  407TIP3    H225417   0.233   0.318   8.438
  408TIP3   OH225418   1.478   1.165   7.404
  408TIP3    H125419   1.465   1.078   7.448
  408TIP3    H225420   1.575   1.169   7.395
  409TIP3   OH225421   0.255   1.579   8.252
  409TIP3    H125422   0.308   1.499   8.265
  409TIP3    H225423   0.235   1.602   8.343
  410TIP3   OH225424   0.679   1.374   7.248
  410TIP3    H125425   0.759   1.364   7.302
  410TIP3    H225426   0.672   1.470   7.243
  411TIP3   OH225427   1.165   0.368   8.325
  411TIP3    H125428   1.248   0.379   8.377
  411TIP3    H225429   1.116   0.301   8.378
  412TIP3   OH225430   1.210   0.296   7.449
  412TIP3    H125431   1.230   0.348   7.368
  412TIP3    H225432   1.251   0.348   7.522
  413TIP3   OH225433   0.951   1.508   7.304
  413TIP3    H125434   0.874   1.570   7.307
  413TIP3    H225435   1.015   1.560   7.355
  414TIP3   OH225436   0.968   0.479   7.584
  414TIP3    H125437   1.020   0.522   7.512
  414TIP3    H225438   0.932   0.554   7.632
  415TIP3   OH225439   1.010   0.604   8.445
  415TIP3    H125440   1.017   0.665   8.522
  415TIP3    H225441   1.040   0.518   8.479
  416TIP3   OH225442   1.020   0.172   7.598
  416TIP3    H125443   1.023   0.239   7.668
  416TIP3    H225444   1.093   0.208   7.542
  417TIP3   OH225445   0.737   1.666   7.319
  417TIP3    H125446   0.707   1.754   7.291
  417TIP3    H225447   0.696   1.656   7.407
  418TIP3   OH225448   1.608   0.399   8.524
  418TIP3    H125449   1.510   0.413   8.519
  418TIP3    H225450   1.624   0.367   8.435
  419TIP3   OH225451   1.487   0.762   7.914
  419TIP3    H125452   1.412   0.698   7.913
  419TIP3    H225453   1.550   0.717   7.974
  420TIP3   OH225454   1.572   1.698   8.073
  420TIP3    H125455   1.573   1.762   7.999
  420TIP3    H225456   1.668   1.689   8.085
  421TIP3   OH225457   0.306   0.185   7.959
  421TIP3    H125458   0.302   0.175   7.860
  421TIP3    H225459   0.316   0.090   7.983
  422TIP3   OH225460   0.230   1.469   7.548
  422TIP3    H125461   0.145   1.485   7.588
  422TIP3    H225462   0.241   1.552   7.498
  423TIP3   OH225463   0.162   1.775   8.703
  423TIP3    H125464   0.224   1.776   8.779
  423TIP3    H225465   0.133   1.683   8.713
  424TIP3   OH225466   0.634   1.677   8.845
  424TIP3    H125467   0.713   1.629   8.875
  424TIP3    H225468   0.610   1.627   8.766
  425TIP3   OH225469   1.237   1.518   8.755
  425TIP3    H125470   1.203   1.432   8.791
  425TIP3    H225471   1.325   1.523   8.800
  426TIP3   OH225472   1.504   1.571   7.029
  426TIP3    H125473   1.492   1.511   7.104
  426TIP3    H225474   1.600   1.563   7.020
  427TIP3   OH225475   0.202   1.165   8.824
  427TIP3    H125476   0.218   1.069   8.816
  427TIP3    H225477   0.105   1.162   8.808
  428TIP3   OH225478   0.792   1.150   8.715
  428TIP3    H125479   0.773   1.206   8.636
  428TIP3    H225480   0.799   1.058   8.678
  429TIP3   OH225481   1.358   1.118   8.506
  429TIP3    H125482   1.446   1.164   8.506
  429TIP3    H225483   1.303   1.197   8.517
  430TIP3   OH225484   0.229   0.869   8.796
  430TIP3    H125485   0.286   0.795   8.769
  430TIP3    H225486   0.245   0.878   8.892
  431TIP3   OH225487   0.620   0.749   8.433
  431TIP3    H125488   0.569   0.828   8.459
  431TIP3    H225489   0.697   0.791   8.389
  432TIP3   OH225490   1.152   1.047   8.819
  432TIP3    H125491   1.220   0.995   8.773
  432TIP3    H225492   1.123   0.983   8.887
  433TIP3   OH225493   1.690   1.041   6.995
  433TIP3    H125494   1.751   0.995   6.936
  433TIP3    H225495   1.726   1.133   6.992
  434TIP3   OH225496   0.661   0.526   8.560
  434TIP3    H125497   0.712   0.475   8.494
  434TIP3    H225498   0.654   0.613   8.514
  435TIP3   OH225499   0.710   0.355   8.335
  435TIP3    H125500   0.764   0.392   8.261
  435TIP3    H225501   0.618   0.381   8.312
  436TIP3   OH225502   0.836   0.875   8.340
  436TIP3    H125503   0.929   0.901   8.336
  436TIP3    H225504   0.792   0.957   8.307
  437TIP3   OH225505   1.279   0.637   8.860
  437TIP3    H125506   1.313   0.546   8.863
  437TIP3    H225507   1.359   0.690   8.873
  438TIP3   OH225508   1.421   0.953   8.707
  438TIP3    H125509   1.387   1.008   8.633
  438TIP3    H225510   1.513   0.940   8.677
  439TIP3   OH225511   0.460   0.639   8.744
  439TIP3    H125512   0.411   0.558   8.766
  439TIP3    H225513   0.528   0.603   8.685
  440TIP3   OH225514   0.762   0.099   8.345
  440TIP3    H125515   0.756   0.198   8.359
  440TIP3    H225516   0.667   0.077   8.343
  441TIP3   OH225517   0.922   0.510   8.768
  441TIP3    H125518   0.872   0.486   8.848
  441TIP3    H225519   0.855   0.486   8.702
  442TIP3   OH225520   1.194   0.397   8.673
  442TIP3    H125521   1.102   0.410   8.701
  442TIP3    H225522   1.234   0.359   8.754
  443TIP3   OH225523   1.372   0.320   8.895
  443TIP3    H125524   1.364   0.221   8.899
  443TIP3    H225525   1.332   0.344   8.983
  444TIP3   OH225526   0.333   0.407   8.810
  444TIP3    H125527   0.330   0.345   8.735
  444TIP3    H225528   0.296   0.350   8.881
  445TIP3   OH225529   0.776   0.082   8.622
  445TIP3    H125530   0.771  -0.015   8.626
  445TIP3    H225531   0.810   0.097   8.531
  446TIP3   OH225532   0.835   0.164   8.872
  446TIP3    H125533   0.828   0.131   8.780
  446TIP3    H225534   0.771   0.237   8.873
  447TIP3   OH225535   0.827   1.878   7.148
  447TIP3    H125536   0.813   1.953   7.210
  447TIP3    H225537   0.741   1.879   7.102
  448TIP3   OH225538   0.118   1.659   7.863
  448TIP3    H125539   0.125   1.564   7.886
  448TIP3    H225540   0.195   1.692   7.911
  449TIP3   OH225541   1.845   1.747   8.086
  449TIP3    H125542   1.882   1.758   8.174
  449TIP3    H225543   1.891   1.816   8.037
  450TIP3   OH225544   1.778   1.708   8.380
  450TIP3    H125545   1.749   1.630   8.326
  450TIP3    H225546   1.803   1.661   8.461
  451TIP3   OH225547   1.661   1.272   8.875
  451TIP3    H125548   1.569   1.277   8.910
  451TIP3    H225549   1.698   1.352   8.919
  452TIP3   OH225550   1.772   1.124   7.396
  452TIP3    H125551   1.855   1.175   7.409
  452TIP3    H225552   1.781   1.059   7.469
  453TIP3   OH225553   1.811   0.947   7.604
  453TIP3    H125554   1.733   0.894   7.634
  453TIP3    H225555   1.867   0.949   7.686
  454TIP3   OH225556   1.801   1.199   8.068
  454TIP3    H125557   1.864   1.123   8.060
  454TIP3    H225558   1.853   1.271   8.028
  455TIP3   OH225559   1.653   1.477   8.313
  455TIP3    H125560   1.585   1.512   8.373
  455TIP3    H225561   1.602   1.452   8.233
  456TIP3   OH225562   1.852   0.919   7.215
  456TIP3    H125563   1.770   0.912   7.163
  456TIP3    H225564   1.835   0.999   7.267
  457TIP3   OH225565   1.672   0.629   7.104
  457TIP3    H125566   1.701   0.699   7.044
  457TIP3    H225567   1.633   0.566   7.040
  458TIP3   OH225568   1.611   0.788   7.677
  458TIP3    H125569   1.577   0.704   7.641
  458TIP3    H225570   1.579   0.785   7.770
  459TIP3   OH225571   0.165   1.086   8.052
  459TIP3    H125572   0.182   1.032   7.972
  459TIP3    H225573   0.237   1.055   8.111
  460TIP3   OH225574   1.705   0.969   8.616
  460TIP3    H125575   1.754   0.884   8.623
  460TIP3    H225576   1.776   1.035   8.601
  461TIP3   OH225577   1.820   0.717   8.665
  461TIP3    H125578   1.730   0.678   8.663
  461TIP3    H225579   1.876   0.637   8.685
  462TIP3   OH225580   1.578   0.567   7.508
  462TIP3    H125581   1.590   0.474   7.538
  462TIP3    H225582   1.665   0.580   7.467
  463TIP3   OH225583   1.656   0.594   8.063
  463TIP3    H125584   1.752   0.620   8.065
  463TIP3    H225585   1.642   0.592   8.159
  464TIP3   OH225586   1.642   0.700   8.310
  464TIP3    H125587   1.550   0.729   8.323
  464TIP3    H225588   1.689   0.785   8.300
  465TIP3   OH225589   0.123   0.548   8.716
  465TIP3    H125590   0.211   0.524   8.752
  465TIP3    H225591   0.101   0.475   8.658
  466TIP3   OH225592   1.926   0.092   8.866
  466TIP3    H125593   2.004   0.082   8.807
  466TIP3    H225594   1.881   0.158   8.810
  467TIP3   OH225595   1.657   0.302   7.529
  467TIP3    H125596   1.680   0.259   7.614
  467TIP3    H225597   1.587   0.242   7.497
  468TIP3   OH225598   0.133   0.377   8.041
  468TIP3    H125599   0.190   0.302   8.013
  468TIP3    H225600   0.191   0.431   8.095
  469TIP3   OH225601   0.075   0.678   8.133
  469TIP3    H125602   0.125   0.661   8.051
  469TIP3    H225603   0.051   0.772   8.127
  470TIP3   OH225604   1.796   0.292   8.718
  470TIP3    H125605   1.722   0.356   8.721
  470TIP3    H225606   1.777   0.248   8.633
  471TIP3   OH225607   1.540   1.758   7.710
  471TIP3    H125608   1.592   1.761   7.627
  471TIP3    H225609   1.576   1.831   7.762
  472TIP3   OH225610   0.119   0.216   8.302
  472TIP3    H125611   0.039   0.181   8.345
  472TIP3    H225612   0.076   0.292   8.258
  473TIP3   OH225613   0.258   1.441   8.723
  473TIP3    H125614   0.182   1.439   8.665
  473TIP3    H225615   0.269   1.348   8.748
  474TIP3   OH225616   0.579   1.607   8.378
  474TIP3    H125617   0.577   1.691   8.328
  474TIP3    H225618   0.673   1.583   8.372
  475TIP3   OH225619   0.987   1.710   8.614
  475TIP3    H125620   0.988   1.688   8.709
  475TIP3    H225621   1.077   1.746   8.603
  476TIP3   OH225622   1.211   1.863   8.570
  476TIP3    H125623   1.280   1.806   8.536
  476TIP3    H225624   1.250   1.894   8.655
  477TIP3   OH225625   1.747   0.155   8.470
  477TIP3    H125626   1.663   0.181   8.428
  477TIP3    H225627   1.728   0.059   8.485
  478TIP3   OH225628   0.324   1.910   8.353
  478TIP3    H125629   0.235   1.940   8.321
  478TIP3    H225630   0.301   1.872   8.439
  479TIP3   OH225631   0.555   1.864   8.226
  479TIP3    H125632   0.463   1.863   8.262
  479TIP3    H225633   0.566   1.959   8.210
  480TIP3   OH225634   1.015   1.803   8.164
  480TIP3    H125635   1.002   1.872   8.096
  480TIP3    H225636   1.041   1.862   8.238
  481TIP3   OH225637   1.223   1.678   8.311
  481TIP3    H125638   1.157   1.710   8.247
  481TIP3    H225639   1.294   1.742   8.292
  482TIP3   OH225640   1.478   1.836   8.280
  482TIP3    H125641   1.498   1.924   8.243
  482TIP3    H225642   1.511   1.781   8.205
  483TIP3   OH225643   0.449   1.594   7.906
  483TIP3    H125644   0.425   1.508   7.946
  483TIP3    H225645   0.532   1.610   7.953
  484TIP3   OH225646   0.712   1.616   8.039
  484TIP3    H125647   0.738   1.522   8.031
  484TIP3    H225648   0.745   1.635   8.128
  485TIP3   OH225649   1.081   0.281   7.900
  485TIP3    H125650   1.010   0.214   7.914
  485TIP3    H225651   1.148   0.226   7.854
  486TIP3   OH225652   1.527   0.126   7.914
  486TIP3    H125653   1.589   0.157   7.845
  486TIP3    H225654   1.446   0.176   7.894
  487TIP3   OH225655   1.754   0.194   7.748
  487TIP3    H125656   1.788   0.123   7.690
  487TIP3    H225657   1.826   0.263   7.748
  488TIP3   OH225658   0.330   0.154   7.702
  488TIP3    H125659   0.334   0.218   7.628
  488TIP3    H225660   0.315   0.070   7.656
  489TIP3   OH225661   0.175   0.114   7.304
  489TIP3    H125662   0.152   0.186   7.244
  489TIP3    H225663   0.134   0.139   7.388
  490TIP3   OH225664   0.771   0.159   7.709
  490TIP3    H125665   0.839   0.151   7.640
  490TIP3    H225666   0.826   0.162   7.789
  491TIP3   OH225667   1.282   0.138   7.794
  491TIP3    H125668   1.322   0.118   7.709
  491TIP3    H225669   1.290   0.054   7.844
  492TIP3   OH225670   1.450   0.168   7.421
  492TIP3    H125671   1.355   0.196   7.417
  492TIP3    H225672   1.442   0.071   7.422
  493TIP3   OH225673   0.176   1.684   7.386
  493TIP3    H125674   0.110   1.645   7.326
  493TIP3    H225675   0.186   1.774   7.354
  494TIP3   OH225676   0.865   0.275   7.340
  494TIP3    H125677   0.883   0.231   7.424
  494TIP3    H225678   0.857   0.368   7.366
  495TIP3   OH225679   1.071   1.732   7.191
  495TIP3    H125680   1.131   1.808   7.193
  495TIP3    H225681   0.982   1.774   7.195
  496TIP3   OH225682   1.694   1.712   7.496
  496TIP3    H125683   1.674   1.636   7.438
  496TIP3    H225684   1.711   1.778   7.424
  497TIP3   OH225685   0.270   0.154   8.658
  497TIP3    H125686   0.256   0.063   8.629
  497TIP3    H225687   0.361   0.146   8.694
  498TIP3   OH225688   0.501   0.116   8.804
  498TIP3    H125689   0.590   0.129   8.767
  498TIP3    H225690   0.488   0.019   8.793
  499TIP3   OH225691   1.328   0.059   8.852
  499TIP3    H125692   1.274  -0.019   8.869
  499TIP3    H225693   1.397   0.020   8.796
  500TIP3   OH225694   1.647   1.616   8.664
  500TIP3    H125695   1.575   1.614   8.597
  500TIP3    H225696   1.634   1.705   8.700
  501TIP3   OH225697   3.105   1.011   7.685
  501TIP3    H125698   3.064   1.052   7.762
  501TIP3    H225699   3.036   1.017   7.616
  502TIP3   OH225700   2.996   0.894   8.002
  502TIP3    H125701   2.989   0.862   8.095
  502TIP3    H225702   2.926   0.839   7.959
  503TIP3   OH225703   2.193   0.903   8.166
  503TIP3    H125704   2.193   0.830   8.229
  503TIP3    H225705   2.250   0.967   8.211
  504TIP3   OH225706   2.309   1.368   8.004
  504TIP3    H125707   2.270   1.282   7.978
  504TIP3    H225708   2.402   1.342   7.992
  505TIP3   OH225709   1.973   0.685   7.566
  505TIP3    H125710   1.943   0.773   7.591
  505TIP3    H225711   1.893   0.652   7.522
  506TIP3   OH225712   2.020   0.949   7.812
  506TIP3    H125713   2.066   0.864   7.828
  506TIP3    H225714   2.081   0.997   7.754
  507TIP3   OH225715   2.806   1.129   8.100
  507TIP3    H125716   2.852   1.101   8.020
  507TIP3    H225717   2.880   1.169   8.151
  508TIP3   OH225718   3.678   0.320   8.087
  508TIP3    H125719   3.687   0.392   8.153
  508TIP3    H225720   3.754   0.344   8.030
  509TIP3   OH225721   3.159   0.629   8.132
  509TIP3    H125722   3.176   0.534   8.144
  509TIP3    H225723   3.146   0.629   8.035
  510TIP3   OH225724   2.453   0.412   7.803
  510TIP3    H125725   2.473   0.492   7.750
  510TIP3    H225726   2.416   0.352   7.734
  511TIP3   OH225727   3.221   0.433   7.658
  511TIP3    H125728   3.266   0.408   7.742
  511TIP3    H225729   3.284   0.499   7.626
  512TIP3   OH225730   2.103   0.687   7.894
  512TIP3    H125731   2.163   0.641   7.956
  512TIP3    H225732   2.122   0.638   7.811
  513TIP3   OH225733   2.585   0.821   7.843
  513TIP3    H125734   2.669   0.777   7.868
  513TIP3    H225735   2.550   0.754   7.781
  514TIP3   OH225736   3.697   0.465   8.330
  514TIP3    H125737   3.646   0.548   8.326
  514TIP3    H225738   3.693   0.443   8.424
  515TIP3   OH225739   2.340   0.324   8.227
  515TIP3    H125740   2.309   0.387   8.157
  515TIP3    H225741   2.265   0.331   8.291
  516TIP3   OH225742   2.557   1.095   8.200
  516TIP3    H125743   2.511   1.175   8.235
  516TIP3    H225744   2.633   1.135   8.153
  517TIP3   OH225745   3.388   0.430   7.865
  517TIP3    H125746   3.383   0.345   7.910
  517TIP3    H225747   3.470   0.465   7.906
  518TIP3   OH225748   2.309   0.511   8.012
  518TIP3    H125749   2.375   0.569   8.058
  518TIP3    H225750   2.357   0.484   7.930
  519TIP3   OH225751   2.439   1.303   8.317
  519TIP3    H125752   2.419   1.379   8.261
  519TIP3    H225753   2.354   1.290   8.365
  520TIP3   OH225754   2.026   1.237   7.403
  520TIP3    H125755   2.015   1.276   7.314
  520TIP3    H225756   2.077   1.306   7.448
  521TIP3   OH225757   3.438   0.232   8.241
  521TIP3    H125758   3.362   0.280   8.205
  521TIP3    H225759   3.492   0.221   8.160
  522TIP3   OH225760   2.731   0.111   7.925
  522TIP3    H125761   2.738   0.024   7.969
  522TIP3    H225762   2.673   0.160   7.987
  523TIP3   OH225763   3.505   1.247   8.467
  523TIP3    H125764   3.520   1.178   8.397
  523TIP3    H225765   3.513   1.328   8.413
  524TIP3   OH225766   2.951   0.899   7.402
  524TIP3    H125767   2.894   0.953   7.344
  524TIP3    H225768   3.036   0.900   7.353
  525TIP3   OH225769   3.006   0.768   7.141
  525TIP3    H125770   3.086   0.806   7.181
  525TIP3    H225771   3.041   0.684   7.108
  526TIP3   OH225772   3.689   0.884   8.247
  526TIP3    H125773   3.640   0.967   8.262
  526TIP3    H225774   3.744   0.912   8.171
  527TIP3   OH225775   3.324   0.929   7.522
  527TIP3    H125776   3.254   0.954   7.587
  527TIP3    H225777   3.388   0.880   7.580
  528TIP3   OH225778   3.272   0.751   8.454
  528TIP3    H125779   3.268   0.846   8.469
  528TIP3    H225780   3.201   0.740   8.389
  529TIP3   OH225781   2.448   1.003   7.700
  529TIP3    H125782   2.437   0.960   7.614
  529TIP3    H225783   2.502   0.938   7.749
  530TIP3   OH225784   2.599   1.323   7.971
  530TIP3    H125785   2.615   1.344   7.877
  530TIP3    H225786   2.679   1.276   7.999
  531TIP3   OH225787   2.461   0.883   8.079
  531TIP3    H125788   2.506   0.887   7.992
  531TIP3    H225789   2.503   0.957   8.129
  532TIP3   OH225790   3.172   1.443   8.149
  532TIP3    H125791   3.130   1.506   8.208
  532TIP3    H225792   3.137   1.358   8.178
  533TIP3   OH225793   2.600   1.334   8.529
  533TIP3    H125794   2.531   1.386   8.577
  533TIP3    H225795   2.557   1.324   8.441
  534TIP3   OH225796   3.208   0.864   7.292
  534TIP3    H125797   3.259   0.890   7.372
  534TIP3    H225798   3.252   0.923   7.226
  535TIP3   OH225799   2.240   1.013   8.430
  535TIP3    H125800   2.254   1.078   8.501
  535TIP3    H225801   2.176   0.953   8.472
  536TIP3   OH225802   2.933   1.571   7.658
  536TIP3    H125803   2.991   1.651   7.665
  536TIP3    H225804   2.925   1.565   7.563
  537TIP3   OH225805   2.422   1.513   8.629
  537TIP3    H125806   2.408   1.543   8.536
  537TIP3    H225807   2.329   1.493   8.654
  538TIP3   OH225808   3.560   0.091   7.307
  538TIP3    H125809   3.485   0.079   7.368
  538TIP3    H225810   3.531   0.172   7.265
  539TIP3   OH225811   2.348   0.909   7.437
  539TIP3    H125812   2.278   0.974   7.452
  539TIP3    H225813   2.297   0.828   7.417
  540TIP3   OH225814   1.992   1.189   8.365
  540TIP3    H125815   1.946   1.181   8.280
  540TIP3    H225816   2.035   1.102   8.370
  541TIP3   OH225817   1.983   1.428   8.040
  541TIP3    H125818   2.080   1.428   8.038
  541TIP3    H225819   1.965   1.507   8.091
  542TIP3   OH225820   3.758   1.492   8.607
  542TIP3    H125821   3.751   1.396   8.594
  542TIP3    H225822   3.672   1.508   8.652
  543TIP3   OH225823   2.838   1.466   8.527
  543TIP3    H125824   2.834   1.554   8.569
  543TIP3    H225825   2.746   1.432   8.530
  544TIP3   OH225826   2.267   1.713   7.679
  544TIP3    H125827   2.310   1.697   7.766
  544TIP3    H225828   2.181   1.668   7.693
  545TIP3   OH225829   3.444   0.660   8.655
  545TIP3    H125830   3.399   0.691   8.574
  545TIP3    H225831   3.445   0.565   8.636
  546TIP3   OH225832   2.212   1.308   8.453
  546TIP3    H125833   2.209   1.273   8.546
  546TIP3    H225834   2.131   1.268   8.416
  547TIP3   OH225835   2.511   0.217   8.057
  547TIP3    H125836   2.436   0.242   8.000
  547TIP3    H225837   2.477   0.257   8.141
  548TIP3   OH225838   2.883   0.185   8.465
  548TIP3    H125839   2.916   0.097   8.439
  548TIP3    H225840   2.800   0.186   8.416
  549TIP3   OH225841   3.265   0.471   8.488
  549TIP3    H125842   3.191   0.454   8.551
  549TIP3    H225843   3.245   0.564   8.465
  550TIP3   OH225844   3.362   0.971   7.113
  550TIP3    H125845   3.334   0.938   7.026
  550TIP3    H225846   3.455   0.995   7.092
  551TIP3   OH225847   2.913   0.341   7.159
  551TIP3    H125848   2.848   0.312   7.227
  551TIP3    H225849   2.882   0.299   7.078
  552TIP3   OH225850   2.481   0.637   8.177
  552TIP3    H125851   2.426   0.658   8.254
  552TIP3    H225852   2.474   0.725   8.131
  553TIP3   OH225853   2.471   0.641   7.659
  553TIP3    H125854   2.376   0.615   7.657
  553TIP3    H225855   2.502   0.611   7.569
  554TIP3   OH225856   3.046   0.693   7.546
  554TIP3    H125857   2.996   0.770   7.510
  554TIP3    H225858   3.095   0.668   7.468
  555TIP3   OH225859   2.919   0.753   8.705
  555TIP3    H125860   2.871   0.668   8.695
  555TIP3    H225861   3.000   0.723   8.749
  556TIP3   OH225862   3.122   0.626   7.855
  556TIP3    H125863   3.112   0.694   7.786
  556TIP3    H225864   3.136   0.547   7.800
  557TIP3   OH225865   2.192   0.655   8.316
  557TIP3    H125866   2.262   0.694   8.374
  557TIP3    H225867   2.185   0.564   8.351
  558TIP3   OH225868   1.932   0.394   7.749
  558TIP3    H125869   2.002   0.392   7.816
  558TIP3    H225870   1.975   0.358   7.670
  559TIP3   OH225871   2.016   0.426   7.288
  559TIP3    H125872   2.093   0.473   7.252
  559TIP3    H225873   1.960   0.502   7.317
  560TIP3   OH225874   3.015   0.815   8.263
  560TIP3    H125875   3.079   0.758   8.215
  560TIP3    H225876   2.985   0.750   8.332
  561TIP3   OH225877   2.746   0.400   7.760
  561TIP3    H125878   2.655   0.368   7.773
  561TIP3    H225879   2.785   0.375   7.846
  562TIP3   OH225880   2.211   0.560   7.653
  562TIP3    H125881   2.131   0.591   7.604
  562TIP3    H225882   2.241   0.482   7.602
  563TIP3   OH225883   2.550   0.555   7.422
  563TIP3    H125884   2.644   0.568   7.449
  563TIP3    H225885   2.539   0.626   7.358
  564TIP3   OH225886   3.185   0.331   8.084
  564TIP3    H125887   3.114   0.330   8.151
  564TIP3    H225888   3.152   0.275   8.012
  565TIP3   OH225889   2.399   0.760   7.155
  565TIP3    H125890   2.329   0.696   7.131
  565TIP3    H225891   2.482   0.723   7.121
  566TIP3   OH225892   3.466   1.905   8.725
  566TIP3    H125893   3.507   1.902   8.636
  566TIP3    H225894   3.543   1.930   8.778
  567TIP3   OH225895   2.227   1.158   8.691
  567TIP3    H125896   2.309   1.160   8.744
  567TIP3    H225897   2.162   1.123   8.755
  568TIP3   OH225898   2.846   0.691   7.927
  568TIP3    H125899   2.922   0.650   7.880
  568TIP3    H225900   2.838   0.629   8.002
  569TIP3   OH225901   2.354   0.320   7.565
  569TIP3    H125902   2.309   0.241   7.600
  569TIP3    H225903   2.431   0.281   7.521
  570TIP3   OH225904   2.756   0.536   8.177
  570TIP3    H125905   2.674   0.589   8.169
  570TIP3    H225906   2.782   0.564   8.266
  571TIP3   OH225907   2.734   1.092   7.356
  571TIP3    H125908   2.724   1.019   7.418
  571TIP3    H225909   2.739   1.167   7.417
  572TIP3   OH225910   3.521   1.096   8.250
  572TIP3    H125911   3.568   1.147   8.180
  572TIP3    H225912   3.436   1.075   8.206
  573TIP3   OH225913   3.162   0.447   7.090
  573TIP3    H125914   3.073   0.408   7.099
  573TIP3    H225915   3.174   0.486   7.178
  574TIP3   OH225916   2.885   1.158   8.486
  574TIP3    H125917   2.841   1.087   8.534
  574TIP3    H225918   2.864   1.238   8.537
  575TIP3   OH225919   3.228   0.591   7.325
  575TIP3    H125920   3.309   0.588   7.381
  575TIP3    H225921   3.226   0.688   7.308
  576TIP3   OH225922   2.295   1.097   7.928
  576TIP3    H125923   2.355   1.079   7.855
  576TIP3    H225924   2.308   1.021   7.987
  577TIP3   OH225925   1.975   0.905   8.494
  577TIP3    H125926   1.955   0.835   8.560
  577TIP3    H225927   1.926   0.872   8.415
  578TIP3   OH225928   2.691   0.890   8.678
  578TIP3    H125929   2.660   0.816   8.622
  578TIP3    H225930   2.785   0.861   8.683
  579TIP3   OH225931   3.174   1.388   8.509
  579TIP3    H125932   3.101   1.410   8.449
  579TIP3    H225933   3.146   1.436   8.590
  580TIP3   OH225934   3.713   0.645   7.317
  580TIP3    H125935   3.646   0.619   7.254
  580TIP3    H225936   3.719   0.743   7.300
  581TIP3   OH225937   3.738   1.204   8.607
  581TIP3    H125938   3.643   1.220   8.590
  581TIP3    H225939   3.772   1.190   8.516
  582TIP3   OH225940   3.596   1.466   7.355
  582TIP3    H125941   3.550   1.385   7.332
  582TIP3    H225942   3.584   1.526   7.280
  583TIP3   OH225943   3.293   0.981   8.085
  583TIP3    H125944   3.199   0.962   8.070
  583TIP3    H225945   3.334   0.918   8.022
  584TIP3   OH225946   2.525   1.419   7.697
  584TIP3    H125947   2.574   1.496   7.663
  584TIP3    H225948   2.436   1.441   7.664
  585TIP3   OH225949   2.128   0.916   7.172
  585TIP3    H125950   2.112   1.006   7.142
  585TIP3    H225951   2.035   0.889   7.190
  586TIP3   OH225952   2.687   1.200   7.624
  586TIP3    H125953   2.646   1.289   7.622
  586TIP3    H225954   2.638   1.161   7.698
  587TIP3   OH225955   2.727   1.609   8.306
  587TIP3    H125956   2.786   1.673   8.261
  587TIP3    H225957   2.785   1.573   8.376
  588TIP3   OH225958   2.507   1.647   7.547
  588TIP3    H125959   2.425   1.686   7.585
  588TIP3    H225960   2.575   1.709   7.585
  589TIP3   OH225961   3.017   1.200   8.248
  589TIP3    H125962   2.971   1.175   8.334
  589TIP3    H225963   3.062   1.117   8.228
  590TIP3   OH225964   3.358   1.642   8.467
  590TIP3    H125965   3.267   1.608   8.450
  590TIP3    H225966   3.363   1.715   8.401
  591TIP3   OH225967   3.739   1.796   7.162
  591TIP3    H125968   3.751   1.866   7.097
  591TIP3    H225969   3.674   1.839   7.220
  592TIP3   OH225970   2.141   0.381   8.403
  592TIP3    H125971   2.049   0.410   8.399
  592TIP3    H225972   2.134   0.298   8.454
  593TIP3   OH225973   3.372   1.166   7.400
  593TIP3    H125974   3.358   1.077   7.435
  593TIP3    H225975   3.469   1.172   7.404
  594TIP3   OH225976   2.132   1.577   8.251
  594TIP3    H125977   2.190   1.501   8.266
  594TIP3    H225978   2.132   1.615   8.340
  595TIP3   OH225979   2.584   1.372   7.299
  595TIP3    H125980   2.674   1.352   7.271
  595TIP3    H225981   2.586   1.470   7.297
  596TIP3   OH225982   3.049   0.347   8.331
  596TIP3    H125983   3.119   0.354   8.398
  596TIP3    H225984   2.984   0.293   8.381
  597TIP3   OH225985   3.095   0.307   7.464
  597TIP3    H125986   3.076   0.369   7.392
  597TIP3    H225987   3.152   0.360   7.524
  598TIP3   OH225988   2.803   0.515   7.519
  598TIP3    H125989   2.898   0.537   7.528
  598TIP3    H225990   2.781   0.479   7.608
  599TIP3   OH225991   3.000   0.601   8.430
  599TIP3    H125992   2.918   0.621   8.479
  599TIP3    H225993   2.988   0.508   8.403
  600TIP3   OH225994   2.891   0.210   7.590
  600TIP3    H125995   2.870   0.275   7.660
  600TIP3    H225996   2.981   0.242   7.563
  601TIP3   OH225997   2.548   1.661   7.282
  601TIP3    H125998   2.594   1.742   7.257
  601TIP3    H225999   2.531   1.672   7.379
  602TIP3   OH226000   3.508   0.384   8.526
  602TIP3    H126001   3.412   0.400   8.536
  602TIP3    H226002   3.512   0.365   8.430
  603TIP3   OH226003   3.367   0.733   7.907
  603TIP3    H126004   3.294   0.670   7.915
  603TIP3    H226005   3.437   0.689   7.960
  604TIP3   OH226006   2.125   0.661   7.070
  604TIP3    H126007   2.153   0.745   7.112
  604TIP3    H226008   2.065   0.696   7.002
  605TIP3   OH226009   3.454   1.706   8.088
  605TIP3    H126010   3.447   1.780   8.024
  605TIP3    H226011   3.550   1.705   8.105
  606TIP3   OH226012   2.227   0.173   7.960
  606TIP3    H126013   2.209   0.157   7.866
  606TIP3    H226014   2.212   0.082   7.994
  607TIP3   OH226015   2.072   1.507   7.585
  607TIP3    H126016   1.994   1.557   7.557
  607TIP3    H226017   2.136   1.541   7.522
  608TIP3   OH226018   2.012   1.759   8.705
  608TIP3    H126019   2.077   1.741   8.777
  608TIP3    H226020   1.979   1.668   8.688
  609TIP3   OH226021   2.503   1.666   8.849
  609TIP3    H126022   2.591   1.630   8.872
  609TIP3    H226023   2.489   1.629   8.760
  610TIP3   OH226024   3.129   1.516   8.746
  610TIP3    H126025   3.093   1.429   8.778
  610TIP3    H226026   3.214   1.516   8.797
  611TIP3   OH226027   1.982   1.139   8.815
  611TIP3    H126028   1.954   1.046   8.812
  611TIP3    H226029   1.940   1.172   8.732
  612TIP3   OH226030   2.681   1.161   8.722
  612TIP3    H126031   2.656   1.208   8.639
  612TIP3    H226032   2.673   1.065   8.699
  613TIP3   OH226033   3.260   1.114   8.497
  613TIP3    H126034   3.341   1.168   8.492
  613TIP3    H226035   3.196   1.187   8.513
  614TIP3   OH226036   2.143   0.842   8.776
  614TIP3    H126037   2.198   0.763   8.782
  614TIP3    H226038   2.174   0.899   8.849
  615TIP3   OH226039   2.423   0.774   8.417
  615TIP3    H126040   2.411   0.851   8.473
  615TIP3    H226041   2.520   0.778   8.405
  616TIP3   OH226042   2.707   0.826   7.102
  616TIP3    H126043   2.686   0.835   7.008
  616TIP3    H226044   2.798   0.791   7.104
  617TIP3   OH226045   3.040   1.043   8.816
  617TIP3    H126046   3.117   1.021   8.760
  617TIP3    H226047   2.987   0.962   8.809
  618TIP3   OH226048   3.589   1.004   6.983
  618TIP3    H126049   3.608   0.984   6.890
  618TIP3    H226050   3.627   1.092   6.992
  619TIP3   OH226051   2.471   0.392   8.572
  619TIP3    H126052   2.531   0.336   8.520
  619TIP3    H226053   2.510   0.478   8.546
  620TIP3   OH226054   2.585   0.347   8.338
  620TIP3    H126055   2.628   0.418   8.286
  620TIP3    H226056   2.490   0.371   8.333
  621TIP3   OH226057   2.700   0.934   8.385
  621TIP3    H126058   2.781   0.914   8.337
  621TIP3    H226059   2.653   0.991   8.323
  622TIP3   OH226060   3.182   0.644   8.860
  622TIP3    H126061   3.211   0.551   8.864
  622TIP3    H226062   3.265   0.693   8.875
  623TIP3   OH226063   3.313   0.957   8.709
  623TIP3    H126064   3.288   1.009   8.630
  623TIP3    H226065   3.398   0.921   8.679
  624TIP3   OH226066   2.398   0.603   8.783
  624TIP3    H126067   2.312   0.563   8.756
  624TIP3    H226068   2.455   0.573   8.711
  625TIP3   OH226069   2.660   0.098   8.337
  625TIP3    H126070   2.649   0.195   8.342
  625TIP3    H226071   2.576   0.078   8.296
  626TIP3   OH226072   2.778   0.494   8.783
  626TIP3    H126073   2.703   0.481   8.844
  626TIP3    H226074   2.729   0.501   8.698
  627TIP3   OH226075   3.064   0.411   8.671
  627TIP3    H126076   2.969   0.429   8.677
  627TIP3    H226077   3.074   0.343   8.739
  628TIP3   OH226078   3.292   0.306   8.863
  628TIP3    H126079   3.258   0.213   8.856
  628TIP3    H226080   3.235   0.340   8.935
  629TIP3   OH226081   2.192   0.429   8.793
  629TIP3    H126082   2.237   0.365   8.737
  629TIP3    H226083   2.174   0.378   8.876
  630TIP3   OH226084   2.645   0.076   8.631
  630TIP3    H126085   2.620  -0.020   8.623
  630TIP3    H226086   2.707   0.088   8.557
  631TIP3   OH226087   2.708   0.142   8.895
  631TIP3    H126088   2.709   0.111   8.802
  631TIP3    H226089   2.656   0.223   8.885
  632TIP3   OH226090   2.693   1.916   7.176
  632TIP3    H126091   2.776   1.916   7.223
  632TIP3    H226092   2.687   2.010   7.150
  633TIP3   OH226093   1.901   1.849   7.620
  633TIP3    H126094   1.826   1.797   7.583
  633TIP3    H226095   1.935   1.788   7.689
  634TIP3   OH226096   1.971   1.678   7.809
  634TIP3    H126097   1.908   1.605   7.823
  634TIP3    H226098   1.998   1.697   7.900
  635TIP3   OH226099   3.715   1.793   8.134
  635TIP3    H126100   3.739   1.805   8.228
  635TIP3    H226101   3.792   1.837   8.093
  636TIP3   OH226102   3.676   1.690   8.402
  636TIP3    H126103   3.649   1.614   8.345
  636TIP3    H226104   3.701   1.644   8.485
  637TIP3   OH226105   3.546   1.270   8.883
  637TIP3    H126106   3.453   1.278   8.916
  637TIP3    H226107   3.584   1.354   8.915
  638TIP3   OH226108   3.631   1.132   7.435
  638TIP3    H126109   3.724   1.164   7.435
  638TIP3    H226110   3.640   1.045   7.480
  639TIP3   OH226111   3.691   0.921   7.602
  639TIP3    H126112   3.619   0.864   7.635
  639TIP3    H226113   3.749   0.937   7.679
  640TIP3   OH226114   3.667   1.200   8.057
  640TIP3    H126115   3.734   1.131   8.039
  640TIP3    H226116   3.716   1.282   8.040
  641TIP3   OH226117   3.533   1.479   8.309
  641TIP3    H126118   3.475   1.531   8.369
  641TIP3    H226119   3.473   1.467   8.234
  642TIP3   OH226120   3.719   0.901   7.261
  642TIP3    H126121   3.668   0.939   7.188
  642TIP3    H226122   3.786   0.969   7.277
  643TIP3   OH226123   3.484   0.783   7.672
  643TIP3    H126124   3.469   0.692   7.644
  643TIP3    H226125   3.451   0.781   7.764
  644TIP3   OH226126   1.977   1.006   8.073
  644TIP3    H126127   1.987   0.986   7.976
  644TIP3    H226128   2.069   0.983   8.102
  645TIP3   OH226129   3.602   0.960   8.609
  645TIP3    H126130   3.643   0.878   8.644
  645TIP3    H226131   3.681   1.010   8.579
  646TIP3   OH226132   3.698   0.720   8.691
  646TIP3    H126133   3.608   0.682   8.675
  646TIP3    H226134   3.752   0.638   8.699
  647TIP3   OH226135   3.460   0.568   7.474
  647TIP3    H126136   3.481   0.474   7.499
  647TIP3    H226137   3.552   0.597   7.464
  648TIP3   OH226138   3.543   0.600   8.068
  648TIP3    H126139   3.641   0.617   8.075
  648TIP3    H226140   3.523   0.601   8.163
  649TIP3   OH226141   3.529   0.684   8.330
  649TIP3    H126142   3.436   0.712   8.342
  649TIP3    H226143   3.574   0.765   8.295
  650TIP3   OH226144   1.965   0.496   8.687
  650TIP3    H126145   2.054   0.480   8.730
  650TIP3    H226146   1.921   0.411   8.709
  651TIP3   OH226147   3.799   0.098   8.858
  651TIP3    H126148   3.884   0.088   8.812
  651TIP3    H226149   3.759   0.162   8.795
  652TIP3   OH226150   3.540   0.323   7.513
  652TIP3    H126151   3.578   0.276   7.590
  652TIP3    H226152   3.462   0.265   7.495
  653TIP3   OH226153   2.057   0.384   8.009
  653TIP3    H126154   2.087   0.294   8.032
  653TIP3    H226155   2.144   0.428   8.003
  654TIP3   OH226156   1.910   0.668   8.080
  654TIP3    H126157   1.963   0.649   8.000
  654TIP3    H226158   1.974   0.724   8.126
  655TIP3   OH226159   3.680   0.275   8.706
  655TIP3    H126160   3.603   0.335   8.713
  655TIP3    H226161   3.664   0.236   8.617
  656TIP3   OH226162   1.935   0.258   7.496
  656TIP3    H126163   1.841   0.284   7.492
  656TIP3    H226164   1.967   0.305   7.416
  657TIP3   OH226165   1.961   0.177   8.300
  657TIP3    H126166   1.901   0.185   8.377
  657TIP3    H226167   1.910   0.225   8.233
  658TIP3   OH226168   2.162   1.444   8.709
  658TIP3    H126169   2.075   1.473   8.676
  658TIP3    H226170   2.142   1.383   8.781
  659TIP3   OH226171   2.458   1.603   8.371
  659TIP3    H126172   2.457   1.694   8.335
  659TIP3    H226173   2.554   1.587   8.368
  660TIP3   OH226174   2.863   1.726   8.623
  660TIP3    H126175   2.881   1.694   8.714
  660TIP3    H226176   2.951   1.761   8.599
  661TIP3   OH226177   3.091   1.864   8.572
  661TIP3    H126178   3.169   1.814   8.545
  661TIP3    H226179   3.123   1.902   8.658
  662TIP3   OH226180   3.637   0.154   8.463
  662TIP3    H126181   3.555   0.175   8.415
  662TIP3    H226182   3.617   0.060   8.485
  663TIP3   OH226183   2.191   1.893   8.326
  663TIP3    H126184   2.107   1.935   8.297
  663TIP3    H226185   2.183   1.899   8.423
  664TIP3   OH226186   2.444   1.838   8.242
  664TIP3    H126187   2.349   1.855   8.262
  664TIP3    H226188   2.454   1.892   8.161
  665TIP3   OH226189   2.879   1.800   8.182
  665TIP3    H126190   2.828   1.844   8.109
  665TIP3    H226191   2.912   1.878   8.230
  666TIP3   OH226192   3.099   1.668   8.313
  666TIP3    H126193   3.021   1.711   8.272
  666TIP3    H226194   3.168   1.733   8.291
  667TIP3   OH226195   3.364   1.848   8.293
  667TIP3    H126196   3.361   1.940   8.261
  667TIP3    H226197   3.395   1.802   8.211
  668TIP3   OH226198   2.152   1.730   8.025
  668TIP3    H126199   2.135   1.674   8.104
  668TIP3    H226200   2.244   1.700   8.002
  669TIP3   OH226201   2.379   1.629   7.909
  669TIP3    H126202   2.366   1.535   7.934
  669TIP3    H226203   2.469   1.645   7.945
  670TIP3   OH226204   2.609   1.601   8.045
  670TIP3    H126205   2.642   1.510   8.037
  670TIP3    H226206   2.631   1.619   8.138
  671TIP3   OH226207   2.940   0.284   7.913
  671TIP3    H126208   2.887   0.203   7.917
  671TIP3    H226209   3.013   0.257   7.854
  672TIP3   OH226210   3.439   0.134   7.897
  672TIP3    H126211   3.514   0.155   7.836
  672TIP3    H226212   3.369   0.115   7.834
  673TIP3   OH226213   3.630   0.171   7.714
  673TIP3    H126214   3.676   0.100   7.669
  673TIP3    H226215   3.703   0.231   7.745
  674TIP3   OH226216   2.190   0.137   7.669
  674TIP3    H126217   2.141   0.158   7.586
  674TIP3    H226218   2.172   0.041   7.678
  675TIP3   OH226219   2.137   0.108   7.370
  675TIP3    H126220   2.161   0.182   7.313
  675TIP3    H226221   2.040   0.112   7.373
  676TIP3   OH226222   2.647   0.136   7.669
  676TIP3    H126223   2.728   0.164   7.621
  676TIP3    H226224   2.678   0.132   7.762
  677TIP3   OH226225   3.170   0.163   7.802
  677TIP3    H126226   3.204   0.166   7.711
  677TIP3    H226227   3.172   0.068   7.825
  678TIP3   OH226228   3.322   0.178   7.463
  678TIP3    H126229   3.237   0.214   7.429
  678TIP3    H226230   3.308   0.083   7.444
  679TIP3   OH226231   2.018   1.665   7.360
  679TIP3    H126232   2.014   1.625   7.273
  679TIP3    H226233   2.029   1.760   7.340
  680TIP3   OH226234   2.722   0.291   7.356
  680TIP3    H126235   2.785   0.249   7.417
  680TIP3    H226236   2.721   0.382   7.391
  681TIP3   OH226237   2.124   0.125   8.690
  681TIP3    H126238   2.141   0.044   8.641
  681TIP3    H226239   2.211   0.142   8.731
  682TIP3   OH226240   2.370   0.124   8.792
  682TIP3    H126241   2.455   0.159   8.758
  682TIP3    H226242   2.383   0.028   8.769
  683TIP3   OH226243   2.234   1.810   7.054
  683TIP3    H126244   2.194   1.842   7.138
  683TIP3    H226245   2.288   1.736   7.085
  684TIP3   OH226246   3.180   0.050   8.834
  684TIP3    H126247   3.145  -0.039   8.855
  684TIP3    H226248   3.249   0.027   8.772
  685TIP3   OH226249   3.530   1.609   8.674
  685TIP3    H126250   3.463   1.608   8.601
  685TIP3    H226251   3.516   1.697   8.711
  686TIP3   OH226252   4.965   1.017   7.690
  686TIP3    H126253   4.954   1.114   7.679
  686TIP3    H226254   4.891   0.983   7.639
  687TIP3   OH226255   4.820   0.895   8.061
  687TIP3    H126256   4.828   0.846   8.145
  687TIP3    H226257   4.791   0.822   8.002
  688TIP3   OH226258   4.079   0.924   8.198
  688TIP3    H126259   4.101   0.834   8.224
  688TIP3    H226260   4.166   0.966   8.205
  689TIP3   OH226261   4.198   1.347   7.991
  689TIP3    H126262   4.166   1.255   7.981
  689TIP3    H226263   4.286   1.337   7.946
  690TIP3   OH226264   3.859   0.663   7.561
  690TIP3    H126265   3.826   0.748   7.593
  690TIP3    H226266   3.849   0.680   7.464
  691TIP3   OH226267   3.911   0.928   7.819
  691TIP3    H126268   3.964   0.848   7.836
  691TIP3    H226269   3.978   0.994   7.792
  692TIP3   OH226270   4.821   1.169   7.998
  692TIP3    H126271   4.814   1.072   7.997
  692TIP3    H226272   4.767   1.193   8.077
  693TIP3   OH226273   5.555   0.312   8.118
  693TIP3    H126274   5.562   0.377   8.192
  693TIP3    H226275   5.612   0.356   8.052
  694TIP3   OH226276   5.057   0.633   8.117
  694TIP3    H126277   5.066   0.536   8.119
  694TIP3    H226278   5.027   0.648   8.025
  695TIP3   OH226279   4.349   0.410   7.798
  695TIP3    H126280   4.359   0.491   7.743
  695TIP3    H226281   4.304   0.351   7.734
  696TIP3   OH226282   5.098   0.434   7.680
  696TIP3    H126283   5.153   0.407   7.757
  696TIP3    H226284   5.162   0.496   7.639
  697TIP3   OH226285   3.981   0.667   7.908
  697TIP3    H126286   4.039   0.618   7.968
  697TIP3    H226287   4.017   0.640   7.821
  698TIP3   OH226288   4.486   0.823   7.855
  698TIP3    H126289   4.580   0.802   7.866
  698TIP3    H226290   4.459   0.751   7.795
  699TIP3   OH226291   5.576   0.470   8.336
  699TIP3    H126292   5.536   0.560   8.321
  699TIP3    H226293   5.573   0.463   8.433
  700TIP3   OH226294   4.219   0.331   8.228
  700TIP3    H126295   4.188   0.384   8.151
  700TIP3    H226296   4.145   0.339   8.292
  701TIP3   OH226297   4.931   1.255   7.578
  701TIP3    H126298   4.905   1.233   7.487
  701TIP3    H226299   4.923   1.350   7.575
  702TIP3   OH226300   4.406   1.042   8.292
  702TIP3    H126301   4.344   1.106   8.332
  702TIP3    H226302   4.474   1.110   8.266
  703TIP3   OH226303   5.296   0.405   7.850
  703TIP3    H126304   5.271   0.370   7.938
  703TIP3    H226305   5.381   0.445   7.872
  704TIP3   OH226306   4.207   0.509   8.018
  704TIP3    H126307   4.268   0.577   8.053
  704TIP3    H226308   4.255   0.480   7.936
  705TIP3   OH226309   4.299   1.289   8.332
  705TIP3    H126310   4.289   1.339   8.249
  705TIP3    H226311   4.209   1.293   8.371
  706TIP3   OH226312   3.871   1.240   7.402
  706TIP3    H126313   3.900   1.301   7.333
  706TIP3    H226314   3.919   1.276   7.479
  707TIP3   OH226315   5.296   1.428   8.103
  707TIP3    H126316   5.198   1.432   8.113
  707TIP3    H226317   5.304   1.486   8.026
  708TIP3   OH226318   5.323   0.209   8.227
  708TIP3    H126319   5.252   0.238   8.166
  708TIP3    H226320   5.400   0.211   8.167
  709TIP3   OH226321   4.635   0.109   7.910
  709TIP3    H126322   4.634   0.018   7.948
  709TIP3    H226323   4.576   0.155   7.974
  710TIP3   OH226324   5.132   1.592   7.735
  710TIP3    H126325   5.143   1.512   7.680
  710TIP3    H226326   5.144   1.663   7.671
  711TIP3   OH226327   5.388   1.259   8.467
  711TIP3    H126328   5.398   1.184   8.403
  711TIP3    H226329   5.402   1.335   8.407
  712TIP3   OH226330   4.821   0.878   7.383
  712TIP3    H126331   4.773   0.963   7.386
  712TIP3    H226332   4.905   0.907   7.343
  713TIP3   OH226333   4.903   0.770   7.137
  713TIP3    H126334   4.987   0.804   7.175
  713TIP3    H226335   4.936   0.731   7.055
  714TIP3   OH226336   5.599   0.902   8.263
  714TIP3    H126337   5.525   0.965   8.250
  714TIP3    H226338   5.657   0.935   8.190
  715TIP3   OH226339   5.188   0.752   8.447
  715TIP3    H126340   5.169   0.840   8.483
  715TIP3    H226341   5.129   0.752   8.368
  716TIP3   OH226342   4.331   1.005   7.709
  716TIP3    H126343   4.320   0.987   7.614
  716TIP3    H226344   4.396   0.937   7.735
  717TIP3   OH226345   4.461   1.359   7.932
  717TIP3    H126346   4.507   1.307   7.862
  717TIP3    H226347   4.509   1.328   8.012
  718TIP3   OH226348   4.345   0.888   8.085
  718TIP3    H126349   4.402   0.885   8.004
  718TIP3    H226350   4.386   0.960   8.136
  719TIP3   OH226351   5.022   1.454   8.137
  719TIP3    H126352   4.993   1.507   8.214
  719TIP3    H226353   4.992   1.364   8.164
  720TIP3   OH226354   4.496   1.324   8.525
  720TIP3    H126355   4.421   1.371   8.567
  720TIP3    H226356   4.461   1.307   8.434
  721TIP3   OH226357   5.105   0.907   7.305
  721TIP3    H126358   5.129   0.980   7.366
  721TIP3    H226359   5.168   0.929   7.231
  722TIP3   OH226360   4.199   0.896   8.473
  722TIP3    H126361   4.214   0.992   8.478
  722TIP3    H226362   4.118   0.890   8.527
  723TIP3   OH226363   4.305   1.500   8.625
  723TIP3    H126364   4.287   1.540   8.536
  723TIP3    H226365   4.214   1.487   8.657
  724TIP3   OH226366   5.467   0.109   7.334
  724TIP3    H126367   5.403   0.122   7.260
  724TIP3    H226368   5.540   0.162   7.297
  725TIP3   OH226369   4.270   0.900   7.456
  725TIP3    H126370   4.207   0.971   7.428
  725TIP3    H226371   4.210   0.823   7.458
  726TIP3   OH226372   3.842   1.182   8.363
  726TIP3    H126373   3.786   1.177   8.284
  726TIP3    H226374   3.893   1.098   8.355
  727TIP3   OH226375   3.848   1.440   8.015
  727TIP3    H126376   3.943   1.423   8.021
  727TIP3    H226377   3.838   1.506   8.084
  728TIP3   OH226378   5.669   1.495   8.626
  728TIP3    H126379   5.646   1.403   8.604
  728TIP3    H226380   5.580   1.527   8.654
  729TIP3   OH226381   4.753   1.425   8.536
  729TIP3    H126382   4.740   1.522   8.532
  729TIP3    H226383   4.660   1.396   8.524
  730TIP3   OH226384   5.051   1.748   7.164
  730TIP3    H126385   5.100   1.668   7.143
  730TIP3    H226386   5.097   1.781   7.242
  731TIP3   OH226387   5.335   0.632   8.663
  731TIP3    H126388   5.294   0.668   8.583
  731TIP3    H226389   5.342   0.538   8.638
  732TIP3   OH226390   4.065   1.300   8.456
  732TIP3    H126391   4.082   1.264   8.546
  732TIP3    H226392   3.975   1.266   8.436
  733TIP3   OH226393   4.399   0.222   8.055
  733TIP3    H126394   4.338   0.256   7.987
  733TIP3    H226395   4.363   0.269   8.133
  734TIP3   OH226396   4.764   0.188   8.439
  734TIP3    H126397   4.811   0.102   8.445
  734TIP3    H226398   4.690   0.157   8.382
  735TIP3   OH226399   5.140   0.482   8.465
  735TIP3    H126400   5.075   0.461   8.536
  735TIP3    H226401   5.165   0.573   8.487
  736TIP3   OH226402   4.755   0.439   7.171
  736TIP3    H126403   4.738   0.358   7.224
  736TIP3    H226404   4.693   0.427   7.097
  737TIP3   OH226405   4.371   0.640   8.185
  737TIP3    H126406   4.289   0.625   8.237
  737TIP3    H226407   4.364   0.735   8.163
  738TIP3   OH226408   4.373   0.644   7.665
  738TIP3    H126409   4.276   0.642   7.662
  738TIP3    H226410   4.394   0.611   7.575
  739TIP3   OH226411   4.958   0.689   7.530
  739TIP3    H126412   4.922   0.766   7.482
  739TIP3    H226413   4.999   0.638   7.460
  740TIP3   OH226414   4.795   0.735   8.686
  740TIP3    H126415   4.757   0.648   8.712
  740TIP3    H226416   4.876   0.733   8.739
  741TIP3   OH226417   5.023   0.637   7.834
  741TIP3    H126418   5.005   0.707   7.767
  741TIP3    H226419   5.033   0.560   7.774
  742TIP3   OH226420   4.126   0.651   8.309
  742TIP3    H126421   4.150   0.697   8.392
  742TIP3    H226422   4.089   0.567   8.342
  743TIP3   OH226423   4.415   0.450   7.042
  743TIP3    H126424   4.393   0.360   7.069
  743TIP3    H226425   4.426   0.435   6.945
  744TIP3   OH226426   3.818   0.361   7.748
  744TIP3    H126427   3.878   0.377   7.823
  744TIP3    H226428   3.831   0.441   7.695
  745TIP3   OH226429   4.903   0.774   8.288
  745TIP3    H126430   4.967   0.729   8.228
  745TIP3    H226431   4.866   0.699   8.339
  746TIP3   OH226432   4.643   0.415   7.737
  746TIP3    H126433   4.554   0.378   7.757
  746TIP3    H226434   4.689   0.396   7.822
  747TIP3   OH226435   4.090   0.555   7.660
  747TIP3    H126436   4.012   0.580   7.606
  747TIP3    H226437   4.134   0.483   7.609
  748TIP3   OH226438   4.403   0.559   7.414
  748TIP3    H126439   4.496   0.581   7.426
  748TIP3    H226440   4.371   0.625   7.348
  749TIP3   OH226441   5.072   0.318   8.073
  749TIP3    H126442   5.011   0.323   8.151
  749TIP3    H226443   5.023   0.263   8.010
  750TIP3   OH226444   4.291   0.696   7.216
  750TIP3    H126445   4.213   0.645   7.189
  750TIP3    H226446   4.344   0.697   7.135
  751TIP3   OH226447   5.338   1.912   8.741
  751TIP3    H126448   5.350   1.940   8.649
  751TIP3    H226449   5.428   1.921   8.777
  752TIP3   OH226450   4.121   1.147   8.688
  752TIP3    H126451   4.198   1.139   8.749
  752TIP3    H226452   4.048   1.114   8.742
  753TIP3   OH226453   4.760   0.669   7.942
  753TIP3    H126454   4.832   0.631   7.888
  753TIP3    H226455   4.729   0.590   7.989
  754TIP3   OH226456   4.222   0.314   7.580
  754TIP3    H126457   4.186   0.232   7.620
  754TIP3    H226458   4.288   0.280   7.516
  755TIP3   OH226459   4.604   0.490   8.194
  755TIP3    H126460   4.543   0.567   8.193
  755TIP3    H226461   4.680   0.525   8.244
  756TIP3   OH226462   5.404   1.103   8.253
  756TIP3    H126463   5.447   1.149   8.178
  756TIP3    H226464   5.310   1.104   8.230
  757TIP3   OH226465   5.027   0.444   7.105
  757TIP3    H126466   4.934   0.447   7.136
  757TIP3    H226467   5.074   0.489   7.176
  758TIP3   OH226468   4.857   1.165   8.537
  758TIP3    H126469   4.779   1.110   8.522
  758TIP3    H226470   4.819   1.255   8.545
  759TIP3   OH226471   5.122   0.618   7.319
  759TIP3    H126472   5.190   0.596   7.387
  759TIP3    H226473   5.137   0.714   7.310
  760TIP3   OH226474   4.168   1.086   7.921
  760TIP3    H126475   4.227   1.074   7.844
  760TIP3    H226476   4.198   1.015   7.980
  761TIP3   OH226477   3.850   0.905   8.483
  761TIP3    H126478   3.845   0.840   8.556
  761TIP3    H226479   3.795   0.862   8.414
  762TIP3   OH226480   4.569   0.875   8.672
  762TIP3    H126481   4.528   0.811   8.612
  762TIP3    H226482   4.656   0.832   8.686
  763TIP3   OH226483   5.063   1.426   8.507
  763TIP3    H126484   4.979   1.416   8.460
  763TIP3    H226485   5.033   1.454   8.596
  764TIP3   OH226486   5.604   0.630   7.353
  764TIP3    H126487   5.550   0.584   7.286
  764TIP3    H226488   5.597   0.726   7.328
  765TIP3   OH226489   5.614   1.205   8.597
  765TIP3    H126490   5.522   1.223   8.568
  765TIP3    H226491   5.659   1.197   8.510
  766TIP3   OH226492   4.542   1.235   7.648
  766TIP3    H126493   4.551   1.259   7.553
  766TIP3    H226494   4.458   1.188   7.652
  767TIP3   OH226495   4.595   1.589   8.312
  767TIP3    H126496   4.656   1.650   8.270
  767TIP3    H226497   4.614   1.504   8.268
  768TIP3   OH226498   4.943   1.205   8.259
  768TIP3    H126499   4.913   1.189   8.351
  768TIP3    H226500   4.935   1.117   8.220
  769TIP3   OH226501   5.234   1.656   8.492
  769TIP3    H126502   5.147   1.610   8.483
  769TIP3    H226503   5.233   1.713   8.412
  770TIP3   OH226504   5.643   1.807   7.240
  770TIP3    H126505   5.634   1.869   7.165
  770TIP3    H226506   5.561   1.757   7.234
  771TIP3   OH226507   4.031   0.369   8.425
  771TIP3    H126508   3.956   0.426   8.448
  771TIP3    H226509   3.992   0.280   8.435
  772TIP3   OH226510   3.997   1.541   8.268
  772TIP3    H126511   4.073   1.480   8.263
  772TIP3    H226512   4.006   1.574   8.358
  773TIP3   OH226513   4.111   1.085   7.348
  773TIP3    H126514   4.021   1.085   7.311
  773TIP3    H226515   4.150   1.155   7.291
  774TIP3   OH226516   4.926   0.364   8.321
  774TIP3    H126517   4.992   0.383   8.390
  774TIP3    H226518   4.870   0.298   8.369
  775TIP3   OH226519   4.965   0.348   7.471
  775TIP3    H126520   5.018   0.399   7.409
  775TIP3    H226521   5.021   0.356   7.552
  776TIP3   OH226522   4.676   0.533   7.484
  776TIP3    H126523   4.772   0.537   7.499
  776TIP3    H226524   4.648   0.497   7.571
  777TIP3   OH226525   4.795   0.597   8.456
  777TIP3    H126526   4.796   0.649   8.539
  777TIP3    H226527   4.811   0.504   8.481
  778TIP3   OH226528   4.775   0.205   7.582
  778TIP3    H126529   4.754   0.273   7.649
  778TIP3    H226530   4.860   0.238   7.546
  779TIP3   OH226531   4.361   0.299   7.333
  779TIP3    H126532   4.352   0.395   7.343
  779TIP3    H226533   4.458   0.288   7.341
  780TIP3   OH226534   5.382   0.400   8.522
  780TIP3    H126535   5.285   0.409   8.511
  780TIP3    H226536   5.407   0.376   8.430
  781TIP3   OH226537   5.253   0.763   7.913
  781TIP3    H126538   5.171   0.714   7.907
  781TIP3    H226539   5.312   0.703   7.965
  782TIP3   OH226540   4.187   1.295   7.196
  782TIP3    H126541   4.257   1.340   7.245
  782TIP3    H226542   4.238   1.237   7.137
  783TIP3   OH226543   3.997   0.611   7.098
  783TIP3    H126544   3.981   0.705   7.117
  783TIP3    H226545   4.006   0.614   7.001
  784TIP3   OH226546   5.342   1.694   8.047
  784TIP3    H126547   5.377   1.704   7.956
  784TIP3    H226548   5.426   1.689   8.097
  785TIP3   OH226549   4.088   0.181   7.939
  785TIP3    H126550   4.077   0.159   7.844
  785TIP3    H226551   4.083   0.091   7.977
  786TIP3   OH226552   3.984   1.441   7.541
  786TIP3    H126553   3.954   1.507   7.604
  786TIP3    H226554   3.981   1.495   7.459
  787TIP3   OH226555   3.895   1.773   8.706
  787TIP3    H126556   3.961   1.756   8.777
  787TIP3    H226557   3.869   1.682   8.681
  788TIP3   OH226558   4.387   1.659   8.846
  788TIP3    H126559   4.478   1.627   8.862
  788TIP3    H226560   4.368   1.616   8.761
  789TIP3   OH226561   5.016   1.531   8.758
  789TIP3    H126562   4.979   1.442   8.777
  789TIP3    H226563   5.103   1.523   8.805
  790TIP3   OH226564   3.872   1.136   8.827
  790TIP3    H126565   3.838   1.047   8.841
  790TIP3    H226566   3.824   1.160   8.745
  791TIP3   OH226567   4.569   1.144   8.715
  791TIP3    H126568   4.551   1.201   8.636
  791TIP3    H226569   4.579   1.054   8.678
  792TIP3   OH226570   5.129   1.119   8.502
  792TIP3    H126571   5.201   1.186   8.500
  792TIP3    H226572   5.049   1.176   8.513
  793TIP3   OH226573   4.027   0.847   8.790
  793TIP3    H126574   4.097   0.781   8.797
  793TIP3    H226575   4.044   0.906   8.866
  794TIP3   OH226576   4.506   0.882   7.259
  794TIP3    H126577   4.430   0.885   7.321
  794TIP3    H226578   4.473   0.950   7.198
  795TIP3   OH226579   4.427   0.735   8.463
  795TIP3    H126580   4.344   0.783   8.478
  795TIP3    H226581   4.473   0.796   8.402
  796TIP3   OH226582   4.914   1.028   8.833
  796TIP3    H126583   4.981   1.001   8.770
  796TIP3    H226584   4.899   0.946   8.885
  797TIP3   OH226585   4.463   0.501   8.579
  797TIP3    H126586   4.471   0.439   8.503
  797TIP3    H226587   4.466   0.585   8.526
  798TIP3   OH226588   4.447   0.356   8.361
  798TIP3    H126589   4.501   0.390   8.286
  798TIP3    H226590   4.355   0.371   8.329
  799TIP3   OH226591   4.611   0.877   8.338
  799TIP3    H126592   4.696   0.920   8.325
  799TIP3    H226593   4.549   0.943   8.301
  800TIP3   OH226594   5.045   0.635   8.852
  800TIP3    H126595   5.081   0.545   8.861
  800TIP3    H226596   5.121   0.691   8.876
  801TIP3   OH226597   5.196   0.960   8.705
  801TIP3    H126598   5.162   1.016   8.632
  801TIP3    H226599   5.289   0.951   8.677
  802TIP3   OH226600   4.283   0.597   8.762
  802TIP3    H126601   4.205   0.544   8.739
  802TIP3    H226602   4.350   0.558   8.700
  803TIP3   OH226603   4.529   0.109   8.341
  803TIP3    H126604   4.509   0.204   8.360
  803TIP3    H226605   4.446   0.084   8.297
  804TIP3   OH226606   4.673   0.501   8.770
  804TIP3    H126607   4.613   0.481   8.845
  804TIP3    H226608   4.611   0.484   8.696
  805TIP3   OH226609   4.959   0.414   8.660
  805TIP3    H126610   4.865   0.414   8.688
  805TIP3    H226611   4.999   0.363   8.733
  806TIP3   OH226612   5.154   0.317   8.864
  806TIP3    H126613   5.141   0.219   8.870
  806TIP3    H226614   5.114   0.344   8.950
  807TIP3   OH226615   4.066   0.413   8.783
  807TIP3    H126616   4.047   0.333   8.731
  807TIP3    H226617   4.065   0.378   8.876
  808TIP3   OH226618   4.545   0.086   8.629
  808TIP3    H126619   4.535  -0.011   8.635
  808TIP3    H226620   4.568   0.102   8.536
  809TIP3   OH226621   4.593   0.148   8.896
  809TIP3    H126622   4.606   0.110   8.807
  809TIP3    H226623   4.540   0.227   8.875
  810TIP3   OH226624   3.906   1.674   7.822
  810TIP3    H126625   3.841   1.603   7.827
  810TIP3    H226626   3.922   1.691   7.917
  811TIP3   OH226627   5.619   1.721   8.073
  811TIP3    H126628   5.619   1.731   8.171
  811TIP3    H226629   5.704   1.763   8.054
  812TIP3   OH226630   5.564   1.719   8.353
  812TIP3    H126631   5.523   1.631   8.334
  812TIP3    H226632   5.604   1.697   8.439
  813TIP3   OH226633   5.434   1.263   8.881
  813TIP3    H126634   5.342   1.271   8.913
  813TIP3    H226635   5.474   1.342   8.920
  814TIP3   OH226636   5.561   1.198   8.061
  814TIP3    H126637   5.636   1.134   8.060
  814TIP3    H226638   5.610   1.282   8.048
  815TIP3   OH226639   5.429   1.487   8.324
  815TIP3    H126640   5.355   1.523   8.375
  815TIP3    H226641   5.384   1.466   8.238
  816TIP3   OH226642   5.593   0.900   7.278
  816TIP3    H126643   5.543   0.936   7.204
  816TIP3    H226644   5.608   0.978   7.333
  817TIP3   OH226645   3.856   0.992   8.072
  817TIP3    H126646   3.870   0.953   7.983
  817TIP3    H226647   3.945   0.983   8.112
  818TIP3   OH226648   5.474   0.967   8.624
  818TIP3    H126649   5.523   0.882   8.636
  818TIP3    H226650   5.544   1.034   8.613
  819TIP3   OH226651   5.587   0.721   8.672
  819TIP3    H126652   5.496   0.682   8.676
  819TIP3    H226653   5.644   0.643   8.686
  820TIP3   OH226654   5.303   0.553   7.520
  820TIP3    H126655   5.345   0.463   7.523
  820TIP3    H226656   5.381   0.606   7.501
  821TIP3   OH226657   5.422   0.592   8.060
  821TIP3    H126658   5.516   0.623   8.066
  821TIP3    H226659   5.401   0.574   8.152
  822TIP3   OH226660   5.430   0.696   8.336
  822TIP3    H126661   5.342   0.718   8.371
  822TIP3    H226662   5.468   0.783   8.311
  823TIP3   OH226663   3.833   0.497   8.679
  823TIP3    H126664   3.924   0.493   8.716
  823TIP3    H226665   3.792   0.413   8.708
  824TIP3   OH226666   5.699   0.088   8.863
  824TIP3    H126667   5.780   0.075   8.809
  824TIP3    H226668   5.661   0.159   8.808
  825TIP3   OH226669   5.427   0.315   7.527
  825TIP3    H126670   5.436   0.287   7.620
  825TIP3    H226671   5.365   0.245   7.494
  826TIP3   OH226672   3.947   0.399   8.010
  826TIP3    H126673   3.987   0.308   8.003
  826TIP3    H226674   4.029   0.449   8.025
  827TIP3   OH226675   3.798   0.654   8.098
  827TIP3    H126676   3.852   0.628   8.020
  827TIP3    H226677   3.840   0.737   8.122
  828TIP3   OH226678   5.572   0.305   8.718
  828TIP3    H126679   5.492   0.362   8.720
  828TIP3    H226680   5.552   0.253   8.638
  829TIP3   OH226681   5.608   0.302   7.163
  829TIP3    H126682   5.620   0.224   7.106
  829TIP3    H226683   5.686   0.354   7.138
  830TIP3   OH226684   3.838   0.185   8.277
  830TIP3    H126685   3.777   0.190   8.355
  830TIP3    H226686   3.794   0.252   8.220
  831TIP3   OH226687   4.050   1.434   8.707
  831TIP3    H126688   3.967   1.465   8.669
  831TIP3    H226689   4.022   1.375   8.779
  832TIP3   OH226690   4.315   1.626   8.388
  832TIP3    H126691   4.355   1.695   8.332
  832TIP3    H226692   4.391   1.567   8.400
  833TIP3   OH226693   4.746   1.714   8.627
  833TIP3    H126694   4.761   1.676   8.716
  833TIP3    H226695   4.834   1.753   8.607
  834TIP3   OH226696   4.973   1.864   8.573
  834TIP3    H126697   5.045   1.804   8.550
  834TIP3    H226698   5.002   1.895   8.662
  835TIP3   OH226699   5.512   0.161   8.472
  835TIP3    H126700   5.428   0.185   8.430
  835TIP3    H226701   5.493   0.066   8.491
  836TIP3   OH226702   4.079   1.890   8.339
  836TIP3    H126703   4.005   1.952   8.325
  836TIP3    H226704   4.081   1.875   8.435
  837TIP3   OH226705   4.327   1.874   8.229
  837TIP3    H126706   4.232   1.851   8.250
  837TIP3    H226707   4.320   1.970   8.241
  838TIP3   OH226708   4.770   1.814   8.166
  838TIP3    H126709   4.721   1.885   8.121
  838TIP3    H226710   4.806   1.866   8.241
  839TIP3   OH226711   4.988   1.677   8.311
  839TIP3    H126712   4.924   1.708   8.246
  839TIP3    H226713   5.065   1.732   8.289
  840TIP3   OH226714   5.242   1.813   8.280
  840TIP3    H126715   5.259   1.908   8.270
  840TIP3    H226716   5.267   1.781   8.190
  841TIP3   OH226717   4.019   1.751   8.075
  841TIP3    H126718   4.006   1.722   8.167
  841TIP3    H226719   4.100   1.701   8.050
  842TIP3   OH226720   4.237   1.620   7.993
  842TIP3    H126721   4.204   1.528   7.983
  842TIP3    H226722   4.330   1.603   7.973
  843TIP3   OH226723   4.813   0.317   7.925
  843TIP3    H126724   4.773   0.229   7.937
  843TIP3    H226725   4.889   0.292   7.869
  844TIP3   OH226726   5.327   0.123   7.913
  844TIP3    H126727   5.403   0.171   7.872
  844TIP3    H226728   5.262   0.127   7.842
  845TIP3   OH226729   5.534   0.199   7.750
  845TIP3    H126730   5.566   0.131   7.687
  845TIP3    H226731   5.598   0.273   7.740
  846TIP3   OH226732   4.079   0.121   7.681
  846TIP3    H126733   4.020   0.134   7.608
  846TIP3    H226734   4.078   0.022   7.691
  847TIP3   OH226735   4.544   0.095   7.656
  847TIP3    H126736   4.624   0.133   7.614
  847TIP3    H226737   4.571   0.104   7.750
  848TIP3   OH226738   5.024   0.161   7.815
  848TIP3    H126739   5.061   0.162   7.726
  848TIP3    H226740   5.038   0.069   7.842
  849TIP3   OH226741   5.206   0.175   7.465
  849TIP3    H126742   5.150   0.204   7.391
  849TIP3    H226743   5.244   0.095   7.425
  850TIP3   OH226744   3.894   1.646   7.364
  850TIP3    H126745   3.844   1.655   7.281
  850TIP3    H226746   3.875   1.731   7.405
  851TIP3   OH226747   4.625   0.289   7.363
  851TIP3    H126748   4.665   0.249   7.443
  851TIP3    H226749   4.631   0.383   7.387
  852TIP3   OH226750   4.011   0.115   8.695
  852TIP3    H126751   4.017   0.024   8.662
  852TIP3    H226752   4.101   0.127   8.732
  853TIP3   OH226753   4.249   0.102   8.812
  853TIP3    H126754   4.332   0.143   8.783
  853TIP3    H226755   4.261   0.012   8.772
  854TIP3   OH226756   4.082   1.740   7.086
  854TIP3    H126757   4.110   1.742   7.179
  854TIP3    H226758   4.164   1.762   7.041
  855TIP3   OH226759   5.096   0.062   8.864
  855TIP3    H126760   5.039  -0.012   8.886
  855TIP3    H226761   5.161   0.013   8.812
  856TIP3   OH226762   5.437   1.620   8.654
  856TIP3    H126763   5.368   1.612   8.584
  856TIP3    H226764   5.407   1.702   8.696
  857TIP3   OH226765   6.875   1.016   7.684
  857TIP3    H126766   6.877   1.114   7.674
  857TIP3    H226767   6.810   0.993   7.616
  858TIP3   OH226768   6.750   0.887   8.016
  858TIP3    H126769   6.765   0.849   8.107
  858TIP3    H226770   6.660   0.922   8.020
  859TIP3   OH226771   5.962   0.900   8.169
  859TIP3    H126772   5.956   0.829   8.235
  859TIP3    H226773   6.052   0.931   8.188
  860TIP3   OH226774   7.116   1.228   7.897
  860TIP3    H126775   7.110   1.152   7.956
  860TIP3    H226776   7.110   1.302   7.959
  861TIP3   OH226777   6.079   1.362   8.006
  861TIP3    H126778   6.043   1.274   7.982
  861TIP3    H226779   6.173   1.344   7.988
  862TIP3   OH226780   5.747   0.710   7.577
  862TIP3    H126781   5.687   0.775   7.615
  862TIP3    H226782   5.685   0.653   7.528
  863TIP3   OH226783   5.820   0.932   7.823
  863TIP3    H126784   5.854   0.840   7.832
  863TIP3    H226785   5.835   0.957   7.732
  864TIP3   OH226786   6.837   1.789   7.860
  864TIP3    H126787   6.892   1.717   7.820
  864TIP3    H226788   6.798   1.742   7.934
  865TIP3   OH226789   6.571   1.159   8.116
  865TIP3    H126790   6.600   1.171   8.025
  865TIP3    H226791   6.655   1.179   8.163
  866TIP3   OH226792   7.439   0.360   8.122
  866TIP3    H126793   7.468   0.425   8.188
  866TIP3    H226794   7.472   0.399   8.039
  867TIP3   OH226795   6.220   0.418   7.788
  867TIP3    H126796   6.225   0.502   7.739
  867TIP3    H226797   6.189   0.356   7.719
  868TIP3   OH226798   5.878   0.669   7.910
  868TIP3    H126799   5.951   0.637   7.966
  868TIP3    H226800   5.899   0.624   7.826
  869TIP3   OH226801   6.357   0.815   7.856
  869TIP3    H126802   6.435   0.758   7.861
  869TIP3    H226803   6.295   0.752   7.813
  870TIP3   OH226804   7.525   0.465   8.361
  870TIP3    H126805   7.463   0.540   8.350
  870TIP3    H226806   7.498   0.438   8.449
  871TIP3   OH226807   6.106   0.323   8.226
  871TIP3    H126808   6.073   0.388   8.161
  871TIP3    H226809   6.034   0.324   8.294
  872TIP3   OH226810   6.817   1.283   7.597
  872TIP3    H126811   6.816   1.289   7.499
  872TIP3    H226812   6.772   1.367   7.621
  873TIP3   OH226813   6.341   1.077   8.227
  873TIP3    H126814   6.286   1.153   8.259
  873TIP3    H226815   6.417   1.123   8.185
  874TIP3   OH226816   6.099   0.521   8.014
  874TIP3    H126817   6.167   0.575   8.061
  874TIP3    H226818   6.151   0.486   7.938
  875TIP3   OH226819   6.213   1.295   8.313
  875TIP3    H126820   6.197   1.371   8.256
  875TIP3    H226821   6.127   1.291   8.361
  876TIP3   OH226822   5.804   1.244   7.374
  876TIP3    H126823   5.740   1.299   7.328
  876TIP3    H226824   5.839   1.311   7.438
  877TIP3   OH226825   7.165   1.429   8.078
  877TIP3    H126826   7.070   1.447   8.100
  877TIP3    H226827   7.190   1.518   8.046
  878TIP3   OH226828   7.229   0.187   8.246
  878TIP3    H126829   7.160   0.219   8.185
  878TIP3    H226830   7.304   0.183   8.184
  879TIP3   OH226831   6.466   0.100   7.917
  879TIP3    H126832   6.479   0.015   7.963
  879TIP3    H226833   6.430   0.157   7.987
  880TIP3   OH226834   6.982   1.592   7.747
  880TIP3    H126835   7.008   1.502   7.719
  880TIP3    H226836   7.044   1.646   7.694
  881TIP3   OH226837   7.137   1.391   7.604
  881TIP3    H126838   7.130   1.327   7.529
  881TIP3    H226839   7.145   1.330   7.679
  882TIP3   OH226840   7.258   1.231   8.461
  882TIP3    H126841   7.271   1.170   8.384
  882TIP3    H226842   7.266   1.319   8.417
  883TIP3   OH226843   7.426   0.872   8.236
  883TIP3    H126844   7.375   0.956   8.231
  883TIP3    H226845   7.499   0.889   8.172
  884TIP3   OH226846   7.063   0.940   7.491
  884TIP3    H126847   6.997   0.962   7.559
  884TIP3    H226848   7.126   0.887   7.542
  885TIP3   OH226849   7.075   0.757   8.434
  885TIP3    H126850   7.053   0.826   8.499
  885TIP3    H226851   7.033   0.799   8.357
  886TIP3   OH226852   6.244   1.011   7.701
  886TIP3    H126853   6.210   0.975   7.616
  886TIP3    H226854   6.298   0.940   7.739
  887TIP3   OH226855   6.369   1.336   7.990
  887TIP3    H126856   6.386   1.312   7.898
  887TIP3    H226857   6.434   1.283   8.039
  888TIP3   OH226858   6.230   0.892   8.087
  888TIP3    H126859   6.273   0.883   7.999
  888TIP3    H226860   6.282   0.964   8.128
  889TIP3   OH226861   6.919   1.454   8.162
  889TIP3    H126862   6.867   1.520   8.210
  889TIP3    H226863   6.880   1.373   8.201
  890TIP3   OH226864   6.377   1.334   8.521
  890TIP3    H126865   6.306   1.379   8.571
  890TIP3    H226866   6.330   1.322   8.434
  891TIP3   OH226867   6.056   0.922   8.458
  891TIP3    H126868   6.078   1.012   8.485
  891TIP3    H226869   5.986   0.902   8.523
  892TIP3   OH226870   6.709   1.530   7.666
  892TIP3    H126871   6.774   1.571   7.726
  892TIP3    H226872   6.703   1.593   7.595
  893TIP3   OH226873   6.201   1.506   8.636
  893TIP3    H126874   6.193   1.547   8.547
  893TIP3    H226875   6.107   1.485   8.654
  894TIP3   OH226876   7.322   0.088   7.296
  894TIP3    H126877   7.246   0.139   7.328
  894TIP3    H226878   7.376   0.159   7.255
  895TIP3   OH226879   6.121   0.910   7.468
  895TIP3    H126880   6.102   0.994   7.419
  895TIP3    H226881   6.031   0.881   7.486
  896TIP3   OH226882   5.775   1.182   8.385
  896TIP3    H126883   5.742   1.160   8.298
  896TIP3    H226884   5.807   1.093   8.413
  897TIP3   OH226885   5.723   1.440   8.030
  897TIP3    H126886   5.819   1.438   8.049
  897TIP3    H226887   5.696   1.524   8.070
  898TIP3   OH226888   7.537   1.504   8.595
  898TIP3    H126889   7.531   1.409   8.591
  898TIP3    H226890   7.456   1.520   8.649
  899TIP3   OH226891   6.627   1.436   8.521
  899TIP3    H126892   6.639   1.513   8.579
  899TIP3    H226893   6.532   1.413   8.530
  900TIP3   OH226894   6.728   1.848   7.468
  900TIP3    H126895   6.661   1.784   7.494
  900TIP3    H226896   6.698   1.931   7.513
  901TIP3   OH226897   6.062   1.696   7.673
  901TIP3    H126898   6.073   1.665   7.766
  901TIP3    H226899   5.968   1.679   7.654
  902TIP3   OH226900   6.970   1.783   7.180
  902TIP3    H126901   7.036   1.729   7.133
  902TIP3    H226902   6.913   1.713   7.215
  903TIP3   OH226903   6.975   1.751   7.496
  903TIP3    H126904   6.887   1.791   7.480
  903TIP3    H226905   6.957   1.657   7.479
  904TIP3   OH226906   7.225   0.662   8.653
  904TIP3    H126907   7.164   0.676   8.577
  904TIP3    H226908   7.270   0.580   8.621
  905TIP3   OH226909   5.991   1.313   8.457
  905TIP3    H126910   5.997   1.282   8.550
  905TIP3    H226911   5.903   1.277   8.434
  906TIP3   OH226912   6.275   0.236   8.049
  906TIP3    H126913   6.204   0.256   7.986
  906TIP3    H226914   6.232   0.267   8.132
  907TIP3   OH226915   6.659   0.182   8.419
  907TIP3    H126916   6.701   0.094   8.431
  907TIP3    H226917   6.584   0.155   8.362
  908TIP3   OH226918   7.027   0.485   8.462
  908TIP3    H126919   6.960   0.467   8.531
  908TIP3    H226920   7.037   0.581   8.469
  909TIP3   OH226921   6.257   0.650   8.181
  909TIP3    H126922   6.177   0.640   8.237
  909TIP3    H226923   6.245   0.743   8.151
  910TIP3   OH226924   6.241   0.665   7.679
  910TIP3    H126925   6.143   0.655   7.672
  910TIP3    H226926   6.267   0.673   7.587
  911TIP3   OH226927   6.679   0.730   8.678
  911TIP3    H126928   6.636   0.644   8.703
  911TIP3    H226929   6.754   0.729   8.738
  912TIP3   OH226930   6.014   0.645   8.314
  912TIP3    H126931   6.038   0.694   8.394
  912TIP3    H226932   5.972   0.566   8.349
  913TIP3   OH226933   6.357   0.436   7.037
  913TIP3    H126934   6.319   0.380   7.106
  913TIP3    H226935   6.393   0.372   6.976
  914TIP3   OH226936   5.706   0.406   7.745
  914TIP3    H126937   5.770   0.408   7.818
  914TIP3    H226938   5.758   0.377   7.669
  915TIP3   OH226939   5.834   0.439   7.332
  915TIP3    H126940   5.885   0.435   7.251
  915TIP3    H226941   5.778   0.517   7.319
  916TIP3   OH226942   6.800   0.778   8.263
  916TIP3    H126943   6.883   0.732   8.247
  916TIP3    H226944   6.751   0.714   8.320
  917TIP3   OH226945   5.987   0.582   7.652
  917TIP3    H126946   5.905   0.603   7.603
  917TIP3    H226947   6.001   0.488   7.631
  918TIP3   OH226948   7.248   1.869   8.738
  918TIP3    H126949   7.290   1.895   8.654
  918TIP3    H226950   7.320   1.889   8.800
  919TIP3   OH226951   5.996   1.161   8.698
  919TIP3    H126952   6.075   1.160   8.756
  919TIP3    H226953   5.928   1.120   8.754
  920TIP3   OH226954   6.102   0.307   7.562
  920TIP3    H126955   6.047   0.238   7.608
  920TIP3    H226956   6.162   0.251   7.511
  921TIP3   OH226957   6.487   0.497   8.200
  921TIP3    H126958   6.422   0.571   8.197
  921TIP3    H226959   6.564   0.541   8.240
  922TIP3   OH226960   6.509   1.156   7.383
  922TIP3    H126961   6.461   1.074   7.378
  922TIP3    H226962   6.497   1.181   7.478
  923TIP3   OH226963   7.274   1.089   8.240
  923TIP3    H126964   7.320   1.135   8.168
  923TIP3    H226965   7.186   1.072   8.201
  924TIP3   OH226966   6.675   1.170   8.497
  924TIP3    H126967   6.641   1.149   8.585
  924TIP3    H226968   6.656   1.266   8.496
  925TIP3   OH226969   6.046   1.110   7.908
  925TIP3    H126970   6.090   1.078   7.828
  925TIP3    H226971   6.063   1.038   7.971
  926TIP3   OH226972   6.741   1.316   7.334
  926TIP3    H126973   6.691   1.399   7.323
  926TIP3    H226974   6.675   1.245   7.329
  927TIP3   OH226975   5.754   0.916   8.493
  927TIP3    H126976   5.734   0.851   8.563
  927TIP3    H226977   5.705   0.879   8.417
  928TIP3   OH226978   6.456   0.877   8.662
  928TIP3    H126979   6.403   0.814   8.613
  928TIP3    H226980   6.546   0.835   8.661
  929TIP3   OH226981   6.952   1.398   8.514
  929TIP3    H126982   6.869   1.394   8.465
  929TIP3    H226983   6.924   1.448   8.593
  930TIP3   OH226984   7.538   0.600   7.331
  930TIP3    H126985   7.471   0.585   7.260
  930TIP3    H226986   7.582   0.676   7.291
  931TIP3   OH226987   7.482   1.199   8.592
  931TIP3    H126988   7.393   1.225   8.558
  931TIP3    H226989   7.533   1.186   8.509
  932TIP3   OH226990   7.334   1.468   7.355
  932TIP3    H126991   7.273   1.400   7.389
  932TIP3    H226992   7.337   1.445   7.261
  933TIP3   OH226993   7.059   0.997   8.067
  933TIP3    H126994   6.965   0.992   8.040
  933TIP3    H226995   7.090   0.918   8.018
  934TIP3   OH226996   6.291   1.446   7.667
  934TIP3    H126997   6.304   1.540   7.642
  934TIP3    H226998   6.197   1.435   7.650
  935TIP3   OH226999   6.417   1.206   7.629
  935TIP3    H127000   6.376   1.295   7.639
  935TIP3    H227001   6.350   1.146   7.666
  936TIP3   OH227002   6.489   1.610   8.315
  936TIP3    H127003   6.550   1.679   8.286
  936TIP3    H227004   6.540   1.563   8.384
  937TIP3   OH227005   6.314   1.705   7.575
  937TIP3    H127006   6.219   1.709   7.603
  937TIP3    H227007   6.345   1.787   7.620
  938TIP3   OH227008   6.799   1.201   8.251
  938TIP3    H127009   6.759   1.166   8.335
  938TIP3    H227010   6.876   1.144   8.239
  939TIP3   OH227011   7.130   1.645   8.475
  939TIP3    H127012   7.041   1.605   8.478
  939TIP3    H227013   7.124   1.708   8.400
  940TIP3   OH227014   5.923   0.364   8.428
  940TIP3    H127015   5.858   0.430   8.459
  940TIP3    H227016   5.884   0.280   8.455
  941TIP3   OH227017   7.174   1.230   7.382
  941TIP3    H127018   7.118   1.154   7.356
  941TIP3    H227019   7.263   1.189   7.379
  942TIP3   OH227020   5.890   1.565   8.265
  942TIP3    H127021   5.949   1.489   8.277
  942TIP3    H227022   5.912   1.615   8.344
  943TIP3   OH227023   6.385   1.380   7.249
  943TIP3    H127024   6.431   1.316   7.306
  943TIP3    H227025   6.390   1.463   7.299
  944TIP3   OH227026   6.035   1.103   7.300
  944TIP3    H127027   5.952   1.151   7.328
  944TIP3    H227028   6.067   1.165   7.232
  945TIP3   OH227029   6.815   0.373   8.319
  945TIP3    H127030   6.880   0.363   8.391
  945TIP3    H227031   6.759   0.296   8.338
  946TIP3   OH227032   6.654   1.585   7.323
  946TIP3    H127033   6.560   1.612   7.335
  946TIP3    H227034   6.663   1.593   7.225
  947TIP3   OH227035   6.673   0.613   8.431
  947TIP3    H127036   6.683   0.655   8.520
  947TIP3    H227037   6.708   0.522   8.442
  948TIP3   OH227038   6.401   1.658   7.330
  948TIP3    H127039   6.328   1.701   7.284
  948TIP3    H227040   6.368   1.666   7.423
  949TIP3   OH227041   6.263   0.314   7.263
  949TIP3    H127042   6.246   0.384   7.328
  949TIP3    H227043   6.343   0.274   7.300
  950TIP3   OH227044   7.268   0.401   8.508
  950TIP3    H127045   7.176   0.431   8.493
  950TIP3    H227046   7.280   0.345   8.430
  951TIP3   OH227047   7.084   0.752   7.928
  951TIP3    H127048   7.032   0.680   7.891
  951TIP3    H227049   7.155   0.703   7.976
  952TIP3   OH227050   7.259   1.691   8.073
  952TIP3    H127051   7.261   1.758   8.001
  952TIP3    H227052   7.353   1.693   8.101
  953TIP3   OH227053   5.959   0.161   7.983
  953TIP3    H127054   5.954   0.140   7.888
  953TIP3    H227055   5.970   0.068   8.014
  954TIP3   OH227056   5.871   1.453   7.516
  954TIP3    H127057   5.841   1.468   7.607
  954TIP3    H227058   5.869   1.542   7.477
  955TIP3   OH227059   5.785   1.769   8.711
  955TIP3    H127060   5.850   1.760   8.783
  955TIP3    H227061   5.763   1.675   8.694
  956TIP3   OH227062   6.281   1.666   8.850
  956TIP3    H127063   6.362   1.618   8.878
  956TIP3    H227064   6.261   1.620   8.767
  957TIP3   OH227065   6.682   1.578   7.060
  957TIP3    H127066   6.609   1.546   7.005
  957TIP3    H227067   6.761   1.540   7.017
  958TIP3   OH227068   6.897   1.518   8.757
  958TIP3    H127069   6.866   1.429   8.786
  958TIP3    H227070   6.984   1.520   8.802
  959TIP3   OH227071   5.753   1.148   8.818
  959TIP3    H127072   5.723   1.055   8.811
  959TIP3    H227073   5.717   1.183   8.733
  960TIP3   OH227074   6.441   1.140   8.696
  960TIP3    H127075   6.424   1.195   8.616
  960TIP3    H227076   6.430   1.047   8.663
  961TIP3   OH227077   7.022   1.099   8.504
  961TIP3    H127078   7.114   1.136   8.502
  961TIP3    H227079   6.978   1.180   8.534
  962TIP3   OH227080   5.921   0.852   8.766
  962TIP3    H127081   5.965   0.768   8.785
  962TIP3    H227082   5.946   0.907   8.843
  963TIP3   OH227083   6.253   0.749   8.447
  963TIP3    H127084   6.179   0.813   8.447
  963TIP3    H227085   6.322   0.799   8.400
  964TIP3   OH227086   6.781   1.029   8.823
  964TIP3    H127087   6.854   0.991   8.771
  964TIP3    H227088   6.752   0.948   8.868
  965TIP3   OH227089   6.342   0.530   8.568
  965TIP3    H127090   6.357   0.465   8.497
  965TIP3    H227091   6.333   0.612   8.514
  966TIP3   OH227092   6.336   0.355   8.366
  966TIP3    H127093   6.397   0.397   8.302
  966TIP3    H227094   6.251   0.359   8.318
  967TIP3   OH227095   6.488   0.881   8.338
  967TIP3    H127096   6.580   0.909   8.338
  967TIP3    H227097   6.441   0.961   8.305
  968TIP3   OH227098   6.958   0.622   8.862
  968TIP3    H127099   6.998   0.536   8.850
  968TIP3    H227100   7.033   0.683   8.869
  969TIP3   OH227101   7.050   0.938   8.714
  969TIP3    H127102   7.025   0.993   8.636
  969TIP3    H227103   7.140   0.908   8.691
  970TIP3   OH227104   6.167   0.607   8.773
  970TIP3    H127105   6.082   0.560   8.757
  970TIP3    H227106   6.225   0.569   8.702
  971TIP3   OH227107   6.411   0.108   8.340
  971TIP3    H127108   6.396   0.205   8.353
  971TIP3    H227109   6.320   0.079   8.322
  972TIP3   OH227110   6.556   0.508   8.768
  972TIP3    H127111   6.500   0.489   8.845
  972TIP3    H227112   6.493   0.488   8.697
  973TIP3   OH227113   6.860   0.424   8.656
  973TIP3    H127114   6.769   0.399   8.674
  973TIP3    H227115   6.910   0.367   8.718
  974TIP3   OH227116   7.015   0.307   8.871
  974TIP3    H127117   7.002   0.209   8.885
  974TIP3    H227118   6.982   0.338   8.959
  975TIP3   OH227119   5.960   0.430   8.778
  975TIP3    H127120   5.963   0.352   8.722
  975TIP3    H227121   5.951   0.390   8.868
  976TIP3   OH227122   6.429   0.087   8.625
  976TIP3    H127123   6.416  -0.010   8.629
  976TIP3    H227124   6.456   0.101   8.532
  977TIP3   OH227125   6.488   0.142   8.894
  977TIP3    H127126   6.487   0.116   8.800
  977TIP3    H227127   6.445   0.229   8.890
  978TIP3   OH227128   5.779   1.652   7.813
  978TIP3    H127129   5.710   1.599   7.855
  978TIP3    H227130   5.831   1.682   7.890
  979TIP3   OH227131   7.538   1.731   8.145
  979TIP3    H127132   7.548   1.700   8.236
  979TIP3    H227133   7.522   1.827   8.162
  980TIP3   OH227134   7.461   1.687   8.409
  980TIP3    H127135   7.407   1.619   8.362
  980TIP3    H227136   7.502   1.627   8.475
  981TIP3   OH227137   7.316   1.269   8.906
  981TIP3    H127138   7.230   1.283   8.950
  981TIP3    H227139   7.350   1.360   8.904
  982TIP3   OH227140   7.440   1.127   7.411
  982TIP3    H127141   7.532   1.157   7.421
  982TIP3    H227142   7.437   1.052   7.473
  983TIP3   OH227143   7.464   0.931   7.612
  983TIP3    H127144   7.378   0.886   7.626
  983TIP3    H227145   7.502   0.928   7.701
  984TIP3   OH227146   7.477   1.182   8.090
  984TIP3    H127147   7.571   1.191   8.069
  984TIP3    H227148   7.455   1.277   8.072
  985TIP3   OH227149   7.303   1.476   8.333
  985TIP3    H127150   7.227   1.516   8.379
  985TIP3    H227151   7.269   1.464   8.242
  986TIP3   OH227152   7.396   0.611   7.108
  986TIP3    H127153   7.408   0.697   7.060
  986TIP3    H227154   7.388   0.550   7.035
  987TIP3   OH227155   7.239   0.787   7.663
  987TIP3    H127156   7.234   0.703   7.612
  987TIP3    H227157   7.229   0.761   7.757
  988TIP3   OH227158   5.749   1.003   8.067
  988TIP3    H127159   5.753   0.977   7.973
  988TIP3    H227160   5.838   0.967   8.092
  989TIP3   OH227161   7.339   0.970   8.629
  989TIP3    H127162   7.407   0.904   8.606
  989TIP3    H227163   7.389   1.054   8.623
  990TIP3   OH227164   7.485   0.750   8.652
  990TIP3    H127165   7.388   0.754   8.670
  990TIP3    H227166   7.505   0.660   8.687
  991TIP3   OH227167   7.254   0.564   7.498
  991TIP3    H127168   7.272   0.470   7.522
  991TIP3    H227169   7.322   0.582   7.432
  992TIP3   OH227170   7.250   0.597   8.056
  992TIP3    H127171   7.343   0.597   8.024
  992TIP3    H227172   7.266   0.578   8.150
  993TIP3   OH227173   7.323   0.645   8.325
  993TIP3    H127174   7.235   0.665   8.361
  993TIP3    H227175   7.351   0.734   8.293
  994TIP3   OH227176   5.738   0.505   8.661
  994TIP3    H127177   5.821   0.495   8.713
  994TIP3    H227178   5.686   0.427   8.690
  995TIP3   OH227179   7.582   0.106   8.880
  995TIP3    H127180   7.665   0.101   8.831
  995TIP3    H227181   7.525   0.155   8.817
  996TIP3   OH227182   7.308   0.294   7.540
  996TIP3    H127183   7.332   0.229   7.609
  996TIP3    H227184   7.224   0.256   7.506
  997TIP3   OH227185   5.840   0.401   8.017
  997TIP3    H127186   5.854   0.305   8.029
  997TIP3    H227187   5.932   0.432   8.007
  998TIP3   OH227188   5.673   0.677   8.080
  998TIP3    H127189   5.739   0.652   8.011
  998TIP3    H227190   5.728   0.731   8.137
  999TIP3   OH227191   7.448   0.276   8.719
  999TIP3    H127192   7.369   0.322   8.757
  999TIP3    H227193   7.412   0.249   8.632
 1000TIP3   OH227194   7.466   0.268   7.163
 1000TIP3    H127195   7.530   0.230   7.102
 1000TIP3    H227196   7.470   0.361   7.141
 1001TIP3   OH227197   5.730   0.220   7.486
 1001TIP3    H127198   5.634   0.226   7.476
 1001TIP3    H227199   5.757   0.286   7.418
 1002TIP3   OH227200   7.212   1.748   7.688
 1002TIP3    H127201   7.248   1.663   7.657
 1002TIP3    H227202   7.269   1.764   7.766
 1003TIP3   OH227203   5.718   0.171   8.294
 1003TIP3    H127204   5.654   0.185   8.366
 1003TIP3    H227205   5.686   0.237   8.229
 1004TIP3   OH227206   5.937   1.451   8.705
 1004TIP3    H127207   5.849   1.473   8.669
 1004TIP3    H227208   5.917   1.399   8.783
 1005TIP3   OH227209   6.228   1.606   8.380
 1005TIP3    H127210   6.230   1.694   8.337
 1005TIP3    H227211   6.322   1.581   8.372
 1006TIP3   OH227212   6.633   1.708   8.622
 1006TIP3    H127213   6.645   1.682   8.715
 1006TIP3    H227214   6.721   1.745   8.602
 1007TIP3   OH227215   6.863   1.859   8.582
 1007TIP3    H127216   6.942   1.830   8.536
 1007TIP3    H227217   6.898   1.895   8.666
 1008TIP3   OH227218   7.369   0.145   8.506
 1008TIP3    H127219   7.289   0.159   8.452
 1008TIP3    H227220   7.369   0.048   8.518
 1009TIP3   OH227221   5.959   1.897   8.340
 1009TIP3    H127222   5.878   1.947   8.315
 1009TIP3    H227223   5.951   1.897   8.437
 1010TIP3   OH227224   6.200   1.851   8.244
 1010TIP3    H127225   6.108   1.863   8.278
 1010TIP3    H227226   6.202   1.920   8.175
 1011TIP3   OH227227   6.678   1.813   8.169
 1011TIP3    H127228   6.607   1.846   8.113
 1011TIP3    H227229   6.691   1.889   8.230
 1012TIP3   OH227230   6.867   1.684   8.316
 1012TIP3    H127231   6.799   1.725   8.259
 1012TIP3    H227232   6.945   1.734   8.288
 1013TIP3   OH227233   7.134   1.823   8.279
 1013TIP3    H127234   7.143   1.918   8.265
 1013TIP3    H227235   7.178   1.787   8.198
 1014TIP3   OH227236   5.911   1.730   8.034
 1014TIP3    H127237   5.897   1.671   8.112
 1014TIP3    H227238   6.004   1.703   8.011
 1015TIP3   OH227239   6.137   1.638   7.928
 1015TIP3    H127240   6.124   1.543   7.948
 1015TIP3    H227241   6.229   1.649   7.961
 1016TIP3   OH227242   6.372   1.625   8.050
 1016TIP3    H127243   6.405   1.534   8.036
 1016TIP3    H227244   6.382   1.634   8.146
 1017TIP3   OH227245   7.204   0.147   7.922
 1017TIP3    H127246   7.271   0.144   7.851
 1017TIP3    H227247   7.125   0.180   7.876
 1018TIP3   OH227248   7.409   0.125   7.718
 1018TIP3    H127249   7.469   0.051   7.697
 1018TIP3    H227250   7.474   0.197   7.732
 1019TIP3   OH227251   5.930   0.147   7.679
 1019TIP3    H127252   5.867   0.165   7.605
 1019TIP3    H227253   5.935   0.049   7.678
 1020TIP3   OH227254   5.734   0.055   7.232
 1020TIP3    H127255   5.828   0.049   7.209
 1020TIP3    H227256   5.737   0.087   7.324
 1021TIP3   OH227257   6.442   0.139   7.657
 1021TIP3    H127258   6.519   0.187   7.625
 1021TIP3    H227259   6.457   0.139   7.755
 1022TIP3   OH227260   6.958   0.160   7.783
 1022TIP3    H127261   6.943   0.150   7.687
 1022TIP3    H227262   6.947   0.068   7.813
 1023TIP3   OH227263   7.095   0.197   7.415
 1023TIP3    H127264   7.006   0.229   7.393
 1023TIP3    H227265   7.079   0.099   7.415
 1024TIP3   OH227266   5.855   1.726   7.404
 1024TIP3    H127267   5.769   1.716   7.357
 1024TIP3    H227268   5.902   1.783   7.341
 1025TIP3   OH227269   6.013   0.198   7.196
 1025TIP3    H127270   6.012   0.105   7.161
 1025TIP3    H227271   6.108   0.216   7.204
 1026TIP3   OH227272   7.372   1.722   7.435
 1026TIP3    H127273   7.364   1.623   7.425
 1026TIP3    H227274   7.386   1.741   7.340
 1027TIP3   OH227275   5.894   0.110   8.687
 1027TIP3    H127276   5.910   0.019   8.655
 1027TIP3    H227277   5.982   0.131   8.725
 1028TIP3   OH227278   6.141   0.120   8.791
 1028TIP3    H127279   6.228   0.154   8.765
 1028TIP3    H227280   6.154   0.026   8.760
 1029TIP3   OH227281   6.980   0.048   8.861
 1029TIP3    H127282   6.941  -0.040   8.849
 1029TIP3    H227283   7.053   0.040   8.799
 1030TIP3   OH227284   7.293   1.562   8.666
 1030TIP3    H127285   7.233   1.583   8.591
 1030TIP3    H227286   7.305   1.649   8.704
 1031TIP3   OH227287   7.570   0.680   7.581
 1031TIP3    H127288   7.532   0.767   7.557
 1031TIP3    H227289   7.558   0.630   7.497
 1032TIP3   OH227290   7.591   1.132   8.344
 1032TIP3    H127291   7.527   1.125   8.271
 1032TIP3    H227292   7.592   1.040   8.380
 1033TIP3   OH227293   7.554   1.427   8.038
 1033TIP3    H127294   7.653   1.426   8.032
 1033TIP3    H227295   7.542   1.512   8.083
 1034TIP3   OH227296   7.569   0.343   7.762
 1034TIP3    H127297   7.642   0.389   7.806
 1034TIP3    H227298   7.609   0.327   7.674
 1035TIP3   OH227299   7.589   0.890   8.454
 1035TIP3    H127300   7.572   0.827   8.528
 1035TIP3    H227301   7.519   0.862   8.390
 1036TIP3   OH227302   7.634   1.082   8.773
 1036TIP3    H127303   7.584   1.008   8.809
 1036TIP3    H227304   7.570   1.126   8.712
 1037TIP3   OH227305   7.538   1.842   7.618
 1037TIP3    H127306   7.495   1.785   7.551
 1037TIP3    H227307   7.559   1.774   7.685
 1038TIP3   OH227308   7.537   1.644   7.807
 1038TIP3    H127309   7.531   1.547   7.815
 1038TIP3    H227310   7.620   1.661   7.858
 1039TIP3   OH227311   7.637   0.929   8.084
 1039TIP3    H127312   7.606   0.964   7.999
 1039TIP3    H227313   7.712   0.992   8.098
 1040TIP3   OH227314   7.541   0.516   8.756
 1040TIP3    H127315   7.635   0.535   8.773
 1040TIP3    H227316   7.536   0.418   8.750
 1041TIP3   OH227317   7.518   0.635   8.016
 1041TIP3    H127318   7.606   0.609   7.986
 1041TIP3    H227319   7.542   0.685   8.095
 1042TIP3   OH227320   7.602   0.249   7.494
 1042TIP3    H127321   7.508   0.233   7.478
 1042TIP3    H227322   7.625   0.294   7.413
 1043TIP3   OH227323   7.527   0.165   8.304
 1043TIP3    H127324   7.468   0.180   8.381
 1043TIP3    H227325   7.496   0.235   8.242
 1044TIP3   OH227326   1.198   2.887   7.669
 1044TIP3    H127327   1.188   2.984   7.674
 1044TIP3    H227328   1.135   2.867   7.596
 1045TIP3   OH227329   1.097   2.791   8.027
 1045TIP3    H127330   1.115   2.764   8.120
 1045TIP3    H227331   1.038   2.716   8.002
 1046TIP3   OH227332   0.344   2.774   8.196
 1046TIP3    H127333   0.313   2.694   8.244
 1046TIP3    H227334   0.415   2.804   8.255
 1047TIP3   OH227335   1.440   3.050   7.862
 1047TIP3    H127336   1.349   3.017   7.872
 1047TIP3    H227337   1.425   3.139   7.901
 1048TIP3   OH227338   0.377   3.241   8.000
 1048TIP3    H127339   0.353   3.147   7.984
 1048TIP3    H227340   0.473   3.227   7.999
 1049TIP3   OH227341   0.144   2.636   7.544
 1049TIP3    H127342   0.113   2.674   7.628
 1049TIP3    H227343   0.070   2.576   7.522
 1050TIP3   OH227344   0.129   2.803   7.823
 1050TIP3    H127345   0.186   2.724   7.844
 1050TIP3    H227346   0.191   2.860   7.776
 1051TIP3   OH227347   1.196   3.644   7.841
 1051TIP3    H127348   1.253   3.577   7.797
 1051TIP3    H227349   1.153   3.588   7.906
 1052TIP3   OH227350   0.923   3.068   8.087
 1052TIP3    H127351   0.972   3.038   8.008
 1052TIP3    H227352   1.001   3.083   8.146
 1053TIP3   OH227353   1.785   2.195   8.120
 1053TIP3    H127354   1.784   2.257   8.197
 1053TIP3    H227355   1.868   2.224   8.076
 1054TIP3   OH227356   1.298   2.501   8.117
 1054TIP3    H127357   1.302   2.405   8.131
 1054TIP3    H227358   1.253   2.502   8.031
 1055TIP3   OH227359   0.567   2.289   7.791
 1055TIP3    H127360   0.595   2.380   7.764
 1055TIP3    H227361   0.551   2.253   7.703
 1056TIP3   OH227362   1.322   2.317   7.684
 1056TIP3    H127363   1.376   2.284   7.761
 1056TIP3    H227364   1.382   2.385   7.650
 1057TIP3   OH227365   0.263   2.563   7.872
 1057TIP3    H127366   0.319   2.504   7.928
 1057TIP3    H227367   0.274   2.516   7.786
 1058TIP3   OH227368   0.708   2.727   7.849
 1058TIP3    H127369   0.789   2.681   7.876
 1058TIP3    H227370   0.678   2.664   7.779
 1059TIP3   OH227371   1.793   2.341   8.351
 1059TIP3    H127372   1.760   2.427   8.314
 1059TIP3    H227373   1.828   2.373   8.435
 1060TIP3   OH227374   0.482   2.185   8.208
 1060TIP3    H127375   0.444   2.248   8.143
 1060TIP3    H227376   0.429   2.209   8.286
 1061TIP3   OH227377   1.193   3.158   7.549
 1061TIP3    H127378   1.163   3.164   7.456
 1061TIP3    H227379   1.148   3.235   7.588
 1062TIP3   OH227380   0.704   2.961   8.234
 1062TIP3    H127381   0.641   3.031   8.263
 1062TIP3    H227382   0.765   3.013   8.177
 1063TIP3   OH227383   1.512   2.280   7.867
 1063TIP3    H127384   1.521   2.198   7.917
 1063TIP3    H227385   1.594   2.327   7.891
 1064TIP3   OH227386   0.413   2.394   8.014
 1064TIP3    H127387   0.469   2.454   8.071
 1064TIP3    H227388   0.478   2.356   7.953
 1065TIP3   OH227389   0.560   3.188   8.302
 1065TIP3    H127390   0.569   3.265   8.244
 1065TIP3    H227391   0.467   3.197   8.332
 1066TIP3   OH227392   0.094   3.124   7.424
 1066TIP3    H127393   0.149   3.096   7.351
 1066TIP3    H227394   0.157   3.169   7.482
 1067TIP3   OH227395   1.544   3.296   8.117
 1067TIP3    H127396   1.454   3.271   8.087
 1067TIP3    H227397   1.553   3.375   8.061
 1068TIP3   OH227398   1.500   2.145   8.191
 1068TIP3    H127399   1.426   2.166   8.130
 1068TIP3    H227400   1.577   2.174   8.138
 1069TIP3   OH227401   0.779   1.919   7.971
 1069TIP3    H127402   0.757   1.825   7.985
 1069TIP3    H227403   0.722   1.963   8.036
 1070TIP3   OH227404   1.344   3.471   7.698
 1070TIP3    H127405   1.382   3.382   7.686
 1070TIP3    H227406   1.424   3.529   7.695
 1071TIP3   OH227407   1.479   3.246   7.607
 1071TIP3    H127408   1.393   3.203   7.592
 1071TIP3    H227409   1.509   3.194   7.684
 1072TIP3   OH227410   1.619   3.132   8.457
 1072TIP3    H127411   1.629   3.057   8.393
 1072TIP3    H227412   1.622   3.207   8.395
 1073TIP3   OH227413   1.062   2.826   7.438
 1073TIP3    H127414   1.006   2.879   7.378
 1073TIP3    H227415   1.136   2.803   7.378
 1074TIP3   OH227416   1.068   2.612   7.154
 1074TIP3    H127417   1.146   2.573   7.193
 1074TIP3    H227418   1.025   2.537   7.110
 1075TIP3   OH227419   1.822   2.778   8.237
 1075TIP3    H127420   1.755   2.847   8.256
 1075TIP3    H227421   1.868   2.819   8.162
 1076TIP3   OH227422   1.455   2.863   7.539
 1076TIP3    H127423   1.380   2.879   7.600
 1076TIP3    H227424   1.512   2.808   7.598
 1077TIP3   OH227425   1.424   2.666   8.430
 1077TIP3    H127426   1.392   2.750   8.463
 1077TIP3    H227427   1.369   2.659   8.351
 1078TIP3   OH227428   0.559   2.910   7.722
 1078TIP3    H127429   0.536   2.857   7.642
 1078TIP3    H227430   0.613   2.845   7.773
 1079TIP3   OH227431   0.716   3.205   7.994
 1079TIP3    H127432   0.747   3.211   7.902
 1079TIP3    H227433   0.792   3.157   8.035
 1080TIP3   OH227434   0.625   2.755   8.094
 1080TIP3    H127435   0.664   2.765   8.004
 1080TIP3    H227436   0.653   2.835   8.143
 1081TIP3   OH227437   1.112   3.343   8.269
 1081TIP3    H127438   1.146   3.433   8.270
 1081TIP3    H227439   1.157   3.307   8.189
 1082TIP3   OH227440   0.713   3.215   8.526
 1082TIP3    H127441   0.640   3.263   8.572
 1082TIP3    H227442   0.670   3.201   8.440
 1083TIP3   OH227443   1.303   2.784   7.318
 1083TIP3    H127444   1.359   2.807   7.397
 1083TIP3    H227445   1.343   2.829   7.244
 1084TIP3   OH227446   0.452   2.838   8.442
 1084TIP3    H127447   0.444   2.911   8.508
 1084TIP3    H227448   0.362   2.800   8.446
 1085TIP3   OH227449   1.023   3.432   7.649
 1085TIP3    H127450   1.093   3.447   7.713
 1085TIP3    H227451   1.033   3.504   7.587
 1086TIP3   OH227452   0.525   3.388   8.631
 1086TIP3    H127453   0.514   3.422   8.540
 1086TIP3    H227454   0.432   3.385   8.661
 1087TIP3   OH227455   1.705   1.909   7.320
 1087TIP3    H127456   1.608   1.913   7.329
 1087TIP3    H227457   1.721   1.978   7.254
 1088TIP3   OH227458   0.456   2.776   7.508
 1088TIP3    H127459   0.405   2.848   7.470
 1088TIP3    H227460   0.406   2.696   7.485
 1089TIP3   OH227461   0.169   3.022   8.376
 1089TIP3    H127462   0.071   3.022   8.364
 1089TIP3    H227463   0.194   2.932   8.349
 1090TIP3   OH227464   0.138   3.366   8.006
 1090TIP3    H127465   0.219   3.311   8.010
 1090TIP3    H227466   0.145   3.412   8.092
 1091TIP3   OH227467   1.876   3.387   8.608
 1091TIP3    H127468   1.851   3.300   8.575
 1091TIP3    H227469   1.789   3.410   8.650
 1092TIP3   OH227470   0.961   3.335   8.533
 1092TIP3    H127471   0.956   3.432   8.529
 1092TIP3    H227472   0.867   3.305   8.526
 1093TIP3   OH227473   1.029   3.725   7.439
 1093TIP3    H127474   1.039   3.731   7.341
 1093TIP3    H227475   1.039   3.816   7.470
 1094TIP3   OH227476   0.416   3.591   7.668
 1094TIP3    H127477   0.449   3.571   7.758
 1094TIP3    H227478   0.320   3.585   7.685
 1095TIP3   OH227479   1.293   3.623   7.477
 1095TIP3    H127480   1.197   3.640   7.468
 1095TIP3    H227481   1.295   3.562   7.554
 1096TIP3   OH227482   1.576   2.522   8.646
 1096TIP3    H127483   1.519   2.563   8.577
 1096TIP3    H227484   1.567   2.428   8.623
 1097TIP3   OH227485   0.318   3.220   8.435
 1097TIP3    H127486   0.338   3.174   8.519
 1097TIP3    H227487   0.254   3.154   8.400
 1098TIP3   OH227488   1.068   1.980   8.357
 1098TIP3    H127489   1.099   1.938   8.440
 1098TIP3    H227490   0.970   1.982   8.367
 1099TIP3   OH227491   1.347   2.397   8.511
 1099TIP3    H127492   1.289   2.347   8.572
 1099TIP3    H227493   1.308   2.486   8.515
 1100TIP3   OH227494   0.985   2.286   7.195
 1100TIP3    H127495   0.982   2.202   7.243
 1100TIP3    H227496   1.003   2.253   7.105
 1101TIP3   OH227497   0.596   2.504   8.173
 1101TIP3    H127498   0.520   2.521   8.233
 1101TIP3    H227499   0.612   2.597   8.144
 1102TIP3   OH227500   0.607   2.528   7.696
 1102TIP3    H127501   0.510   2.546   7.682
 1102TIP3    H227502   0.636   2.517   7.603
 1103TIP3   OH227503   1.103   2.547   7.510
 1103TIP3    H127504   1.083   2.639   7.485
 1103TIP3    H227505   1.176   2.524   7.447
 1104TIP3   OH227506   1.027   2.616   8.680
 1104TIP3    H127507   0.981   2.534   8.709
 1104TIP3    H227508   1.098   2.620   8.745
 1105TIP3   OH227509   1.224   2.540   7.841
 1105TIP3    H127510   1.230   2.621   7.788
 1105TIP3    H227511   1.225   2.471   7.772
 1106TIP3   OH227512   0.363   2.529   8.314
 1106TIP3    H127513   0.428   2.558   8.380
 1106TIP3    H227514   0.317   2.456   8.358
 1107TIP3   OH227515   0.695   2.167   7.064
 1107TIP3    H127516   0.638   2.130   7.132
 1107TIP3    H227517   0.676   2.261   7.068
 1108TIP3   OH227518   0.141   2.318   7.735
 1108TIP3    H127519   0.098   2.292   7.817
 1108TIP3    H227520   0.073   2.301   7.669
 1109TIP3   OH227521   1.145   2.672   8.262
 1109TIP3    H127522   1.206   2.610   8.219
 1109TIP3    H227523   1.098   2.613   8.326
 1110TIP3   OH227524   0.851   2.298   7.778
 1110TIP3    H127525   0.757   2.294   7.804
 1110TIP3    H227526   0.888   2.222   7.825
 1111TIP3   OH227527   0.353   2.483   7.626
 1111TIP3    H127528   0.281   2.516   7.567
 1111TIP3    H227529   0.346   2.388   7.609
 1112TIP3   OH227530   0.686   2.490   7.445
 1112TIP3    H127531   0.771   2.443   7.442
 1112TIP3    H227532   0.652   2.481   7.355
 1113TIP3   OH227533   1.279   2.221   8.066
 1113TIP3    H127534   1.210   2.199   8.132
 1113TIP3    H227535   1.267   2.154   7.998
 1114TIP3   OH227536   1.585   3.808   8.744
 1114TIP3    H127537   1.619   3.846   8.662
 1114TIP3    H227538   1.666   3.813   8.799
 1115TIP3   OH227539   0.424   3.036   8.629
 1115TIP3    H127540   0.489   3.042   8.702
 1115TIP3    H227541   0.342   3.022   8.679
 1116TIP3   OH227542   0.970   2.561   7.968
 1116TIP3    H127543   1.037   2.544   7.901
 1116TIP3    H227544   0.951   2.471   7.999
 1117TIP3   OH227545   0.848   2.381   8.221
 1117TIP3    H127546   0.775   2.441   8.198
 1117TIP3    H227547   0.916   2.442   8.254
 1118TIP3   OH227548   0.850   3.010   7.344
 1118TIP3    H127549   0.780   2.949   7.321
 1118TIP3    H227550   0.822   3.038   7.433
 1119TIP3   OH227551   1.629   2.972   8.252
 1119TIP3    H127552   1.681   3.018   8.181
 1119TIP3    H227553   1.542   2.962   8.208
 1120TIP3   OH227554   1.011   3.065   8.506
 1120TIP3    H127555   0.965   3.049   8.590
 1120TIP3    H227556   1.013   3.163   8.505
 1121TIP3   OH227557   1.316   2.500   7.345
 1121TIP3    H127558   1.392   2.489   7.405
 1121TIP3    H227559   1.344   2.574   7.291
 1122TIP3   OH227560   0.408   2.987   7.931
 1122TIP3    H127561   0.450   2.975   7.843
 1122TIP3    H227562   0.449   2.915   7.982
 1123TIP3   OH227563   1.096   3.147   7.299
 1123TIP3    H127564   1.059   3.238   7.291
 1123TIP3    H227565   1.014   3.094   7.291
 1124TIP3   OH227566   0.183   2.748   8.438
 1124TIP3    H127567   0.179   2.733   8.534
 1124TIP3    H227568   0.086   2.756   8.421
 1125TIP3   OH227569   0.801   2.774   8.668
 1125TIP3    H127570   0.755   2.722   8.599
 1125TIP3    H227571   0.887   2.727   8.671
 1126TIP3   OH227572   1.292   3.289   8.506
 1126TIP3    H127573   1.228   3.297   8.432
 1126TIP3    H227574   1.246   3.340   8.576
 1127TIP3   OH227575   1.812   2.496   7.332
 1127TIP3    H127576   1.749   2.480   7.259
 1127TIP3    H227577   1.827   2.592   7.320
 1128TIP3   OH227578   1.856   3.100   8.596
 1128TIP3    H127579   1.761   3.112   8.574
 1128TIP3    H227580   1.894   3.086   8.506
 1129TIP3   OH227581   1.650   3.375   7.364
 1129TIP3    H127582   1.620   3.332   7.446
 1129TIP3    H227583   1.730   3.422   7.392
 1130TIP3   OH227584   1.407   2.841   8.111
 1130TIP3    H127585   1.315   2.849   8.083
 1130TIP3    H227586   1.449   2.804   8.031
 1131TIP3   OH227587   0.657   3.300   7.712
 1131TIP3    H127588   0.688   3.391   7.696
 1131TIP3    H227589   0.569   3.302   7.673
 1132TIP3   OH227590   0.759   3.061   7.613
 1132TIP3    H127591   0.723   3.149   7.636
 1132TIP3    H227592   0.708   3.000   7.670
 1133TIP3   OH227593   0.848   3.469   8.298
 1133TIP3    H127594   0.901   3.547   8.275
 1133TIP3    H227595   0.921   3.403   8.310
 1134TIP3   OH227596   0.665   3.551   7.573
 1134TIP3    H127597   0.570   3.565   7.596
 1134TIP3    H227598   0.705   3.620   7.630
 1135TIP3   OH227599   1.141   3.067   8.243
 1135TIP3    H127600   1.116   3.062   8.338
 1135TIP3    H227601   1.213   3.005   8.235
 1136TIP3   OH227602   1.471   3.521   8.468
 1136TIP3    H127603   1.383   3.480   8.454
 1136TIP3    H227604   1.474   3.587   8.395
 1137TIP3   OH227605   1.845   3.599   7.199
 1137TIP3    H127606   1.895   3.654   7.138
 1137TIP3    H227607   1.785   3.669   7.234
 1138TIP3   OH227608   0.277   2.288   8.416
 1138TIP3    H127609   0.244   2.324   8.500
 1138TIP3    H227610   0.268   2.193   8.432
 1139TIP3   OH227611   0.258   3.477   8.240
 1139TIP3    H127612   0.312   3.401   8.263
 1139TIP3    H227613   0.234   3.509   8.328
 1140TIP3   OH227614   0.848   3.239   7.047
 1140TIP3    H127615   0.866   3.297   6.972
 1140TIP3    H227616   0.753   3.226   7.039
 1141TIP3   OH227617   0.683   3.270   7.254
 1141TIP3    H127618   0.769   3.241   7.214
 1141TIP3    H227619   0.708   3.360   7.282
 1142TIP3   OH227620   1.144   2.245   8.335
 1142TIP3    H127621   1.237   2.252   8.357
 1142TIP3    H227622   1.121   2.154   8.362
 1143TIP3   OH227623   1.275   2.181   7.455
 1143TIP3    H127624   1.254   2.240   7.380
 1143TIP3    H227625   1.287   2.241   7.532
 1144TIP3   OH227626   1.002   3.402   7.295
 1144TIP3    H127627   0.912   3.436   7.309
 1144TIP3    H227628   1.035   3.468   7.231
 1145TIP3   OH227629   0.921   2.343   7.503
 1145TIP3    H127630   0.978   2.423   7.503
 1145TIP3    H227631   0.880   2.344   7.592
 1146TIP3   OH227632   1.043   2.489   8.428
 1146TIP3    H127633   1.055   2.522   8.519
 1146TIP3    H227634   1.065   2.393   8.436
 1147TIP3   OH227635   1.055   2.105   7.626
 1147TIP3    H127636   1.021   2.196   7.627
 1147TIP3    H227637   1.110   2.112   7.546
 1148TIP3   OH227638   0.756   3.547   7.314
 1148TIP3    H127639   0.824   3.615   7.322
 1148TIP3    H227640   0.716   3.547   7.404
 1149TIP3   OH227641   1.588   2.267   8.531
 1149TIP3    H127642   1.495   2.292   8.513
 1149TIP3    H227643   1.632   2.283   8.445
 1150TIP3   OH227644   1.487   2.633   7.898
 1150TIP3    H127645   1.408   2.578   7.911
 1150TIP3    H227646   1.552   2.591   7.959
 1151TIP3   OH227647   0.396   3.245   7.141
 1151TIP3    H127648   0.462   3.247   7.212
 1151TIP3    H227649   0.447   3.185   7.083
 1152TIP3   OH227650   1.589   3.593   8.082
 1152TIP3    H127651   1.589   3.659   8.010
 1152TIP3    H227652   1.686   3.583   8.092
 1153TIP3   OH227653   0.230   3.385   7.554
 1153TIP3    H127654   0.139   3.414   7.552
 1153TIP3    H227655   0.267   3.437   7.481
 1154TIP3   OH227656   0.163   3.655   8.695
 1154TIP3    H127657   0.221   3.662   8.773
 1154TIP3    H227658   0.135   3.564   8.708
 1155TIP3   OH227659   0.630   3.563   8.849
 1155TIP3    H127660   0.707   3.512   8.879
 1155TIP3    H227661   0.611   3.520   8.765
 1156TIP3   OH227662   1.240   3.405   8.751
 1156TIP3    H127663   1.205   3.314   8.769
 1156TIP3    H227664   1.329   3.399   8.789
 1157TIP3   OH227665   0.203   3.062   8.817
 1157TIP3    H127666   0.222   2.967   8.830
 1157TIP3    H227667   0.109   3.052   8.794
 1158TIP3   OH227668   0.565   3.051   7.044
 1158TIP3    H127669   0.632   2.997   7.090
 1158TIP3    H227670   0.589   3.027   6.953
 1159TIP3   OH227671   0.789   3.043   8.718
 1159TIP3    H127672   0.773   3.092   8.633
 1159TIP3    H227673   0.800   2.949   8.691
 1160TIP3   OH227674   1.355   3.014   8.502
 1160TIP3    H127675   1.441   3.060   8.507
 1160TIP3    H227676   1.297   3.091   8.489
 1161TIP3   OH227677   0.222   2.735   8.782
 1161TIP3    H127678   0.293   2.668   8.772
 1161TIP3    H227679   0.225   2.756   8.878
 1162TIP3   OH227680   0.616   2.630   8.447
 1162TIP3    H127681   0.564   2.713   8.457
 1162TIP3    H227682   0.695   2.665   8.399
 1163TIP3   OH227683   1.157   2.922   8.804
 1163TIP3    H127684   1.211   2.874   8.739
 1163TIP3    H227685   1.125   2.848   8.858
 1164TIP3   OH227686   0.659   2.391   8.561
 1164TIP3    H127687   0.673   2.330   8.486
 1164TIP3    H227688   0.662   2.478   8.516
 1165TIP3   OH227689   0.709   2.198   8.353
 1165TIP3    H127690   0.771   2.253   8.300
 1165TIP3    H227691   0.630   2.204   8.297
 1166TIP3   OH227692   0.836   2.759   8.353
 1166TIP3    H127693   0.925   2.768   8.319
 1166TIP3    H227694   0.792   2.839   8.315
 1167TIP3   OH227695   1.283   2.517   8.843
 1167TIP3    H127696   1.313   2.425   8.834
 1167TIP3    H227697   1.364   2.565   8.865
 1168TIP3   OH227698   1.441   2.842   8.696
 1168TIP3    H127699   1.401   2.895   8.625
 1168TIP3    H227700   1.534   2.842   8.667
 1169TIP3   OH227701   0.459   2.514   8.757
 1169TIP3    H127702   0.402   2.436   8.775
 1169TIP3    H227703   0.521   2.475   8.693
 1170TIP3   OH227704   0.795   1.950   8.360
 1170TIP3    H127705   0.764   2.043   8.367
 1170TIP3    H227706   0.715   1.906   8.329
 1171TIP3   OH227707   0.896   2.392   8.751
 1171TIP3    H127708   0.857   2.356   8.832
 1171TIP3    H227709   0.827   2.372   8.685
 1172TIP3   OH227710   1.168   2.298   8.674
 1172TIP3    H127711   1.078   2.311   8.705
 1172TIP3    H227712   1.203   2.241   8.746
 1173TIP3   OH227713   1.321   2.162   8.849
 1173TIP3    H127714   1.324   2.065   8.844
 1173TIP3    H227715   1.316   2.178   8.944
 1174TIP3   OH227716   0.308   2.292   8.782
 1174TIP3    H127717   0.344   2.215   8.734
 1174TIP3    H227718   0.277   2.250   8.866
 1175TIP3   OH227719   0.788   1.926   8.645
 1175TIP3    H127720   0.866   1.869   8.654
 1175TIP3    H227721   0.785   1.932   8.548
 1176TIP3   OH227722   0.797   2.043   8.896
 1176TIP3    H127723   0.781   2.004   8.807
 1176TIP3    H227724   0.753   2.131   8.891
 1177TIP3   OH227725   0.122   3.170   7.077
 1177TIP3    H127726   0.146   3.258   7.109
 1177TIP3    H227727   0.210   3.133   7.067
 1178TIP3   OH227728   0.085   3.713   7.547
 1178TIP3    H127729   0.001   3.735   7.594
 1178TIP3    H227730   0.146   3.730   7.620
 1179TIP3   OH227731   0.182   3.580   7.803
 1179TIP3    H127732   0.176   3.483   7.799
 1179TIP3    H227733   0.213   3.597   7.894
 1180TIP3   OH227734   1.876   3.630   8.081
 1180TIP3    H127735   1.893   3.609   8.173
 1180TIP3    H227736   1.914   3.719   8.076
 1181TIP3   OH227737   1.831   3.574   8.405
 1181TIP3    H127738   1.786   3.497   8.364
 1181TIP3    H227739   1.859   3.534   8.491
 1182TIP3   OH227740   1.667   3.150   8.880
 1182TIP3    H127741   1.576   3.160   8.914
 1182TIP3    H227742   1.706   3.238   8.902
 1183TIP3   OH227743   1.790   3.005   7.369
 1183TIP3    H127744   1.880   3.043   7.383
 1183TIP3    H227745   1.779   2.955   7.453
 1184TIP3   OH227746   1.804   2.821   7.592
 1184TIP3    H127747   1.730   2.764   7.625
 1184TIP3    H227748   1.857   2.829   7.674
 1185TIP3   OH227749   1.802   3.072   8.081
 1185TIP3    H127750   1.871   3.008   8.052
 1185TIP3    H227751   1.837   3.157   8.048
 1186TIP3   OH227752   1.671   3.373   8.330
 1186TIP3    H127753   1.597   3.412   8.380
 1186TIP3    H227754   1.621   3.346   8.248
 1187TIP3   OH227755   1.816   2.750   7.245
 1187TIP3    H127756   1.802   2.788   7.158
 1187TIP3    H227757   1.841   2.827   7.300
 1188TIP3   OH227758   1.609   2.662   7.665
 1188TIP3    H127759   1.575   2.576   7.638
 1188TIP3    H227760   1.585   2.662   7.760
 1189TIP3   OH227761   0.173   2.940   8.078
 1189TIP3    H127762   0.200   2.911   7.989
 1189TIP3    H227763   0.254   2.915   8.126
 1190TIP3   OH227764   1.718   2.856   8.625
 1190TIP3    H127765   1.764   2.770   8.640
 1190TIP3    H227766   1.790   2.923   8.622
 1191TIP3   OH227767   1.830   2.611   8.662
 1191TIP3    H127768   1.738   2.580   8.643
 1191TIP3    H227769   1.879   2.527   8.677
 1192TIP3   OH227770   1.546   2.450   7.508
 1192TIP3    H127771   1.558   2.352   7.507
 1192TIP3    H227772   1.638   2.475   7.486
 1193TIP3   OH227773   1.657   2.488   8.047
 1193TIP3    H127774   1.754   2.500   8.054
 1193TIP3    H227775   1.633   2.496   8.141
 1194TIP3   OH227776   1.652   2.560   8.310
 1194TIP3    H127777   1.568   2.585   8.353
 1194TIP3    H227778   1.693   2.646   8.287
 1195TIP3   OH227779   0.117   2.374   8.622
 1195TIP3    H127780   0.192   2.384   8.685
 1195TIP3    H227781   0.114   2.278   8.610
 1196TIP3   OH227782   1.892   2.000   8.836
 1196TIP3    H127783   1.937   1.926   8.792
 1196TIP3    H227784   1.878   2.063   8.760
 1197TIP3   OH227785   1.642   2.175   7.528
 1197TIP3    H127786   1.673   2.120   7.603
 1197TIP3    H227787   1.596   2.110   7.473
 1198TIP3   OH227788   0.083   2.518   8.070
 1198TIP3    H127789   0.146   2.526   7.996
 1198TIP3    H227790   0.105   2.597   8.122
 1199TIP3   OH227791   1.817   2.172   8.649
 1199TIP3    H127792   1.729   2.214   8.659
 1199TIP3    H227793   1.793   2.113   8.575
 1200TIP3   OH227794   1.835   2.127   7.142
 1200TIP3    H127795   1.906   2.063   7.137
 1200TIP3    H227796   1.883   2.211   7.155
 1201TIP3   OH227797   1.542   3.651   7.694
 1201TIP3    H127798   1.615   3.663   7.631
 1201TIP3    H227799   1.564   3.712   7.767
 1202TIP3   OH227800   0.074   1.999   8.332
 1202TIP3    H127801   0.002   1.997   8.398
 1202TIP3    H227802   0.037   2.056   8.264
 1203TIP3   OH227803   0.255   3.335   8.715
 1203TIP3    H127804   0.176   3.318   8.661
 1203TIP3    H227805   0.267   3.250   8.762
 1204TIP3   OH227806   0.566   3.491   8.375
 1204TIP3    H127807   0.560   3.580   8.336
 1204TIP3    H227808   0.662   3.474   8.370
 1205TIP3   OH227809   0.990   3.604   8.614
 1205TIP3    H127810   0.998   3.556   8.698
 1205TIP3    H227811   1.080   3.639   8.601
 1206TIP3   OH227812   1.211   3.755   8.560
 1206TIP3    H127813   1.281   3.698   8.527
 1206TIP3    H227814   1.242   3.778   8.650
 1207TIP3   OH227815   1.719   1.956   8.492
 1207TIP3    H127816   1.650   1.998   8.438
 1207TIP3    H227817   1.728   1.869   8.447
 1208TIP3   OH227818   0.320   3.782   8.360
 1208TIP3    H127819   0.234   3.814   8.325
 1208TIP3    H227820   0.300   3.767   8.454
 1209TIP3   OH227821   0.553   3.734   8.246
 1209TIP3    H127822   0.459   3.742   8.276
 1209TIP3    H227823   0.556   3.801   8.177
 1210TIP3   OH227824   1.001   3.688   8.192
 1210TIP3    H127825   0.937   3.714   8.123
 1210TIP3    H227826   1.013   3.776   8.231
 1211TIP3   OH227827   1.232   3.588   8.311
 1211TIP3    H127828   1.167   3.621   8.246
 1211TIP3    H227829   1.299   3.656   8.299
 1212TIP3   OH227830   1.491   3.741   8.285
 1212TIP3    H127831   1.509   3.832   8.254
 1212TIP3    H227832   1.504   3.691   8.201
 1213TIP3   OH227833   0.301   3.648   8.041
 1213TIP3    H127834   0.270   3.588   8.113
 1213TIP3    H227835   0.384   3.602   8.012
 1214TIP3   OH227836   0.501   3.514   7.914
 1214TIP3    H127837   0.465   3.425   7.930
 1214TIP3    H227838   0.591   3.507   7.954
 1215TIP3   OH227839   0.727   3.483   8.054
 1215TIP3    H127840   0.772   3.397   8.056
 1215TIP3    H227841   0.753   3.517   8.141
 1216TIP3   OH227842   1.004   2.046   7.907
 1216TIP3    H127843   0.939   1.973   7.899
 1216TIP3    H227844   1.041   2.057   7.819
 1217TIP3   OH227845   1.593   1.924   7.909
 1217TIP3    H127846   1.658   1.977   7.856
 1217TIP3    H227847   1.508   1.950   7.868
 1218TIP3   OH227848   1.756   2.048   7.740
 1218TIP3    H127849   1.819   1.985   7.697
 1218TIP3    H227850   1.815   2.126   7.755
 1219TIP3   OH227851   0.772   1.946   7.672
 1219TIP3    H127852   0.824   2.019   7.635
 1219TIP3    H227853   0.791   1.948   7.767
 1220TIP3   OH227854   1.343   1.968   7.799
 1220TIP3    H127855   1.287   1.991   7.723
 1220TIP3    H227856   1.294   1.890   7.834
 1221TIP3   OH227857   1.449   1.947   7.365
 1221TIP3    H127858   1.391   2.018   7.394
 1221TIP3    H227859   1.410   1.870   7.413
 1222TIP3   OH227860   0.130   3.558   7.326
 1222TIP3    H127861   0.039   3.577   7.299
 1222TIP3    H227862   0.131   3.614   7.407
 1223TIP3   OH227863   0.862   2.098   7.364
 1223TIP3    H127864   0.763   2.093   7.365
 1223TIP3    H227865   0.872   2.188   7.402
 1224TIP3   OH227866   1.084   3.635   7.196
 1224TIP3    H127867   1.157   3.680   7.151
 1224TIP3    H227868   1.038   3.603   7.115
 1225TIP3   OH227869   1.710   3.616   7.497
 1225TIP3    H127870   1.649   3.556   7.453
 1225TIP3    H227871   1.712   3.691   7.433
 1226TIP3   OH227872   0.253   2.028   8.653
 1226TIP3    H127873   0.207   1.941   8.650
 1226TIP3    H227874   0.341   2.001   8.687
 1227TIP3   OH227875   0.489   1.969   8.825
 1227TIP3    H127876   0.578   1.940   8.798
 1227TIP3    H227877   0.459   1.887   8.869
 1228TIP3   OH227878   1.327   1.888   8.831
 1228TIP3    H127879   1.332   1.828   8.909
 1228TIP3    H227880   1.419   1.881   8.797
 1229TIP3   OH227881   1.646   3.500   8.672
 1229TIP3    H127882   1.574   3.494   8.604
 1229TIP3    H227883   1.636   3.592   8.702
 1230TIP3   OH227884   3.110   2.893   7.660
 1230TIP3    H127885   3.088   2.987   7.662
 1230TIP3    H227886   3.035   2.862   7.605
 1231TIP3   OH227887   2.994   2.783   8.018
 1231TIP3    H127888   3.001   2.741   8.106
 1231TIP3    H227889   2.932   2.718   7.977
 1232TIP3   OH227890   2.194   2.784   8.191
 1232TIP3    H127891   2.189   2.699   8.239
 1232TIP3    H227892   2.289   2.802   8.194
 1233TIP3   OH227893   2.305   3.228   8.002
 1233TIP3    H127894   2.277   3.137   7.981
 1233TIP3    H227895   2.401   3.221   7.986
 1234TIP3   OH227896   1.975   2.563   7.555
 1234TIP3    H127897   1.939   2.649   7.582
 1234TIP3    H227898   1.898   2.526   7.510
 1235TIP3   OH227899   2.013   2.788   7.814
 1235TIP3    H127900   2.069   2.711   7.837
 1235TIP3    H227901   2.076   2.854   7.780
 1236TIP3   OH227902   3.048   3.628   7.855
 1236TIP3    H127903   3.057   3.575   7.773
 1236TIP3    H227904   3.026   3.562   7.922
 1237TIP3   OH227905   2.803   3.042   8.104
 1237TIP3    H127906   2.852   2.992   8.038
 1237TIP3    H227907   2.879   3.072   8.158
 1238TIP3   OH227908   3.652   2.216   8.121
 1238TIP3    H127909   3.666   2.267   8.204
 1238TIP3    H227910   3.731   2.241   8.070
 1239TIP3   OH227911   3.170   2.510   8.148
 1239TIP3    H127912   3.181   2.413   8.142
 1239TIP3    H227913   3.139   2.533   8.058
 1240TIP3   OH227914   2.457   2.380   7.890
 1240TIP3    H127915   2.447   2.431   7.807
 1240TIP3    H227916   2.494   2.297   7.853
 1241TIP3   OH227917   3.234   2.352   7.717
 1241TIP3    H127918   3.299   2.295   7.762
 1241TIP3    H227919   3.266   2.352   7.626
 1242TIP3   OH227920   2.108   2.532   7.880
 1242TIP3    H127921   2.166   2.492   7.948
 1242TIP3    H227922   2.149   2.498   7.798
 1243TIP3   OH227923   2.580   2.719   7.858
 1243TIP3    H127924   2.664   2.686   7.895
 1243TIP3    H227925   2.557   2.646   7.797
 1244TIP3   OH227926   3.678   2.336   8.357
 1244TIP3    H127927   3.637   2.421   8.328
 1244TIP3    H227928   3.718   2.363   8.441
 1245TIP3   OH227929   2.332   2.195   8.242
 1245TIP3    H127930   2.297   2.246   8.167
 1245TIP3    H227931   2.270   2.218   8.314
 1246TIP3   OH227932   2.564   2.963   8.215
 1246TIP3    H127933   2.511   3.035   8.253
 1246TIP3    H227934   2.633   3.012   8.165
 1247TIP3   OH227935   3.448   2.274   7.878
 1247TIP3    H127936   3.423   2.196   7.927
 1247TIP3    H227937   3.480   2.335   7.947
 1248TIP3   OH227938   2.266   2.412   8.061
 1248TIP3    H127939   2.326   2.461   8.122
 1248TIP3    H227940   2.332   2.391   7.990
 1249TIP3   OH227941   2.444   3.189   8.309
 1249TIP3    H127942   2.424   3.255   8.241
 1249TIP3    H227943   2.356   3.177   8.351
 1250TIP3   OH227944   2.028   3.133   7.417
 1250TIP3    H127945   2.047   3.196   7.346
 1250TIP3    H227946   2.038   3.193   7.495
 1251TIP3   OH227947   3.375   2.158   8.213
 1251TIP3    H127948   3.300   2.186   8.155
 1251TIP3    H227949   3.451   2.172   8.153
 1252TIP3   OH227950   2.709   1.953   8.007
 1252TIP3    H127951   2.675   1.882   7.952
 1252TIP3    H227952   2.627   2.008   8.015
 1253TIP3   OH227953   3.495   3.133   8.466
 1253TIP3    H127954   3.508   3.059   8.401
 1253TIP3    H227955   3.498   3.208   8.403
 1254TIP3   OH227956   2.962   2.803   7.427
 1254TIP3    H127957   2.887   2.862   7.400
 1254TIP3    H227958   3.031   2.835   7.366
 1255TIP3   OH227959   2.975   2.630   7.091
 1255TIP3    H127960   3.021   2.670   7.168
 1255TIP3    H227961   2.949   2.543   7.126
 1256TIP3   OH227962   3.703   2.765   8.250
 1256TIP3    H127963   3.644   2.842   8.263
 1256TIP3    H227964   3.758   2.797   8.177
 1257TIP3   OH227965   3.339   2.832   7.528
 1257TIP3    H127966   3.256   2.852   7.576
 1257TIP3    H227967   3.389   2.778   7.593
 1258TIP3   OH227968   3.299   2.661   8.433
 1258TIP3    H127969   3.278   2.751   8.462
 1258TIP3    H227970   3.248   2.658   8.350
 1259TIP3   OH227971   2.490   2.905   7.690
 1259TIP3    H127972   2.451   2.852   7.616
 1259TIP3    H227973   2.532   2.836   7.746
 1260TIP3   OH227974   2.606   3.225   7.987
 1260TIP3    H127975   2.618   3.202   7.893
 1260TIP3    H227976   2.676   3.173   8.031
 1261TIP3   OH227977   2.464   2.753   8.088
 1261TIP3    H127978   2.499   2.751   7.996
 1261TIP3    H227979   2.517   2.824   8.130
 1262TIP3   OH227980   3.166   3.356   8.156
 1262TIP3    H127981   3.131   3.415   8.226
 1262TIP3    H227982   3.135   3.268   8.183
 1263TIP3   OH227983   2.598   3.220   8.526
 1263TIP3    H127984   2.524   3.265   8.571
 1263TIP3    H227985   2.555   3.206   8.439
 1264TIP3   OH227986   3.196   2.768   7.278
 1264TIP3    H127987   3.237   2.724   7.355
 1264TIP3    H227988   3.260   2.839   7.259
 1265TIP3   OH227989   2.317   2.848   8.464
 1265TIP3    H127990   2.291   2.938   8.485
 1265TIP3    H227991   2.233   2.806   8.443
 1266TIP3   OH227992   2.407   3.377   8.623
 1266TIP3    H127993   2.432   3.412   8.534
 1266TIP3    H227994   2.311   3.385   8.616
 1267TIP3   OH227995   2.345   2.795   7.474
 1267TIP3    H127996   2.317   2.880   7.431
 1267TIP3    H227997   2.289   2.731   7.431
 1268TIP3   OH227998   3.774   3.358   7.186
 1268TIP3    H127999   3.712   3.433   7.183
 1268TIP3    H228000   3.792   3.345   7.092
 1269TIP3   OH228001   2.006   3.037   8.384
 1269TIP3    H128002   1.969   3.025   8.296
 1269TIP3    H228003   2.028   2.943   8.404
 1270TIP3   OH228004   1.978   3.314   8.013
 1270TIP3    H128005   2.075   3.309   8.019
 1270TIP3    H228006   1.960   3.383   8.077
 1271TIP3   OH228007   3.756   3.365   8.641
 1271TIP3    H128008   3.722   3.332   8.556
 1271TIP3    H228009   3.674   3.410   8.674
 1272TIP3   OH228010   2.856   3.336   8.515
 1272TIP3    H128011   2.856   3.421   8.564
 1272TIP3    H228012   2.762   3.306   8.519
 1273TIP3   OH228013   2.894   3.735   7.458
 1273TIP3    H128014   2.902   3.732   7.361
 1273TIP3    H228015   2.919   3.826   7.481
 1274TIP3   OH228016   2.278   3.591   7.676
 1274TIP3    H128017   2.302   3.560   7.766
 1274TIP3    H228018   2.187   3.559   7.667
 1275TIP3   OH228019   3.464   2.542   8.646
 1275TIP3    H128020   3.405   2.587   8.582
 1275TIP3    H228021   3.451   2.449   8.618
 1276TIP3   OH228022   2.221   3.158   8.464
 1276TIP3    H128023   2.208   3.117   8.552
 1276TIP3    H228024   2.139   3.126   8.419
 1277TIP3   OH228025   2.467   2.047   8.065
 1277TIP3    H128026   2.384   2.060   8.015
 1277TIP3    H228027   2.436   2.066   8.155
 1278TIP3   OH228028   2.955   1.983   8.360
 1278TIP3    H128029   2.990   1.945   8.443
 1278TIP3    H228030   2.858   1.985   8.375
 1279TIP3   OH228031   3.201   2.397   8.507
 1279TIP3    H128032   3.144   2.371   8.584
 1279TIP3    H228033   3.191   2.493   8.503
 1280TIP3   OH228034   2.491   2.503   8.186
 1280TIP3    H128035   2.433   2.533   8.257
 1280TIP3    H228036   2.495   2.585   8.132
 1281TIP3   OH228037   2.471   2.559   7.673
 1281TIP3    H128038   2.378   2.538   7.650
 1281TIP3    H228039   2.506   2.575   7.582
 1282TIP3   OH228040   3.031   2.594   7.586
 1282TIP3    H128041   2.997   2.666   7.528
 1282TIP3    H228042   3.097   2.555   7.525
 1283TIP3   OH228043   2.903   2.618   8.695
 1283TIP3    H128044   2.866   2.533   8.728
 1283TIP3    H228045   2.984   2.624   8.749
 1284TIP3   OH228046   3.118   2.541   7.862
 1284TIP3    H128047   3.093   2.580   7.776
 1284TIP3    H228048   3.147   2.454   7.827
 1285TIP3   OH228049   2.228   2.525   8.317
 1285TIP3    H128050   2.270   2.544   8.402
 1285TIP3    H228051   2.195   2.435   8.334
 1286TIP3   OH228052   1.930   2.251   7.762
 1286TIP3    H128053   1.999   2.255   7.830
 1286TIP3    H228054   1.981   2.240   7.681
 1287TIP3   OH228055   2.011   2.323   7.270
 1287TIP3    H128056   2.083   2.361   7.219
 1287TIP3    H228057   1.953   2.400   7.289
 1288TIP3   OH228058   3.018   2.693   8.271
 1288TIP3    H128059   3.085   2.629   8.237
 1288TIP3    H228060   2.964   2.635   8.329
 1289TIP3   OH228061   2.778   2.307   7.770
 1289TIP3    H128062   2.695   2.256   7.754
 1289TIP3    H228063   2.814   2.262   7.847
 1290TIP3   OH228064   2.217   2.453   7.631
 1290TIP3    H128065   2.130   2.469   7.589
 1290TIP3    H228066   2.255   2.380   7.578
 1291TIP3   OH228067   2.578   2.533   7.422
 1291TIP3    H128068   2.659   2.490   7.458
 1291TIP3    H228069   2.558   2.474   7.348
 1292TIP3   OH228070   3.170   2.230   8.072
 1292TIP3    H128071   3.107   2.225   8.148
 1292TIP3    H228072   3.135   2.162   8.010
 1293TIP3   OH228073   3.461   3.798   8.729
 1293TIP3    H128074   3.491   3.834   8.643
 1293TIP3    H228075   3.543   3.802   8.780
 1294TIP3   OH228076   2.227   3.043   8.711
 1294TIP3    H128077   2.296   2.994   8.759
 1294TIP3    H228078   2.148   3.002   8.751
 1295TIP3   OH228079   2.825   2.579   7.958
 1295TIP3    H128080   2.877   2.541   7.886
 1295TIP3    H228081   2.807   2.499   8.010
 1296TIP3   OH228082   2.279   2.155   7.540
 1296TIP3    H128083   2.244   2.101   7.613
 1296TIP3    H228084   2.371   2.164   7.576
 1297TIP3   OH228085   2.745   2.392   8.179
 1297TIP3    H128086   2.659   2.438   8.176
 1297TIP3    H228087   2.790   2.439   8.251
 1298TIP3   OH228088   2.774   2.988   7.373
 1298TIP3    H128089   2.687   2.947   7.351
 1298TIP3    H228090   2.755   3.042   7.452
 1299TIP3   OH228091   3.524   2.974   8.253
 1299TIP3    H128092   3.567   3.014   8.174
 1299TIP3    H228093   3.442   2.942   8.212
 1300TIP3   OH228094   2.896   3.068   8.490
 1300TIP3    H128095   2.861   3.032   8.573
 1300TIP3    H228096   2.887   3.164   8.506
 1301TIP3   OH228097   3.223   2.503   7.378
 1301TIP3    H128098   3.310   2.463   7.399
 1301TIP3    H228099   3.228   2.513   7.282
 1302TIP3   OH228100   2.302   2.958   7.922
 1302TIP3    H128101   2.362   2.955   7.845
 1302TIP3    H228102   2.336   2.886   7.978
 1303TIP3   OH228103   2.005   2.778   8.454
 1303TIP3    H128104   1.977   2.740   8.539
 1303TIP3    H228105   1.942   2.739   8.390
 1304TIP3   OH228106   2.672   2.767   8.670
 1304TIP3    H128107   2.631   2.708   8.606
 1304TIP3    H228108   2.763   2.729   8.676
 1305TIP3   OH228109   3.175   3.283   8.513
 1305TIP3    H128110   3.093   3.294   8.462
 1305TIP3    H228111   3.149   3.332   8.594
 1306TIP3   OH228112   3.691   2.489   7.339
 1306TIP3    H128113   3.691   2.405   7.287
 1306TIP3    H228114   3.772   2.530   7.308
 1307TIP3   OH228115   3.735   3.081   8.588
 1307TIP3    H128116   3.646   3.086   8.547
 1307TIP3    H228117   3.789   3.071   8.506
 1308TIP3   OH228118   3.296   2.826   8.102
 1308TIP3    H128119   3.201   2.833   8.081
 1308TIP3    H228120   3.328   2.771   8.027
 1309TIP3   OH228121   2.520   3.314   7.718
 1309TIP3    H128122   2.569   3.393   7.691
 1309TIP3    H228123   2.431   3.330   7.682
 1310TIP3   OH228124   2.692   3.089   7.642
 1310TIP3    H128125   2.627   3.162   7.647
 1310TIP3    H228126   2.639   3.011   7.666
 1311TIP3   OH228127   2.723   3.484   8.316
 1311TIP3    H128128   2.784   3.551   8.282
 1311TIP3    H228129   2.779   3.440   8.384
 1312TIP3   OH228130   2.522   3.580   7.574
 1312TIP3    H128131   2.430   3.577   7.608
 1312TIP3    H228132   2.551   3.667   7.611
 1313TIP3   OH228133   3.028   3.087   8.235
 1313TIP3    H128134   2.994   3.066   8.326
 1313TIP3    H228135   3.076   3.005   8.213
 1314TIP3   OH228136   3.361   3.510   8.475
 1314TIP3    H128137   3.269   3.475   8.478
 1314TIP3    H228138   3.352   3.587   8.414
 1315TIP3   OH228139   3.724   3.664   7.200
 1315TIP3    H128140   3.808   3.711   7.180
 1315TIP3    H228141   3.663   3.727   7.162
 1316TIP3   OH228142   2.166   2.274   8.435
 1316TIP3    H128143   2.099   2.318   8.491
 1316TIP3    H228144   2.157   2.182   8.467
 1317TIP3   OH228145   3.373   2.998   7.318
 1317TIP3    H128146   3.364   2.944   7.400
 1317TIP3    H228147   3.421   3.075   7.351
 1318TIP3   OH228148   2.119   3.440   8.245
 1318TIP3    H128149   2.189   3.377   8.268
 1318TIP3    H228150   2.104   3.487   8.328
 1319TIP3   OH228151   2.579   3.263   7.272
 1319TIP3    H128152   2.658   3.210   7.289
 1319TIP3    H228153   2.604   3.357   7.289
 1320TIP3   OH228154   2.249   3.002   7.330
 1320TIP3    H128155   2.170   3.050   7.360
 1320TIP3    H228156   2.293   3.072   7.277
 1321TIP3   OH228157   3.039   2.264   8.312
 1321TIP3    H128158   3.099   2.300   8.380
 1321TIP3    H228159   3.010   2.180   8.351
 1322TIP3   OH228160   3.066   2.200   7.416
 1322TIP3    H128161   3.056   2.210   7.319
 1322TIP3    H228162   3.156   2.167   7.418
 1323TIP3   OH228163   2.804   2.412   7.526
 1323TIP3    H128164   2.889   2.456   7.544
 1323TIP3    H228165   2.781   2.371   7.613
 1324TIP3   OH228166   2.907   2.509   8.430
 1324TIP3    H128167   2.912   2.539   8.524
 1324TIP3    H228168   2.943   2.419   8.430
 1325TIP3   OH228169   2.916   2.097   7.661
 1325TIP3    H128170   2.853   2.171   7.656
 1325TIP3    H228171   2.974   2.112   7.584
 1326TIP3   OH228172   2.599   3.528   7.326
 1326TIP3    H128173   2.690   3.559   7.334
 1326TIP3    H228174   2.571   3.533   7.420
 1327TIP3   OH228175   3.460   2.291   8.528
 1327TIP3    H128176   3.367   2.301   8.500
 1327TIP3    H228177   3.510   2.292   8.444
 1328TIP3   OH228178   3.372   2.648   7.900
 1328TIP3    H128179   3.290   2.594   7.898
 1328TIP3    H228180   3.432   2.594   7.959
 1329TIP3   OH228181   2.319   3.232   7.197
 1329TIP3    H128182   2.415   3.240   7.221
 1329TIP3    H228183   2.317   3.259   7.104
 1330TIP3   OH228184   2.148   2.503   7.028
 1330TIP3    H128185   2.220   2.565   7.045
 1330TIP3    H228186   2.071   2.560   7.036
 1331TIP3   OH228187   3.454   3.582   8.071
 1331TIP3    H128188   3.453   3.650   8.000
 1331TIP3    H228189   3.550   3.575   8.086
 1332TIP3   OH228190   2.194   1.989   7.991
 1332TIP3    H128191   2.203   1.983   7.892
 1332TIP3    H228192   2.176   1.895   8.011
 1333TIP3   OH228193   2.066   3.354   7.572
 1333TIP3    H128194   2.002   3.426   7.581
 1333TIP3    H228195   2.126   3.395   7.507
 1334TIP3   OH228196   2.022   3.666   8.722
 1334TIP3    H128197   2.079   3.642   8.799
 1334TIP3    H228198   1.986   3.579   8.698
 1335TIP3   OH228199   2.485   3.520   8.852
 1335TIP3    H128200   2.574   3.493   8.883
 1335TIP3    H228201   2.495   3.509   8.756
 1336TIP3   OH228202   3.120   3.411   8.752
 1336TIP3    H128203   3.085   3.321   8.775
 1336TIP3    H228204   3.205   3.410   8.800
 1337TIP3   OH228205   1.978   3.024   8.826
 1337TIP3    H128206   1.940   2.934   8.826
 1337TIP3    H228207   1.947   3.058   8.739
 1338TIP3   OH228208   2.665   3.028   8.702
 1338TIP3    H128209   2.650   3.083   8.622
 1338TIP3    H228210   2.661   2.934   8.669
 1339TIP3   OH228211   3.249   3.007   8.505
 1339TIP3    H128212   3.339   3.043   8.506
 1339TIP3    H228213   3.201   3.092   8.516
 1340TIP3   OH228214   2.134   2.753   8.763
 1340TIP3    H128215   2.170   2.665   8.748
 1340TIP3    H228216   2.177   2.784   8.845
 1341TIP3   OH228217   2.557   2.867   7.275
 1341TIP3    H128218   2.497   2.809   7.325
 1341TIP3    H228219   2.608   2.804   7.219
 1342TIP3   OH228220   2.483   2.639   8.443
 1342TIP3    H128221   2.424   2.714   8.463
 1342TIP3    H228222   2.555   2.686   8.395
 1343TIP3   OH228223   2.710   2.703   7.098
 1343TIP3    H128224   2.655   2.661   7.032
 1343TIP3    H228225   2.797   2.659   7.086
 1344TIP3   OH228226   3.038   2.932   8.811
 1344TIP3    H128227   3.106   2.881   8.764
 1344TIP3    H228228   3.006   2.866   8.875
 1345TIP3   OH228229   2.571   2.402   8.549
 1345TIP3    H128230   2.574   2.338   8.475
 1345TIP3    H228231   2.554   2.487   8.503
 1346TIP3   OH228232   2.588   2.214   8.330
 1346TIP3    H128233   2.640   2.250   8.255
 1346TIP3    H228234   2.498   2.219   8.292
 1347TIP3   OH228235   2.716   2.777   8.348
 1347TIP3    H128236   2.807   2.799   8.324
 1347TIP3    H228237   2.668   2.854   8.312
 1348TIP3   OH228238   3.165   2.512   8.839
 1348TIP3    H128239   3.201   2.422   8.834
 1348TIP3    H228240   3.241   2.565   8.867
 1349TIP3   OH228241   3.318   2.848   8.703
 1349TIP3    H128242   3.276   2.898   8.630
 1349TIP3    H228243   3.407   2.833   8.665
 1350TIP3   OH228244   2.410   2.472   8.768
 1350TIP3    H128245   2.327   2.428   8.737
 1350TIP3    H228246   2.473   2.442   8.699
 1351TIP3   OH228247   2.676   1.961   8.363
 1351TIP3    H128248   2.644   2.053   8.355
 1351TIP3    H228249   2.602   1.913   8.324
 1352TIP3   OH228250   2.770   2.386   8.770
 1352TIP3    H128251   2.707   2.359   8.840
 1352TIP3    H228252   2.713   2.375   8.691
 1353TIP3   OH228253   3.027   2.311   8.682
 1353TIP3    H128254   2.940   2.328   8.724
 1353TIP3    H228255   3.073   2.256   8.749
 1354TIP3   OH228256   3.202   2.174   8.838
 1354TIP3    H128257   3.211   2.076   8.835
 1354TIP3    H228258   3.192   2.192   8.934
 1355TIP3   OH228259   2.191   2.300   8.763
 1355TIP3    H128260   2.178   2.220   8.708
 1355TIP3    H228261   2.169   2.266   8.853
 1356TIP3   OH228262   2.669   1.917   8.652
 1356TIP3    H128263   2.740   1.850   8.665
 1356TIP3    H228264   2.661   1.911   8.554
 1357TIP3   OH228265   2.681   2.053   8.890
 1357TIP3    H128266   2.665   2.011   8.803
 1357TIP3    H228267   2.642   2.143   8.880
 1358TIP3   OH228268   1.917   3.741   7.629
 1358TIP3    H128269   1.844   3.687   7.592
 1358TIP3    H228270   1.947   3.683   7.702
 1359TIP3   OH228271   1.976   3.566   7.822
 1359TIP3    H128272   1.939   3.479   7.842
 1359TIP3    H228273   1.977   3.601   7.914
 1360TIP3   OH228274   3.731   3.612   8.098
 1360TIP3    H128275   3.753   3.624   8.192
 1360TIP3    H228276   3.762   3.697   8.062
 1361TIP3   OH228277   3.659   3.608   8.374
 1361TIP3    H128278   3.633   3.528   8.325
 1361TIP3    H228279   3.707   3.572   8.449
 1362TIP3   OH228280   3.551   3.172   8.922
 1362TIP3    H128281   3.460   3.164   8.961
 1362TIP3    H228282   3.576   3.261   8.958
 1363TIP3   OH228283   3.675   3.008   7.422
 1363TIP3    H128284   3.767   3.037   7.440
 1363TIP3    H228285   3.667   2.925   7.472
 1364TIP3   OH228286   3.701   2.795   7.594
 1364TIP3    H128287   3.628   2.738   7.631
 1364TIP3    H228288   3.748   2.823   7.675
 1365TIP3   OH228289   3.661   3.077   8.052
 1365TIP3    H128290   3.733   3.011   8.041
 1365TIP3    H228291   3.712   3.160   8.050
 1366TIP3   OH228292   3.535   3.373   8.320
 1366TIP3    H128293   3.479   3.429   8.378
 1366TIP3    H228294   3.474   3.366   8.245
 1367TIP3   OH228295   3.491   2.651   7.666
 1367TIP3    H128296   3.473   2.560   7.635
 1367TIP3    H228297   3.449   2.653   7.755
 1368TIP3   OH228298   1.993   2.892   8.057
 1368TIP3    H128299   1.990   2.853   7.967
 1368TIP3    H228300   2.082   2.864   8.089
 1369TIP3   OH228301   3.590   2.865   8.623
 1369TIP3    H128302   3.638   2.780   8.642
 1369TIP3    H228303   3.666   2.923   8.601
 1370TIP3   OH228304   3.716   2.642   8.684
 1370TIP3    H128305   3.627   2.606   8.663
 1370TIP3    H228306   3.769   2.560   8.689
 1371TIP3   OH228307   3.470   2.438   7.480
 1371TIP3    H128308   3.483   2.349   7.444
 1371TIP3    H228309   3.540   2.483   7.428
 1372TIP3   OH228310   3.536   2.490   8.053
 1372TIP3    H128311   3.634   2.498   8.050
 1372TIP3    H228312   3.523   2.493   8.150
 1373TIP3   OH228313   3.542   2.557   8.321
 1373TIP3    H128314   3.454   2.585   8.354
 1373TIP3    H228315   3.583   2.642   8.293
 1374TIP3   OH228316   1.971   2.394   8.657
 1374TIP3    H128317   2.056   2.376   8.702
 1374TIP3    H228318   1.920   2.311   8.671
 1375TIP3   OH228319   3.770   1.979   8.851
 1375TIP3    H128320   3.805   1.903   8.803
 1375TIP3    H228321   3.759   2.045   8.779
 1376TIP3   OH228322   2.071   2.227   8.023
 1376TIP3    H128323   2.112   2.138   8.008
 1376TIP3    H228324   2.146   2.288   8.016
 1377TIP3   OH228325   1.918   2.526   8.085
 1377TIP3    H128326   1.975   2.497   8.011
 1377TIP3    H228327   1.964   2.606   8.114
 1378TIP3   OH228328   3.703   2.181   8.670
 1378TIP3    H128329   3.619   2.229   8.687
 1378TIP3    H228330   3.676   2.129   8.593
 1379TIP3   OH228331   1.917   2.147   7.453
 1379TIP3    H128332   1.822   2.157   7.469
 1379TIP3    H228333   1.931   2.209   7.378
 1380TIP3   OH228334   1.929   2.006   8.311
 1380TIP3    H128335   1.860   1.970   8.370
 1380TIP3    H228336   1.882   2.076   8.263
 1381TIP3   OH228337   2.128   3.343   8.742
 1381TIP3    H128338   2.061   3.347   8.670
 1381TIP3    H228339   2.090   3.409   8.802
 1382TIP3   OH228340   2.461   3.485   8.376
 1382TIP3    H128341   2.459   3.578   8.344
 1382TIP3    H228342   2.555   3.465   8.356
 1383TIP3   OH228343   2.856   3.597   8.626
 1383TIP3    H128344   2.870   3.570   8.719
 1383TIP3    H228345   2.945   3.634   8.605
 1384TIP3   OH228346   3.083   3.749   8.578
 1384TIP3    H128347   3.159   3.711   8.532
 1384TIP3    H228348   3.122   3.776   8.664
 1385TIP3   OH228349   3.605   1.943   8.483
 1385TIP3    H128350   3.532   1.983   8.433
 1385TIP3    H228351   3.614   1.856   8.438
 1386TIP3   OH228352   2.192   3.781   8.339
 1386TIP3    H128353   2.120   3.840   8.308
 1386TIP3    H228354   2.192   3.801   8.434
 1387TIP3   OH228355   2.444   3.739   8.247
 1387TIP3    H128356   2.348   3.750   8.269
 1387TIP3    H228357   2.455   3.806   8.177
 1388TIP3   OH228358   2.908   3.699   8.169
 1388TIP3    H128359   2.838   3.741   8.119
 1388TIP3    H228360   2.934   3.771   8.229
 1389TIP3   OH228361   3.108   3.572   8.307
 1389TIP3    H128362   3.042   3.613   8.247
 1389TIP3    H228363   3.186   3.626   8.287
 1390TIP3   OH228364   3.371   3.699   8.299
 1390TIP3    H128365   3.401   3.791   8.285
 1390TIP3    H228366   3.401   3.654   8.216
 1391TIP3   OH228367   2.163   3.627   8.045
 1391TIP3    H128368   2.136   3.561   8.111
 1391TIP3    H228369   2.245   3.587   8.009
 1392TIP3   OH228370   2.372   3.515   7.917
 1392TIP3    H128371   2.358   3.423   7.945
 1392TIP3    H228372   2.459   3.533   7.957
 1393TIP3   OH228373   2.607   3.511   8.048
 1393TIP3    H128374   2.628   3.418   8.025
 1393TIP3    H228375   2.627   3.512   8.143
 1394TIP3   OH228376   2.991   2.103   7.926
 1394TIP3    H128377   2.922   2.046   7.963
 1394TIP3    H228378   2.959   2.112   7.834
 1395TIP3   OH228379   3.438   1.893   7.892
 1395TIP3    H128380   3.507   1.952   7.856
 1395TIP3    H228381   3.389   1.874   7.810
 1396TIP3   OH228382   3.626   2.039   7.731
 1396TIP3    H128383   3.693   1.983   7.688
 1396TIP3    H228384   3.654   2.127   7.700
 1397TIP3   OH228385   2.175   1.962   7.720
 1397TIP3    H128386   2.099   1.947   7.662
 1397TIP3    H228387   2.229   1.882   7.698
 1398TIP3   OH228388   2.086   1.954   7.253
 1398TIP3    H128389   2.137   2.023   7.203
 1398TIP3    H228390   2.047   2.007   7.325
 1399TIP3   OH228391   2.663   1.837   7.668
 1399TIP3    H128392   2.756   1.863   7.660
 1399TIP3    H228393   2.621   1.924   7.686
 1400TIP3   OH228394   2.051   3.560   7.385
 1400TIP3    H128395   1.968   3.540   7.337
 1400TIP3    H228396   2.074   3.643   7.338
 1401TIP3   OH228397   2.226   2.143   7.134
 1401TIP3    H128398   2.305   2.099   7.102
 1401TIP3    H228399   2.266   2.207   7.194
 1402TIP3   OH228400   2.718   2.178   7.387
 1402TIP3    H128401   2.802   2.158   7.431
 1402TIP3    H228402   2.745   2.254   7.333
 1403TIP3   OH228403   2.954   3.698   7.181
 1403TIP3    H128404   3.014   3.751   7.127
 1403TIP3    H228405   3.012   3.634   7.226
 1404TIP3   OH228406   3.585   3.594   7.475
 1404TIP3    H128407   3.618   3.567   7.388
 1404TIP3    H228408   3.541   3.678   7.455
 1405TIP3   OH228409   2.145   2.028   8.643
 1405TIP3    H128410   2.098   1.943   8.644
 1405TIP3    H228411   2.216   2.012   8.710
 1406TIP3   OH228412   2.348   1.961   8.821
 1406TIP3    H128413   2.441   1.946   8.796
 1406TIP3    H228414   2.325   1.870   8.850
 1407TIP3   OH228415   3.212   1.893   8.822
 1407TIP3    H128416   3.221   1.831   8.898
 1407TIP3    H228417   3.303   1.890   8.786
 1408TIP3   OH228418   3.544   3.513   8.661
 1408TIP3    H128419   3.485   3.510   8.582
 1408TIP3    H228420   3.518   3.601   8.696
 1409TIP3   OH228421   4.983   2.906   7.669
 1409TIP3    H128422   4.973   3.003   7.666
 1409TIP3    H228423   4.907   2.878   7.615
 1410TIP3   OH228424   4.872   2.772   8.040
 1410TIP3    H128425   4.891   2.741   8.132
 1410TIP3    H228426   4.804   2.709   8.010
 1411TIP3   OH228427   4.084   2.774   8.170
 1411TIP3    H128428   4.075   2.703   8.236
 1411TIP3    H228429   4.153   2.826   8.215
 1412TIP3   OH228430   5.202   3.085   7.835
 1412TIP3    H128431   5.181   3.026   7.909
 1412TIP3    H228432   5.226   3.169   7.877
 1413TIP3   OH228433   4.197   3.252   7.980
 1413TIP3    H128434   4.160   3.162   7.969
 1413TIP3    H228435   4.292   3.229   7.980
 1414TIP3   OH228436   3.863   2.563   7.557
 1414TIP3    H128437   3.824   2.651   7.571
 1414TIP3    H228438   3.786   2.512   7.523
 1415TIP3   OH228439   3.879   2.802   7.812
 1415TIP3    H128440   3.919   2.712   7.819
 1415TIP3    H228441   3.959   2.859   7.811
 1416TIP3   OH228442   4.930   3.620   7.873
 1416TIP3    H128443   5.009   3.590   7.821
 1416TIP3    H228444   4.914   3.539   7.923
 1417TIP3   OH228445   4.674   3.063   8.133
 1417TIP3    H128446   4.710   3.028   8.051
 1417TIP3    H228447   4.760   3.082   8.178
 1418TIP3   OH228448   5.566   2.222   8.120
 1418TIP3    H128449   5.573   2.272   8.204
 1418TIP3    H228450   5.650   2.245   8.076
 1419TIP3   OH228451   5.060   2.502   8.132
 1419TIP3    H128452   5.076   2.407   8.141
 1419TIP3    H228453   5.022   2.508   8.042
 1420TIP3   OH228454   4.351   2.311   7.804
 1420TIP3    H128455   4.375   2.400   7.770
 1420TIP3    H228456   4.312   2.276   7.723
 1421TIP3   OH228457   5.054   2.302   7.704
 1421TIP3    H128458   5.138   2.255   7.714
 1421TIP3    H228459   5.061   2.337   7.613
 1422TIP3   OH228460   3.985   2.558   7.892
 1422TIP3    H128461   4.046   2.508   7.950
 1422TIP3    H228462   4.021   2.531   7.805
 1423TIP3   OH228463   4.492   2.725   7.849
 1423TIP3    H128464   4.565   2.677   7.893
 1423TIP3    H228465   4.464   2.656   7.786
 1424TIP3   OH228466   5.550   2.332   8.368
 1424TIP3    H128467   5.515   2.415   8.326
 1424TIP3    H228468   5.585   2.369   8.450
 1425TIP3   OH228469   4.235   2.196   8.228
 1425TIP3    H128470   4.202   2.253   8.156
 1425TIP3    H228471   4.171   2.222   8.297
 1426TIP3   OH228472   4.913   3.179   7.561
 1426TIP3    H128473   4.908   3.175   7.463
 1426TIP3    H228474   4.879   3.270   7.575
 1427TIP3   OH228475   4.445   2.965   8.214
 1427TIP3    H128476   4.389   3.037   8.250
 1427TIP3    H228477   4.522   3.016   8.177
 1428TIP3   OH228478   4.170   2.384   8.011
 1428TIP3    H128479   4.232   2.445   8.058
 1428TIP3    H228480   4.225   2.354   7.936
 1429TIP3   OH228481   4.314   3.177   8.328
 1429TIP3    H128482   4.310   3.264   8.284
 1429TIP3    H228483   4.223   3.173   8.365
 1430TIP3   OH228484   3.924   3.124   7.388
 1430TIP3    H128485   3.857   3.172   7.336
 1430TIP3    H228486   3.953   3.194   7.452
 1431TIP3   OH228487   5.275   3.347   7.963
 1431TIP3    H128488   5.294   3.280   8.032
 1431TIP3    H228489   5.217   3.404   8.015
 1432TIP3   OH228490   5.283   2.104   8.202
 1432TIP3    H128491   5.204   2.128   8.149
 1432TIP3    H228492   5.347   2.171   8.173
 1433TIP3   OH228493   4.578   1.956   7.962
 1433TIP3    H128494   4.549   1.864   7.961
 1433TIP3    H228495   4.514   1.996   8.023
 1434TIP3   OH228496   5.102   3.479   7.730
 1434TIP3    H128497   5.159   3.400   7.718
 1434TIP3    H228498   5.115   3.517   7.639
 1435TIP3   OH228499   5.230   3.257   7.615
 1435TIP3    H128500   5.223   3.203   7.535
 1435TIP3    H228501   5.222   3.193   7.688
 1436TIP3   OH228502   5.383   3.121   8.478
 1436TIP3    H128503   5.422   3.046   8.430
 1436TIP3    H228504   5.320   3.156   8.410
 1437TIP3   OH228505   4.851   2.801   7.441
 1437TIP3    H128506   4.797   2.876   7.411
 1437TIP3    H228507   4.903   2.775   7.362
 1438TIP3   OH228508   5.600   2.758   8.297
 1438TIP3    H128509   5.528   2.824   8.281
 1438TIP3    H228510   5.649   2.769   8.213
 1439TIP3   OH228511   5.202   2.799   7.539
 1439TIP3    H128512   5.131   2.841   7.592
 1439TIP3    H228513   5.266   2.776   7.609
 1440TIP3   OH228514   5.200   2.669   8.423
 1440TIP3    H128515   5.178   2.745   8.477
 1440TIP3    H228516   5.145   2.688   8.345
 1441TIP3   OH228517   4.340   2.904   7.720
 1441TIP3    H128518   4.306   2.869   7.635
 1441TIP3    H228519   4.404   2.835   7.748
 1442TIP3   OH228520   4.484   3.231   7.973
 1442TIP3    H128521   4.501   3.221   7.878
 1442TIP3    H228522   4.564   3.194   8.013
 1443TIP3   OH228523   4.359   2.760   8.081
 1443TIP3    H128524   4.388   2.776   7.989
 1443TIP3    H228525   4.402   2.835   8.129
 1444TIP3   OH228526   4.982   3.356   8.130
 1444TIP3    H128527   4.990   3.401   8.215
 1444TIP3    H228528   5.047   3.282   8.143
 1445TIP3   OH228529   4.491   3.210   8.519
 1445TIP3    H128530   4.417   3.253   8.566
 1445TIP3    H228531   4.445   3.184   8.436
 1446TIP3   OH228532   5.078   2.742   7.306
 1446TIP3    H128533   5.115   2.754   7.397
 1446TIP3    H228534   5.079   2.832   7.271
 1447TIP3   OH228535   4.133   2.879   8.421
 1447TIP3    H128536   4.179   2.925   8.492
 1447TIP3    H228537   4.088   2.809   8.473
 1448TIP3   OH228538   4.829   3.436   7.557
 1448TIP3    H128539   4.895   3.460   7.624
 1448TIP3    H228540   4.772   3.515   7.553
 1449TIP3   OH228541   4.310   3.382   8.623
 1449TIP3    H128542   4.299   3.432   8.540
 1449TIP3    H228543   4.217   3.368   8.647
 1450TIP3   OH228544   4.233   2.795   7.482
 1450TIP3    H128545   4.195   2.874   7.438
 1450TIP3    H228546   4.200   2.725   7.425
 1451TIP3   OH228547   5.573   3.340   7.132
 1451TIP3    H128548   5.583   3.435   7.143
 1451TIP3    H228549   5.661   3.303   7.150
 1452TIP3   OH228550   3.865   3.047   8.356
 1452TIP3    H128551   3.813   3.023   8.278
 1452TIP3    H228552   3.926   2.971   8.355
 1453TIP3   OH228553   3.822   3.316   8.047
 1453TIP3    H128554   3.918   3.307   8.053
 1453TIP3    H228555   3.809   3.407   8.077
 1454TIP3   OH228556   5.641   3.380   8.605
 1454TIP3    H128557   5.632   3.287   8.585
 1454TIP3    H228558   5.550   3.398   8.641
 1455TIP3   OH228559   4.727   3.339   8.511
 1455TIP3    H128560   4.730   3.406   8.581
 1455TIP3    H228561   4.637   3.301   8.518
 1456TIP3   OH228562   4.754   3.706   7.453
 1456TIP3    H128563   4.781   3.679   7.363
 1456TIP3    H228564   4.785   3.798   7.455
 1457TIP3   OH228565   4.152   3.602   7.671
 1457TIP3    H128566   4.162   3.558   7.759
 1457TIP3    H228567   4.074   3.558   7.632
 1458TIP3   OH228568   5.355   2.517   8.632
 1458TIP3    H128569   5.283   2.559   8.579
 1458TIP3    H228570   5.344   2.425   8.603
 1459TIP3   OH228571   4.072   3.193   8.450
 1459TIP3    H128572   4.086   3.145   8.534
 1459TIP3    H228573   3.994   3.144   8.415
 1460TIP3   OH228574   4.852   1.982   8.362
 1460TIP3    H128575   4.894   1.942   8.442
 1460TIP3    H228576   4.757   1.980   8.385
 1461TIP3   OH228577   5.095   2.410   8.498
 1461TIP3    H128578   5.048   2.368   8.574
 1461TIP3    H228579   5.049   2.495   8.492
 1462TIP3   OH228580   4.357   2.502   8.166
 1462TIP3    H128581   4.310   2.529   8.247
 1462TIP3    H228582   4.363   2.590   8.124
 1463TIP3   OH228583   4.365   2.540   7.677
 1463TIP3    H128584   4.271   2.536   7.650
 1463TIP3    H228585   4.406   2.544   7.587
 1464TIP3   OH228586   4.955   2.580   7.574
 1464TIP3    H128587   4.909   2.660   7.542
 1464TIP3    H228588   4.993   2.543   7.491
 1465TIP3   OH228589   4.833   2.599   8.679
 1465TIP3    H128590   4.772   2.540   8.727
 1465TIP3    H228591   4.884   2.634   8.753
 1466TIP3   OH228592   4.999   2.514   7.860
 1466TIP3    H128593   5.001   2.586   7.794
 1466TIP3    H228594   5.011   2.436   7.800
 1467TIP3   OH228595   4.082   2.532   8.314
 1467TIP3    H128596   4.162   2.572   8.353
 1467TIP3    H228597   4.082   2.443   8.355
 1468TIP3   OH228598   4.918   2.669   8.287
 1468TIP3    H128599   4.976   2.602   8.247
 1468TIP3    H228600   4.860   2.615   8.345
 1469TIP3   OH228601   4.648   2.271   7.761
 1469TIP3    H128602   4.551   2.254   7.759
 1469TIP3    H228603   4.660   2.306   7.850
 1470TIP3   OH228604   4.085   2.452   7.654
 1470TIP3    H128605   3.995   2.472   7.615
 1470TIP3    H228606   4.116   2.390   7.586
 1471TIP3   OH228607   4.445   2.506   7.420
 1471TIP3    H128608   4.529   2.459   7.443
 1471TIP3    H228609   4.463   2.524   7.327
 1472TIP3   OH228610   5.071   2.206   8.074
 1472TIP3    H128611   5.005   2.210   8.148
 1472TIP3    H228612   5.019   2.157   8.007
 1473TIP3   OH228613   4.308   2.581   7.151
 1473TIP3    H128614   4.273   2.502   7.191
 1473TIP3    H228615   4.402   2.552   7.139
 1474TIP3   OH228616   5.363   3.794   8.746
 1474TIP3    H128617   5.381   3.839   8.662
 1474TIP3    H228618   5.452   3.801   8.787
 1475TIP3   OH228619   4.118   3.038   8.681
 1475TIP3    H128620   4.207   3.046   8.720
 1475TIP3    H228621   4.069   3.001   8.757
 1476TIP3   OH228622   4.718   2.560   7.958
 1476TIP3    H128623   4.806   2.548   7.918
 1476TIP3    H228624   4.710   2.482   8.014
 1477TIP3   OH228625   4.608   2.389   8.206
 1477TIP3    H128626   4.529   2.444   8.185
 1477TIP3    H228627   4.661   2.447   8.261
 1478TIP3   OH228628   4.659   2.991   7.393
 1478TIP3    H128629   4.595   2.929   7.351
 1478TIP3    H228630   4.609   3.020   7.473
 1479TIP3   OH228631   5.411   2.937   8.250
 1479TIP3    H128632   5.449   3.008   8.192
 1479TIP3    H228633   5.317   2.957   8.231
 1480TIP3   OH228634   4.790   3.055   8.477
 1480TIP3    H128635   4.768   2.986   8.540
 1480TIP3    H228636   4.765   3.138   8.520
 1481TIP3   OH228637   5.083   2.467   7.361
 1481TIP3    H128638   5.162   2.516   7.385
 1481TIP3    H228639   5.058   2.512   7.278
 1482TIP3   OH228640   4.160   2.979   7.927
 1482TIP3    H128641   4.229   2.965   7.859
 1482TIP3    H228642   4.174   2.907   7.990
 1483TIP3   OH228643   4.866   3.136   7.303
 1483TIP3    H128644   4.828   3.222   7.274
 1483TIP3    H228645   4.784   3.088   7.327
 1484TIP3   OH228646   3.865   2.788   8.483
 1484TIP3    H128647   3.845   2.727   8.557
 1484TIP3    H228648   3.816   2.747   8.408
 1485TIP3   OH228649   4.539   2.615   8.582
 1485TIP3    H128650   4.509   2.707   8.574
 1485TIP3    H228651   4.607   2.636   8.649
 1486TIP3   OH228652   5.065   3.278   8.518
 1486TIP3    H128653   5.014   3.312   8.442
 1486TIP3    H228654   5.032   3.335   8.591
 1487TIP3   OH228655   5.622   3.083   8.628
 1487TIP3    H128656   5.530   3.106   8.600
 1487TIP3    H228657   5.668   3.076   8.540
 1488TIP3   OH228658   5.133   2.844   8.036
 1488TIP3    H128659   5.037   2.838   8.017
 1488TIP3    H228660   5.169   2.767   7.990
 1489TIP3   OH228661   4.415   3.305   7.697
 1489TIP3    H128662   4.467   3.382   7.669
 1489TIP3    H228663   4.326   3.330   7.667
 1490TIP3   OH228664   4.545   3.072   7.631
 1490TIP3    H128665   4.496   3.155   7.646
 1490TIP3    H228666   4.484   3.006   7.668
 1491TIP3   OH228667   4.608   3.499   8.295
 1491TIP3    H128668   4.673   3.562   8.258
 1491TIP3    H228669   4.663   3.454   8.362
 1492TIP3   OH228670   4.411   3.568   7.577
 1492TIP3    H128671   4.321   3.589   7.608
 1492TIP3    H228672   4.454   3.652   7.603
 1493TIP3   OH228673   4.918   3.079   8.241
 1493TIP3    H128674   4.881   3.061   8.331
 1493TIP3    H228675   5.014   3.076   8.256
 1494TIP3   OH228676   5.186   3.241   7.219
 1494TIP3    H128677   5.180   3.161   7.274
 1494TIP3    H228678   5.143   3.214   7.136
 1495TIP3   OH228679   5.245   3.514   8.490
 1495TIP3    H128680   5.158   3.473   8.484
 1495TIP3    H228681   5.245   3.579   8.417
 1496TIP3   OH228682   5.643   3.634   7.171
 1496TIP3    H128683   5.713   3.675   7.117
 1496TIP3    H228684   5.581   3.707   7.184
 1497TIP3   OH228685   4.066   2.280   8.429
 1497TIP3    H128686   3.999   2.319   8.488
 1497TIP3    H228687   4.088   2.199   8.479
 1498TIP3   OH228688   5.274   3.008   7.357
 1498TIP3    H128689   5.276   2.938   7.424
 1498TIP3    H228690   5.367   3.040   7.355
 1499TIP3   OH228691   4.008   3.453   8.262
 1499TIP3    H128692   4.068   3.378   8.270
 1499TIP3    H228693   4.021   3.494   8.349
 1500TIP3   OH228694   4.137   2.979   7.302
 1500TIP3    H128695   4.060   3.027   7.342
 1500TIP3    H228696   4.182   3.052   7.257
 1501TIP3   OH228697   4.933   2.243   8.306
 1501TIP3    H128698   4.998   2.272   8.372
 1501TIP3    H228699   4.894   2.164   8.349
 1502TIP3   OH228700   4.742   3.374   7.287
 1502TIP3    H128701   4.693   3.431   7.347
 1502TIP3    H228702   4.828   3.416   7.282
 1503TIP3   OH228703   4.681   2.411   7.522
 1503TIP3    H128704   4.774   2.430   7.501
 1503TIP3    H228705   4.685   2.358   7.603
 1504TIP3   OH228706   4.798   2.491   8.439
 1504TIP3    H128707   4.803   2.534   8.529
 1504TIP3    H228708   4.825   2.400   8.456
 1505TIP3   OH228709   4.792   2.073   7.627
 1505TIP3    H128710   4.753   2.162   7.644
 1505TIP3    H228711   4.863   2.091   7.563
 1506TIP3   OH228712   4.471   3.542   7.310
 1506TIP3    H128713   4.511   3.626   7.278
 1506TIP3    H228714   4.440   3.564   7.401
 1507TIP3   OH228715   5.342   2.266   8.523
 1507TIP3    H128716   5.256   2.301   8.490
 1507TIP3    H228717   5.401   2.275   8.445
 1508TIP3   OH228718   5.245   2.626   7.909
 1508TIP3    H128719   5.166   2.569   7.919
 1508TIP3    H228720   5.313   2.577   7.960
 1509TIP3   OH228721   5.339   3.614   8.093
 1509TIP3    H128722   5.342   3.572   8.006
 1509TIP3    H228723   5.432   3.603   8.120
 1510TIP3   OH228724   3.977   3.326   7.556
 1510TIP3    H128725   3.899   3.373   7.588
 1510TIP3    H228726   4.004   3.389   7.487
 1511TIP3   OH228727   3.896   3.648   8.716
 1511TIP3    H128728   3.970   3.647   8.780
 1511TIP3    H228729   3.873   3.554   8.717
 1512TIP3   OH228730   4.385   3.542   8.850
 1512TIP3    H128731   4.472   3.512   8.882
 1512TIP3    H228732   4.380   3.498   8.764
 1513TIP3   OH228733   5.012   3.407   8.742
 1513TIP3    H128734   4.968   3.326   8.777
 1513TIP3    H228735   5.090   3.407   8.800
 1514TIP3   OH228736   3.878   3.012   8.816
 1514TIP3    H128737   3.881   2.915   8.833
 1514TIP3    H228738   3.880   3.011   8.718
 1515TIP3   OH228739   4.589   3.106   8.740
 1515TIP3    H128740   4.568   3.122   8.645
 1515TIP3    H228741   4.611   3.010   8.741
 1516TIP3   OH228742   5.122   3.014   8.530
 1516TIP3    H128743   5.193   3.079   8.512
 1516TIP3    H228744   5.053   3.079   8.550
 1517TIP3   OH228745   4.011   2.752   8.773
 1517TIP3    H128746   4.011   2.656   8.773
 1517TIP3    H228747   4.068   2.775   8.850
 1518TIP3   OH228748   4.469   2.845   7.269
 1518TIP3    H128749   4.392   2.810   7.316
 1518TIP3    H228750   4.472   2.791   7.189
 1519TIP3   OH228751   4.319   2.649   8.403
 1519TIP3    H128752   4.333   2.637   8.499
 1519TIP3    H228753   4.404   2.692   8.376
 1520TIP3   OH228754   4.920   2.942   8.817
 1520TIP3    H128755   4.978   2.864   8.813
 1520TIP3    H228756   4.833   2.901   8.796
 1521TIP3   OH228757   4.424   2.380   8.539
 1521TIP3    H128758   4.461   2.314   8.477
 1521TIP3    H228759   4.482   2.460   8.530
 1522TIP3   OH228760   4.492   2.194   8.349
 1522TIP3    H128761   4.533   2.257   8.286
 1522TIP3    H228762   4.397   2.204   8.329
 1523TIP3   OH228763   4.602   2.781   8.345
 1523TIP3    H128764   4.691   2.815   8.360
 1523TIP3    H228765   4.558   2.855   8.301
 1524TIP3   OH228766   5.108   2.484   8.841
 1524TIP3    H128767   5.181   2.422   8.836
 1524TIP3    H228768   5.151   2.566   8.868
 1525TIP3   OH228769   5.219   2.834   8.698
 1525TIP3    H128770   5.170   2.886   8.631
 1525TIP3    H228771   5.309   2.841   8.662
 1526TIP3   OH228772   4.287   2.467   8.752
 1526TIP3    H128773   4.206   2.424   8.718
 1526TIP3    H228774   4.350   2.439   8.680
 1527TIP3   OH228775   4.578   1.945   8.362
 1527TIP3    H128776   4.551   2.040   8.362
 1527TIP3    H228777   4.498   1.902   8.330
 1528TIP3   OH228778   4.674   2.386   8.759
 1528TIP3    H128779   4.615   2.366   8.834
 1528TIP3    H228780   4.613   2.380   8.684
 1529TIP3   OH228781   4.961   2.272   8.677
 1529TIP3    H128782   4.889   2.312   8.731
 1529TIP3    H228783   5.021   2.238   8.746
 1530TIP3   OH228784   5.143   2.166   8.854
 1530TIP3    H128785   5.124   2.070   8.847
 1530TIP3    H228786   5.112   2.185   8.945
 1531TIP3   OH228787   4.066   2.292   8.762
 1531TIP3    H128788   4.057   2.201   8.727
 1531TIP3    H228789   4.061   2.273   8.859
 1532TIP3   OH228790   4.556   1.915   8.644
 1532TIP3    H128791   4.621   1.844   8.660
 1532TIP3    H228792   4.558   1.913   8.547
 1533TIP3   OH228793   4.586   2.032   8.889
 1533TIP3    H128794   4.568   1.990   8.801
 1533TIP3    H228795   4.530   2.113   8.880
 1534TIP3   OH228796   4.559   3.781   7.180
 1534TIP3    H128797   4.653   3.756   7.167
 1534TIP3    H228798   4.545   3.828   7.097
 1535TIP3   OH228799   3.760   3.713   7.666
 1535TIP3    H128800   3.690   3.677   7.608
 1535TIP3    H228801   3.783   3.640   7.726
 1536TIP3   OH228802   3.888   3.535   7.827
 1536TIP3    H128803   3.839   3.468   7.877
 1536TIP3    H228804   3.946   3.571   7.897
 1537TIP3   OH228805   5.651   3.663   8.074
 1537TIP3    H128806   5.664   3.624   8.162
 1537TIP3    H228807   5.742   3.692   8.054
 1538TIP3   OH228808   5.589   3.603   8.405
 1538TIP3    H128809   5.559   3.520   8.363
 1538TIP3    H228810   5.620   3.568   8.491
 1539TIP3   OH228811   5.432   3.163   8.871
 1539TIP3    H128812   5.343   3.160   8.912
 1539TIP3    H228813   5.473   3.237   8.921
 1540TIP3   OH228814   5.556   2.982   7.373
 1540TIP3    H128815   5.634   3.038   7.393
 1540TIP3    H228816   5.557   2.924   7.452
 1541TIP3   OH228817   5.593   2.812   7.593
 1541TIP3    H128818   5.512   2.777   7.637
 1541TIP3    H228819   5.659   2.811   7.666
 1542TIP3   OH228820   5.523   3.105   8.081
 1542TIP3    H128821   5.585   3.036   8.049
 1542TIP3    H228822   5.585   3.178   8.090
 1543TIP3   OH228823   5.442   3.382   8.304
 1543TIP3    H128824   5.364   3.405   8.356
 1543TIP3    H228825   5.413   3.296   8.267
 1544TIP3   OH228826   5.383   2.679   7.689
 1544TIP3    H128827   5.336   2.602   7.651
 1544TIP3    H228828   5.349   2.674   7.781
 1545TIP3   OH228829   3.863   2.878   8.077
 1545TIP3    H128830   3.859   2.837   7.988
 1545TIP3    H228831   3.951   2.845   8.108
 1546TIP3   OH228832   5.491   2.844   8.624
 1546TIP3    H128833   5.538   2.759   8.641
 1546TIP3    H228834   5.563   2.911   8.615
 1547TIP3   OH228835   5.592   2.604   8.688
 1547TIP3    H128836   5.500   2.579   8.660
 1547TIP3    H228837   5.641   2.519   8.685
 1548TIP3   OH228838   5.334   2.450   7.539
 1548TIP3    H128839   5.325   2.362   7.500
 1548TIP3    H228840   5.399   2.493   7.482
 1549TIP3   OH228841   5.425   2.465   8.037
 1549TIP3    H128842   5.522   2.478   8.047
 1549TIP3    H228843   5.402   2.473   8.132
 1550TIP3   OH228844   5.416   2.551   8.288
 1550TIP3    H128845   5.326   2.574   8.321
 1550TIP3    H228846   5.461   2.639   8.294
 1551TIP3   OH228847   3.848   2.406   8.655
 1551TIP3    H128848   3.934   2.383   8.696
 1551TIP3    H228849   3.798   2.323   8.670
 1552TIP3   OH228850   5.662   1.988   8.850
 1552TIP3    H128851   5.693   1.912   8.797
 1552TIP3    H228852   5.651   2.056   8.780
 1553TIP3   OH228853   3.809   2.515   8.076
 1553TIP3    H128854   3.865   2.503   7.997
 1553TIP3    H228855   3.858   2.586   8.119
 1554TIP3   OH228856   5.587   2.186   8.685
 1554TIP3    H128857   5.513   2.224   8.739
 1554TIP3    H228858   5.535   2.144   8.614
 1555TIP3   OH228859   3.803   2.010   8.304
 1555TIP3    H128860   3.745   1.984   8.378
 1555TIP3    H228861   3.751   2.078   8.257
 1556TIP3   OH228862   4.042   3.347   8.708
 1556TIP3    H128863   3.951   3.361   8.678
 1556TIP3    H228864   4.036   3.299   8.791
 1557TIP3   OH228865   4.336   3.486   8.363
 1557TIP3    H128866   4.334   3.578   8.329
 1557TIP3    H228867   4.432   3.467   8.363
 1558TIP3   OH228868   4.745   3.634   8.630
 1558TIP3    H128869   4.768   3.598   8.718
 1558TIP3    H228870   4.834   3.659   8.597
 1559TIP3   OH228871   4.988   3.758   8.577
 1559TIP3    H128872   5.060   3.709   8.537
 1559TIP3    H228873   5.023   3.780   8.667
 1560TIP3   OH228874   5.489   1.958   8.481
 1560TIP3    H128875   5.411   2.001   8.445
 1560TIP3    H228876   5.497   1.875   8.427
 1561TIP3   OH228877   4.070   3.784   8.345
 1561TIP3    H128878   3.996   3.841   8.316
 1561TIP3    H228879   4.059   3.788   8.441
 1562TIP3   OH228880   4.305   3.729   8.240
 1562TIP3    H128881   4.211   3.751   8.262
 1562TIP3    H228882   4.324   3.797   8.171
 1563TIP3   OH228883   4.794   3.689   8.186
 1563TIP3    H128884   4.776   3.736   8.104
 1563TIP3    H228885   4.816   3.764   8.246
 1564TIP3   OH228886   4.998   3.566   8.335
 1564TIP3    H128887   4.933   3.591   8.266
 1564TIP3    H228888   5.064   3.636   8.325
 1565TIP3   OH228889   5.232   3.724   8.310
 1565TIP3    H128890   5.239   3.819   8.288
 1565TIP3    H228891   5.261   3.684   8.224
 1566TIP3   OH228892   4.038   3.624   8.042
 1566TIP3    H128893   4.020   3.569   8.121
 1566TIP3    H228894   4.125   3.586   8.014
 1567TIP3   OH228895   4.245   3.514   7.912
 1567TIP3    H128896   4.230   3.421   7.941
 1567TIP3    H228897   4.336   3.527   7.947
 1568TIP3   OH228898   4.485   3.516   8.029
 1568TIP3    H128899   4.502   3.420   8.019
 1568TIP3    H228900   4.507   3.529   8.123
 1569TIP3   OH228901   4.872   2.092   7.923
 1569TIP3    H128902   4.779   2.087   7.948
 1569TIP3    H228903   4.866   2.081   7.827
 1570TIP3   OH228904   4.506   2.007   7.670
 1570TIP3    H128905   4.580   2.025   7.610
 1570TIP3    H228906   4.551   1.987   7.753
 1571TIP3   OH228907   3.913   3.528   7.387
 1571TIP3    H128908   3.852   3.515   7.312
 1571TIP3    H228909   3.936   3.620   7.369
 1572TIP3   OH228910   4.556   2.173   7.418
 1572TIP3    H128911   4.637   2.124   7.429
 1572TIP3    H228912   4.583   2.247   7.361
 1573TIP3   OH228913   4.827   3.648   7.197
 1573TIP3    H128914   4.909   3.690   7.168
 1573TIP3    H228915   4.818   3.576   7.132
 1574TIP3   OH228916   4.042   2.020   8.641
 1574TIP3    H128917   3.992   1.937   8.649
 1574TIP3    H228918   4.112   2.008   8.710
 1575TIP3   OH228919   4.234   1.964   8.824
 1575TIP3    H128920   4.330   1.950   8.809
 1575TIP3    H228921   4.209   1.873   8.851
 1576TIP3   OH228922   5.080   1.894   8.821
 1576TIP3    H128923   5.076   1.833   8.898
 1576TIP3    H228924   5.176   1.886   8.800
 1577TIP3   OH228925   5.422   3.520   8.680
 1577TIP3    H128926   5.356   3.499   8.609
 1577TIP3    H228927   5.389   3.607   8.710
 1578TIP3   OH228928   5.993   2.785   8.129
 1578TIP3    H128929   6.008   2.717   8.196
 1578TIP3    H228930   5.982   2.865   8.184
 1579TIP3   OH228931   7.136   3.110   7.888
 1579TIP3    H128932   7.119   3.045   7.957
 1579TIP3    H228933   7.134   3.195   7.938
 1580TIP3   OH228934   6.084   3.299   8.002
 1580TIP3    H128935   6.039   3.213   8.010
 1580TIP3    H228936   6.172   3.270   7.973
 1581TIP3   OH228937   5.726   2.524   7.549
 1581TIP3    H128938   5.756   2.614   7.568
 1581TIP3    H228939   5.657   2.516   7.616
 1582TIP3   OH228940   5.797   2.786   7.781
 1582TIP3    H128941   5.845   2.713   7.826
 1582TIP3    H228942   5.857   2.862   7.790
 1583TIP3   OH228943   6.838   3.627   7.847
 1583TIP3    H128944   6.898   3.579   7.788
 1583TIP3    H228945   6.825   3.555   7.909
 1584TIP3   OH228946   6.592   3.075   8.082
 1584TIP3    H128947   6.618   3.045   7.994
 1584TIP3    H228948   6.677   3.080   8.132
 1585TIP3   OH228949   7.449   2.239   8.099
 1585TIP3    H128950   7.444   2.289   8.183
 1585TIP3    H228951   7.509   2.295   8.048
 1586TIP3   OH228952   6.909   2.501   8.122
 1586TIP3    H128953   6.937   2.408   8.130
 1586TIP3    H228954   6.851   2.495   8.046
 1587TIP3   OH228955   6.224   2.271   7.797
 1587TIP3    H128956   6.245   2.352   7.746
 1587TIP3    H228957   6.175   2.219   7.730
 1588TIP3   OH228958   7.038   2.323   7.665
 1588TIP3    H128959   7.075   2.306   7.755
 1588TIP3    H228960   7.111   2.372   7.623
 1589TIP3   OH228961   5.864   2.527   7.888
 1589TIP3    H128962   5.930   2.491   7.951
 1589TIP3    H228963   5.910   2.507   7.803
 1590TIP3   OH228964   6.391   2.693   7.789
 1590TIP3    H128965   6.391   2.677   7.885
 1590TIP3    H228966   6.341   2.616   7.754
 1591TIP3   OH228967   7.463   2.321   8.381
 1591TIP3    H128968   7.406   2.397   8.354
 1591TIP3    H228969   7.529   2.369   8.434
 1592TIP3   OH228970   6.120   2.206   8.227
 1592TIP3    H128971   6.076   2.252   8.153
 1592TIP3    H228972   6.055   2.219   8.299
 1593TIP3   OH228973   6.359   2.965   8.214
 1593TIP3    H128974   6.292   3.031   8.243
 1593TIP3    H228975   6.421   3.026   8.170
 1594TIP3   OH228976   7.151   2.304   7.902
 1594TIP3    H128977   7.114   2.226   7.946
 1594TIP3    H228978   7.190   2.355   7.976
 1595TIP3   OH228979   6.064   2.386   8.011
 1595TIP3    H128980   6.131   2.440   8.060
 1595TIP3    H228981   6.119   2.347   7.941
 1596TIP3   OH228982   6.209   3.176   8.303
 1596TIP3    H128983   6.182   3.242   8.238
 1596TIP3    H228984   6.125   3.173   8.356
 1597TIP3   OH228985   5.787   3.114   7.411
 1597TIP3    H128986   5.778   3.155   7.321
 1597TIP3    H228987   5.800   3.193   7.468
 1598TIP3   OH228988   7.157   3.321   8.065
 1598TIP3    H128989   7.062   3.325   8.089
 1598TIP3    H228990   7.174   3.415   8.045
 1599TIP3   OH228991   7.195   2.194   8.212
 1599TIP3    H128992   7.112   2.191   8.160
 1599TIP3    H228993   7.264   2.210   8.145
 1600TIP3   OH228994   6.467   1.939   7.959
 1600TIP3    H128995   6.435   1.849   7.978
 1600TIP3    H228996   6.388   1.990   7.990
 1601TIP3   OH228997   7.019   3.422   7.770
 1601TIP3    H128998   7.000   3.370   7.691
 1601TIP3    H228999   7.079   3.492   7.736
 1602TIP3   OH229000   7.137   3.229   7.582
 1602TIP3    H129001   7.056   3.181   7.558
 1602TIP3    H229002   7.147   3.207   7.676
 1603TIP3   OH229003   7.257   3.121   8.466
 1603TIP3    H129004   7.253   3.060   8.389
 1603TIP3    H229005   7.264   3.207   8.419
 1604TIP3   OH229006   7.425   2.754   8.241
 1604TIP3    H129007   7.366   2.832   8.233
 1604TIP3    H229008   7.498   2.779   8.177
 1605TIP3   OH229009   7.099   2.782   7.493
 1605TIP3    H129010   7.056   2.860   7.530
 1605TIP3    H229011   7.159   2.754   7.565
 1606TIP3   OH229012   7.084   2.669   8.434
 1606TIP3    H129013   7.061   2.749   8.484
 1606TIP3    H229014   7.009   2.672   8.370
 1607TIP3   OH229015   6.198   2.858   7.692
 1607TIP3    H129016   6.183   2.824   7.601
 1607TIP3    H229017   6.280   2.810   7.717
 1608TIP3   OH229018   6.393   3.226   7.979
 1608TIP3    H129019   6.389   3.191   7.889
 1608TIP3    H229020   6.461   3.168   8.021
 1609TIP3   OH229021   6.308   2.753   8.061
 1609TIP3    H129022   6.258   2.803   7.994
 1609TIP3    H229023   6.318   2.822   8.131
 1610TIP3   OH229024   6.914   3.332   8.165
 1610TIP3    H129025   6.886   3.388   8.240
 1610TIP3    H229026   6.875   3.245   8.190
 1611TIP3   OH229027   6.377   3.224   8.522
 1611TIP3    H129028   6.305   3.267   8.575
 1611TIP3    H229029   6.332   3.211   8.435
 1612TIP3   OH229030   6.078   2.811   8.468
 1612TIP3    H129031   6.085   2.895   8.517
 1612TIP3    H229032   5.984   2.795   8.481
 1613TIP3   OH229033   6.775   3.496   7.602
 1613TIP3    H129034   6.752   3.411   7.642
 1613TIP3    H229035   6.688   3.531   7.579
 1614TIP3   OH229036   6.197   3.387   8.629
 1614TIP3    H129037   6.196   3.444   8.547
 1614TIP3    H229038   6.103   3.364   8.638
 1615TIP3   OH229039   7.285   1.956   7.289
 1615TIP3    H129040   7.214   1.934   7.227
 1615TIP3    H229041   7.348   1.997   7.228
 1616TIP3   OH229042   6.117   2.784   7.447
 1616TIP3    H129043   6.098   2.878   7.420
 1616TIP3    H229044   6.034   2.745   7.419
 1617TIP3   OH229045   5.757   3.037   8.414
 1617TIP3    H129046   5.765   3.050   8.316
 1617TIP3    H229047   5.773   2.941   8.424
 1618TIP3   OH229048   5.758   3.339   7.969
 1618TIP3    H129049   5.807   3.254   7.979
 1618TIP3    H229050   5.738   3.352   8.062
 1619TIP3   OH229051   7.541   3.390   8.601
 1619TIP3    H129052   7.534   3.296   8.581
 1619TIP3    H229053   7.456   3.401   8.649
 1620TIP3   OH229054   6.623   3.337   8.525
 1620TIP3    H129055   6.624   3.414   8.584
 1620TIP3    H229056   6.528   3.308   8.525
 1621TIP3   OH229057   6.652   3.736   7.444
 1621TIP3    H129058   6.654   3.770   7.355
 1621TIP3    H229059   6.684   3.810   7.497
 1622TIP3   OH229060   6.036   3.589   7.661
 1622TIP3    H129061   6.071   3.566   7.750
 1622TIP3    H229062   5.963   3.525   7.648
 1623TIP3   OH229063   6.934   3.633   7.405
 1623TIP3    H129064   6.849   3.625   7.454
 1623TIP3    H229065   6.989   3.575   7.458
 1624TIP3   OH229066   7.211   2.555   8.661
 1624TIP3    H129067   7.165   2.586   8.579
 1624TIP3    H229068   7.230   2.463   8.636
 1625TIP3   OH229069   5.988   3.180   8.452
 1625TIP3    H129070   5.994   3.148   8.545
 1625TIP3    H229071   5.903   3.143   8.424
 1626TIP3   OH229072   6.249   2.051   8.047
 1626TIP3    H129073   6.165   2.057   7.998
 1626TIP3    H229074   6.228   2.105   8.125
 1627TIP3   OH229075   6.729   1.985   8.372
 1627TIP3    H129076   6.761   1.933   8.448
 1627TIP3    H229077   6.630   1.982   8.380
 1628TIP3   OH229078   7.004   2.377   8.479
 1628TIP3    H129079   6.957   2.330   8.551
 1628TIP3    H229080   6.955   2.460   8.475
 1629TIP3   OH229081   6.250   2.510   8.174
 1629TIP3    H129082   6.173   2.517   8.234
 1629TIP3    H229083   6.268   2.604   8.154
 1630TIP3   OH229084   6.247   2.507   7.663
 1630TIP3    H129085   6.149   2.506   7.659
 1630TIP3    H229086   6.267   2.493   7.567
 1631TIP3   OH229087   6.668   2.613   8.692
 1631TIP3    H129088   6.631   2.527   8.721
 1631TIP3    H229089   6.741   2.623   8.755
 1632TIP3   OH229090   6.014   2.522   8.301
 1632TIP3    H129091   6.047   2.565   8.382
 1632TIP3    H229092   5.976   2.439   8.336
 1633TIP3   OH229093   5.810   2.355   7.262
 1633TIP3    H129094   5.880   2.365   7.195
 1633TIP3    H229095   5.786   2.448   7.274
 1634TIP3   OH229096   6.862   2.707   8.286
 1634TIP3    H129097   6.883   2.633   8.224
 1634TIP3    H229098   6.790   2.664   8.337
 1635TIP3   OH229099   6.507   2.269   7.769
 1635TIP3    H129100   6.413   2.266   7.792
 1635TIP3    H229101   6.549   2.240   7.852
 1636TIP3   OH229102   5.982   2.452   7.638
 1636TIP3    H129103   5.898   2.453   7.587
 1636TIP3    H229104   6.017   2.362   7.615
 1637TIP3   OH229105   6.315   2.459   7.410
 1637TIP3    H129106   6.411   2.454   7.428
 1637TIP3    H229107   6.312   2.536   7.352
 1638TIP3   OH229108   6.958   2.204   8.084
 1638TIP3    H129109   6.884   2.201   8.150
 1638TIP3    H229110   6.918   2.165   8.005
 1639TIP3   OH229111   7.251   3.745   8.746
 1639TIP3    H129112   7.292   3.784   8.667
 1639TIP3    H229113   7.324   3.757   8.811
 1640TIP3   OH229114   6.030   3.007   8.683
 1640TIP3    H129115   6.097   3.031   8.750
 1640TIP3    H229116   5.955   2.980   8.739
 1641TIP3   OH229117   6.071   2.198   7.591
 1641TIP3    H129118   6.032   2.118   7.633
 1641TIP3    H229119   6.112   2.157   7.514
 1642TIP3   OH229120   6.481   2.379   8.200
 1642TIP3    H129121   6.405   2.440   8.196
 1642TIP3    H229122   6.549   2.432   8.246
 1643TIP3   OH229123   7.261   2.987   8.245
 1643TIP3    H129124   7.314   3.015   8.168
 1643TIP3    H229125   7.183   2.948   8.201
 1644TIP3   OH229126   6.689   3.072   8.496
 1644TIP3    H129127   6.649   3.034   8.575
 1644TIP3    H229128   6.675   3.168   8.511
 1645TIP3   OH229129   7.041   2.486   7.333
 1645TIP3    H129130   7.114   2.474   7.396
 1645TIP3    H229131   7.027   2.581   7.343
 1646TIP3   OH229132   6.071   2.975   7.917
 1646TIP3    H129133   6.099   2.940   7.830
 1646TIP3    H229134   6.057   2.896   7.973
 1647TIP3   OH229135   5.788   2.781   8.480
 1647TIP3    H129136   5.750   2.731   8.553
 1647TIP3    H229137   5.723   2.760   8.408
 1648TIP3   OH229138   6.456   2.769   8.668
 1648TIP3    H129139   6.411   2.713   8.603
 1648TIP3    H229140   6.543   2.723   8.675
 1649TIP3   OH229141   6.950   3.284   8.514
 1649TIP3    H129142   6.867   3.307   8.470
 1649TIP3    H229143   6.936   3.324   8.602
 1650TIP3   OH229144   7.466   2.539   7.305
 1650TIP3    H129145   7.467   2.461   7.248
 1650TIP3    H229146   7.505   2.607   7.249
 1651TIP3   OH229147   7.483   3.085   8.593
 1651TIP3    H129148   7.396   3.113   8.556
 1651TIP3    H229149   7.536   3.071   8.511
 1652TIP3   OH229150   7.324   3.352   7.381
 1652TIP3    H129151   7.264   3.325   7.454
 1652TIP3    H229152   7.272   3.338   7.302
 1653TIP3   OH229153   7.072   2.865   8.083
 1653TIP3    H129154   6.978   2.852   8.099
 1653TIP3    H229155   7.093   2.797   8.017
 1654TIP3   OH229156   6.274   3.293   7.727
 1654TIP3    H129157   6.355   3.336   7.695
 1654TIP3    H229158   6.205   3.337   7.677
 1655TIP3   OH229159   5.874   2.814   7.148
 1655TIP3    H129160   5.955   2.824   7.200
 1655TIP3    H229161   5.828   2.897   7.167
 1656TIP3   OH229162   6.489   3.482   8.319
 1656TIP3    H129163   6.544   3.548   8.274
 1656TIP3    H229164   6.550   3.445   8.386
 1657TIP3   OH229165   6.288   3.630   7.567
 1657TIP3    H129166   6.199   3.629   7.609
 1657TIP3    H229167   6.329   3.707   7.610
 1658TIP3   OH229168   6.805   3.076   8.255
 1658TIP3    H129169   6.754   3.064   8.339
 1658TIP3    H229170   6.875   3.011   8.272
 1659TIP3   OH229171   7.104   3.538   8.494
 1659TIP3    H129172   7.014   3.499   8.487
 1659TIP3    H229173   7.110   3.592   8.412
 1660TIP3   OH229174   7.527   3.690   7.191
 1660TIP3    H129175   7.567   3.741   7.119
 1660TIP3    H229176   7.458   3.640   7.144
 1661TIP3   OH229177   5.933   2.278   8.430
 1661TIP3    H129178   5.879   2.318   8.501
 1661TIP3    H229179   5.929   2.185   8.459
 1662TIP3   OH229180   5.905   3.461   8.259
 1662TIP3    H129181   5.949   3.376   8.247
 1662TIP3    H229182   5.941   3.487   8.345
 1663TIP3   OH229183   6.352   3.239   7.254
 1663TIP3    H129184   6.429   3.197   7.297
 1663TIP3    H229185   6.357   3.330   7.292
 1664TIP3   OH229186   6.021   2.992   7.320
 1664TIP3    H129187   5.950   3.032   7.375
 1664TIP3    H229188   6.052   3.071   7.270
 1665TIP3   OH229189   6.792   2.251   8.338
 1665TIP3    H129190   6.878   2.261   8.382
 1665TIP3    H229191   6.764   2.163   8.370
 1666TIP3   OH229192   6.863   2.239   7.481
 1666TIP3    H129193   6.915   2.302   7.428
 1666TIP3    H229194   6.925   2.238   7.558
 1667TIP3   OH229195   6.592   2.425   7.501
 1667TIP3    H129196   6.662   2.374   7.459
 1667TIP3    H229197   6.555   2.364   7.566
 1668TIP3   OH229198   6.706   2.512   8.434
 1668TIP3    H129199   6.689   2.533   8.528
 1668TIP3    H229200   6.732   2.418   8.432
 1669TIP3   OH229201   6.671   2.086   7.610
 1669TIP3    H129202   6.631   2.139   7.682
 1669TIP3    H229203   6.732   2.150   7.568
 1670TIP3   OH229204   6.369   3.480   7.357
 1670TIP3    H129205   6.405   3.550   7.300
 1670TIP3    H229206   6.326   3.534   7.427
 1671TIP3   OH229207   6.257   2.167   7.275
 1671TIP3    H129208   6.208   2.248   7.290
 1671TIP3    H229209   6.343   2.193   7.309
 1672TIP3   OH229210   7.249   2.270   8.541
 1672TIP3    H129211   7.167   2.298   8.495
 1672TIP3    H229212   7.317   2.296   8.477
 1673TIP3   OH229213   7.084   2.612   7.888
 1673TIP3    H129214   7.045   2.524   7.890
 1673TIP3    H229215   7.149   2.598   7.962
 1674TIP3   OH229216   6.080   3.221   7.189
 1674TIP3    H129217   6.160   3.259   7.231
 1674TIP3    H229218   6.121   3.182   7.109
 1675TIP3   OH229219   7.259   3.572   8.072
 1675TIP3    H129220   7.240   3.641   8.005
 1675TIP3    H229221   7.356   3.583   8.083
 1676TIP3   OH229222   5.987   1.994   7.990
 1676TIP3    H129223   5.987   1.978   7.894
 1676TIP3    H229224   5.957   1.908   8.026
 1677TIP3   OH229225   5.849   3.386   7.579
 1677TIP3    H129226   5.766   3.427   7.609
 1677TIP3    H229227   5.857   3.429   7.491
 1678TIP3   OH229228   5.779   3.653   8.712
 1678TIP3    H129229   5.849   3.635   8.778
 1678TIP3    H229230   5.744   3.563   8.697
 1679TIP3   OH229231   6.260   3.543   8.845
 1679TIP3    H129232   6.344   3.505   8.876
 1679TIP3    H229233   6.249   3.498   8.759
 1680TIP3   OH229234   6.899   3.411   8.754
 1680TIP3    H129235   6.867   3.322   8.784
 1680TIP3    H229236   6.985   3.415   8.800
 1681TIP3   OH229237   5.779   3.007   8.835
 1681TIP3    H129238   5.753   2.914   8.821
 1681TIP3    H229239   5.724   3.049   8.765
 1682TIP3   OH229240   6.213   3.088   6.994
 1682TIP3    H129241   6.253   3.061   7.079
 1682TIP3    H229242   6.255   3.025   6.934
 1683TIP3   OH229243   6.440   3.033   8.707
 1683TIP3    H129244   6.425   3.081   8.622
 1683TIP3    H229245   6.444   2.937   8.682
 1684TIP3   OH229246   7.025   3.001   8.501
 1684TIP3    H129247   7.114   3.042   8.510
 1684TIP3    H229248   6.972   3.083   8.507
 1685TIP3   OH229249   5.894   2.732   8.794
 1685TIP3    H129250   5.947   2.653   8.784
 1685TIP3    H229251   5.936   2.781   8.869
 1686TIP3   OH229252   6.310   2.879   7.220
 1686TIP3    H129253   6.277   2.843   7.303
 1686TIP3    H229254   6.359   2.803   7.183
 1687TIP3   OH229255   6.276   2.642   8.452
 1687TIP3    H129256   6.203   2.707   8.457
 1687TIP3    H229257   6.347   2.693   8.408
 1688TIP3   OH229258   6.453   2.659   7.114
 1688TIP3    H129259   6.460   2.598   7.040
 1688TIP3    H229260   6.536   2.711   7.109
 1689TIP3   OH229261   6.771   2.921   8.841
 1689TIP3    H129262   6.846   2.893   8.786
 1689TIP3    H229263   6.749   2.836   8.886
 1690TIP3   OH229264   6.337   2.405   8.548
 1690TIP3    H129265   6.347   2.342   8.473
 1690TIP3    H229266   6.330   2.492   8.502
 1691TIP3   OH229267   6.354   2.199   8.349
 1691TIP3    H129268   6.404   2.254   8.284
 1691TIP3    H229269   6.264   2.203   8.309
 1692TIP3   OH229270   6.491   2.778   8.356
 1692TIP3    H129271   6.583   2.798   8.338
 1692TIP3    H229272   6.444   2.852   8.310
 1693TIP3   OH229273   7.005   2.504   8.837
 1693TIP3    H129274   7.053   2.420   8.833
 1693TIP3    H229275   7.062   2.554   8.775
 1694TIP3   OH229276   7.057   2.834   8.708
 1694TIP3    H129277   7.038   2.890   8.630
 1694TIP3    H229278   7.149   2.807   8.692
 1695TIP3   OH229279   6.181   2.473   8.769
 1695TIP3    H129280   6.096   2.432   8.745
 1695TIP3    H229281   6.234   2.451   8.690
 1696TIP3   OH229282   6.463   1.959   8.352
 1696TIP3    H129283   6.431   2.052   8.361
 1696TIP3    H229284   6.380   1.915   8.334
 1697TIP3   OH229285   6.549   2.380   8.769
 1697TIP3    H129286   6.489   2.350   8.840
 1697TIP3    H229287   6.493   2.369   8.690
 1698TIP3   OH229288   6.832   2.298   8.680
 1698TIP3    H129289   6.750   2.323   8.726
 1698TIP3    H229290   6.878   2.249   8.752
 1699TIP3   OH229291   7.002   2.177   8.849
 1699TIP3    H129292   6.990   2.079   8.850
 1699TIP3    H229293   6.972   2.202   8.940
 1700TIP3   OH229294   5.958   2.296   8.779
 1700TIP3    H129295   5.939   2.215   8.729
 1700TIP3    H229296   5.941   2.265   8.872
 1701TIP3   OH229297   6.421   1.922   8.646
 1701TIP3    H129298   6.492   1.858   8.663
 1701TIP3    H229299   6.428   1.928   8.548
 1702TIP3   OH229300   6.451   2.048   8.902
 1702TIP3    H129301   6.438   2.017   8.810
 1702TIP3    H229302   6.403   2.133   8.903
 1703TIP3   OH229303   6.407   3.724   7.181
 1703TIP3    H129304   6.489   3.713   7.130
 1703TIP3    H229305   6.386   3.817   7.160
 1704TIP3   OH229306   5.809   3.203   7.148
 1704TIP3    H129307   5.907   3.214   7.153
 1704TIP3    H229308   5.794   3.211   7.052
 1705TIP3   OH229309   5.740   3.557   7.813
 1705TIP3    H129310   5.759   3.464   7.839
 1705TIP3    H229311   5.698   3.587   7.896
 1706TIP3   OH229312   7.546   3.601   8.143
 1706TIP3    H129313   7.541   3.580   8.239
 1706TIP3    H229314   7.533   3.698   8.148
 1707TIP3   OH229315   7.467   3.567   8.404
 1707TIP3    H129316   7.418   3.493   8.361
 1707TIP3    H229317   7.504   3.518   8.480
 1708TIP3   OH229318   7.316   3.162   8.900
 1708TIP3    H129319   7.230   3.176   8.944
 1708TIP3    H229320   7.357   3.251   8.910
 1709TIP3   OH229321   7.474   3.006   7.395
 1709TIP3    H129322   7.490   3.085   7.449
 1709TIP3    H229323   7.460   2.942   7.466
 1710TIP3   OH229324   7.473   2.779   7.599
 1710TIP3    H129325   7.388   2.740   7.631
 1710TIP3    H229326   7.514   2.808   7.681
 1711TIP3   OH229327   7.486   3.048   8.093
 1711TIP3    H129328   7.581   3.049   8.073
 1711TIP3    H229329   7.464   3.141   8.068
 1712TIP3   OH229330   7.312   3.359   8.325
 1712TIP3    H129331   7.235   3.404   8.362
 1712TIP3    H229332   7.288   3.348   8.232
 1713TIP3   OH229333   7.528   2.814   7.210
 1713TIP3    H129334   7.433   2.812   7.224
 1713TIP3    H229335   7.554   2.856   7.293
 1714TIP3   OH229336   7.247   2.651   7.678
 1714TIP3    H129337   7.220   2.568   7.632
 1714TIP3    H229338   7.207   2.638   7.766
 1715TIP3   OH229339   5.730   2.806   8.065
 1715TIP3    H129340   5.733   2.825   7.969
 1715TIP3    H229341   5.819   2.843   8.088
 1716TIP3   OH229342   7.338   2.848   8.638
 1716TIP3    H129343   7.410   2.788   8.611
 1716TIP3    H229344   7.384   2.935   8.627
 1717TIP3   OH229345   7.488   2.632   8.647
 1717TIP3    H129346   7.392   2.634   8.668
 1717TIP3    H229347   7.509   2.538   8.670
 1718TIP3   OH229348   7.250   2.436   7.513
 1718TIP3    H129349   7.279   2.345   7.490
 1718TIP3    H229350   7.331   2.485   7.494
 1719TIP3   OH229351   7.241   2.502   8.064
 1719TIP3    H129352   7.338   2.492   8.050
 1719TIP3    H229353   7.238   2.496   8.162
 1720TIP3   OH229354   7.296   2.535   8.338
 1720TIP3    H129355   7.207   2.569   8.365
 1720TIP3    H229356   7.337   2.618   8.305
 1721TIP3   OH229357   5.748   2.392   8.664
 1721TIP3    H129358   5.831   2.382   8.716
 1721TIP3    H229359   5.706   2.304   8.679
 1722TIP3   OH229360   7.510   1.917   8.852
 1722TIP3    H129361   7.551   1.857   8.788
 1722TIP3    H229362   7.502   1.996   8.794
 1723TIP3   OH229363   7.314   2.190   7.454
 1723TIP3    H129364   7.341   2.136   7.531
 1723TIP3    H229365   7.229   2.151   7.430
 1724TIP3   OH229366   5.831   2.222   7.988
 1724TIP3    H129367   5.887   2.142   8.002
 1724TIP3    H229368   5.897   2.290   7.969
 1725TIP3   OH229369   5.681   2.541   8.087
 1725TIP3    H129370   5.739   2.507   8.016
 1725TIP3    H229371   5.706   2.637   8.082
 1726TIP3   OH229372   7.458   2.139   8.714
 1726TIP3    H129373   7.382   2.196   8.743
 1726TIP3    H229374   7.430   2.123   8.622
 1727TIP3   OH229375   5.744   2.140   7.446
 1727TIP3    H129376   5.649   2.128   7.440
 1727TIP3    H229377   5.758   2.226   7.404
 1728TIP3   OH229378   7.186   3.623   7.677
 1728TIP3    H129379   7.247   3.610   7.603
 1728TIP3    H229380   7.245   3.655   7.746
 1729TIP3   OH229381   5.712   2.008   8.310
 1729TIP3    H129382   5.652   1.980   8.380
 1729TIP3    H229383   5.662   2.079   8.266
 1730TIP3   OH229384   5.931   3.324   8.700
 1730TIP3    H129385   5.847   3.354   8.662
 1730TIP3    H229386   5.910   3.309   8.792
 1731TIP3   OH229387   6.229   3.501   8.393
 1731TIP3    H129388   6.227   3.586   8.344
 1731TIP3    H229389   6.323   3.476   8.381
 1732TIP3   OH229390   6.630   3.602   8.637
 1732TIP3    H129391   6.644   3.571   8.729
 1732TIP3    H229392   6.721   3.632   8.614
 1733TIP3   OH229393   6.864   3.740   8.592
 1733TIP3    H129394   6.945   3.702   8.554
 1733TIP3    H229395   6.896   3.775   8.677
 1734TIP3   OH229396   7.360   1.958   8.495
 1734TIP3    H129397   7.283   2.003   8.457
 1734TIP3    H229398   7.361   1.872   8.450
 1735TIP3   OH229399   5.961   3.775   8.337
 1735TIP3    H129400   5.874   3.816   8.312
 1735TIP3    H229401   5.951   3.771   8.433
 1736TIP3   OH229402   6.209   3.731   8.257
 1736TIP3    H129403   6.113   3.744   8.280
 1736TIP3    H229404   6.214   3.791   8.181
 1737TIP3   OH229405   6.678   3.683   8.175
 1737TIP3    H129406   6.624   3.716   8.102
 1737TIP3    H229407   6.690   3.763   8.230
 1738TIP3   OH229408   6.865   3.556   8.328
 1738TIP3    H129409   6.796   3.581   8.261
 1738TIP3    H229410   6.935   3.618   8.303
 1739TIP3   OH229411   7.134   3.694   8.280
 1739TIP3    H129412   7.131   3.785   8.247
 1739TIP3    H229413   7.173   3.647   8.203
 1740TIP3   OH229414   5.921   3.647   8.062
 1740TIP3    H129415   5.897   3.581   8.131
 1740TIP3    H229416   6.002   3.607   8.022
 1741TIP3   OH229417   6.138   3.571   7.919
 1741TIP3    H129418   6.100   3.482   7.936
 1741TIP3    H229419   6.230   3.554   7.949
 1742TIP3   OH229420   6.381   3.498   8.014
 1742TIP3    H129421   6.407   3.403   8.005
 1742TIP3    H229422   6.381   3.506   8.111
 1743TIP3   OH229423   6.685   2.083   7.906
 1743TIP3    H129424   6.605   2.036   7.940
 1743TIP3    H229425   6.728   2.011   7.858
 1744TIP3   OH229426   7.235   1.916   7.910
 1744TIP3    H129427   7.269   1.987   7.853
 1744TIP3    H229428   7.140   1.926   7.891
 1745TIP3   OH229429   7.375   2.045   7.680
 1745TIP3    H129430   7.445   1.976   7.665
 1745TIP3    H229431   7.424   2.098   7.747
 1746TIP3   OH229432   5.996   1.964   7.695
 1746TIP3    H129433   5.912   1.953   7.648
 1746TIP3    H229434   6.040   1.877   7.678
 1747TIP3   OH229435   5.896   2.004   7.264
 1747TIP3    H129436   5.900   2.100   7.281
 1747TIP3    H229437   5.825   1.983   7.327
 1748TIP3   OH229438   6.395   1.936   7.688
 1748TIP3    H129439   6.474   1.972   7.647
 1748TIP3    H229440   6.414   1.955   7.782
 1749TIP3   OH229441   6.988   1.994   7.816
 1749TIP3    H129442   6.979   1.965   7.724
 1749TIP3    H229443   6.916   1.940   7.857
 1750TIP3   OH229444   7.029   2.002   7.419
 1750TIP3    H129445   6.946   2.046   7.397
 1750TIP3    H229446   7.013   1.910   7.391
 1751TIP3   OH229447   5.819   3.554   7.372
 1751TIP3    H129448   5.740   3.545   7.314
 1751TIP3    H229449   5.847   3.643   7.345
 1752TIP3   OH229450   7.364   3.613   7.481
 1752TIP3    H129451   7.378   3.527   7.437
 1752TIP3    H229452   7.347   3.673   7.406
 1753TIP3   OH229453   5.923   2.037   8.651
 1753TIP3    H129454   5.876   1.952   8.653
 1753TIP3    H229455   6.002   2.022   8.708
 1754TIP3   OH229456   6.123   1.958   8.831
 1754TIP3    H129457   6.217   1.941   8.809
 1754TIP3    H229458   6.097   1.868   8.859
 1755TIP3   OH229459   5.967   3.676   7.070
 1755TIP3    H129460   5.934   3.735   7.141
 1755TIP3    H229461   6.040   3.630   7.112
 1756TIP3   OH229462   6.991   1.900   8.840
 1756TIP3    H129463   6.995   1.847   8.924
 1756TIP3    H229464   7.077   1.872   8.801
 1757TIP3   OH229465   7.292   3.446   8.661
 1757TIP3    H129466   7.224   3.458   8.591
 1757TIP3    H229467   7.294   3.537   8.696
 1758TIP3   OH229468   7.579   2.520   7.561
 1758TIP3    H129469   7.553   2.612   7.582
 1758TIP3    H229470   7.537   2.511   7.473
 1759TIP3   OH229471   7.586   3.015   8.354
 1759TIP3    H129472   7.530   3.007   8.274
 1759TIP3    H229473   7.598   2.922   8.382
 1760TIP3   OH229474   7.556   3.307   8.036
 1760TIP3    H129475   7.651   3.304   8.008
 1760TIP3    H229476   7.553   3.398   8.071
 1761TIP3   OH229477   7.545   2.243   7.781
 1761TIP3    H129478   7.543   2.340   7.792
 1761TIP3    H229479   7.558   2.234   7.684
 1762TIP3   OH229480   7.594   2.767   8.447
 1762TIP3    H129481   7.579   2.700   8.516
 1762TIP3    H229482   7.520   2.747   8.385
 1763TIP3   OH229483   7.640   2.960   8.766
 1763TIP3    H129484   7.599   2.874   8.784
 1763TIP3    H229485   7.576   3.006   8.708
 1764TIP3   OH229486   7.516   3.743   7.656
 1764TIP3    H129487   7.459   3.699   7.588
 1764TIP3    H229488   7.531   3.665   7.715
 1765TIP3   OH229489   7.569   3.529   7.811
 1765TIP3    H129490   7.546   3.436   7.826
 1765TIP3    H229491   7.642   3.540   7.872
 1766TIP3   OH229492   7.632   2.801   8.086
 1766TIP3    H129493   7.620   2.824   7.992
 1766TIP3    H229494   7.712   2.856   8.105
 1767TIP3   OH229495   7.547   2.388   8.707
 1767TIP3    H129496   7.644   2.393   8.704
 1767TIP3    H229497   7.529   2.296   8.735
 1768TIP3   OH229498   7.506   2.508   8.042
 1768TIP3    H129499   7.604   2.499   8.054
 1768TIP3    H229500   7.497   2.601   8.065
 1769TIP3   OH229501   7.593   2.187   7.511
 1769TIP3    H129502   7.502   2.183   7.476
 1769TIP3    H229503   7.645   2.183   7.430
 1770TIP3   OH229504   7.492   1.992   8.257
 1770TIP3    H129505   7.479   1.992   8.353
 1770TIP3    H229506   7.458   2.081   8.233
 1771TIP3   OH229507   1.225   4.782   7.674
 1771TIP3    H129508   1.212   4.877   7.655
 1771TIP3    H229509   1.157   4.747   7.614
 1772TIP3   OH229510   1.117   4.675   8.027
 1772TIP3    H129511   1.124   4.635   8.118
 1772TIP3    H229512   1.050   4.616   7.988
 1773TIP3   OH229513   0.343   4.673   8.198
 1773TIP3    H129514   0.323   4.582   8.225
 1773TIP3    H229515   0.398   4.701   8.275
 1774TIP3   OH229516   1.452   4.977   7.887
 1774TIP3    H129517   1.409   4.911   7.943
 1774TIP3    H229518   1.462   5.052   7.950
 1775TIP3   OH229519   0.358   5.118   8.032
 1775TIP3    H129520   0.330   5.028   8.008
 1775TIP3    H229521   0.454   5.111   8.024
 1776TIP3   OH229522   0.154   4.471   7.568
 1776TIP3    H129523   0.088   4.532   7.536
 1776TIP3    H229524   0.103   4.388   7.571
 1777TIP3   OH229525   0.153   4.666   7.836
 1777TIP3    H129526   0.185   4.583   7.797
 1777TIP3    H229527   0.156   4.728   7.762
 1778TIP3   OH229528   1.179   5.499   7.853
 1778TIP3    H129529   1.263   5.453   7.828
 1778TIP3    H229530   1.139   5.426   7.902
 1779TIP3   OH229531   0.925   4.923   8.102
 1779TIP3    H129532   0.967   4.877   8.029
 1779TIP3    H229533   1.006   4.955   8.148
 1780TIP3   OH229534   1.790   4.093   8.091
 1780TIP3    H129535   1.792   4.150   8.171
 1780TIP3    H229536   1.877   4.117   8.053
 1781TIP3   OH229537   1.291   4.387   8.122
 1781TIP3    H129538   1.310   4.292   8.137
 1781TIP3    H229539   1.253   4.384   8.032
 1782TIP3   OH229540   1.317   4.210   7.673
 1782TIP3    H129541   1.371   4.173   7.745
 1782TIP3    H229542   1.381   4.272   7.633
 1783TIP3   OH229543   1.803   4.225   8.343
 1783TIP3    H129544   1.770   4.313   8.313
 1783TIP3    H229545   1.829   4.248   8.434
 1784TIP3   OH229546   0.470   4.090   8.229
 1784TIP3    H129547   0.430   4.142   8.156
 1784TIP3    H229548   0.416   4.121   8.305
 1785TIP3   OH229549   1.160   5.044   7.593
 1785TIP3    H129550   1.134   5.055   7.498
 1785TIP3    H229551   1.151   5.137   7.624
 1786TIP3   OH229552   0.713   4.862   8.261
 1786TIP3    H129553   0.654   4.937   8.282
 1786TIP3    H229554   0.780   4.905   8.203
 1787TIP3   OH229555   1.515   4.173   7.864
 1787TIP3    H129556   1.503   4.087   7.906
 1787TIP3    H229557   1.602   4.200   7.897
 1788TIP3   OH229558   0.402   4.268   8.020
 1788TIP3    H129559   0.456   4.335   8.069
 1788TIP3    H229560   0.459   4.248   7.944
 1789TIP3   OH229561   0.559   5.087   8.322
 1789TIP3    H129562   0.540   5.176   8.285
 1789TIP3    H229563   0.469   5.063   8.351
 1790TIP3   OH229564   0.129   5.024   7.421
 1790TIP3    H129565   0.105   5.045   7.328
 1790TIP3    H229566   0.173   5.105   7.454
 1791TIP3   OH229567   1.513   5.184   8.076
 1791TIP3    H129568   1.418   5.198   8.095
 1791TIP3    H229569   1.530   5.272   8.036
 1792TIP3   OH229570   1.496   4.029   8.192
 1792TIP3    H129571   1.414   4.059   8.147
 1792TIP3    H229572   1.562   4.057   8.125
 1793TIP3   OH229573   0.824   3.808   8.018
 1793TIP3    H129574   0.798   3.759   7.939
 1793TIP3    H229575   0.748   3.870   8.024
 1794TIP3   OH229576   1.377   5.353   7.763
 1794TIP3    H129577   1.365   5.292   7.688
 1794TIP3    H229578   1.442   5.416   7.725
 1795TIP3   OH229579   1.475   5.156   7.591
 1795TIP3    H129580   1.448   5.092   7.523
 1795TIP3    H229581   1.452   5.105   7.671
 1796TIP3   OH229582   1.612   5.016   8.464
 1796TIP3    H129583   1.631   4.944   8.400
 1796TIP3    H229584   1.619   5.094   8.405
 1797TIP3   OH229585   1.096   4.722   7.423
 1797TIP3    H129586   1.044   4.802   7.403
 1797TIP3    H229587   1.119   4.692   7.332
 1798TIP3   OH229588   1.824   4.658   8.243
 1798TIP3    H129589   1.756   4.728   8.250
 1798TIP3    H229590   1.882   4.699   8.176
 1799TIP3   OH229591   1.434   4.680   7.515
 1799TIP3    H129592   1.367   4.720   7.574
 1799TIP3    H229593   1.501   4.652   7.581
 1800TIP3   OH229594   1.436   4.548   8.431
 1800TIP3    H129595   1.410   4.631   8.472
 1800TIP3    H229596   1.369   4.545   8.359
 1801TIP3   OH229597   0.704   5.096   7.967
 1801TIP3    H129598   0.735   5.100   7.876
 1801TIP3    H229599   0.785   5.074   8.018
 1802TIP3   OH229600   0.646   4.676   8.080
 1802TIP3    H129601   0.741   4.676   8.061
 1802TIP3    H229602   0.642   4.738   8.155
 1803TIP3   OH229603   1.259   5.238   8.150
 1803TIP3    H129604   1.234   5.314   8.204
 1803TIP3    H229605   1.212   5.166   8.196
 1804TIP3   OH229606   0.706   5.110   8.543
 1804TIP3    H129607   0.636   5.154   8.596
 1804TIP3    H229608   0.656   5.098   8.458
 1805TIP3   OH229609   0.450   4.727   8.431
 1805TIP3    H129610   0.449   4.811   8.482
 1805TIP3    H229611   0.356   4.701   8.445
 1806TIP3   OH229612   1.110   5.293   7.659
 1806TIP3    H129613   1.133   5.386   7.680
 1806TIP3    H229614   1.023   5.304   7.619
 1807TIP3   OH229615   0.525   5.289   8.628
 1807TIP3    H129616   0.514   5.303   8.532
 1807TIP3    H229617   0.433   5.273   8.657
 1808TIP3   OH229618   1.683   3.791   7.300
 1808TIP3    H129619   1.588   3.803   7.320
 1808TIP3    H229620   1.714   3.883   7.310
 1809TIP3   OH229621   0.173   4.910   8.379
 1809TIP3    H129622   0.082   4.919   8.345
 1809TIP3    H229623   0.192   4.816   8.360
 1810TIP3   OH229624   0.125   5.242   8.001
 1810TIP3    H129625   0.200   5.179   8.010
 1810TIP3    H229626   0.143   5.299   8.078
 1811TIP3   OH229627   1.878   5.241   8.636
 1811TIP3    H129628   1.867   5.144   8.627
 1811TIP3    H229629   1.791   5.260   8.678
 1812TIP3   OH229630   0.947   5.218   8.534
 1812TIP3    H129631   0.954   5.294   8.595
 1812TIP3    H229632   0.855   5.185   8.547
 1813TIP3   OH229633   1.034   5.604   7.403
 1813TIP3    H129634   0.968   5.635   7.339
 1813TIP3    H229635   1.027   5.671   7.474
 1814TIP3   OH229636   1.293   5.506   7.480
 1814TIP3    H129637   1.212   5.560   7.481
 1814TIP3    H229638   1.262   5.426   7.434
 1815TIP3   OH229639   1.575   4.404   8.650
 1815TIP3    H129640   1.517   4.441   8.580
 1815TIP3    H229641   1.571   4.309   8.630
 1816TIP3   OH229642   0.307   5.122   8.442
 1816TIP3    H129643   0.316   5.092   8.533
 1816TIP3    H229644   0.249   5.049   8.408
 1817TIP3   OH229645   0.591   3.945   8.030
 1817TIP3    H129646   0.502   3.932   7.992
 1817TIP3    H229647   0.567   3.989   8.113
 1818TIP3   OH229648   1.044   3.889   8.371
 1818TIP3    H129649   1.084   3.840   8.446
 1818TIP3    H229650   0.948   3.870   8.381
 1819TIP3   OH229651   1.326   4.290   8.503
 1819TIP3    H129652   1.268   4.247   8.572
 1819TIP3    H229653   1.280   4.374   8.488
 1820TIP3   OH229654   0.589   4.423   8.152
 1820TIP3    H129655   0.518   4.426   8.220
 1820TIP3    H229656   0.611   4.517   8.141
 1821TIP3   OH229657   1.133   4.471   7.484
 1821TIP3    H129658   1.131   4.570   7.476
 1821TIP3    H229659   1.219   4.452   7.441
 1822TIP3   OH229660   1.040   4.502   8.675
 1822TIP3    H129661   0.996   4.422   8.711
 1822TIP3    H229662   1.112   4.509   8.742
 1823TIP3   OH229663   1.220   4.431   7.847
 1823TIP3    H129664   1.239   4.508   7.789
 1823TIP3    H229665   1.225   4.356   7.784
 1824TIP3   OH229666   0.377   4.399   8.313
 1824TIP3    H129667   0.410   4.439   8.394
 1824TIP3    H229668   0.326   4.322   8.346
 1825TIP3   OH229669   0.100   4.200   7.763
 1825TIP3    H129670   0.131   4.135   7.828
 1825TIP3    H229671   0.121   4.154   7.678
 1826TIP3   OH229672   0.103   4.255   7.285
 1826TIP3    H129673   0.165   4.265   7.210
 1826TIP3    H229674   0.160   4.287   7.356
 1827TIP3   OH229675   1.154   4.562   8.267
 1827TIP3    H129676   1.209   4.493   8.223
 1827TIP3    H229677   1.095   4.506   8.322
 1828TIP3   OH229678   1.280   4.107   8.071
 1828TIP3    H129679   1.222   4.092   8.149
 1828TIP3    H229680   1.237   4.050   8.003
 1829TIP3   OH229681   1.572   5.657   8.754
 1829TIP3    H129682   1.588   5.708   8.673
 1829TIP3    H229683   1.650   5.683   8.806
 1830TIP3   OH229684   0.431   4.921   8.616
 1830TIP3    H129685   0.501   4.926   8.683
 1830TIP3    H229686   0.351   4.912   8.670
 1831TIP3   OH229687   0.944   4.477   7.949
 1831TIP3    H129688   1.024   4.447   7.903
 1831TIP3    H229689   0.911   4.393   7.985
 1832TIP3   OH229690   0.824   4.275   8.193
 1832TIP3    H129691   0.755   4.343   8.200
 1832TIP3    H229692   0.898   4.316   8.242
 1833TIP3   OH229693   0.891   4.903   7.369
 1833TIP3    H129694   0.823   4.840   7.336
 1833TIP3    H229695   0.849   4.927   7.453
 1834TIP3   OH229696   1.639   4.858   8.255
 1834TIP3    H129697   1.690   4.918   8.195
 1834TIP3    H229698   1.555   4.855   8.206
 1835TIP3   OH229699   1.272   4.205   7.166
 1835TIP3    H129700   1.185   4.177   7.196
 1835TIP3    H229701   1.283   4.292   7.209
 1836TIP3   OH229702   0.988   4.943   8.496
 1836TIP3    H129703   0.945   4.920   8.580
 1836TIP3    H229704   0.981   5.041   8.498
 1837TIP3   OH229705   1.352   4.412   7.341
 1837TIP3    H129706   1.427   4.404   7.402
 1837TIP3    H229707   1.367   4.498   7.298
 1838TIP3   OH229708   0.432   4.864   7.936
 1838TIP3    H129709   0.512   4.908   7.906
 1838TIP3    H229710   0.464   4.793   7.993
 1839TIP3   OH229711   1.099   5.078   7.323
 1839TIP3    H129712   1.046   5.156   7.299
 1839TIP3    H229713   1.031   5.007   7.321
 1840TIP3   OH229714   0.188   4.635   8.445
 1840TIP3    H129715   0.182   4.602   8.536
 1840TIP3    H229716   0.093   4.634   8.421
 1841TIP3   OH229717   0.792   4.653   8.663
 1841TIP3    H129718   0.738   4.594   8.607
 1841TIP3    H229719   0.878   4.605   8.665
 1842TIP3   OH229720   1.300   5.181   8.505
 1842TIP3    H129721   1.224   5.205   8.451
 1842TIP3    H229722   1.275   5.220   8.591
 1843TIP3   OH229723   1.793   4.397   7.392
 1843TIP3    H129724   1.816   4.351   7.309
 1843TIP3    H229725   1.807   4.489   7.359
 1844TIP3   OH229726   1.854   4.975   8.588
 1844TIP3    H129727   1.764   4.990   8.552
 1844TIP3    H229728   1.907   4.971   8.505
 1845TIP3   OH229729   1.657   5.226   7.377
 1845TIP3    H129730   1.613   5.220   7.466
 1845TIP3    H229731   1.603   5.165   7.325
 1846TIP3   OH229732   1.385   4.770   8.076
 1846TIP3    H129733   1.296   4.740   8.051
 1846TIP3    H229734   1.440   4.710   8.022
 1847TIP3   OH229735   0.641   5.215   7.685
 1847TIP3    H129736   0.659   5.308   7.709
 1847TIP3    H229737   0.554   5.220   7.644
 1848TIP3   OH229738   0.238   4.661   7.171
 1848TIP3    H129739   0.290   4.741   7.189
 1848TIP3    H229740   0.167   4.702   7.119
 1849TIP3   OH229741   0.750   4.952   7.633
 1849TIP3    H129742   0.715   5.044   7.632
 1849TIP3    H229743   0.773   4.938   7.725
 1850TIP3   OH229744   0.838   5.361   8.302
 1850TIP3    H129745   0.898   5.427   8.264
 1850TIP3    H229746   0.889   5.325   8.377
 1851TIP3   OH229747   1.143   4.970   8.239
 1851TIP3    H129748   1.099   4.929   8.316
 1851TIP3    H229749   1.217   4.909   8.223
 1852TIP3   OH229750   1.399   5.152   7.235
 1852TIP3    H129751   1.385   5.097   7.314
 1852TIP3    H229752   1.364   5.089   7.169
 1853TIP3   OH229753   1.485   5.437   8.466
 1853TIP3    H129754   1.398   5.397   8.446
 1853TIP3    H229755   1.496   5.497   8.390
 1854TIP3   OH229756   0.284   4.173   8.420
 1854TIP3    H129757   0.251   4.206   8.506
 1854TIP3    H229758   0.251   4.082   8.417
 1855TIP3   OH229759   1.503   4.924   7.398
 1855TIP3    H129760   1.478   4.831   7.413
 1855TIP3    H229761   1.600   4.914   7.392
 1856TIP3   OH229762   0.251   5.354   8.233
 1856TIP3    H129763   0.307   5.277   8.252
 1856TIP3    H229764   0.226   5.379   8.322
 1857TIP3   OH229765   0.703   5.121   7.244
 1857TIP3    H129766   0.780   5.062   7.248
 1857TIP3    H229767   0.740   5.206   7.275
 1858TIP3   OH229768   0.349   4.877   7.309
 1858TIP3    H129769   0.266   4.916   7.343
 1858TIP3    H229770   0.392   4.950   7.261
 1859TIP3   OH229771   1.154   4.130   8.322
 1859TIP3    H129772   1.232   4.144   8.378
 1859TIP3    H229773   1.116   4.047   8.358
 1860TIP3   OH229774   1.261   4.063   7.459
 1860TIP3    H129775   1.279   4.111   7.377
 1860TIP3    H229776   1.275   4.132   7.529
 1861TIP3   OH229777   0.987   5.323   7.288
 1861TIP3    H129778   0.902   5.369   7.305
 1861TIP3    H229779   1.050   5.396   7.277
 1862TIP3   OH229780   0.980   4.253   7.540
 1862TIP3    H129781   1.023   4.334   7.504
 1862TIP3    H229782   0.886   4.264   7.519
 1863TIP3   OH229783   1.040   4.383   8.422
 1863TIP3    H129784   1.045   4.429   8.509
 1863TIP3    H229785   1.069   4.292   8.440
 1864TIP3   OH229786   1.043   3.979   7.624
 1864TIP3    H129787   0.980   4.052   7.608
 1864TIP3    H229788   1.121   4.017   7.579
 1865TIP3   OH229789   0.738   5.418   7.314
 1865TIP3    H129790   0.690   5.465   7.243
 1865TIP3    H229791   0.681   5.441   7.388
 1866TIP3   OH229792   1.587   4.157   8.524
 1866TIP3    H129793   1.494   4.178   8.504
 1866TIP3    H229794   1.631   4.171   8.438
 1867TIP3   OH229795   1.481   4.528   7.916
 1867TIP3    H129796   1.407   4.465   7.913
 1867TIP3    H229797   1.548   4.480   7.969
 1868TIP3   OH229798   0.424   5.087   7.144
 1868TIP3    H129799   0.469   5.107   7.228
 1868TIP3    H229800   0.481   5.137   7.084
 1869TIP3   OH229801   1.551   5.454   8.059
 1869TIP3    H129802   1.548   5.518   7.984
 1869TIP3    H229803   1.647   5.457   8.076
 1870TIP3   OH229804   0.342   3.891   7.956
 1870TIP3    H129805   0.341   3.858   7.865
 1870TIP3    H229806   0.321   3.807   8.005
 1871TIP3   OH229807   0.237   5.255   7.567
 1871TIP3    H129808   0.146   5.280   7.540
 1871TIP3    H229809   0.286   5.329   7.527
 1872TIP3   OH229810   0.170   5.529   8.715
 1872TIP3    H129811   0.225   5.503   8.792
 1872TIP3    H229812   0.108   5.456   8.714
 1873TIP3   OH229813   0.630   5.415   8.854
 1873TIP3    H129814   0.718   5.375   8.862
 1873TIP3    H229815   0.609   5.396   8.760
 1874TIP3   OH229816   1.243   5.279   8.748
 1874TIP3    H129817   1.208   5.193   8.782
 1874TIP3    H229818   1.327   5.285   8.798
 1875TIP3   OH229819   0.206   4.944   8.822
 1875TIP3    H129820   0.213   4.847   8.822
 1875TIP3    H229821   0.114   4.942   8.789
 1876TIP3   OH229822   0.801   4.924   8.719
 1876TIP3    H129823   0.773   4.972   8.638
 1876TIP3    H229824   0.800   4.828   8.693
 1877TIP3   OH229825   1.364   4.900   8.511
 1877TIP3    H129826   1.446   4.953   8.511
 1877TIP3    H229827   1.301   4.974   8.510
 1878TIP3   OH229828   0.233   4.619   8.785
 1878TIP3    H129829   0.308   4.557   8.776
 1878TIP3    H229830   0.250   4.662   8.871
 1879TIP3   OH229831   0.713   4.717   7.272
 1879TIP3    H129832   0.639   4.658   7.288
 1879TIP3    H229833   0.751   4.682   7.190
 1880TIP3   OH229834   0.633   4.539   8.456
 1880TIP3    H129835   0.570   4.614   8.445
 1880TIP3    H229836   0.708   4.577   8.404
 1881TIP3   OH229837   1.152   4.804   8.815
 1881TIP3    H129838   1.208   4.754   8.754
 1881TIP3    H229839   1.114   4.733   8.870
 1882TIP3   OH229840   0.618   4.292   8.540
 1882TIP3    H129841   0.647   4.228   8.473
 1882TIP3    H229842   0.628   4.379   8.495
 1883TIP3   OH229843   0.706   4.089   8.342
 1883TIP3    H129844   0.754   4.136   8.271
 1883TIP3    H229845   0.616   4.083   8.303
 1884TIP3   OH229846   0.854   4.652   8.340
 1884TIP3    H129847   0.941   4.694   8.345
 1884TIP3    H229848   0.798   4.731   8.319
 1885TIP3   OH229849   1.274   4.404   8.842
 1885TIP3    H129850   1.312   4.315   8.832
 1885TIP3    H229851   1.349   4.458   8.870
 1886TIP3   OH229852   1.441   4.714   8.692
 1886TIP3    H129853   1.402   4.771   8.623
 1886TIP3    H229854   1.535   4.717   8.666
 1887TIP3   OH229855   0.455   4.409   8.738
 1887TIP3    H129856   0.405   4.328   8.763
 1887TIP3    H229857   0.515   4.373   8.669
 1888TIP3   OH229858   0.781   3.839   8.361
 1888TIP3    H129859   0.762   3.934   8.350
 1888TIP3    H229860   0.699   3.801   8.325
 1889TIP3   OH229861   0.901   4.278   8.760
 1889TIP3    H129862   0.861   4.251   8.844
 1889TIP3    H229863   0.832   4.252   8.697
 1890TIP3   OH229864   1.163   4.177   8.678
 1890TIP3    H129865   1.077   4.191   8.723
 1890TIP3    H229866   1.207   4.119   8.745
 1891TIP3   OH229867   1.333   4.049   8.846
 1891TIP3    H129868   1.324   3.951   8.842
 1891TIP3    H229869   1.320   4.068   8.941
 1892TIP3   OH229870   0.315   4.183   8.790
 1892TIP3    H129871   0.344   4.106   8.737
 1892TIP3    H229872   0.277   4.138   8.870
 1893TIP3   OH229873   0.788   3.791   8.663
 1893TIP3    H129874   0.864   3.730   8.668
 1893TIP3    H229875   0.777   3.794   8.566
 1894TIP3   OH229876   0.792   3.930   8.903
 1894TIP3    H129877   0.787   3.878   8.819
 1894TIP3    H229878   0.748   4.014   8.878
 1895TIP3   OH229879   0.108   5.079   7.155
 1895TIP3    H129880   0.202   5.100   7.139
 1895TIP3    H229881   0.103   4.995   7.104
 1896TIP3   OH229882   0.084   5.644   7.613
 1896TIP3    H129883  -0.012   5.653   7.623
 1896TIP3    H229884   0.101   5.585   7.689
 1897TIP3   OH229885   0.124   5.470   7.837
 1897TIP3    H129886   0.171   5.388   7.813
 1897TIP3    H229887   0.181   5.506   7.907
 1898TIP3   OH229888   1.825   5.525   8.103
 1898TIP3    H129889   1.892   5.528   8.172
 1898TIP3    H229890   1.867   5.568   8.028
 1899TIP3   OH229891   1.817   5.480   8.426
 1899TIP3    H129892   1.777   5.426   8.355
 1899TIP3    H229893   1.812   5.414   8.498
 1900TIP3   OH229894   1.663   5.040   8.878
 1900TIP3    H129895   1.571   5.041   8.913
 1900TIP3    H229896   1.704   5.110   8.933
 1901TIP3   OH229897   1.778   4.881   7.388
 1901TIP3    H129898   1.856   4.941   7.396
 1901TIP3    H229899   1.780   4.837   7.475
 1902TIP3   OH229900   1.820   4.707   7.601
 1902TIP3    H129901   1.739   4.661   7.633
 1902TIP3    H229902   1.872   4.707   7.682
 1903TIP3   OH229903   1.799   4.984   8.092
 1903TIP3    H129904   1.857   4.908   8.069
 1903TIP3    H229905   1.854   5.061   8.070
 1904TIP3   OH229906   1.660   5.256   8.316
 1904TIP3    H129907   1.580   5.282   8.364
 1904TIP3    H229908   1.621   5.233   8.228
 1905TIP3   OH229909   1.849   4.605   7.248
 1905TIP3    H129910   1.783   4.643   7.187
 1905TIP3    H229911   1.866   4.681   7.306
 1906TIP3   OH229912   1.660   4.421   7.098
 1906TIP3    H129913   1.670   4.497   7.039
 1906TIP3    H229914   1.748   4.414   7.140
 1907TIP3   OH229915   1.616   4.566   7.680
 1907TIP3    H129916   1.595   4.475   7.649
 1907TIP3    H229917   1.589   4.563   7.774
 1908TIP3   OH229918   0.159   4.832   8.062
 1908TIP3    H129919   0.172   4.784   7.979
 1908TIP3    H229920   0.239   4.804   8.110
 1909TIP3   OH229921   1.716   4.740   8.623
 1909TIP3    H129922   1.770   4.661   8.643
 1909TIP3    H229923   1.782   4.814   8.616
 1910TIP3   OH229924   1.824   4.492   8.670
 1910TIP3    H129925   1.730   4.462   8.657
 1910TIP3    H229926   1.874   4.407   8.677
 1911TIP3   OH229927   1.575   4.333   7.526
 1911TIP3    H129928   1.595   4.239   7.540
 1911TIP3    H229929   1.654   4.355   7.471
 1912TIP3   OH229930   1.662   4.372   8.053
 1912TIP3    H129931   1.761   4.378   8.060
 1912TIP3    H229932   1.637   4.376   8.147
 1913TIP3   OH229933   1.661   4.444   8.318
 1913TIP3    H129934   1.577   4.471   8.361
 1913TIP3    H229935   1.701   4.530   8.293
 1914TIP3   OH229936   0.123   4.259   8.616
 1914TIP3    H129937   0.198   4.281   8.675
 1914TIP3    H229938   0.117   4.162   8.624
 1915TIP3   OH229939   1.882   3.877   8.844
 1915TIP3    H129940   1.923   3.804   8.793
 1915TIP3    H229941   1.870   3.945   8.773
 1916TIP3   OH229942   1.641   3.973   7.503
 1916TIP3    H129943   1.664   3.981   7.598
 1916TIP3    H229944   1.555   3.928   7.502
 1917TIP3   OH229945   0.158   4.099   8.028
 1917TIP3    H129946   0.222   4.024   8.019
 1917TIP3    H229947   0.217   4.177   8.028
 1918TIP3   OH229948   0.107   4.430   8.039
 1918TIP3    H129949   0.155   4.414   7.957
 1918TIP3    H229950   0.090   4.525   8.038
 1919TIP3   OH229951   1.810   4.067   8.683
 1919TIP3    H129952   1.733   4.126   8.695
 1919TIP3    H229953   1.782   4.019   8.602
 1920TIP3   OH229954   0.099   4.098   7.522
 1920TIP3    H129955   0.007   4.080   7.491
 1920TIP3    H229956   0.150   4.105   7.440
 1921TIP3   OH229957   1.540   5.544   7.676
 1921TIP3    H129958   1.597   5.526   7.598
 1921TIP3    H229959   1.600   5.584   7.741
 1922TIP3   OH229960   0.067   3.874   8.312
 1922TIP3    H129961  -0.025   3.839   8.315
 1922TIP3    H229962   0.055   3.951   8.254
 1923TIP3   OH229963   0.281   5.213   8.733
 1923TIP3    H129964   0.217   5.244   8.669
 1923TIP3    H229965   0.231   5.149   8.786
 1924TIP3   OH229966   0.572   5.366   8.367
 1924TIP3    H129967   0.569   5.457   8.331
 1924TIP3    H229968   0.668   5.348   8.365
 1925TIP3   OH229969   0.976   5.504   8.618
 1925TIP3    H129970   0.987   5.472   8.710
 1925TIP3    H229971   1.068   5.525   8.596
 1926TIP3   OH229972   1.216   5.633   8.572
 1926TIP3    H129973   1.292   5.584   8.541
 1926TIP3    H229974   1.246   5.663   8.661
 1927TIP3   OH229975   1.740   3.831   8.496
 1927TIP3    H129976   1.670   3.876   8.447
 1927TIP3    H229977   1.745   3.744   8.452
 1928TIP3   OH229978   0.319   5.679   8.364
 1928TIP3    H129979   0.232   5.703   8.327
 1928TIP3    H229980   0.299   5.670   8.459
 1929TIP3   OH229981   0.545   5.629   8.233
 1929TIP3    H129982   0.454   5.625   8.272
 1929TIP3    H229983   0.529   5.708   8.179
 1930TIP3   OH229984   0.999   5.577   8.170
 1930TIP3    H129985   1.012   5.625   8.087
 1930TIP3    H229986   1.019   5.648   8.235
 1931TIP3   OH229987   1.219   5.449   8.317
 1931TIP3    H129988   1.150   5.491   8.262
 1931TIP3    H229989   1.293   5.508   8.293
 1932TIP3   OH229990   1.508   5.609   8.267
 1932TIP3    H129991   1.501   5.696   8.223
 1932TIP3    H229992   1.519   5.553   8.187
 1933TIP3   OH229993   0.317   5.570   8.046
 1933TIP3    H129994   0.289   5.498   8.104
 1933TIP3    H229995   0.381   5.523   7.987
 1934TIP3   OH229996   0.458   5.404   7.897
 1934TIP3    H129997   0.424   5.316   7.916
 1934TIP3    H229998   0.544   5.403   7.942
 1935TIP3   OH229999   0.701   5.390   8.029
 1935TIP3    H130000   0.739   5.302   8.018
 1935TIP3    H230001   0.728   5.410   8.120
 1936TIP3   OH230002   1.110   3.964   7.933
 1936TIP3    H130003   1.024   3.984   7.972
 1936TIP3    H230004   1.082   3.934   7.845
 1937TIP3   OH230005   1.591   3.794   7.911
 1937TIP3    H130006   1.652   3.852   7.858
 1937TIP3    H230007   1.502   3.816   7.874
 1938TIP3   OH230008   1.754   3.918   7.747
 1938TIP3    H130009   1.819   3.857   7.704
 1938TIP3    H230010   1.814   3.995   7.764
 1939TIP3   OH230011   0.246   3.854   7.235
 1939TIP3    H130012   0.178   3.884   7.175
 1939TIP3    H230013   0.195   3.844   7.317
 1940TIP3   OH230014   0.759   3.772   7.701
 1940TIP3    H130015   0.831   3.806   7.646
 1940TIP3    H230016   0.696   3.846   7.698
 1941TIP3   OH230017   1.346   3.851   7.784
 1941TIP3    H130018   1.288   3.884   7.715
 1941TIP3    H230019   1.289   3.778   7.818
 1942TIP3   OH230020   1.408   3.837   7.369
 1942TIP3    H130021   1.344   3.897   7.413
 1942TIP3    H230022   1.376   3.749   7.399
 1943TIP3   OH230023   0.150   5.438   7.394
 1943TIP3    H130024   0.085   5.498   7.354
 1943TIP3    H230025   0.225   5.500   7.406
 1944TIP3   OH230026   1.714   5.470   7.487
 1944TIP3    H130027   1.702   5.394   7.426
 1944TIP3    H230028   1.693   5.545   7.426
 1945TIP3   OH230029   0.253   3.910   8.653
 1945TIP3    H130030   0.205   3.823   8.657
 1945TIP3    H230031   0.340   3.884   8.690
 1946TIP3   OH230032   0.489   3.859   8.835
 1946TIP3    H130033   0.581   3.840   8.810
 1946TIP3    H230034   0.465   3.773   8.875
 1947TIP3   OH230035   1.322   3.781   8.822
 1947TIP3    H130036   1.330   3.721   8.899
 1947TIP3    H230037   1.416   3.781   8.791
 1948TIP3   OH230038   1.662   5.399   8.662
 1948TIP3    H130039   1.603   5.396   8.583
 1948TIP3    H230040   1.627   5.478   8.705
 1949TIP3   OH230041   3.102   4.761   7.653
 1949TIP3    H130042   3.097   4.856   7.671
 1949TIP3    H230043   3.031   4.751   7.586
 1950TIP3   OH230044   2.993   4.672   8.017
 1950TIP3    H130045   2.990   4.627   8.105
 1950TIP3    H230046   2.928   4.624   7.963
 1951TIP3   OH230047   2.192   4.652   8.174
 1951TIP3    H130048   2.199   4.585   8.245
 1951TIP3    H230049   2.275   4.700   8.184
 1952TIP3   OH230050   3.327   4.951   7.882
 1952TIP3    H130051   3.313   4.897   7.961
 1952TIP3    H230052   3.338   5.038   7.925
 1953TIP3   OH230053   2.300   5.130   7.996
 1953TIP3    H130054   2.262   5.043   7.972
 1953TIP3    H230055   2.393   5.111   7.975
 1954TIP3   OH230056   1.969   4.461   7.597
 1954TIP3    H130057   1.945   4.552   7.578
 1954TIP3    H230058   1.898   4.414   7.549
 1955TIP3   OH230059   2.029   4.692   7.823
 1955TIP3    H130060   2.076   4.608   7.848
 1955TIP3    H230061   2.088   4.732   7.758
 1956TIP3   OH230062   3.048   5.495   7.863
 1956TIP3    H130063   3.136   5.489   7.822
 1956TIP3    H230064   3.043   5.416   7.919
 1957TIP3   OH230065   2.787   4.960   8.123
 1957TIP3    H130066   2.806   4.920   8.037
 1957TIP3    H230067   2.877   4.978   8.157
 1958TIP3   OH230068   3.669   4.066   8.126
 1958TIP3    H130069   3.681   4.139   8.190
 1958TIP3    H230070   3.735   4.089   8.058
 1959TIP3   OH230071   3.168   4.395   8.121
 1959TIP3    H130072   3.200   4.303   8.131
 1959TIP3    H230073   3.087   4.379   8.070
 1960TIP3   OH230074   2.453   4.163   7.793
 1960TIP3    H130075   2.463   4.250   7.749
 1960TIP3    H230076   2.404   4.115   7.723
 1961TIP3   OH230077   2.114   4.445   7.898
 1961TIP3    H130078   2.174   4.389   7.951
 1961TIP3    H230079   2.128   4.405   7.810
 1962TIP3   OH230080   2.619   4.583   7.842
 1962TIP3    H130081   2.697   4.526   7.831
 1962TIP3    H230082   2.549   4.520   7.811
 1963TIP3   OH230083   3.680   4.219   8.349
 1963TIP3    H130084   3.648   4.306   8.314
 1963TIP3    H230085   3.703   4.244   8.439
 1964TIP3   OH230086   2.349   4.079   8.233
 1964TIP3    H130087   2.313   4.128   8.156
 1964TIP3    H230088   2.288   4.108   8.305
 1965TIP3   OH230089   3.053   5.044   7.596
 1965TIP3    H130090   3.007   5.025   7.513
 1965TIP3    H230091   3.028   5.137   7.614
 1966TIP3   OH230092   2.558   4.845   8.207
 1966TIP3    H130093   2.500   4.913   8.249
 1966TIP3    H230094   2.628   4.902   8.168
 1967TIP3   OH230095   2.308   4.274   8.014
 1967TIP3    H130096   2.375   4.331   8.061
 1967TIP3    H230097   2.359   4.246   7.933
 1968TIP3   OH230098   2.440   5.076   8.314
 1968TIP3    H130099   2.423   5.153   8.259
 1968TIP3    H230100   2.355   5.069   8.364
 1969TIP3   OH230101   2.018   5.035   7.398
 1969TIP3    H130102   2.075   5.092   7.344
 1969TIP3    H230103   2.046   5.065   7.487
 1970TIP3   OH230104   3.403   5.183   8.085
 1970TIP3    H130105   3.308   5.198   8.106
 1970TIP3    H230106   3.417   5.266   8.035
 1971TIP3   OH230107   3.453   3.953   8.275
 1971TIP3    H130108   3.369   3.992   8.247
 1971TIP3    H230109   3.514   3.981   8.203
 1972TIP3   OH230110   2.714   3.837   7.960
 1972TIP3    H130111   2.681   3.746   7.970
 1972TIP3    H230112   2.634   3.887   7.993
 1973TIP3   OH230113   3.277   5.390   7.737
 1973TIP3    H130114   3.274   5.295   7.713
 1973TIP3    H230115   3.275   5.428   7.648
 1974TIP3   OH230116   3.364   5.136   7.607
 1974TIP3    H130117   3.320   5.101   7.528
 1974TIP3    H230118   3.343   5.069   7.674
 1975TIP3   OH230119   3.498   5.020   8.467
 1975TIP3    H130120   3.521   4.948   8.403
 1975TIP3    H230121   3.509   5.099   8.408
 1976TIP3   OH230122   2.936   4.687   7.441
 1976TIP3    H130123   2.889   4.764   7.400
 1976TIP3    H230124   3.011   4.676   7.380
 1977TIP3   OH230125   3.708   4.658   8.244
 1977TIP3    H130126   3.652   4.736   8.259
 1977TIP3    H230127   3.762   4.692   8.170
 1978TIP3   OH230128   3.342   4.727   7.538
 1978TIP3    H130129   3.248   4.727   7.571
 1978TIP3    H230130   3.389   4.738   7.621
 1979TIP3   OH230131   3.311   4.528   8.441
 1979TIP3    H130132   3.332   4.616   8.475
 1979TIP3    H230133   3.238   4.551   8.379
 1980TIP3   OH230134   2.463   4.760   7.695
 1980TIP3    H130135   2.437   4.720   7.608
 1980TIP3    H230136   2.531   4.698   7.728
 1981TIP3   OH230137   2.602   5.115   7.976
 1981TIP3    H130138   2.619   5.100   7.881
 1981TIP3    H230139   2.682   5.078   8.018
 1982TIP3   OH230140   2.479   4.644   8.068
 1982TIP3    H130141   2.524   4.642   7.980
 1982TIP3    H230142   2.527   4.716   8.115
 1983TIP3   OH230143   3.154   5.231   8.161
 1983TIP3    H130144   3.113   5.304   8.211
 1983TIP3    H230145   3.111   5.154   8.203
 1984TIP3   OH230146   2.610   5.114   8.516
 1984TIP3    H130147   2.535   5.156   8.566
 1984TIP3    H230148   2.564   5.097   8.431
 1985TIP3   OH230149   3.176   4.666   7.294
 1985TIP3    H130150   3.257   4.694   7.339
 1985TIP3    H230151   3.180   4.718   7.212
 1986TIP3   OH230152   2.296   4.707   8.459
 1986TIP3    H130153   2.299   4.800   8.483
 1986TIP3    H230154   2.229   4.677   8.522
 1987TIP3   OH230155   2.997   5.311   7.664
 1987TIP3    H130156   3.007   5.389   7.722
 1987TIP3    H230157   2.931   5.342   7.600
 1988TIP3   OH230158   2.423   5.267   8.630
 1988TIP3    H130159   2.413   5.308   8.542
 1988TIP3    H230160   2.328   5.255   8.652
 1989TIP3   OH230161   2.324   4.666   7.484
 1989TIP3    H130162   2.303   4.754   7.444
 1989TIP3    H230163   2.287   4.607   7.417
 1990TIP3   OH230164   3.656   5.262   7.115
 1990TIP3    H130165   3.635   5.286   7.208
 1990TIP3    H230166   3.731   5.202   7.122
 1991TIP3   OH230167   1.989   4.945   8.364
 1991TIP3    H130168   1.950   4.939   8.275
 1991TIP3    H230169   2.029   4.856   8.373
 1992TIP3   OH230170   1.983   5.203   8.047
 1992TIP3    H130171   2.078   5.197   8.036
 1992TIP3    H230172   1.977   5.279   8.107
 1993TIP3   OH230173   3.767   5.274   8.645
 1993TIP3    H130174   3.754   5.181   8.624
 1993TIP3    H230175   3.675   5.299   8.670
 1994TIP3   OH230176   2.857   5.212   8.511
 1994TIP3    H130177   2.868   5.285   8.575
 1994TIP3    H230178   2.762   5.185   8.520
 1995TIP3   OH230179   2.261   5.483   7.678
 1995TIP3    H130180   2.300   5.455   7.763
 1995TIP3    H230181   2.181   5.426   7.675
 1996TIP3   OH230182   3.457   4.405   8.654
 1996TIP3    H130183   3.409   4.444   8.578
 1996TIP3    H230184   3.468   4.312   8.622
 1997TIP3   OH230185   2.211   5.064   8.454
 1997TIP3    H130186   2.209   5.033   8.547
 1997TIP3    H230187   2.122   5.036   8.422
 1998TIP3   OH230188   2.482   3.935   8.055
 1998TIP3    H130189   2.392   3.924   8.017
 1998TIP3    H230190   2.455   3.980   8.138
 1999TIP3   OH230191   2.965   3.882   8.374
 1999TIP3    H130192   2.996   3.837   8.456
 1999TIP3    H230193   2.866   3.876   8.382
 2000TIP3   OH230194   3.235   4.274   8.490
 2000TIP3    H130195   3.182   4.260   8.573
 2000TIP3    H230196   3.259   4.369   8.491
 2001TIP3   OH230197   2.918   4.119   7.146
 2001TIP3    H130198   2.860   4.076   7.210
 2001TIP3    H230199   2.856   4.159   7.082
 2002TIP3   OH230200   2.486   4.398   8.174
 2002TIP3    H130201   2.408   4.403   8.233
 2002TIP3    H230202   2.485   4.492   8.141
 2003TIP3   OH230203   2.467   4.406   7.689
 2003TIP3    H130204   2.371   4.406   7.667
 2003TIP3    H230205   2.506   4.380   7.602
 2004TIP3   OH230206   2.913   4.506   8.685
 2004TIP3    H130207   2.875   4.421   8.714
 2004TIP3    H230208   2.990   4.510   8.744
 2005TIP3   OH230209   2.251   4.406   8.304
 2005TIP3    H130210   2.268   4.444   8.391
 2005TIP3    H230211   2.208   4.322   8.330
 2006TIP3   OH230212   1.907   4.135   7.758
 2006TIP3    H130213   1.972   4.141   7.831
 2006TIP3    H230214   1.955   4.175   7.684
 2007TIP3   OH230215   3.042   4.584   8.266
 2007TIP3    H130216   3.099   4.518   8.219
 2007TIP3    H230217   2.991   4.527   8.328
 2008TIP3   OH230218   2.731   4.184   7.792
 2008TIP3    H130219   2.636   4.167   7.810
 2008TIP3    H230220   2.779   4.114   7.840
 2009TIP3   OH230221   2.197   4.320   7.655
 2009TIP3    H130222   2.137   4.372   7.597
 2009TIP3    H230223   2.235   4.254   7.593
 2010TIP3   OH230224   2.532   4.350   7.433
 2010TIP3    H130225   2.627   4.350   7.453
 2010TIP3    H230226   2.524   4.417   7.362
 2011TIP3   OH230227   3.170   4.110   8.097
 2011TIP3    H130228   3.107   4.116   8.171
 2011TIP3    H230229   3.133   4.040   8.041
 2012TIP3   OH230230   2.450   4.480   7.172
 2012TIP3    H130231   2.375   4.425   7.148
 2012TIP3    H230232   2.519   4.460   7.108
 2013TIP3   OH230233   3.458   5.690   8.722
 2013TIP3    H130234   3.486   5.731   8.639
 2013TIP3    H230235   3.541   5.695   8.773
 2014TIP3   OH230236   2.217   4.931   8.694
 2014TIP3    H130237   2.302   4.933   8.740
 2014TIP3    H230238   2.157   4.889   8.759
 2015TIP3   OH230239   2.895   4.382   7.971
 2015TIP3    H130240   2.849   4.304   7.935
 2015TIP3    H230241   2.836   4.399   8.046
 2016TIP3   OH230242   2.309   4.063   7.579
 2016TIP3    H130243   2.251   3.999   7.627
 2016TIP3    H230244   2.361   4.001   7.526
 2017TIP3   OH230245   2.720   4.268   8.195
 2017TIP3    H130246   2.640   4.326   8.195
 2017TIP3    H230247   2.781   4.316   8.251
 2018TIP3   OH230248   2.800   4.906   7.353
 2018TIP3    H130249   2.724   4.883   7.300
 2018TIP3    H230250   2.759   4.955   7.427
 2019TIP3   OH230251   3.517   4.858   8.265
 2019TIP3    H130252   3.568   4.904   8.195
 2019TIP3    H230253   3.429   4.857   8.224
 2020TIP3   OH230254   2.894   4.949   8.481
 2020TIP3    H130255   2.875   4.915   8.568
 2020TIP3    H230256   2.885   5.046   8.495
 2021TIP3   OH230257   2.288   4.862   7.912
 2021TIP3    H130258   2.326   4.837   7.825
 2021TIP3    H230259   2.324   4.794   7.972
 2022TIP3   OH230260   2.006   4.686   8.458
 2022TIP3    H130261   1.982   4.641   8.542
 2022TIP3    H230262   1.945   4.646   8.393
 2023TIP3   OH230263   2.680   4.654   8.663
 2023TIP3    H130264   2.631   4.590   8.608
 2023TIP3    H230265   2.769   4.611   8.667
 2024TIP3   OH230266   3.182   5.166   8.524
 2024TIP3    H130267   3.100   5.169   8.474
 2024TIP3    H230268   3.158   5.219   8.603
 2025TIP3   OH230269   3.740   4.979   8.595
 2025TIP3    H130270   3.649   4.998   8.561
 2025TIP3    H230271   3.792   4.977   8.511
 2026TIP3   OH230272   3.545   5.269   7.377
 2026TIP3    H130273   3.529   5.225   7.463
 2026TIP3    H230274   3.471   5.235   7.326
 2027TIP3   OH230275   3.269   4.764   8.081
 2027TIP3    H130276   3.176   4.745   8.060
 2027TIP3    H230277   3.312   4.686   8.043
 2028TIP3   OH230278   2.513   5.208   7.677
 2028TIP3    H130279   2.549   5.296   7.655
 2028TIP3    H230280   2.432   5.210   7.624
 2029TIP3   OH230281   2.137   4.692   7.174
 2029TIP3    H130282   2.117   4.767   7.113
 2029TIP3    H230283   2.052   4.647   7.167
 2030TIP3   OH230284   2.682   4.990   7.615
 2030TIP3    H130285   2.618   5.064   7.623
 2030TIP3    H230286   2.644   4.919   7.667
 2031TIP3   OH230287   2.713   5.368   8.314
 2031TIP3    H130288   2.781   5.430   8.282
 2031TIP3    H230289   2.763   5.321   8.384
 2032TIP3   OH230290   2.563   5.475   7.595
 2032TIP3    H130291   2.468   5.471   7.614
 2032TIP3    H230292   2.585   5.563   7.630
 2033TIP3   OH230293   3.028   4.976   8.244
 2033TIP3    H130294   2.983   4.950   8.328
 2033TIP3    H230295   3.088   4.901   8.233
 2034TIP3   OH230296   3.363   5.424   8.466
 2034TIP3    H130297   3.274   5.388   8.451
 2034TIP3    H230298   3.369   5.494   8.397
 2035TIP3   OH230299   2.181   4.157   8.432
 2035TIP3    H130300   2.116   4.204   8.487
 2035TIP3    H230301   2.173   4.067   8.469
 2036TIP3   OH230302   3.398   4.944   7.388
 2036TIP3    H130303   3.369   4.862   7.430
 2036TIP3    H230304   3.495   4.932   7.382
 2037TIP3   OH230305   2.117   5.337   8.251
 2037TIP3    H130306   2.179   5.263   8.258
 2037TIP3    H230307   2.126   5.375   8.339
 2038TIP3   OH230308   2.571   5.173   7.263
 2038TIP3    H130309   2.669   5.173   7.260
 2038TIP3    H230310   2.554   5.267   7.233
 2039TIP3   OH230311   2.279   4.896   7.326
 2039TIP3    H130312   2.185   4.891   7.304
 2039TIP3    H230313   2.304   4.977   7.277
 2040TIP3   OH230314   3.026   4.162   8.321
 2040TIP3    H130315   3.099   4.189   8.380
 2040TIP3    H230316   3.006   4.072   8.355
 2041TIP3   OH230317   2.839   5.342   7.333
 2041TIP3    H130318   2.764   5.398   7.309
 2041TIP3    H230319   2.891   5.341   7.252
 2042TIP3   OH230320   2.773   4.279   7.519
 2042TIP3    H130321   2.864   4.306   7.507
 2042TIP3    H230322   2.771   4.233   7.606
 2043TIP3   OH230323   2.906   4.403   8.420
 2043TIP3    H130324   2.921   4.428   8.514
 2043TIP3    H230325   2.944   4.313   8.413
 2044TIP3   OH230326   2.893   3.991   7.572
 2044TIP3    H130327   2.850   4.007   7.658
 2044TIP3    H230328   2.986   4.007   7.594
 2045TIP3   OH230329   2.465   4.098   7.289
 2045TIP3    H130330   2.454   4.180   7.339
 2045TIP3    H230331   2.560   4.080   7.307
 2046TIP3   OH230332   3.476   4.161   8.521
 2046TIP3    H130333   3.383   4.181   8.496
 2046TIP3    H230334   3.522   4.160   8.435
 2047TIP3   OH230335   2.293   5.143   7.186
 2047TIP3    H130336   2.376   5.175   7.229
 2047TIP3    H230337   2.327   5.118   7.099
 2048TIP3   OH230338   3.448   5.468   8.072
 2048TIP3    H130339   3.450   5.532   7.997
 2048TIP3    H230340   3.544   5.459   8.088
 2049TIP3   OH230341   2.215   3.884   7.995
 2049TIP3    H130342   2.215   3.874   7.898
 2049TIP3    H230343   2.193   3.791   8.022
 2050TIP3   OH230344   2.088   5.284   7.547
 2050TIP3    H130345   1.999   5.320   7.554
 2050TIP3    H230346   2.119   5.325   7.464
 2051TIP3   OH230347   2.014   5.540   8.714
 2051TIP3    H130348   2.084   5.526   8.783
 2051TIP3    H230349   1.993   5.445   8.698
 2052TIP3   OH230350   2.502   5.420   8.855
 2052TIP3    H130351   2.589   5.386   8.881
 2052TIP3    H230352   2.492   5.382   8.765
 2053TIP3   OH230353   3.136   5.290   8.755
 2053TIP3    H130354   3.099   5.203   8.784
 2053TIP3    H230355   3.221   5.291   8.805
 2054TIP3   OH230356   3.374   5.369   7.062
 2054TIP3    H130357   3.313   5.293   7.066
 2054TIP3    H230358   3.457   5.331   7.094
 2055TIP3   OH230359   1.979   4.920   8.835
 2055TIP3    H130360   1.940   4.831   8.828
 2055TIP3    H230361   1.962   4.953   8.744
 2056TIP3   OH230362   2.662   4.920   8.705
 2056TIP3    H130363   2.652   4.966   8.619
 2056TIP3    H230364   2.657   4.824   8.681
 2057TIP3   OH230365   3.247   4.892   8.506
 2057TIP3    H130366   3.338   4.929   8.515
 2057TIP3    H230367   3.200   4.977   8.509
 2058TIP3   OH230368   2.131   4.639   8.773
 2058TIP3    H130369   2.187   4.561   8.768
 2058TIP3    H230370   2.154   4.675   8.861
 2059TIP3   OH230371   2.482   4.527   8.450
 2059TIP3    H130372   2.420   4.604   8.452
 2059TIP3    H230373   2.557   4.566   8.401
 2060TIP3   OH230374   3.035   4.815   8.817
 2060TIP3    H130375   3.090   4.760   8.760
 2060TIP3    H230376   3.007   4.751   8.886
 2061TIP3   OH230377   3.605   4.805   7.019
 2061TIP3    H130378   3.551   4.757   6.954
 2061TIP3    H230379   3.538   4.827   7.085
 2062TIP3   OH230380   2.552   4.282   8.544
 2062TIP3    H130381   2.563   4.212   8.476
 2062TIP3    H230382   2.524   4.361   8.492
 2063TIP3   OH230383   2.589   4.085   8.349
 2063TIP3    H130384   2.634   4.136   8.277
 2063TIP3    H230385   2.497   4.079   8.316
 2064TIP3   OH230386   2.699   4.663   8.340
 2064TIP3    H130387   2.790   4.695   8.343
 2064TIP3    H230388   2.653   4.736   8.294
 2065TIP3   OH230389   3.163   4.406   8.853
 2065TIP3    H130390   3.193   4.315   8.832
 2065TIP3    H230391   3.244   4.454   8.875
 2066TIP3   OH230392   3.329   4.726   8.699
 2066TIP3    H130393   3.286   4.777   8.627
 2066TIP3    H230394   3.423   4.727   8.673
 2067TIP3   OH230395   2.404   4.365   8.758
 2067TIP3    H130396   2.320   4.319   8.738
 2067TIP3    H230397   2.461   4.328   8.687
 2068TIP3   OH230398   2.694   3.844   8.350
 2068TIP3    H130399   2.659   3.936   8.360
 2068TIP3    H230400   2.615   3.802   8.314
 2069TIP3   OH230401   2.775   4.274   8.763
 2069TIP3    H130402   2.717   4.251   8.839
 2069TIP3    H230403   2.713   4.260   8.690
 2070TIP3   OH230404   3.055   4.197   8.675
 2070TIP3    H130405   2.962   4.207   8.701
 2070TIP3    H230406   3.087   4.137   8.747
 2071TIP3   OH230407   3.200   4.050   8.839
 2071TIP3    H130408   3.206   3.953   8.837
 2071TIP3    H230409   3.194   4.068   8.935
 2072TIP3   OH230410   2.191   4.182   8.772
 2072TIP3    H130411   2.190   4.104   8.715
 2072TIP3    H230412   2.168   4.145   8.861
 2073TIP3   OH230413   2.656   3.808   8.636
 2073TIP3    H130414   2.728   3.748   8.663
 2073TIP3    H230415   2.667   3.804   8.539
 2074TIP3   OH230416   2.669   3.930   8.908
 2074TIP3    H130417   2.661   3.905   8.814
 2074TIP3    H230418   2.641   4.024   8.908
 2075TIP3   OH230419   1.893   5.625   7.631
 2075TIP3    H130420   1.823   5.566   7.595
 2075TIP3    H230421   1.930   5.569   7.703
 2076TIP3   OH230422   1.987   5.457   7.820
 2076TIP3    H130423   1.928   5.382   7.836
 2076TIP3    H230424   2.052   5.455   7.893
 2077TIP3   OH230425   3.729   5.529   8.104
 2077TIP3    H130426   3.749   5.523   8.199
 2077TIP3    H230427   3.798   5.592   8.077
 2078TIP3   OH230428   3.676   5.473   8.389
 2078TIP3    H130429   3.642   5.393   8.342
 2078TIP3    H230430   3.698   5.434   8.475
 2079TIP3   OH230431   3.559   5.046   8.878
 2079TIP3    H130432   3.464   5.050   8.900
 2079TIP3    H230433   3.591   5.126   8.924
 2080TIP3   OH230434   3.689   4.878   7.400
 2080TIP3    H130435   3.782   4.909   7.406
 2080TIP3    H230436   3.680   4.824   7.481
 2081TIP3   OH230437   3.697   4.700   7.608
 2081TIP3    H130438   3.633   4.659   7.668
 2081TIP3    H230439   3.772   4.718   7.669
 2082TIP3   OH230440   3.678   4.960   8.084
 2082TIP3    H130441   3.755   4.904   8.061
 2082TIP3    H230442   3.704   5.049   8.053
 2083TIP3   OH230443   3.541   5.250   8.315
 2083TIP3    H130444   3.469   5.295   8.363
 2083TIP3    H230445   3.497   5.227   8.229
 2084TIP3   OH230446   3.754   4.679   7.213
 2084TIP3    H130447   3.709   4.713   7.134
 2084TIP3    H230448   3.739   4.752   7.276
 2085TIP3   OH230449   1.987   4.779   8.075
 2085TIP3    H130450   1.989   4.754   7.980
 2085TIP3    H230451   2.074   4.744   8.104
 2086TIP3   OH230452   3.599   4.742   8.626
 2086TIP3    H130453   3.647   4.656   8.640
 2086TIP3    H230454   3.670   4.808   8.612
 2087TIP3   OH230455   3.702   4.494   8.664
 2087TIP3    H130456   3.608   4.467   8.653
 2087TIP3    H230457   3.750   4.409   8.678
 2088TIP3   OH230458   3.544   4.388   8.048
 2088TIP3    H130459   3.641   4.399   8.050
 2088TIP3    H230460   3.524   4.369   8.141
 2089TIP3   OH230461   3.550   4.443   8.323
 2089TIP3    H130462   3.461   4.476   8.343
 2089TIP3    H230463   3.595   4.526   8.292
 2090TIP3   OH230464   1.972   4.274   8.657
 2090TIP3    H130465   2.056   4.270   8.707
 2090TIP3    H230466   1.927   4.194   8.689
 2091TIP3   OH230467   3.769   3.874   8.853
 2091TIP3    H130468   3.803   3.795   8.808
 2091TIP3    H230469   3.758   3.937   8.777
 2092TIP3   OH230470   2.065   4.119   8.024
 2092TIP3    H130471   2.103   4.029   8.023
 2092TIP3    H230472   2.143   4.175   8.011
 2093TIP3   OH230473   1.926   4.416   8.086
 2093TIP3    H130474   1.987   4.396   8.012
 2093TIP3    H230475   1.969   4.498   8.118
 2094TIP3   OH230476   3.699   4.067   8.673
 2094TIP3    H130477   3.618   4.117   8.696
 2094TIP3    H230478   3.666   4.018   8.595
 2095TIP3   OH230479   1.956   4.054   7.474
 2095TIP3    H130480   1.867   4.022   7.494
 2095TIP3    H230481   1.948   4.095   7.387
 2096TIP3   OH230482   1.940   3.905   8.310
 2096TIP3    H130483   1.884   3.867   8.380
 2096TIP3    H230484   1.877   3.956   8.256
 2097TIP3   OH230485   2.155   5.232   8.701
 2097TIP3    H130486   2.067   5.239   8.660
 2097TIP3    H230487   2.140   5.170   8.773
 2098TIP3   OH230488   2.452   5.381   8.383
 2098TIP3    H130489   2.458   5.466   8.336
 2098TIP3    H230490   2.545   5.352   8.376
 2099TIP3   OH230491   2.858   5.480   8.623
 2099TIP3    H130492   2.869   5.453   8.717
 2099TIP3    H230493   2.950   5.510   8.604
 2100TIP3   OH230494   3.092   5.602   8.585
 2100TIP3    H130495   3.166   5.583   8.527
 2100TIP3    H230496   3.134   5.649   8.660
 2101TIP3   OH230497   3.607   3.850   8.481
 2101TIP3    H130498   3.542   3.896   8.424
 2101TIP3    H230499   3.612   3.764   8.434
 2102TIP3   OH230500   2.192   5.672   8.353
 2102TIP3    H130501   2.123   5.736   8.328
 2102TIP3    H230502   2.192   5.676   8.450
 2103TIP3   OH230503   2.424   5.611   8.236
 2103TIP3    H130504   2.333   5.636   8.265
 2103TIP3    H230505   2.444   5.676   8.167
 2104TIP3   OH230506   2.874   5.565   8.197
 2104TIP3    H130507   2.803   5.621   8.163
 2104TIP3    H230508   2.917   5.628   8.260
 2105TIP3   OH230509   3.108   5.456   8.304
 2105TIP3    H130510   3.043   5.499   8.246
 2105TIP3    H230511   3.189   5.503   8.282
 2106TIP3   OH230512   3.372   5.615   8.285
 2106TIP3    H130513   3.371   5.705   8.248
 2106TIP3    H230514   3.397   5.560   8.207
 2107TIP3   OH230515   2.145   5.496   8.032
 2107TIP3    H130516   2.133   5.438   8.110
 2107TIP3    H230517   2.237   5.472   8.004
 2108TIP3   OH230518   2.365   5.404   7.914
 2108TIP3    H130519   2.352   5.311   7.941
 2108TIP3    H230520   2.454   5.418   7.954
 2109TIP3   OH230521   2.593   5.396   8.047
 2109TIP3    H130522   2.619   5.304   8.025
 2109TIP3    H230523   2.623   5.403   8.138
 2110TIP3   OH230524   2.924   3.996   7.868
 2110TIP3    H130525   2.865   3.940   7.922
 2110TIP3    H230526   3.009   3.951   7.878
 2111TIP3   OH230527   3.481   3.785   7.889
 2111TIP3    H130528   3.535   3.851   7.839
 2111TIP3    H230529   3.395   3.794   7.845
 2112TIP3   OH230530   2.199   3.856   7.702
 2112TIP3    H130531   2.108   3.853   7.668
 2112TIP3    H230532   2.232   3.768   7.674
 2113TIP3   OH230533   2.032   3.826   7.258
 2113TIP3    H130534   2.075   3.882   7.190
 2113TIP3    H230535   2.038   3.884   7.336
 2114TIP3   OH230536   2.627   3.807   7.674
 2114TIP3    H130537   2.713   3.786   7.633
 2114TIP3    H230538   2.652   3.819   7.767
 2115TIP3   OH230539   3.185   3.874   7.822
 2115TIP3    H130540   3.210   3.873   7.727
 2115TIP3    H230541   3.135   3.790   7.831
 2116TIP3   OH230542   2.023   5.439   7.323
 2116TIP3    H130543   2.017   5.491   7.242
 2116TIP3    H230544   2.044   5.510   7.385
 2117TIP3   OH230545   2.726   4.067   7.346
 2117TIP3    H130546   2.762   4.013   7.419
 2117TIP3    H230547   2.751   4.156   7.377
 2118TIP3   OH230548   3.591   5.499   7.509
 2118TIP3    H130549   3.577   5.426   7.446
 2118TIP3    H230550   3.569   5.575   7.450
 2119TIP3   OH230551   2.159   3.916   8.632
 2119TIP3    H130552   2.107   3.834   8.641
 2119TIP3    H230553   2.222   3.905   8.707
 2120TIP3   OH230554   2.351   3.848   8.830
 2120TIP3    H130555   2.446   3.841   8.810
 2120TIP3    H230556   2.337   3.757   8.861
 2121TIP3   OH230557   3.206   3.777   8.825
 2121TIP3    H130558   3.221   3.720   8.904
 2121TIP3    H230559   3.297   3.781   8.788
 2122TIP3   OH230560   3.535   5.394   8.660
 2122TIP3    H130561   3.478   5.385   8.582
 2122TIP3    H230562   3.497   5.475   8.698
 2123TIP3   OH230563   4.077   4.665   8.167
 2123TIP3    H130564   4.070   4.583   8.221
 2123TIP3    H230565   4.146   4.712   8.217
 2124TIP3   OH230566   5.205   4.986   7.878
 2124TIP3    H130567   5.209   4.919   7.948
 2124TIP3    H230568   5.252   5.057   7.922
 2125TIP3   OH230569   4.202   5.128   8.006
 2125TIP3    H130570   4.151   5.048   7.980
 2125TIP3    H230571   4.290   5.090   7.996
 2126TIP3   OH230572   3.865   4.432   7.545
 2126TIP3    H130573   3.819   4.517   7.550
 2126TIP3    H230574   3.794   4.367   7.548
 2127TIP3   OH230575   3.900   4.702   7.796
 2127TIP3    H130576   3.949   4.621   7.823
 2127TIP3    H230577   3.972   4.762   7.773
 2128TIP3   OH230578   4.947   5.529   7.899
 2128TIP3    H130579   4.999   5.468   7.843
 2128TIP3    H230580   4.986   5.615   7.871
 2129TIP3   OH230581   5.545   4.091   8.059
 2129TIP3    H130582   5.554   4.131   8.146
 2129TIP3    H230583   5.634   4.109   8.023
 2130TIP3   OH230584   5.061   4.399   8.100
 2130TIP3    H130585   5.064   4.300   8.099
 2130TIP3    H230586   4.970   4.412   8.070
 2131TIP3   OH230587   4.334   4.175   7.789
 2131TIP3    H130588   4.335   4.262   7.743
 2131TIP3    H230589   4.283   4.122   7.724
 2132TIP3   OH230590   5.092   4.220   7.692
 2132TIP3    H130591   5.149   4.163   7.743
 2132TIP3    H230592   5.150   4.284   7.649
 2133TIP3   OH230593   4.018   4.466   7.912
 2133TIP3    H130594   4.074   4.410   7.970
 2133TIP3    H230595   4.029   4.421   7.825
 2134TIP3   OH230596   4.491   4.604   7.850
 2134TIP3    H130597   4.577   4.562   7.865
 2134TIP3    H230598   4.446   4.537   7.794
 2135TIP3   OH230599   5.572   4.218   8.331
 2135TIP3    H130600   5.531   4.306   8.309
 2135TIP3    H230601   5.595   4.236   8.423
 2136TIP3   OH230602   4.228   4.087   8.229
 2136TIP3    H130603   4.186   4.136   8.155
 2136TIP3    H230604   4.167   4.109   8.303
 2137TIP3   OH230605   4.449   4.844   8.238
 2137TIP3    H130606   4.369   4.882   8.280
 2137TIP3    H230607   4.505   4.923   8.237
 2138TIP3   OH230608   4.197   4.277   8.018
 2138TIP3    H130609   4.259   4.337   8.065
 2138TIP3    H230610   4.250   4.252   7.940
 2139TIP3   OH230611   4.322   5.073   8.319
 2139TIP3    H130612   4.304   5.152   8.267
 2139TIP3    H230613   4.237   5.066   8.369
 2140TIP3   OH230614   3.933   5.004   7.387
 2140TIP3    H130615   3.882   5.065   7.332
 2140TIP3    H230616   3.960   5.065   7.458
 2141TIP3   OH230617   5.283   5.187   8.083
 2141TIP3    H130618   5.187   5.189   8.097
 2141TIP3    H230619   5.295   5.271   8.036
 2142TIP3   OH230620   5.281   4.032   8.187
 2142TIP3    H130621   5.216   4.101   8.170
 2142TIP3    H230622   5.349   4.050   8.119
 2143TIP3   OH230623   4.592   3.830   7.943
 2143TIP3    H130624   4.571   3.737   7.960
 2143TIP3    H230625   4.510   3.873   7.978
 2144TIP3   OH230626   5.122   5.360   7.801
 2144TIP3    H130627   5.115   5.289   7.736
 2144TIP3    H230628   5.205   5.405   7.773
 2145TIP3   OH230629   5.255   5.123   7.588
 2145TIP3    H130630   5.257   5.054   7.519
 2145TIP3    H230631   5.224   5.071   7.664
 2146TIP3   OH230632   5.376   5.011   8.458
 2146TIP3    H130633   5.395   4.935   8.399
 2146TIP3    H230634   5.398   5.086   8.399
 2147TIP3   OH230635   4.874   4.704   7.411
 2147TIP3    H130636   4.789   4.751   7.397
 2147TIP3    H230637   4.933   4.775   7.382
 2148TIP3   OH230638   4.802   4.496   7.125
 2148TIP3    H130639   4.850   4.570   7.165
 2148TIP3    H230640   4.869   4.428   7.117
 2149TIP3   OH230641   5.594   4.652   8.261
 2149TIP3    H130642   5.519   4.715   8.257
 2149TIP3    H230643   5.651   4.691   8.191
 2150TIP3   OH230644   5.182   4.557   8.445
 2150TIP3    H130645   5.167   4.636   8.500
 2150TIP3    H230646   5.110   4.566   8.379
 2151TIP3   OH230647   4.330   4.770   7.708
 2151TIP3    H130648   4.329   4.746   7.613
 2151TIP3    H230649   4.395   4.708   7.745
 2152TIP3   OH230650   4.376   4.644   8.088
 2152TIP3    H130651   4.411   4.643   7.996
 2152TIP3    H230652   4.425   4.718   8.130
 2153TIP3   OH230653   5.022   5.204   8.154
 2153TIP3    H130654   5.044   5.230   8.246
 2153TIP3    H230655   5.002   5.109   8.170
 2154TIP3   OH230656   4.496   5.104   8.525
 2154TIP3    H130657   4.424   5.147   8.577
 2154TIP3    H230658   4.452   5.094   8.438
 2155TIP3   OH230659   4.187   4.718   8.444
 2155TIP3    H130660   4.208   4.788   8.508
 2155TIP3    H230661   4.110   4.680   8.490
 2156TIP3   OH230662   4.308   5.277   8.626
 2156TIP3    H130663   4.288   5.324   8.542
 2156TIP3    H230664   4.217   5.248   8.651
 2157TIP3   OH230665   4.276   4.680   7.456
 2157TIP3    H130666   4.230   4.760   7.420
 2157TIP3    H230667   4.209   4.612   7.445
 2158TIP3   OH230668   5.572   5.295   7.113
 2158TIP3    H130669   5.494   5.290   7.052
 2158TIP3    H230670   5.626   5.227   7.072
 2159TIP3   OH230671   3.879   4.944   8.373
 2159TIP3    H130672   3.840   4.933   8.286
 2159TIP3    H230673   3.923   4.856   8.383
 2160TIP3   OH230674   3.838   5.206   8.050
 2160TIP3    H130675   3.932   5.190   8.044
 2160TIP3    H230676   3.835   5.288   8.099
 2161TIP3   OH230677   5.647   5.267   8.638
 2161TIP3    H130678   5.641   5.172   8.623
 2161TIP3    H230679   5.555   5.285   8.670
 2162TIP3   OH230680   4.741   5.226   8.512
 2162TIP3    H130681   4.748   5.303   8.572
 2162TIP3    H230682   4.654   5.187   8.535
 2163TIP3   OH230683   4.820   5.609   7.412
 2163TIP3    H130684   4.733   5.575   7.383
 2163TIP3    H230685   4.799   5.678   7.479
 2164TIP3   OH230686   4.142   5.479   7.687
 2164TIP3    H130687   4.183   5.447   7.770
 2164TIP3    H230688   4.048   5.462   7.708
 2165TIP3   OH230689   5.092   5.513   7.177
 2165TIP3    H130690   5.089   5.421   7.151
 2165TIP3    H230691   5.078   5.510   7.273
 2166TIP3   OH230692   5.073   5.527   7.447
 2166TIP3    H130693   4.978   5.549   7.461
 2166TIP3    H230694   5.086   5.445   7.496
 2167TIP3   OH230695   5.337   4.391   8.662
 2167TIP3    H130696   5.302   4.436   8.582
 2167TIP3    H230697   5.343   4.298   8.631
 2168TIP3   OH230698   4.094   5.067   8.455
 2168TIP3    H130699   4.101   5.031   8.546
 2168TIP3    H230700   4.007   5.032   8.426
 2169TIP3   OH230701   4.371   3.937   8.045
 2169TIP3    H130702   4.284   3.917   8.005
 2169TIP3    H230703   4.344   3.992   8.121
 2170TIP3   OH230704   4.847   3.877   8.372
 2170TIP3    H130705   4.889   3.840   8.453
 2170TIP3    H230706   4.751   3.873   8.394
 2171TIP3   OH230707   5.119   4.283   8.484
 2171TIP3    H130708   5.065   4.254   8.562
 2171TIP3    H230709   5.141   4.374   8.508
 2172TIP3   OH230710   4.371   4.397   8.180
 2172TIP3    H130711   4.298   4.404   8.244
 2172TIP3    H230712   4.370   4.489   8.146
 2173TIP3   OH230713   4.364   4.424   7.686
 2173TIP3    H130714   4.272   4.436   7.654
 2173TIP3    H230715   4.406   4.399   7.600
 2174TIP3   OH230716   4.929   4.456   7.521
 2174TIP3    H130717   4.912   4.545   7.481
 2174TIP3    H230718   4.998   4.421   7.462
 2175TIP3   OH230719   4.798   4.502   8.692
 2175TIP3    H130720   4.761   4.415   8.720
 2175TIP3    H230721   4.874   4.509   8.753
 2176TIP3   OH230722   4.122   4.413   8.304
 2176TIP3    H130723   4.155   4.449   8.388
 2176TIP3    H230724   4.089   4.325   8.330
 2177TIP3   OH230725   3.802   4.127   7.771
 2177TIP3    H130726   3.864   4.072   7.820
 2177TIP3    H230727   3.801   4.087   7.683
 2178TIP3   OH230728   3.960   4.242   7.315
 2178TIP3    H130729   4.030   4.264   7.253
 2178TIP3    H230730   3.884   4.287   7.279
 2179TIP3   OH230731   4.976   4.598   8.254
 2179TIP3    H130732   5.009   4.514   8.215
 2179TIP3    H230733   4.908   4.563   8.314
 2180TIP3   OH230734   4.664   4.170   7.772
 2180TIP3    H130735   4.568   4.175   7.787
 2180TIP3    H230736   4.695   4.130   7.855
 2181TIP3   OH230737   4.110   4.343   7.642
 2181TIP3    H130738   4.025   4.355   7.594
 2181TIP3    H230739   4.133   4.252   7.619
 2182TIP3   OH230740   4.450   4.367   7.443
 2182TIP3    H130741   4.541   4.333   7.452
 2182TIP3    H230742   4.447   4.388   7.350
 2183TIP3   OH230743   5.041   4.123   8.074
 2183TIP3    H130744   4.989   4.101   8.156
 2183TIP3    H230745   5.005   4.061   8.009
 2184TIP3   OH230746   5.350   5.681   8.733
 2184TIP3    H130747   5.383   5.731   8.657
 2184TIP3    H230748   5.431   5.677   8.786
 2185TIP3   OH230749   4.134   4.910   8.682
 2185TIP3    H130750   4.203   4.910   8.752
 2185TIP3    H230751   4.056   4.884   8.736
 2186TIP3   OH230752   4.776   4.421   7.957
 2186TIP3    H130753   4.804   4.380   7.874
 2186TIP3    H230754   4.709   4.359   7.990
 2187TIP3   OH230755   4.196   4.052   7.589
 2187TIP3    H130756   4.128   3.988   7.619
 2187TIP3    H230757   4.262   3.991   7.555
 2188TIP3   OH230758   4.599   4.255   8.182
 2188TIP3    H130759   4.522   4.317   8.181
 2188TIP3    H230760   4.665   4.305   8.232
 2189TIP3   OH230761   5.402   4.839   8.260
 2189TIP3    H130762   5.451   4.886   8.188
 2189TIP3    H230763   5.310   4.861   8.234
 2190TIP3   OH230764   5.032   4.144   7.213
 2190TIP3    H130765   5.015   4.093   7.131
 2190TIP3    H230766   5.045   4.235   7.183
 2191TIP3   OH230767   4.780   4.946   8.483
 2191TIP3    H130768   4.774   4.908   8.571
 2191TIP3    H230769   4.766   5.041   8.502
 2192TIP3   OH230770   5.150   4.419   7.376
 2192TIP3    H130771   5.240   4.386   7.379
 2192TIP3    H230772   5.169   4.515   7.365
 2193TIP3   OH230773   4.176   4.870   7.923
 2193TIP3    H130774   4.228   4.845   7.843
 2193TIP3    H230775   4.179   4.789   7.978
 2194TIP3   OH230776   3.890   4.680   8.462
 2194TIP3    H130777   3.869   4.637   8.547
 2194TIP3    H230778   3.826   4.639   8.402
 2195TIP3   OH230779   4.568   4.650   8.664
 2195TIP3    H130780   4.533   4.592   8.595
 2195TIP3    H230781   4.658   4.611   8.676
 2196TIP3   OH230782   5.053   5.211   8.495
 2196TIP3    H130783   4.962   5.192   8.471
 2196TIP3    H230784   5.038   5.252   8.583
 2197TIP3   OH230785   5.603   4.402   7.281
 2197TIP3    H130786   5.514   4.375   7.256
 2197TIP3    H230787   5.584   4.485   7.329
 2198TIP3   OH230788   5.611   4.979   8.587
 2198TIP3    H130789   5.518   4.994   8.558
 2198TIP3    H230790   5.657   4.966   8.501
 2199TIP3   OH230791   5.399   5.320   7.338
 2199TIP3    H130792   5.354   5.258   7.398
 2199TIP3    H230793   5.438   5.257   7.273
 2200TIP3   OH230794   5.145   4.777   8.090
 2200TIP3    H130795   5.092   4.716   8.145
 2200TIP3    H230796   5.210   4.717   8.053
 2201TIP3   OH230797   4.603   5.340   8.310
 2201TIP3    H130798   4.645   5.426   8.298
 2201TIP3    H230799   4.655   5.300   8.384
 2202TIP3   OH230800   4.430   5.496   7.616
 2202TIP3    H130801   4.335   5.497   7.632
 2202TIP3    H230802   4.451   5.592   7.624
 2203TIP3   OH230803   4.926   4.964   8.244
 2203TIP3    H130804   4.874   4.943   8.324
 2203TIP3    H230805   4.961   4.877   8.220
 2204TIP3   OH230806   5.238   5.435   8.471
 2204TIP3    H130807   5.152   5.391   8.452
 2204TIP3    H230808   5.244   5.503   8.400
 2205TIP3   OH230809   4.067   4.155   8.443
 2205TIP3    H130810   4.003   4.202   8.499
 2205TIP3    H230811   4.060   4.065   8.480
 2206TIP3   OH230812   4.006   5.336   8.265
 2206TIP3    H130813   4.068   5.261   8.269
 2206TIP3    H230814   4.023   5.373   8.353
 2207TIP3   OH230815   4.183   4.887   7.316
 2207TIP3    H130816   4.089   4.916   7.313
 2207TIP3    H230817   4.231   4.956   7.267
 2208TIP3   OH230818   4.923   4.133   8.315
 2208TIP3    H130819   4.989   4.174   8.374
 2208TIP3    H230820   4.904   4.046   8.357
 2209TIP3   OH230821   4.975   4.083   7.490
 2209TIP3    H130822   5.002   4.090   7.396
 2209TIP3    H230823   5.024   4.154   7.535
 2210TIP3   OH230824   4.698   4.317   7.528
 2210TIP3    H130825   4.784   4.365   7.531
 2210TIP3    H230826   4.700   4.264   7.610
 2211TIP3   OH230827   4.816   4.396   8.416
 2211TIP3    H130828   4.824   4.423   8.509
 2211TIP3    H230829   4.850   4.304   8.415
 2212TIP3   OH230830   4.752   3.976   7.583
 2212TIP3    H130831   4.729   4.040   7.653
 2212TIP3    H230832   4.843   4.006   7.556
 2213TIP3   OH230833   4.413   5.430   7.351
 2213TIP3    H130834   4.478   5.482   7.300
 2213TIP3    H230835   4.446   5.439   7.443
 2214TIP3   OH230836   4.385   4.140   7.241
 2214TIP3    H130837   4.326   4.156   7.316
 2214TIP3    H230838   4.468   4.109   7.285
 2215TIP3   OH230839   5.357   4.151   8.528
 2215TIP3    H130840   5.264   4.170   8.503
 2215TIP3    H230841   5.402   4.159   8.442
 2216TIP3   OH230842   5.341   5.467   8.072
 2216TIP3    H130843   5.349   5.537   8.003
 2216TIP3    H230844   5.436   5.452   8.091
 2217TIP3   OH230845   4.115   3.880   7.987
 2217TIP3    H130846   4.105   3.863   7.891
 2217TIP3    H230847   4.084   3.795   8.024
 2218TIP3   OH230848   3.947   5.237   7.516
 2218TIP3    H130849   3.894   5.309   7.551
 2218TIP3    H230850   4.037   5.269   7.538
 2219TIP3   OH230851   3.901   5.548   8.705
 2219TIP3    H130852   3.965   5.527   8.775
 2219TIP3    H230853   3.860   5.459   8.691
 2220TIP3   OH230854   4.383   5.428   8.844
 2220TIP3    H130855   4.470   5.392   8.869
 2220TIP3    H230856   4.369   5.387   8.757
 2221TIP3   OH230857   4.754   5.406   7.059
 2221TIP3    H130858   4.699   5.351   7.118
 2221TIP3    H230859   4.824   5.346   7.031
 2222TIP3   OH230860   5.021   5.287   8.752
 2222TIP3    H130861   4.988   5.197   8.778
 2222TIP3    H230862   5.105   5.290   8.803
 2223TIP3   OH230863   3.881   4.910   8.814
 2223TIP3    H130864   3.850   4.818   8.816
 2223TIP3    H230865   3.836   4.942   8.732
 2224TIP3   OH230866   4.567   4.912   8.718
 2224TIP3    H130867   4.557   4.959   8.633
 2224TIP3    H230868   4.550   4.817   8.696
 2225TIP3   OH230869   5.126   4.901   8.510
 2225TIP3    H130870   5.209   4.953   8.508
 2225TIP3    H230871   5.061   4.973   8.502
 2226TIP3   OH230872   4.016   4.616   8.765
 2226TIP3    H130873   4.027   4.522   8.782
 2226TIP3    H230874   4.049   4.658   8.848
 2227TIP3   OH230875   4.466   4.715   7.235
 2227TIP3    H130876   4.406   4.718   7.311
 2227TIP3    H230877   4.495   4.623   7.235
 2228TIP3   OH230878   4.371   4.523   8.441
 2228TIP3    H130879   4.318   4.604   8.448
 2228TIP3    H230880   4.452   4.561   8.401
 2229TIP3   OH230881   4.931   4.808   8.812
 2229TIP3    H130882   5.000   4.752   8.773
 2229TIP3    H230883   4.883   4.743   8.867
 2230TIP3   OH230884   4.438   4.270   8.549
 2230TIP3    H130885   4.451   4.208   8.474
 2230TIP3    H230886   4.413   4.353   8.502
 2231TIP3   OH230887   4.470   4.080   8.339
 2231TIP3    H130888   4.513   4.131   8.267
 2231TIP3    H230889   4.375   4.082   8.313
 2232TIP3   OH230890   4.598   4.665   8.358
 2232TIP3    H130891   4.681   4.710   8.333
 2232TIP3    H230892   4.532   4.727   8.322
 2233TIP3   OH230893   5.078   4.393   8.833
 2233TIP3    H130894   5.087   4.297   8.826
 2233TIP3    H230895   5.167   4.427   8.818
 2234TIP3   OH230896   5.201   4.728   8.705
 2234TIP3    H130897   5.169   4.788   8.635
 2234TIP3    H230898   5.297   4.724   8.685
 2235TIP3   OH230899   4.281   4.350   8.769
 2235TIP3    H130900   4.196   4.313   8.742
 2235TIP3    H230901   4.339   4.324   8.695
 2236TIP3   OH230902   4.574   3.841   8.379
 2236TIP3    H130903   4.536   3.930   8.362
 2236TIP3    H230904   4.508   3.787   8.332
 2237TIP3   OH230905   4.660   4.271   8.771
 2237TIP3    H130906   4.598   4.250   8.844
 2237TIP3    H230907   4.603   4.252   8.695
 2238TIP3   OH230908   4.951   4.192   8.664
 2238TIP3    H130909   4.856   4.188   8.684
 2238TIP3    H230910   4.985   4.140   8.739
 2239TIP3   OH230911   5.111   4.062   8.852
 2239TIP3    H130912   5.108   3.964   8.841
 2239TIP3    H230913   5.092   4.071   8.948
 2240TIP3   OH230914   4.067   4.177   8.774
 2240TIP3    H130915   4.039   4.098   8.725
 2240TIP3    H230916   4.056   4.147   8.868
 2241TIP3   OH230917   4.525   3.808   8.658
 2241TIP3    H130918   4.596   3.740   8.670
 2241TIP3    H230919   4.538   3.823   8.562
 2242TIP3   OH230920   4.569   3.953   8.898
 2242TIP3    H130921   4.553   3.905   8.813
 2242TIP3    H230922   4.526   4.039   8.884
 2243TIP3   OH230923   4.562   5.631   7.222
 2243TIP3    H130924   4.622   5.644   7.146
 2243TIP3    H230925   4.493   5.696   7.200
 2244TIP3   OH230926   3.815   5.616   7.619
 2244TIP3    H130927   3.732   5.587   7.576
 2244TIP3    H230928   3.812   5.563   7.700
 2245TIP3   OH230929   3.885   5.430   7.828
 2245TIP3    H130930   3.811   5.376   7.862
 2245TIP3    H230931   3.930   5.456   7.911
 2246TIP3   OH230932   5.623   5.518   8.093
 2246TIP3    H130933   5.650   5.535   8.185
 2246TIP3    H230934   5.699   5.552   8.044
 2247TIP3   OH230935   5.585   5.465   8.396
 2247TIP3    H130936   5.546   5.390   8.346
 2247TIP3    H230937   5.603   5.421   8.481
 2248TIP3   OH230938   5.443   5.052   8.885
 2248TIP3    H130939   5.350   5.052   8.917
 2248TIP3    H230940   5.483   5.125   8.939
 2249TIP3   OH230941   5.551   4.955   8.076
 2249TIP3    H130942   5.622   4.894   8.048
 2249TIP3    H230943   5.582   5.041   8.039
 2250TIP3   OH230944   5.434   5.250   8.318
 2250TIP3    H130945   5.366   5.289   8.375
 2250TIP3    H230946   5.385   5.232   8.235
 2251TIP3   OH230947   5.393   4.400   7.105
 2251TIP3    H130948   5.469   4.460   7.099
 2251TIP3    H230949   5.429   4.316   7.072
 2252TIP3   OH230950   3.866   4.772   8.064
 2252TIP3    H130951   3.866   4.741   7.971
 2252TIP3    H230952   3.955   4.742   8.093
 2253TIP3   OH230953   5.490   4.731   8.629
 2253TIP3    H130954   5.535   4.647   8.653
 2253TIP3    H230955   5.561   4.798   8.615
 2254TIP3   OH230956   5.583   4.482   8.714
 2254TIP3    H130957   5.500   4.441   8.679
 2254TIP3    H230958   5.645   4.408   8.700
 2255TIP3   OH230959   5.435   4.446   8.349
 2255TIP3    H130960   5.342   4.475   8.343
 2255TIP3    H230961   5.485   4.520   8.309
 2256TIP3   OH230962   3.854   4.277   8.657
 2256TIP3    H130963   3.935   4.258   8.708
 2256TIP3    H230964   3.801   4.195   8.672
 2257TIP3   OH230965   5.626   3.850   8.830
 2257TIP3    H130966   5.673   3.782   8.777
 2257TIP3    H230967   5.633   3.929   8.771
 2258TIP3   OH230968   3.970   4.104   8.009
 2258TIP3    H130969   4.018   4.019   8.003
 2258TIP3    H230970   4.039   4.169   7.989
 2259TIP3   OH230971   3.811   4.423   8.080
 2259TIP3    H130972   3.877   4.396   8.014
 2259TIP3    H230973   3.858   4.499   8.118
 2260TIP3   OH230974   5.584   4.078   8.688
 2260TIP3    H130975   5.493   4.103   8.721
 2260TIP3    H230976   5.560   4.032   8.606
 2261TIP3   OH230977   3.833   4.074   7.498
 2261TIP3    H130978   3.759   4.021   7.463
 2261TIP3    H230979   3.880   4.101   7.417
 2262TIP3   OH230980   5.307   5.509   7.675
 2262TIP3    H130981   5.356   5.465   7.605
 2262TIP3    H230982   5.371   5.574   7.709
 2263TIP3   OH230983   3.833   3.894   8.305
 2263TIP3    H130984   3.769   3.871   8.375
 2263TIP3    H230985   3.789   3.968   8.260
 2264TIP3   OH230986   4.054   5.212   8.711
 2264TIP3    H130987   3.969   5.246   8.679
 2264TIP3    H230988   4.033   5.177   8.798
 2265TIP3   OH230989   4.320   5.380   8.374
 2265TIP3    H130990   4.340   5.471   8.344
 2265TIP3    H230991   4.408   5.340   8.378
 2266TIP3   OH230992   4.760   5.483   8.628
 2266TIP3    H130993   4.763   5.455   8.723
 2266TIP3    H230994   4.852   5.516   8.617
 2267TIP3   OH230995   4.988   5.616   8.566
 2267TIP3    H130996   5.069   5.566   8.553
 2267TIP3    H230997   5.012   5.666   8.648
 2268TIP3   OH230998   5.508   3.843   8.489
 2268TIP3    H130999   5.434   3.875   8.436
 2268TIP3    H231000   5.526   3.755   8.448
 2269TIP3   OH231001   4.089   5.661   8.343
 2269TIP3    H131002   4.008   5.710   8.317
 2269TIP3    H231003   4.079   5.654   8.439
 2270TIP3   OH231004   4.332   5.613   8.237
 2270TIP3    H131005   4.240   5.630   8.270
 2270TIP3    H231006   4.333   5.669   8.157
 2271TIP3   OH231007   4.776   5.575   8.120
 2271TIP3    H131008   4.719   5.629   8.063
 2271TIP3    H231009   4.799   5.638   8.191
 2272TIP3   OH231010   5.012   5.463   8.296
 2272TIP3    H131011   4.957   5.537   8.328
 2272TIP3    H231012   5.099   5.508   8.293
 2273TIP3   OH231013   5.241   5.622   8.274
 2273TIP3    H131014   5.255   5.716   8.252
 2273TIP3    H231015   5.291   5.577   8.202
 2274TIP3   OH231016   4.020   5.504   8.050
 2274TIP3    H131017   4.001   5.453   8.132
 2274TIP3    H231018   4.110   5.472   8.027
 2275TIP3   OH231019   4.240   5.413   7.936
 2275TIP3    H131020   4.230   5.316   7.948
 2275TIP3    H231021   4.337   5.424   7.951
 2276TIP3   OH231022   4.496   5.422   8.001
 2276TIP3    H131023   4.516   5.329   7.983
 2276TIP3    H231024   4.497   5.428   8.098
 2277TIP3   OH231025   4.863   3.951   7.903
 2277TIP3    H131026   4.779   3.934   7.949
 2277TIP3    H231027   4.857   3.885   7.832
 2278TIP3   OH231028   4.056   3.849   7.708
 2278TIP3    H131029   3.965   3.832   7.677
 2278TIP3    H231030   4.100   3.762   7.692
 2279TIP3   OH231031   4.467   3.819   7.670
 2279TIP3    H131032   4.530   3.852   7.606
 2279TIP3    H231033   4.520   3.821   7.751
 2280TIP3   OH231034   4.609   4.103   7.381
 2280TIP3    H131035   4.646   4.035   7.441
 2280TIP3    H231036   4.681   4.167   7.384
 2281TIP3   OH231037   4.038   3.917   8.639
 2281TIP3    H131038   3.994   3.831   8.645
 2281TIP3    H231039   4.110   3.908   8.706
 2282TIP3   OH231040   4.237   3.850   8.824
 2282TIP3    H131041   4.329   3.838   8.798
 2282TIP3    H231042   4.216   3.756   8.842
 2283TIP3   OH231043   5.096   3.786   8.834
 2283TIP3    H131044   5.088   3.711   8.897
 2283TIP3    H231045   5.187   3.770   8.801
 2284TIP3   OH231046   5.410   5.392   8.662
 2284TIP3    H131047   5.344   5.385   8.588
 2284TIP3    H231048   5.391   5.482   8.692
 2285TIP3   OH231049   6.882   4.773   7.648
 2285TIP3    H131050   6.916   4.854   7.690
 2285TIP3    H231051   6.791   4.802   7.632
 2286TIP3   OH231052   6.755   4.669   8.007
 2286TIP3    H131053   6.774   4.617   8.088
 2286TIP3    H231054   6.690   4.613   7.960
 2287TIP3   OH231055   5.965   4.671   8.171
 2287TIP3    H131056   5.964   4.588   8.221
 2287TIP3    H231057   6.027   4.723   8.225
 2288TIP3   OH231058   7.121   4.971   7.901
 2288TIP3    H131059   7.120   4.907   7.975
 2288TIP3    H231060   7.109   5.055   7.949
 2289TIP3   OH231061   6.067   5.125   7.997
 2289TIP3    H131062   6.042   5.031   7.981
 2289TIP3    H231063   6.163   5.111   8.000
 2290TIP3   OH231064   5.783   4.666   7.792
 2290TIP3    H131065   5.841   4.597   7.833
 2290TIP3    H231066   5.844   4.739   7.778
 2291TIP3   OH231067   6.585   4.893   8.097
 2291TIP3    H131068   6.633   4.828   8.042
 2291TIP3    H231069   6.662   4.938   8.139
 2292TIP3   OH231070   7.457   4.107   8.124
 2292TIP3    H131071   7.451   4.170   8.197
 2292TIP3    H231072   7.518   4.153   8.065
 2293TIP3   OH231073   6.926   4.375   8.109
 2293TIP3    H131074   6.967   4.292   8.139
 2293TIP3    H231075   6.908   4.352   8.015
 2294TIP3   OH231076   6.226   4.157   7.794
 2294TIP3    H131077   6.228   4.245   7.749
 2294TIP3    H231078   6.174   4.104   7.729
 2295TIP3   OH231079   7.004   4.195   7.663
 2295TIP3    H131080   7.038   4.158   7.748
 2295TIP3    H231081   7.086   4.239   7.633
 2296TIP3   OH231082   5.924   4.468   7.914
 2296TIP3    H131083   5.982   4.409   7.966
 2296TIP3    H231084   5.924   4.419   7.828
 2297TIP3   OH231085   6.372   4.578   7.849
 2297TIP3    H131086   6.448   4.538   7.896
 2297TIP3    H231087   6.352   4.509   7.783
 2298TIP3   OH231088   7.453   4.202   8.398
 2298TIP3    H131089   7.406   4.277   8.356
 2298TIP3    H231090   7.526   4.251   8.438
 2299TIP3   OH231091   6.120   4.095   8.235
 2299TIP3    H131092   6.080   4.140   8.158
 2299TIP3    H231093   6.056   4.118   8.306
 2300TIP3   OH231094   6.800   5.025   7.572
 2300TIP3    H131095   6.773   5.033   7.478
 2300TIP3    H231096   6.774   5.111   7.605
 2301TIP3   OH231097   6.339   4.844   8.193
 2301TIP3    H131098   6.298   4.924   8.232
 2301TIP3    H231099   6.416   4.885   8.147
 2302TIP3   OH231100   7.149   4.165   7.881
 2302TIP3    H131101   7.109   4.102   7.944
 2302TIP3    H231102   7.244   4.150   7.890
 2303TIP3   OH231103   6.076   4.264   8.010
 2303TIP3    H131104   6.140   4.323   8.058
 2303TIP3    H231105   6.134   4.229   7.939
 2304TIP3   OH231106   6.206   5.050   8.301
 2304TIP3    H131107   6.194   5.141   8.267
 2304TIP3    H231108   6.120   5.040   8.349
 2305TIP3   OH231109   7.160   5.192   8.081
 2305TIP3    H131110   7.066   5.212   8.099
 2305TIP3    H231111   7.186   5.276   8.041
 2306TIP3   OH231112   7.189   4.061   8.199
 2306TIP3    H131113   7.108   4.090   8.150
 2306TIP3    H231114   7.259   4.075   8.133
 2307TIP3   OH231115   6.466   3.823   7.966
 2307TIP3    H131116   6.442   3.730   7.955
 2307TIP3    H231117   6.378   3.861   7.992
 2308TIP3   OH231118   7.261   5.008   8.468
 2308TIP3    H131119   7.271   4.948   8.390
 2308TIP3    H231120   7.265   5.095   8.421
 2309TIP3   OH231121   7.410   4.650   8.254
 2309TIP3    H131122   7.358   4.732   8.242
 2309TIP3    H231123   7.485   4.667   8.192
 2310TIP3   OH231124   7.069   4.641   7.497
 2310TIP3    H131125   7.010   4.705   7.542
 2310TIP3    H231126   7.141   4.635   7.564
 2311TIP3   OH231127   7.067   4.554   8.437
 2311TIP3    H131128   7.034   4.636   8.477
 2311TIP3    H231129   7.008   4.550   8.360
 2312TIP3   OH231130   6.239   4.768   7.716
 2312TIP3    H131131   6.187   4.719   7.650
 2312TIP3    H231132   6.297   4.698   7.752
 2313TIP3   OH231133   6.366   5.102   7.980
 2313TIP3    H131134   6.375   5.073   7.888
 2313TIP3    H231135   6.441   5.056   8.023
 2314TIP3   OH231136   6.252   4.628   8.087
 2314TIP3    H131137   6.291   4.634   7.997
 2314TIP3    H231138   6.292   4.708   8.130
 2315TIP3   OH231139   6.906   5.219   8.147
 2315TIP3    H131140   6.891   5.279   8.223
 2315TIP3    H231141   6.889   5.131   8.186
 2316TIP3   OH231142   6.361   5.094   8.523
 2316TIP3    H131143   6.292   5.141   8.575
 2316TIP3    H231144   6.313   5.075   8.440
 2317TIP3   OH231145   6.064   4.720   8.438
 2317TIP3    H131146   6.091   4.795   8.492
 2317TIP3    H231147   5.992   4.686   8.493
 2318TIP3   OH231148   6.194   5.281   8.603
 2318TIP3    H131149   6.169   5.293   8.510
 2318TIP3    H231150   6.108   5.255   8.644
 2319TIP3   OH231151   7.287   3.850   7.297
 2319TIP3    H131152   7.209   3.818   7.251
 2319TIP3    H231153   7.353   3.848   7.225
 2320TIP3   OH231154   6.087   4.666   7.516
 2320TIP3    H131155   6.120   4.739   7.463
 2320TIP3    H231156   6.052   4.604   7.452
 2321TIP3   OH231157   7.465   5.258   7.196
 2321TIP3    H131158   7.439   5.292   7.284
 2321TIP3    H231159   7.559   5.236   7.203
 2322TIP3   OH231160   5.763   4.946   8.367
 2322TIP3    H131161   5.718   4.943   8.281
 2322TIP3    H231162   5.788   4.853   8.384
 2323TIP3   OH231163   5.705   5.201   8.041
 2323TIP3    H131164   5.796   5.171   8.033
 2323TIP3    H231165   5.716   5.280   8.094
 2324TIP3   OH231166   7.535   5.277   8.634
 2324TIP3    H131167   7.524   5.193   8.588
 2324TIP3    H231168   7.446   5.284   8.676
 2325TIP3   OH231169   6.620   5.217   8.523
 2325TIP3    H131170   6.625   5.297   8.578
 2325TIP3    H231171   6.527   5.186   8.531
 2326TIP3   OH231172   6.045   5.481   7.679
 2326TIP3    H131173   6.070   5.448   7.768
 2326TIP3    H231174   5.958   5.439   7.668
 2327TIP3   OH231175   7.225   4.436   8.655
 2327TIP3    H131176   7.177   4.468   8.577
 2327TIP3    H231177   7.249   4.344   8.631
 2328TIP3   OH231178   5.993   5.053   8.457
 2328TIP3    H131179   5.993   5.014   8.549
 2328TIP3    H231180   5.903   5.030   8.425
 2329TIP3   OH231181   6.251   3.939   8.064
 2329TIP3    H131182   6.163   3.946   8.021
 2329TIP3    H231183   6.230   3.981   8.150
 2330TIP3   OH231184   6.730   3.865   8.369
 2330TIP3    H131185   6.768   3.819   8.447
 2330TIP3    H231186   6.633   3.862   8.386
 2331TIP3   OH231187   7.009   4.252   8.467
 2331TIP3    H131188   6.963   4.208   8.543
 2331TIP3    H231189   7.014   4.343   8.498
 2332TIP3   OH231190   7.146   4.682   7.109
 2332TIP3    H131191   7.101   4.753   7.064
 2332TIP3    H231192   7.144   4.711   7.203
 2333TIP3   OH231193   6.715   4.202   7.146
 2333TIP3    H131194   6.664   4.165   7.220
 2333TIP3    H231195   6.647   4.190   7.077
 2334TIP3   OH231196   6.252   4.386   8.174
 2334TIP3    H131197   6.172   4.394   8.229
 2334TIP3    H231198   6.258   4.481   8.143
 2335TIP3   OH231199   6.212   4.390   7.669
 2335TIP3    H131200   6.117   4.401   7.650
 2335TIP3    H231201   6.251   4.392   7.578
 2336TIP3   OH231202   6.789   4.487   7.525
 2336TIP3    H131203   6.819   4.579   7.534
 2336TIP3    H231204   6.870   4.439   7.501
 2337TIP3   OH231205   6.679   4.490   8.674
 2337TIP3    H131206   6.639   4.408   8.711
 2337TIP3    H231207   6.757   4.500   8.731
 2338TIP3   OH231208   6.890   4.421   7.827
 2338TIP3    H131209   6.867   4.502   7.778
 2338TIP3    H231210   6.909   4.357   7.756
 2339TIP3   OH231211   6.001   4.404   8.290
 2339TIP3    H131212   6.037   4.448   8.369
 2339TIP3    H231213   5.969   4.319   8.326
 2340TIP3   OH231214   6.239   4.240   7.043
 2340TIP3    H131215   6.293   4.165   7.077
 2340TIP3    H231216   6.187   4.196   6.972
 2341TIP3   OH231217   5.685   4.126   7.759
 2341TIP3    H131218   5.756   4.131   7.826
 2341TIP3    H231219   5.730   4.138   7.673
 2342TIP3   OH231220   5.795   4.203   7.280
 2342TIP3    H131221   5.870   4.245   7.237
 2342TIP3    H231222   5.729   4.274   7.270
 2343TIP3   OH231223   6.822   4.569   8.257
 2343TIP3    H131224   6.869   4.497   8.207
 2343TIP3    H231225   6.761   4.516   8.313
 2344TIP3   OH231226   6.502   4.173   7.783
 2344TIP3    H131227   6.405   4.171   7.800
 2344TIP3    H231228   6.538   4.114   7.850
 2345TIP3   OH231229   5.936   4.334   7.671
 2345TIP3    H131230   5.883   4.357   7.595
 2345TIP3    H231231   5.983   4.255   7.638
 2346TIP3   OH231232   6.330   4.380   7.430
 2346TIP3    H131233   6.422   4.355   7.450
 2346TIP3    H231234   6.314   4.336   7.346
 2347TIP3   OH231235   6.957   4.091   8.081
 2347TIP3    H131236   6.889   4.082   8.151
 2347TIP3    H231237   6.902   4.056   8.007
 2348TIP3   OH231238   6.181   4.478   7.161
 2348TIP3    H131239   6.108   4.418   7.137
 2348TIP3    H231240   6.253   4.437   7.109
 2349TIP3   OH231241   7.258   5.619   8.743
 2349TIP3    H131242   7.302   5.656   8.664
 2349TIP3    H231243   7.324   5.640   8.811
 2350TIP3   OH231244   6.019   4.900   8.686
 2350TIP3    H131245   6.090   4.912   8.752
 2350TIP3    H231246   5.941   4.889   8.745
 2351TIP3   OH231247   6.597   4.445   7.943
 2351TIP3    H131248   6.664   4.398   7.890
 2351TIP3    H231249   6.567   4.375   8.004
 2352TIP3   OH231250   6.066   4.063   7.589
 2352TIP3    H131251   6.026   3.982   7.627
 2352TIP3    H231252   6.136   4.025   7.533
 2353TIP3   OH231253   6.477   4.256   8.195
 2353TIP3    H131254   6.395   4.311   8.199
 2353TIP3    H231255   6.543   4.313   8.238
 2354TIP3   OH231256   6.530   4.890   7.379
 2354TIP3    H131257   6.458   4.830   7.348
 2354TIP3    H231258   6.493   4.917   7.465
 2355TIP3   OH231259   7.267   4.882   8.239
 2355TIP3    H131260   7.316   4.921   8.165
 2355TIP3    H231261   7.189   4.843   8.194
 2356TIP3   OH231262   6.990   4.170   7.191
 2356TIP3    H131263   6.898   4.192   7.166
 2356TIP3    H231264   7.021   4.252   7.233
 2357TIP3   OH231265   6.664   4.953   8.481
 2357TIP3    H131266   6.654   4.910   8.567
 2357TIP3    H231267   6.657   5.047   8.505
 2358TIP3   OH231268   7.029   4.402   7.373
 2358TIP3    H131269   7.093   4.350   7.425
 2358TIP3    H231270   7.052   4.493   7.405
 2359TIP3   OH231271   6.077   4.848   7.962
 2359TIP3    H131272   6.133   4.822   7.887
 2359TIP3    H231273   6.064   4.763   8.010
 2360TIP3   OH231274   6.723   5.058   7.318
 2360TIP3    H131275   6.690   5.148   7.340
 2360TIP3    H231276   6.645   4.998   7.328
 2361TIP3   OH231277   5.761   4.692   8.488
 2361TIP3    H131278   5.752   4.627   8.560
 2361TIP3    H231279   5.707   4.652   8.417
 2362TIP3   OH231280   6.451   4.634   8.659
 2362TIP3    H131281   6.408   4.576   8.595
 2362TIP3    H231282   6.541   4.595   8.663
 2363TIP3   OH231283   6.945   5.168   8.502
 2363TIP3    H131284   6.860   5.186   8.460
 2363TIP3    H231285   6.931   5.214   8.587
 2364TIP3   OH231286   7.490   4.969   8.588
 2364TIP3    H131287   7.404   5.000   8.549
 2364TIP3    H231288   7.545   4.957   8.507
 2365TIP3   OH231289   7.073   4.764   8.077
 2365TIP3    H131290   6.981   4.777   8.050
 2365TIP3    H231291   7.096   4.690   8.018
 2366TIP3   OH231292   6.290   5.209   7.669
 2366TIP3    H131293   6.310   5.294   7.624
 2366TIP3    H231294   6.194   5.206   7.659
 2367TIP3   OH231295   6.414   4.960   7.621
 2367TIP3    H131296   6.373   5.044   7.650
 2367TIP3    H231297   6.361   4.892   7.670
 2368TIP3   OH231298   6.485   5.376   8.346
 2368TIP3    H131299   6.553   5.431   8.303
 2368TIP3    H231300   6.543   5.323   8.406
 2369TIP3   OH231301   6.302   5.462   7.579
 2369TIP3    H131302   6.212   5.464   7.617
 2369TIP3    H231303   6.334   5.550   7.607
 2370TIP3   OH231304   6.800   4.954   8.238
 2370TIP3    H131305   6.753   4.947   8.325
 2370TIP3    H231306   6.843   4.868   8.238
 2371TIP3   OH231307   7.110   5.408   8.475
 2371TIP3    H131308   7.028   5.360   8.454
 2371TIP3    H231309   7.119   5.472   8.400
 2372TIP3   OH231310   5.933   4.154   8.426
 2372TIP3    H131311   5.861   4.203   8.472
 2372TIP3    H231312   5.932   4.071   8.478
 2373TIP3   OH231313   7.165   4.867   7.308
 2373TIP3    H131314   7.106   4.890   7.381
 2373TIP3    H231315   7.242   4.924   7.324
 2374TIP3   OH231316   5.895   5.327   8.261
 2374TIP3    H131317   5.958   5.253   8.266
 2374TIP3    H231318   5.918   5.377   8.340
 2375TIP3   OH231319   6.461   5.203   6.997
 2375TIP3    H131320   6.415   5.149   6.930
 2375TIP3    H231321   6.468   5.143   7.071
 2376TIP3   OH231322   6.798   4.142   8.349
 2376TIP3    H131323   6.887   4.154   8.389
 2376TIP3    H231324   6.774   4.053   8.381
 2377TIP3   OH231325   6.866   4.082   7.461
 2377TIP3    H131326   6.909   4.121   7.385
 2377TIP3    H231327   6.925   4.112   7.533
 2378TIP3   OH231328   6.657   5.326   7.341
 2378TIP3    H131329   6.561   5.343   7.348
 2378TIP3    H231330   6.682   5.381   7.266
 2379TIP3   OH231331   6.582   4.312   7.530
 2379TIP3    H131332   6.645   4.385   7.545
 2379TIP3    H231333   6.583   4.264   7.615
 2380TIP3   OH231334   6.684   4.393   8.413
 2380TIP3    H131335   6.682   4.419   8.508
 2380TIP3    H231336   6.732   4.308   8.411
 2381TIP3   OH231337   6.717   3.978   7.656
 2381TIP3    H131338   6.631   4.000   7.614
 2381TIP3    H231339   6.780   4.012   7.588
 2382TIP3   OH231340   6.389   5.371   7.345
 2382TIP3    H131341   6.409   5.454   7.295
 2382TIP3    H231342   6.356   5.410   7.429
 2383TIP3   OH231343   7.240   4.160   8.556
 2383TIP3    H131344   7.159   4.178   8.504
 2383TIP3    H231345   7.311   4.172   8.489
 2384TIP3   OH231346   7.116   4.553   7.914
 2384TIP3    H131347   7.042   4.491   7.900
 2384TIP3    H231348   7.167   4.502   7.982
 2385TIP3   OH231349   5.887   4.410   7.070
 2385TIP3    H131350   5.829   4.490   7.067
 2385TIP3    H231351   5.838   4.346   7.018
 2386TIP3   OH231352   7.252   5.463   8.079
 2386TIP3    H131353   7.235   5.538   8.018
 2386TIP3    H231354   7.350   5.461   8.080
 2387TIP3   OH231355   5.998   3.887   7.987
 2387TIP3    H131356   5.992   3.850   7.895
 2387TIP3    H231357   5.968   3.808   8.037
 2388TIP3   OH231358   5.861   5.273   7.607
 2388TIP3    H131359   5.779   5.320   7.621
 2388TIP3    H231360   5.886   5.301   7.518
 2389TIP3   OH231361   5.783   5.532   8.704
 2389TIP3    H131362   5.845   5.517   8.779
 2389TIP3    H231363   5.740   5.445   8.696
 2390TIP3   OH231364   6.231   5.387   8.856
 2390TIP3    H131365   6.322   5.409   8.875
 2390TIP3    H231366   6.230   5.384   8.758
 2391TIP3   OH231367   6.689   5.353   7.042
 2391TIP3    H131368   6.616   5.296   7.010
 2391TIP3    H231369   6.762   5.291   7.063
 2392TIP3   OH231370   6.890   5.279   8.744
 2392TIP3    H131371   6.861   5.190   8.776
 2392TIP3    H231372   6.971   5.288   8.799
 2393TIP3   OH231373   5.768   4.911   8.795
 2393TIP3    H131374   5.728   4.822   8.801
 2393TIP3    H231375   5.718   4.949   8.720
 2394TIP3   OH231376   6.444   4.900   8.695
 2394TIP3    H131377   6.422   4.958   8.619
 2394TIP3    H231378   6.432   4.809   8.660
 2395TIP3   OH231379   7.028   4.878   8.505
 2395TIP3    H131380   7.117   4.920   8.510
 2395TIP3    H231381   6.975   4.959   8.517
 2396TIP3   OH231382   5.914   4.613   8.779
 2396TIP3    H131383   5.996   4.563   8.788
 2396TIP3    H231384   5.919   4.672   8.857
 2397TIP3   OH231385   6.329   4.743   7.275
 2397TIP3    H131386   6.298   4.662   7.318
 2397TIP3    H231387   6.366   4.703   7.194
 2398TIP3   OH231388   6.247   4.523   8.429
 2398TIP3    H131389   6.189   4.601   8.431
 2398TIP3    H231390   6.326   4.568   8.391
 2399TIP3   OH231391   6.479   4.555   7.049
 2399TIP3    H131392   6.414   4.565   6.978
 2399TIP3    H231393   6.552   4.518   6.996
 2400TIP3   OH231394   6.793   4.794   8.813
 2400TIP3    H131395   6.853   4.754   8.748
 2400TIP3    H231396   6.773   4.717   8.872
 2401TIP3   OH231397   6.335   4.282   8.549
 2401TIP3    H131398   6.341   4.210   8.481
 2401TIP3    H231399   6.298   4.357   8.497
 2402TIP3   OH231400   6.359   4.087   8.358
 2402TIP3    H131401   6.411   4.136   8.289
 2402TIP3    H231402   6.268   4.088   8.320
 2403TIP3   OH231403   6.483   4.674   8.355
 2403TIP3    H131404   6.567   4.703   8.318
 2403TIP3    H231405   6.422   4.734   8.307
 2404TIP3   OH231406   6.990   4.393   8.847
 2404TIP3    H131407   7.045   4.320   8.815
 2404TIP3    H231408   7.054   4.464   8.833
 2405TIP3   OH231409   7.065   4.721   8.722
 2405TIP3    H131410   7.039   4.772   8.642
 2405TIP3    H231411   7.156   4.696   8.695
 2406TIP3   OH231412   6.170   4.361   8.768
 2406TIP3    H131413   6.085   4.316   8.748
 2406TIP3    H231414   6.227   4.327   8.695
 2407TIP3   OH231415   6.457   3.839   8.365
 2407TIP3    H131416   6.431   3.933   8.371
 2407TIP3    H231417   6.375   3.799   8.333
 2408TIP3   OH231418   6.549   4.264   8.766
 2408TIP3    H131419   6.488   4.237   8.837
 2408TIP3    H231420   6.491   4.255   8.689
 2409TIP3   OH231421   6.837   4.174   8.668
 2409TIP3    H131422   6.745   4.190   8.695
 2409TIP3    H231423   6.873   4.133   8.750
 2410TIP3   OH231424   7.003   4.066   8.850
 2410TIP3    H131425   6.989   3.969   8.857
 2410TIP3    H231426   6.977   4.100   8.938
 2411TIP3   OH231427   5.960   4.180   8.766
 2411TIP3    H131428   5.957   4.096   8.716
 2411TIP3    H231429   5.938   4.150   8.858
 2412TIP3   OH231430   6.419   3.809   8.647
 2412TIP3    H131431   6.489   3.743   8.660
 2412TIP3    H231432   6.422   3.814   8.549
 2413TIP3   OH231433   6.459   3.932   8.897
 2413TIP3    H131434   6.442   3.895   8.808
 2413TIP3    H231435   6.411   4.018   8.889
 2414TIP3   OH231436   6.454   5.601   7.236
 2414TIP3    H131437   6.552   5.607   7.222
 2414TIP3    H231438   6.427   5.688   7.203
 2415TIP3   OH231439   5.642   5.609   7.619
 2415TIP3    H131440   5.603   5.528   7.584
 2415TIP3    H231441   5.694   5.571   7.692
 2416TIP3   OH231442   5.750   5.448   7.811
 2416TIP3    H131443   5.680   5.397   7.855
 2416TIP3    H231444   5.817   5.453   7.882
 2417TIP3   OH231445   7.530   5.486   8.136
 2417TIP3    H131446   7.525   5.525   8.225
 2417TIP3    H231447   7.547   5.565   8.083
 2418TIP3   OH231448   7.464   5.456   8.417
 2418TIP3    H131449   7.423   5.391   8.357
 2418TIP3    H231450   7.494   5.397   8.488
 2419TIP3   OH231451   7.309   5.037   8.894
 2419TIP3    H131452   7.219   5.050   8.931
 2419TIP3    H231453   7.343   5.128   8.890
 2420TIP3   OH231454   7.446   4.868   7.392
 2420TIP3    H131455   7.524   4.925   7.407
 2420TIP3    H231456   7.448   4.816   7.474
 2421TIP3   OH231457   7.495   4.692   7.596
 2421TIP3    H131458   7.400   4.669   7.592
 2421TIP3    H231459   7.506   4.692   7.691
 2422TIP3   OH231460   7.498   4.946   8.103
 2422TIP3    H131461   7.585   4.934   8.063
 2422TIP3    H231462   7.493   5.045   8.092
 2423TIP3   OH231463   7.308   5.253   8.330
 2423TIP3    H131464   7.230   5.297   8.367
 2423TIP3    H231465   7.280   5.238   8.237
 2424TIP3   OH231466   7.489   4.627   7.234
 2424TIP3    H131467   7.557   4.664   7.174
 2424TIP3    H231468   7.455   4.707   7.278
 2425TIP3   OH231469   7.265   4.559   7.684
 2425TIP3    H131470   7.269   4.462   7.692
 2425TIP3    H231471   7.218   4.581   7.767
 2426TIP3   OH231472   5.741   4.759   8.052
 2426TIP3    H131473   5.744   4.730   7.959
 2426TIP3    H231474   5.832   4.731   8.081
 2427TIP3   OH231475   7.345   4.737   8.629
 2427TIP3    H131476   7.422   4.680   8.611
 2427TIP3    H231477   7.384   4.825   8.618
 2428TIP3   OH231478   7.492   4.515   8.649
 2428TIP3    H131479   7.394   4.514   8.662
 2428TIP3    H231480   7.512   4.421   8.671
 2429TIP3   OH231481   7.225   4.296   7.536
 2429TIP3    H131482   7.240   4.199   7.527
 2429TIP3    H231483   7.316   4.329   7.542
 2430TIP3   OH231484   7.263   4.388   8.059
 2430TIP3    H131485   7.358   4.372   8.040
 2430TIP3    H231486   7.262   4.370   8.154
 2431TIP3   OH231487   7.295   4.427   8.352
 2431TIP3    H131488   7.206   4.463   8.370
 2431TIP3    H231489   7.339   4.509   8.321
 2432TIP3   OH231490   5.744   4.280   8.649
 2432TIP3    H131491   5.828   4.267   8.696
 2432TIP3    H231492   5.693   4.202   8.681
 2433TIP3   OH231493   7.508   3.794   8.844
 2433TIP3    H131494   7.547   3.743   8.772
 2433TIP3    H231495   7.499   3.881   8.800
 2434TIP3   OH231496   7.264   4.035   7.500
 2434TIP3    H131497   7.283   3.982   7.581
 2434TIP3    H231498   7.258   3.963   7.433
 2435TIP3   OH231499   5.853   4.107   7.998
 2435TIP3    H131500   5.905   4.023   7.989
 2435TIP3    H231501   5.927   4.169   8.012
 2436TIP3   OH231502   5.694   4.423   8.069
 2436TIP3    H131503   5.772   4.396   8.018
 2436TIP3    H231504   5.730   4.499   8.116
 2437TIP3   OH231505   7.448   4.022   8.726
 2437TIP3    H131506   7.370   4.077   8.753
 2437TIP3    H231507   7.426   4.002   8.634
 2438TIP3   OH231508   5.714   4.073   7.493
 2438TIP3    H131509   5.623   4.070   7.462
 2438TIP3    H231510   5.758   4.107   7.413
 2439TIP3   OH231511   5.721   3.881   8.304
 2439TIP3    H131512   5.656   3.873   8.377
 2439TIP3    H231513   5.681   3.940   8.240
 2440TIP3   OH231514   5.940   5.218   8.707
 2440TIP3    H131515   5.857   5.235   8.660
 2440TIP3    H231516   5.909   5.192   8.794
 2441TIP3   OH231517   6.215   5.336   8.325
 2441TIP3    H131518   6.215   5.434   8.321
 2441TIP3    H231519   6.311   5.323   8.339
 2442TIP3   OH231520   6.633   5.493   8.643
 2442TIP3    H131521   6.646   5.468   8.736
 2442TIP3    H231522   6.725   5.521   8.617
 2443TIP3   OH231523   6.860   5.626   8.591
 2443TIP3    H131524   6.939   5.583   8.555
 2443TIP3    H231525   6.892   5.660   8.678
 2444TIP3   OH231526   7.357   3.848   8.503
 2444TIP3    H131527   7.281   3.889   8.459
 2444TIP3    H231528   7.361   3.760   8.463
 2445TIP3   OH231529   5.956   5.657   8.337
 2445TIP3    H131530   5.874   5.702   8.305
 2445TIP3    H231531   5.945   5.674   8.432
 2446TIP3   OH231532   6.197   5.605   8.248
 2446TIP3    H131533   6.103   5.624   8.276
 2446TIP3    H231534   6.209   5.672   8.179
 2447TIP3   OH231535   6.669   5.577   8.168
 2447TIP3    H131536   6.592   5.620   8.129
 2447TIP3    H231537   6.688   5.639   8.242
 2448TIP3   OH231538   6.871   5.437   8.316
 2448TIP3    H131539   6.802   5.472   8.257
 2448TIP3    H231540   6.937   5.507   8.311
 2449TIP3   OH231541   7.140   5.589   8.285
 2449TIP3    H131542   7.139   5.682   8.262
 2449TIP3    H231543   7.184   5.549   8.206
 2450TIP3   OH231544   5.917   5.496   8.037
 2450TIP3    H131545   5.909   5.439   8.117
 2450TIP3    H231546   6.005   5.466   8.003
 2451TIP3   OH231547   6.129   5.399   7.912
 2451TIP3    H131548   6.115   5.304   7.935
 2451TIP3    H231549   6.224   5.412   7.935
 2452TIP3   OH231550   6.372   5.414   8.018
 2452TIP3    H131551   6.386   5.318   8.031
 2452TIP3    H231552   6.370   5.447   8.110
 2453TIP3   OH231553   6.766   4.007   7.929
 2453TIP3    H131554   6.693   3.948   7.950
 2453TIP3    H231555   6.760   4.009   7.831
 2454TIP3   OH231556   7.217   3.784   7.914
 2454TIP3    H131557   7.251   3.850   7.850
 2454TIP3    H231558   7.122   3.790   7.887
 2455TIP3   OH231559   7.342   3.929   7.728
 2455TIP3    H131560   7.415   3.864   7.716
 2455TIP3    H231561   7.395   4.003   7.767
 2456TIP3   OH231562   5.959   3.833   7.726
 2456TIP3    H131563   5.867   3.819   7.698
 2456TIP3    H231564   6.001   3.748   7.699
 2457TIP3   OH231565   5.853   3.857   7.250
 2457TIP3    H131566   5.925   3.917   7.218
 2457TIP3    H231567   5.794   3.923   7.289
 2458TIP3   OH231568   6.375   3.843   7.709
 2458TIP3    H131569   6.425   3.891   7.640
 2458TIP3    H231570   6.421   3.875   7.789
 2459TIP3   OH231571   6.979   3.849   7.818
 2459TIP3    H131572   6.952   3.851   7.726
 2459TIP3    H231573   6.907   3.794   7.855
 2460TIP3   OH231574   5.827   5.469   7.362
 2460TIP3    H131575   5.807   5.424   7.279
 2460TIP3    H231576   5.844   5.562   7.333
 2461TIP3   OH231577   6.490   4.006   7.504
 2461TIP3    H131578   6.477   3.979   7.411
 2461TIP3    H231579   6.482   4.102   7.494
 2462TIP3   OH231580   6.711   5.599   7.162
 2462TIP3    H131581   6.803   5.589   7.189
 2462TIP3    H231582   6.701   5.524   7.099
 2463TIP3   OH231583   5.926   3.922   8.648
 2463TIP3    H131584   5.872   3.842   8.655
 2463TIP3    H231585   6.004   3.899   8.703
 2464TIP3   OH231586   6.119   3.851   8.832
 2464TIP3    H131587   6.212   3.830   8.808
 2464TIP3    H231588   6.090   3.761   8.859
 2465TIP3   OH231589   6.992   3.788   8.847
 2465TIP3    H131590   6.988   3.734   8.929
 2465TIP3    H231591   7.076   3.753   8.809
 2466TIP3   OH231592   7.285   5.335   8.666
 2466TIP3    H131593   7.228   5.352   8.587
 2466TIP3    H231594   7.299   5.426   8.698
 2467TIP3   OH231595   7.544   4.437   7.511
 2467TIP3    H131596   7.535   4.518   7.564
 2467TIP3    H231597   7.539   4.476   7.422
 2468TIP3   OH231598   7.590   4.901   8.353
 2468TIP3    H131599   7.541   4.892   8.268
 2468TIP3    H231600   7.597   4.809   8.386
 2469TIP3   OH231601   7.550   5.197   8.038
 2469TIP3    H131602   7.646   5.203   8.013
 2469TIP3    H231603   7.537   5.286   8.076
 2470TIP3   OH231604   7.519   4.134   7.754
 2470TIP3    H131605   7.615   4.158   7.762
 2470TIP3    H231606   7.506   4.147   7.660
 2471TIP3   OH231607   7.598   4.654   8.456
 2471TIP3    H131608   7.582   4.594   8.533
 2471TIP3    H231609   7.518   4.635   8.404
 2472TIP3   OH231610   7.649   4.842   8.759
 2472TIP3    H131611   7.593   4.771   8.797
 2472TIP3    H231612   7.584   4.892   8.705
 2473TIP3   OH231613   7.494   5.626   7.665
 2473TIP3    H131614   7.413   5.605   7.610
 2473TIP3    H231615   7.505   5.539   7.712
 2474TIP3   OH231616   7.544   5.407   7.810
 2474TIP3    H131617   7.549   5.312   7.828
 2474TIP3    H231618   7.634   5.436   7.838
 2475TIP3   OH231619   7.629   4.674   8.087
 2475TIP3    H131620   7.604   4.708   8.001
 2475TIP3    H231621   7.706   4.732   8.106
 2476TIP3   OH231622   7.550   4.263   8.696
 2476TIP3    H131623   7.647   4.266   8.680
 2476TIP3    H231624   7.536   4.168   8.715
 2477TIP3   OH231625   7.523   4.382   8.063
 2477TIP3    H131626   7.619   4.370   8.045
 2477TIP3    H231627   7.525   4.478   8.082
 2478TIP3   OH231628   7.519   4.061   7.426
 2478TIP3    H131629   7.425   4.063   7.454
 2478TIP3    H231630   7.528   3.972   7.388
 2479TIP3   OH231631   7.482   3.865   8.260
 2479TIP3    H131632   7.469   3.877   8.356
 2479TIP3    H231633   7.452   3.952   8.225
 2480TIP3   OH231634   1.219   6.684   7.656
 2480TIP3    H131635   1.214   6.764   7.600
 2480TIP3    H231636   1.142   6.636   7.624
 2481TIP3   OH231637   1.097   6.549   8.004
 2481TIP3    H131638   1.107   6.509   8.095
 2481TIP3    H231639   1.030   6.490   7.965
 2482TIP3   OH231640   0.333   6.531   8.165
 2482TIP3    H131641   0.321   6.455   8.225
 2482TIP3    H231642   0.408   6.574   8.208
 2483TIP3   OH231643   0.359   6.997   7.981
 2483TIP3    H131644   0.346   6.902   7.959
 2483TIP3    H231645   0.454   6.991   7.997
 2484TIP3   OH231646   0.164   6.373   7.556
 2484TIP3    H131647   0.085   6.424   7.576
 2484TIP3    H231648   0.134   6.285   7.584
 2485TIP3   OH231649   0.119   6.557   7.839
 2485TIP3    H131650   0.177   6.478   7.824
 2485TIP3    H231651   0.166   6.627   7.792
 2486TIP3   OH231652   0.914   6.807   8.106
 2486TIP3    H131653   0.959   6.755   8.037
 2486TIP3    H231654   0.994   6.841   8.153
 2487TIP3   OH231655   1.790   5.957   8.119
 2487TIP3    H131656   1.797   6.027   8.187
 2487TIP3    H231657   1.860   5.985   8.057
 2488TIP3   OH231658   1.295   6.270   8.117
 2488TIP3    H131659   1.299   6.175   8.139
 2488TIP3    H231660   1.290   6.263   8.019
 2489TIP3   OH231661   1.337   6.085   7.676
 2489TIP3    H131662   1.389   6.064   7.756
 2489TIP3    H231663   1.402   6.138   7.627
 2490TIP3   OH231664   0.257   6.330   7.849
 2490TIP3    H131665   0.301   6.277   7.917
 2490TIP3    H231666   0.200   6.259   7.809
 2491TIP3   OH231667   0.679   6.493   7.832
 2491TIP3    H131668   0.758   6.462   7.878
 2491TIP3    H231669   0.675   6.433   7.755
 2492TIP3   OH231670   1.794   6.118   8.355
 2492TIP3    H131671   1.746   6.194   8.311
 2492TIP3    H231672   1.816   6.160   8.439
 2493TIP3   OH231673   0.458   5.953   8.218
 2493TIP3    H131674   0.438   6.022   8.153
 2493TIP3    H231675   0.410   5.989   8.295
 2494TIP3   OH231676   0.707   6.743   8.256
 2494TIP3    H131677   0.650   6.821   8.272
 2494TIP3    H231678   0.777   6.782   8.198
 2495TIP3   OH231679   1.509   6.073   7.882
 2495TIP3    H131680   1.507   5.981   7.912
 2495TIP3    H231681   1.596   6.106   7.913
 2496TIP3   OH231682   0.414   6.164   8.027
 2496TIP3    H131683   0.462   6.230   8.083
 2496TIP3    H231684   0.482   6.146   7.961
 2497TIP3   OH231685   0.568   6.963   8.319
 2497TIP3    H131686   0.555   7.056   8.293
 2497TIP3    H231687   0.480   6.944   8.356
 2498TIP3   OH231688   0.090   6.897   7.374
 2498TIP3    H131689   0.111   6.919   7.280
 2498TIP3    H231690   0.138   6.966   7.422
 2499TIP3   OH231691   1.512   7.091   8.129
 2499TIP3    H131692   1.418   7.106   8.146
 2499TIP3    H231693   1.536   7.165   8.071
 2500TIP3   OH231694   1.508   5.893   8.208
 2500TIP3    H131695   1.439   5.953   8.173
 2500TIP3    H231696   1.582   5.906   8.146
 2501TIP3   OH231697   0.801   5.715   7.953
 2501TIP3    H131698   0.781   5.626   7.920
 2501TIP3    H231699   0.764   5.711   8.042
 2502TIP3   OH231700   1.620   6.895   8.461
 2502TIP3    H131701   1.630   6.819   8.400
 2502TIP3    H231702   1.641   6.968   8.400
 2503TIP3   OH231703   1.088   6.599   7.407
 2503TIP3    H131704   1.029   6.672   7.376
 2503TIP3    H231705   1.163   6.599   7.343
 2504TIP3   OH231706   1.821   6.545   8.251
 2504TIP3    H131707   1.760   6.621   8.255
 2504TIP3    H231708   1.883   6.578   8.182
 2505TIP3   OH231709   1.439   6.594   7.520
 2505TIP3    H131710   1.366   6.639   7.569
 2505TIP3    H231711   1.498   6.564   7.591
 2506TIP3   OH231712   1.429   6.446   8.429
 2506TIP3    H131713   1.394   6.531   8.457
 2506TIP3    H231714   1.373   6.430   8.351
 2507TIP3   OH231715   0.596   6.712   7.698
 2507TIP3    H131716   0.541   6.666   7.630
 2507TIP3    H231717   0.631   6.634   7.746
 2508TIP3   OH231718   0.721   6.988   7.986
 2508TIP3    H131719   0.741   6.990   7.891
 2508TIP3    H231720   0.795   6.937   8.024
 2509TIP3   OH231721   0.630   6.539   8.100
 2509TIP3    H131722   0.654   6.566   8.010
 2509TIP3    H231723   0.657   6.617   8.153
 2510TIP3   OH231724   0.706   6.970   8.555
 2510TIP3    H131725   0.632   7.021   8.595
 2510TIP3    H231726   0.676   6.966   8.460
 2511TIP3   OH231727   1.320   6.541   7.291
 2511TIP3    H131728   1.346   6.515   7.382
 2511TIP3    H231729   1.377   6.618   7.283
 2512TIP3   OH231730   0.438   6.608   8.445
 2512TIP3    H131731   0.427   6.680   8.509
 2512TIP3    H231732   0.349   6.566   8.449
 2513TIP3   OH231733   0.524   7.170   8.633
 2513TIP3    H131734   0.515   7.178   8.536
 2513TIP3    H231735   0.430   7.159   8.658
 2514TIP3   OH231736   1.666   5.701   7.345
 2514TIP3    H131737   1.573   5.722   7.367
 2514TIP3    H231738   1.694   5.775   7.287
 2515TIP3   OH231739   0.461   6.561   7.512
 2515TIP3    H131740   0.409   6.627   7.461
 2515TIP3    H231741   0.424   6.479   7.478
 2516TIP3   OH231742   0.157   6.793   8.390
 2516TIP3    H131743   0.061   6.784   8.372
 2516TIP3    H231744   0.189   6.701   8.380
 2517TIP3   OH231745   0.129   7.119   7.986
 2517TIP3    H131746   0.209   7.060   7.987
 2517TIP3    H231747   0.139   7.161   8.073
 2518TIP3   OH231748   1.862   7.158   8.623
 2518TIP3    H131749   1.851   7.061   8.634
 2518TIP3    H231750   1.771   7.186   8.650
 2519TIP3   OH231751   0.956   7.094   8.475
 2519TIP3    H131752   0.968   7.171   8.533
 2519TIP3    H231753   0.874   7.053   8.508
 2520TIP3   OH231754   0.998   7.576   7.456
 2520TIP3    H131755   1.024   7.518   7.385
 2520TIP3    H231756   1.053   7.655   7.440
 2521TIP3   OH231757   0.395   7.342   7.658
 2521TIP3    H131758   0.412   7.335   7.755
 2521TIP3    H231759   0.308   7.297   7.652
 2522TIP3   OH231760   1.576   6.297   8.639
 2522TIP3    H131761   1.518   6.334   8.569
 2522TIP3    H231762   1.571   6.203   8.617
 2523TIP3   OH231763   0.316   6.990   8.440
 2523TIP3    H131764   0.308   6.967   8.534
 2523TIP3    H231765   0.249   6.926   8.407
 2524TIP3   OH231766   1.061   5.751   8.364
 2524TIP3    H131767   1.098   5.702   8.441
 2524TIP3    H231768   0.965   5.748   8.381
 2525TIP3   OH231769   1.345   6.165   8.507
 2525TIP3    H131770   1.289   6.108   8.568
 2525TIP3    H231771   1.293   6.247   8.510
 2526TIP3   OH231772   0.592   6.289   8.171
 2526TIP3    H131773   0.519   6.300   8.235
 2526TIP3    H231774   0.611   6.383   8.149
 2527TIP3   OH231775   1.110   6.379   7.558
 2527TIP3    H131776   1.106   6.461   7.504
 2527TIP3    H231777   1.193   6.339   7.522
 2528TIP3   OH231778   1.029   6.369   8.692
 2528TIP3    H131779   0.989   6.285   8.725
 2528TIP3    H231780   1.107   6.377   8.748
 2529TIP3   OH231781   1.259   6.310   7.841
 2529TIP3    H131782   1.235   6.392   7.795
 2529TIP3    H231783   1.276   6.250   7.766
 2530TIP3   OH231784   0.363   6.291   8.308
 2530TIP3    H131785   0.399   6.341   8.382
 2530TIP3    H231786   0.321   6.214   8.352
 2531TIP3   OH231787   0.124   6.124   7.775
 2531TIP3    H131788   0.155   6.047   7.828
 2531TIP3    H231789   0.128   6.089   7.683
 2532TIP3   OH231790   0.099   6.197   7.260
 2532TIP3    H131791   0.183   6.225   7.222
 2532TIP3    H231792   0.124   6.167   7.349
 2533TIP3   OH231793   1.146   6.446   8.253
 2533TIP3    H131794   1.211   6.384   8.213
 2533TIP3    H231795   1.099   6.390   8.319
 2534TIP3   OH231796   0.652   6.238   7.461
 2534TIP3    H131797   0.741   6.211   7.434
 2534TIP3    H231798   0.614   6.263   7.374
 2535TIP3   OH231799   1.277   5.988   8.078
 2535TIP3    H131800   1.208   5.960   8.140
 2535TIP3    H231801   1.255   5.935   7.999
 2536TIP3   OH231802   0.606   6.291   7.190
 2536TIP3    H131803   0.521   6.309   7.148
 2536TIP3    H231804   0.667   6.343   7.135
 2537TIP3   OH231805   1.546   7.549   8.721
 2537TIP3    H131806   1.567   7.573   8.630
 2537TIP3    H231807   1.637   7.560   8.761
 2538TIP3   OH231808   0.383   6.785   8.670
 2538TIP3    H131809   0.466   6.799   8.719
 2538TIP3    H231810   0.318   6.814   8.738
 2539TIP3   OH231811   0.963   6.326   7.918
 2539TIP3    H131812   1.052   6.302   7.887
 2539TIP3    H231813   0.959   6.278   8.002
 2540TIP3   OH231814   0.827   6.158   8.204
 2540TIP3    H131815   0.756   6.221   8.222
 2540TIP3    H231816   0.903   6.199   8.249
 2541TIP3   OH231817   0.883   6.778   7.370
 2541TIP3    H131818   0.795   6.744   7.350
 2541TIP3    H231819   0.869   6.830   7.452
 2542TIP3   OH231820   1.631   6.749   8.245
 2542TIP3    H131821   1.673   6.789   8.165
 2542TIP3    H231822   1.542   6.729   8.209
 2543TIP3   OH231823   1.026   6.833   8.484
 2543TIP3    H131824   1.018   6.790   8.570
 2543TIP3    H231825   1.018   6.928   8.505
 2544TIP3   OH231826   1.322   6.303   7.410
 2544TIP3    H131827   1.410   6.262   7.419
 2544TIP3    H231828   1.324   6.338   7.319
 2545TIP3   OH231829   0.440   6.751   7.927
 2545TIP3    H131830   0.495   6.754   7.845
 2545TIP3    H231831   0.455   6.662   7.961
 2546TIP3   OH231832   0.182   6.520   8.441
 2546TIP3    H131833   0.179   6.502   8.537
 2546TIP3    H231834   0.086   6.526   8.419
 2547TIP3   OH231835   0.813   6.531   8.667
 2547TIP3    H131836   0.766   6.470   8.609
 2547TIP3    H231837   0.901   6.486   8.671
 2548TIP3   OH231838   1.288   7.056   8.497
 2548TIP3    H131839   1.222   7.085   8.433
 2548TIP3    H231840   1.258   7.100   8.579
 2549TIP3   OH231841   1.787   6.289   7.386
 2549TIP3    H131842   1.766   6.270   7.293
 2549TIP3    H231843   1.809   6.384   7.382
 2550TIP3   OH231844   1.846   6.877   8.598
 2550TIP3    H131845   1.750   6.888   8.577
 2550TIP3    H231846   1.882   6.874   8.507
 2551TIP3   OH231847   1.707   7.126   7.335
 2551TIP3    H131848   1.645   7.059   7.368
 2551TIP3    H231849   1.664   7.149   7.250
 2552TIP3   OH231850   1.418   6.618   8.107
 2552TIP3    H131851   1.325   6.604   8.083
 2552TIP3    H231852   1.461   6.553   8.048
 2553TIP3   OH231853   0.641   7.079   7.671
 2553TIP3    H131854   0.655   7.163   7.621
 2553TIP3    H231855   0.545   7.070   7.667
 2554TIP3   OH231856   0.186   6.544   7.114
 2554TIP3    H131857   0.270   6.593   7.124
 2554TIP3    H231858   0.157   6.531   7.205
 2555TIP3   OH231859   0.814   6.860   7.633
 2555TIP3    H131860   0.747   6.931   7.640
 2555TIP3    H231861   0.759   6.781   7.642
 2556TIP3   OH231862   0.834   7.257   8.300
 2556TIP3    H131863   0.874   7.346   8.305
 2556TIP3    H231864   0.897   7.202   8.352
 2557TIP3   OH231865   0.639   7.328   7.561
 2557TIP3    H131866   0.548   7.345   7.595
 2557TIP3    H231867   0.688   7.388   7.620
 2558TIP3   OH231868   1.147   6.856   8.238
 2558TIP3    H131869   1.116   6.847   8.332
 2558TIP3    H231870   1.204   6.778   8.228
 2559TIP3   OH231871   1.450   7.315   8.484
 2559TIP3    H131872   1.372   7.263   8.455
 2559TIP3    H231873   1.462   7.383   8.414
 2560TIP3   OH231874   0.278   6.055   8.416
 2560TIP3    H131875   0.239   6.094   8.497
 2560TIP3    H231876   0.251   5.962   8.424
 2561TIP3   OH231877   0.241   7.206   8.264
 2561TIP3    H131878   0.301   7.136   8.296
 2561TIP3    H231879   0.242   7.265   8.339
 2562TIP3   OH231880   0.747   7.076   7.253
 2562TIP3    H131881   0.791   6.992   7.229
 2562TIP3    H231882   0.787   7.092   7.340
 2563TIP3   OH231883   0.319   6.718   7.324
 2563TIP3    H131884   0.244   6.781   7.326
 2563TIP3    H231885   0.382   6.764   7.266
 2564TIP3   OH231886   1.135   6.015   8.348
 2564TIP3    H131887   1.227   6.029   8.377
 2564TIP3    H231888   1.117   5.920   8.367
 2565TIP3   OH231889   1.179   5.980   7.476
 2565TIP3    H131890   1.201   6.006   7.386
 2565TIP3    H231891   1.248   6.020   7.533
 2566TIP3   OH231892   0.969   6.152   7.593
 2566TIP3    H131893   1.017   6.225   7.549
 2566TIP3    H231894   0.923   6.199   7.662
 2567TIP3   OH231895   1.050   6.260   8.428
 2567TIP3    H131896   1.061   6.280   8.523
 2567TIP3    H231897   1.068   6.162   8.424
 2568TIP3   OH231898   1.035   5.828   7.633
 2568TIP3    H131899   0.984   5.899   7.675
 2568TIP3    H231900   1.101   5.886   7.585
 2569TIP3   OH231901   1.590   6.027   8.522
 2569TIP3    H131902   1.497   6.053   8.505
 2569TIP3    H231903   1.636   6.060   8.442
 2570TIP3   OH231904   1.502   6.417   7.920
 2570TIP3    H131905   1.426   6.357   7.911
 2570TIP3    H231906   1.567   6.363   7.968
 2571TIP3   OH231907   0.251   6.292   7.018
 2571TIP3    H131908   0.260   6.387   7.040
 2571TIP3    H231909   0.155   6.286   7.014
 2572TIP3   OH231910   1.580   7.368   8.095
 2572TIP3    H131911   1.587   7.427   8.016
 2572TIP3    H231912   1.670   7.334   8.096
 2573TIP3   OH231913   0.212   7.097   7.529
 2573TIP3    H131914   0.128   7.132   7.559
 2573TIP3    H231915   0.236   7.168   7.465
 2574TIP3   OH231916   0.125   7.427   8.683
 2574TIP3    H131917   0.215   7.447   8.713
 2574TIP3    H231918   0.113   7.341   8.724
 2575TIP3   OH231919   0.658   7.273   8.867
 2575TIP3    H131920   0.740   7.227   8.844
 2575TIP3    H231921   0.607   7.259   8.786
 2576TIP3   OH231922   1.241   7.158   8.750
 2576TIP3    H131923   1.201   7.070   8.769
 2576TIP3    H231924   1.320   7.153   8.806
 2577TIP3   OH231925   0.186   6.835   8.847
 2577TIP3    H131926   0.188   6.741   8.824
 2577TIP3    H231927   0.095   6.851   8.815
 2578TIP3   OH231928   0.801   6.789   8.724
 2578TIP3    H131929   0.775   6.839   8.643
 2578TIP3    H231930   0.797   6.694   8.696
 2579TIP3   OH231931   1.087   6.965   7.002
 2579TIP3    H131932   1.109   6.992   7.093
 2579TIP3    H231933   1.026   6.893   7.021
 2580TIP3   OH231934   1.361   6.768   8.496
 2580TIP3    H131935   1.449   6.811   8.493
 2580TIP3    H231936   1.306   6.849   8.500
 2581TIP3   OH231937   0.229   6.499   8.775
 2581TIP3    H131938   0.298   6.430   8.767
 2581TIP3    H231939   0.241   6.530   8.867
 2582TIP3   OH231940   0.623   6.401   8.445
 2582TIP3    H131941   0.568   6.480   8.465
 2582TIP3    H231942   0.699   6.443   8.399
 2583TIP3   OH231943   0.785   6.446   7.060
 2583TIP3    H131944   0.798   6.540   7.040
 2583TIP3    H231945   0.853   6.427   7.126
 2584TIP3   OH231946   1.157   6.668   8.818
 2584TIP3    H131947   1.235   6.619   8.788
 2584TIP3    H231948   1.117   6.601   8.879
 2585TIP3   OH231949   0.670   6.163   8.564
 2585TIP3    H131950   0.676   6.098   8.492
 2585TIP3    H231951   0.666   6.248   8.515
 2586TIP3   OH231952   0.695   5.966   8.338
 2586TIP3    H131953   0.744   6.023   8.274
 2586TIP3    H231954   0.609   5.952   8.292
 2587TIP3   OH231955   0.840   6.542   8.347
 2587TIP3    H131956   0.919   6.589   8.315
 2587TIP3    H231957   0.775   6.612   8.325
 2588TIP3   OH231958   1.271   6.302   8.856
 2588TIP3    H131959   1.300   6.212   8.837
 2588TIP3    H231960   1.353   6.348   8.878
 2589TIP3   OH231961   1.437   6.618   8.707
 2589TIP3    H131962   1.393   6.669   8.635
 2589TIP3    H231963   1.527   6.611   8.670
 2590TIP3   OH231964   0.436   6.304   8.729
 2590TIP3    H131965   0.391   6.221   8.755
 2590TIP3    H231966   0.510   6.268   8.678
 2591TIP3   OH231967   0.790   5.721   8.364
 2591TIP3    H131968   0.764   5.816   8.359
 2591TIP3    H231969   0.715   5.680   8.319
 2592TIP3   OH231970   0.897   6.140   8.759
 2592TIP3    H131971   0.844   6.117   8.838
 2592TIP3    H231972   0.828   6.138   8.690
 2593TIP3   OH231973   1.170   6.065   8.675
 2593TIP3    H131974   1.074   6.066   8.692
 2593TIP3    H231975   1.201   6.013   8.752
 2594TIP3   OH231976   1.326   5.933   8.854
 2594TIP3    H131977   1.324   5.835   8.849
 2594TIP3    H231978   1.312   5.948   8.950
 2595TIP3   OH231979   0.313   6.056   8.790
 2595TIP3    H131980   0.335   5.973   8.746
 2595TIP3    H231981   0.274   6.020   8.874
 2596TIP3   OH231982   0.780   5.697   8.649
 2596TIP3    H131983   0.860   5.640   8.657
 2596TIP3    H231984   0.773   5.697   8.551
 2597TIP3   OH231985   0.785   5.815   8.894
 2597TIP3    H131986   0.785   5.770   8.806
 2597TIP3    H231987   0.739   5.899   8.877
 2598TIP3   OH231988   0.169   6.962   7.115
 2598TIP3    H131989   0.234   7.027   7.079
 2598TIP3    H231990   0.152   6.903   7.040
 2599TIP3   OH231991   0.047   7.492   7.546
 2599TIP3    H131992  -0.043   7.521   7.572
 2599TIP3    H231993   0.052   7.411   7.599
 2600TIP3   OH231994   0.164   7.309   7.800
 2600TIP3    H131995   0.145   7.216   7.825
 2600TIP3    H231996   0.187   7.346   7.887
 2601TIP3   OH231997   1.876   7.420   8.069
 2601TIP3    H131998   1.897   7.453   8.160
 2601TIP3    H231999   1.897   7.497   8.014
 2602TIP3   OH232000   1.807   7.347   8.426
 2602TIP3    H132001   1.785   7.279   8.359
 2602TIP3    H232002   1.847   7.288   8.493
 2603TIP3   OH232003   1.664   6.955   8.860
 2603TIP3    H132004   1.579   6.947   8.907
 2603TIP3    H232005   1.698   7.039   8.895
 2604TIP3   OH232006   1.797   6.763   7.402
 2604TIP3    H132007   1.883   6.808   7.418
 2604TIP3    H232008   1.798   6.695   7.471
 2605TIP3   OH232009   1.817   6.587   7.609
 2605TIP3    H132010   1.742   6.525   7.625
 2605TIP3    H232011   1.849   6.603   7.699
 2606TIP3   OH232012   1.777   6.846   8.054
 2606TIP3    H132013   1.849   6.780   8.047
 2606TIP3    H232014   1.828   6.928   8.043
 2607TIP3   OH232015   1.670   7.131   8.331
 2607TIP3    H132016   1.604   7.175   8.388
 2607TIP3    H232017   1.616   7.101   8.255
 2608TIP3   OH232018   1.722   6.291   7.096
 2608TIP3    H132019   1.707   6.350   7.021
 2608TIP3    H232020   1.642   6.235   7.094
 2609TIP3   OH232021   1.618   6.427   7.670
 2609TIP3    H132022   1.599   6.334   7.643
 2609TIP3    H232023   1.585   6.431   7.762
 2610TIP3   OH232024   0.166   6.717   8.049
 2610TIP3    H132025   0.159   6.650   7.978
 2610TIP3    H232026   0.250   6.690   8.091
 2611TIP3   OH232027   1.721   6.626   8.624
 2611TIP3    H132028   1.764   6.539   8.639
 2611TIP3    H232029   1.794   6.684   8.596
 2612TIP3   OH232030   1.825   6.374   8.650
 2612TIP3    H132031   1.730   6.347   8.647
 2612TIP3    H232032   1.870   6.289   8.665
 2613TIP3   OH232033   1.563   6.201   7.531
 2613TIP3    H132034   1.579   6.103   7.533
 2613TIP3    H232035   1.641   6.226   7.479
 2614TIP3   OH232036   1.679   6.248   8.054
 2614TIP3    H132037   1.778   6.262   8.060
 2614TIP3    H232038   1.656   6.270   8.146
 2615TIP3   OH232039   1.651   6.334   8.303
 2615TIP3    H132040   1.566   6.373   8.331
 2615TIP3    H232041   1.703   6.416   8.287
 2616TIP3   OH232042   0.125   6.129   8.623
 2616TIP3    H132043   0.196   6.138   8.691
 2616TIP3    H232044   0.116   6.033   8.621
 2617TIP3   OH232045   1.894   5.751   8.871
 2617TIP3    H132046   1.936   5.676   8.827
 2617TIP3    H232047   1.880   5.818   8.800
 2618TIP3   OH232048   1.641   5.948   7.546
 2618TIP3    H132049   1.668   5.891   7.621
 2618TIP3    H232050   1.581   5.890   7.497
 2619TIP3   OH232051   0.207   5.974   7.988
 2619TIP3    H132052   0.228   5.903   8.050
 2619TIP3    H232053   0.210   6.056   8.041
 2620TIP3   OH232054   0.087   6.304   8.054
 2620TIP3    H132055   0.132   6.335   7.973
 2620TIP3    H232056   0.111   6.373   8.116
 2621TIP3   OH232057   1.818   5.917   8.677
 2621TIP3    H132058   1.750   5.957   8.737
 2621TIP3    H232059   1.773   5.941   8.594
 2622TIP3   OH232060   1.813   5.911   7.218
 2622TIP3    H132061   1.804   5.854   7.139
 2622TIP3    H232062   1.893   5.961   7.195
 2623TIP3   OH232063   0.132   6.002   7.538
 2623TIP3    H132064   0.045   5.959   7.544
 2623TIP3    H232065   0.187   5.928   7.507
 2624TIP3   OH232066   1.531   7.404   7.672
 2624TIP3    H132067   1.609   7.381   7.616
 2624TIP3    H232068   1.570   7.453   7.745
 2625TIP3   OH232069   0.069   5.769   8.324
 2625TIP3    H132070  -0.019   5.750   8.361
 2625TIP3    H232071   0.044   5.821   8.246
 2626TIP3   OH232072   0.267   7.117   8.712
 2626TIP3    H132073   0.179   7.122   8.674
 2626TIP3    H232074   0.250   7.106   8.807
 2627TIP3   OH232075   0.577   7.224   8.377
 2627TIP3    H132076   0.564   7.315   8.343
 2627TIP3    H232077   0.674   7.220   8.371
 2628TIP3   OH232078   0.998   7.315   8.637
 2628TIP3    H132079   0.999   7.307   8.735
 2628TIP3    H232080   1.075   7.374   8.621
 2629TIP3   OH232081   1.244   7.506   8.574
 2629TIP3    H132082   1.326   7.455   8.557
 2629TIP3    H232083   1.250   7.510   8.672
 2630TIP3   OH232084   1.690   5.729   8.495
 2630TIP3    H132085   1.635   5.791   8.444
 2630TIP3    H232086   1.656   5.644   8.462
 2631TIP3   OH232087   0.312   7.577   8.358
 2631TIP3    H132088   0.241   7.589   8.292
 2631TIP3    H232089   0.261   7.550   8.435
 2632TIP3   OH232090   0.533   7.465   8.267
 2632TIP3    H132091   0.451   7.498   8.309
 2632TIP3    H232092   0.532   7.519   8.186
 2633TIP3   OH232093   1.026   7.483   8.150
 2633TIP3    H132094   0.937   7.493   8.111
 2633TIP3    H232095   1.029   7.560   8.211
 2634TIP3   OH232096   1.229   7.341   8.257
 2634TIP3    H132097   1.155   7.395   8.221
 2634TIP3    H232098   1.295   7.409   8.277
 2635TIP3   OH232099   1.457   7.526   8.294
 2635TIP3    H132100   1.445   7.623   8.292
 2635TIP3    H232101   1.500   7.506   8.208
 2636TIP3   OH232102   0.267   7.359   8.051
 2636TIP3    H132103   0.266   7.309   8.135
 2636TIP3    H232104   0.344   7.320   8.004
 2637TIP3   OH232105   0.481   7.281   7.904
 2637TIP3    H132106   0.479   7.184   7.907
 2637TIP3    H232107   0.569   7.295   7.947
 2638TIP3   OH232108   0.708   7.264   8.048
 2638TIP3    H132109   0.731   7.169   8.038
 2638TIP3    H232110   0.741   7.283   8.138
 2639TIP3   OH232111   1.078   5.845   7.930
 2639TIP3    H132112   0.983   5.857   7.917
 2639TIP3    H232113   1.101   5.799   7.848
 2640TIP3   OH232114   1.591   5.676   7.907
 2640TIP3    H132115   1.651   5.740   7.862
 2640TIP3    H232116   1.503   5.700   7.869
 2641TIP3   OH232117   1.756   5.818   7.756
 2641TIP3    H132118   1.819   5.759   7.708
 2641TIP3    H232119   1.811   5.900   7.764
 2642TIP3   OH232120   1.336   5.732   7.826
 2642TIP3    H132121   1.314   5.737   7.732
 2642TIP3    H232122   1.285   5.653   7.853
 2643TIP3   OH232123   1.395   5.746   7.390
 2643TIP3    H132124   1.352   5.754   7.301
 2643TIP3    H232125   1.369   5.656   7.419
 2644TIP3   OH232126   0.205   7.306   7.369
 2644TIP3    H132127   0.114   7.307   7.338
 2644TIP3    H232128   0.239   7.386   7.325
 2645TIP3   OH232129   0.891   5.945   7.372
 2645TIP3    H132130   0.947   5.894   7.431
 2645TIP3    H232131   0.937   6.029   7.366
 2646TIP3   OH232132   1.720   7.352   7.492
 2646TIP3    H132133   1.719   7.264   7.447
 2646TIP3    H232134   1.720   7.412   7.414
 2647TIP3   OH232135   0.260   5.782   8.655
 2647TIP3    H132136   0.216   5.694   8.664
 2647TIP3    H232137   0.347   5.763   8.695
 2648TIP3   OH232138   0.490   5.724   8.838
 2648TIP3    H132139   0.584   5.719   8.812
 2648TIP3    H232140   0.475   5.631   8.858
 2649TIP3   OH232141   1.318   5.664   8.831
 2649TIP3    H132142   1.322   5.602   8.907
 2649TIP3    H232143   1.409   5.654   8.798
 2650TIP3   OH232144   1.621   7.253   8.694
 2650TIP3    H132145   1.545   7.259   8.633
 2650TIP3    H232146   1.646   7.346   8.703
 2651TIP3   OH232147   3.109   6.655   7.676
 2651TIP3    H132148   3.095   6.746   7.706
 2651TIP3    H232149   3.033   6.645   7.617
 2652TIP3   OH232150   2.994   6.560   8.028
 2652TIP3    H132151   2.992   6.500   8.106
 2652TIP3    H232152   2.924   6.520   7.973
 2653TIP3   OH232153   2.187   6.545   8.180
 2653TIP3    H132154   2.210   6.468   8.233
 2653TIP3    H232155   2.264   6.603   8.192
 2654TIP3   OH232156   3.321   6.848   7.873
 2654TIP3    H132157   3.306   6.775   7.937
 2654TIP3    H232158   3.321   6.926   7.930
 2655TIP3   OH232159   2.307   7.000   8.007
 2655TIP3    H132160   2.278   6.913   7.970
 2655TIP3    H232161   2.403   6.984   8.001
 2656TIP3   OH232162   1.980   6.338   7.563
 2656TIP3    H132163   1.944   6.428   7.572
 2656TIP3    H232164   1.899   6.289   7.541
 2657TIP3   OH232165   2.039   6.573   7.836
 2657TIP3    H132166   2.080   6.484   7.853
 2657TIP3    H232167   2.093   6.609   7.765
 2658TIP3   OH232168   3.039   7.371   7.852
 2658TIP3    H132169   3.119   7.329   7.811
 2658TIP3    H232170   3.011   7.298   7.909
 2659TIP3   OH232171   2.806   6.836   8.084
 2659TIP3    H132172   2.836   6.770   8.021
 2659TIP3    H232173   2.888   6.847   8.137
 2660TIP3   OH232174   3.663   5.969   8.159
 2660TIP3    H132175   3.679   6.032   8.232
 2660TIP3    H232176   3.733   6.000   8.099
 2661TIP3   OH232177   3.177   6.264   8.127
 2661TIP3    H132178   3.126   6.203   8.184
 2661TIP3    H232179   3.134   6.248   8.040
 2662TIP3   OH232180   2.463   6.046   7.795
 2662TIP3    H132181   2.472   6.132   7.749
 2662TIP3    H232182   2.407   5.996   7.733
 2663TIP3   OH232183   2.116   6.332   7.902
 2663TIP3    H132184   2.175   6.282   7.961
 2663TIP3    H232185   2.139   6.289   7.816
 2664TIP3   OH232186   2.600   6.480   7.850
 2664TIP3    H132187   2.687   6.440   7.865
 2664TIP3    H232188   2.548   6.400   7.825
 2665TIP3   OH232189   3.694   6.129   8.365
 2665TIP3    H132190   3.655   6.211   8.328
 2665TIP3    H232191   3.717   6.159   8.454
 2666TIP3   OH232192   2.359   5.972   8.221
 2666TIP3    H132193   2.314   6.015   8.146
 2666TIP3    H232194   2.296   5.989   8.294
 2667TIP3   OH232195   3.036   6.923   7.585
 2667TIP3    H132196   3.088   6.919   7.504
 2667TIP3    H232197   3.002   7.014   7.585
 2668TIP3   OH232198   2.580   6.736   8.198
 2668TIP3    H132199   2.529   6.810   8.238
 2668TIP3    H232200   2.651   6.784   8.150
 2669TIP3   OH232201   2.298   6.162   8.016
 2669TIP3    H132202   2.363   6.220   8.064
 2669TIP3    H232203   2.353   6.138   7.938
 2670TIP3   OH232204   2.442   6.951   8.315
 2670TIP3    H132205   2.427   7.043   8.289
 2670TIP3    H232206   2.356   6.929   8.358
 2671TIP3   OH232207   2.021   6.907   7.402
 2671TIP3    H132208   1.970   6.976   7.358
 2671TIP3    H232209   2.049   6.955   7.483
 2672TIP3   OH232210   3.405   7.104   8.112
 2672TIP3    H132211   3.309   7.093   8.124
 2672TIP3    H232212   3.405   7.179   8.052
 2673TIP3   OH232213   3.395   5.901   8.203
 2673TIP3    H132214   3.367   5.993   8.218
 2673TIP3    H232215   3.487   5.912   8.171
 2674TIP3   OH232216   2.687   5.719   7.938
 2674TIP3    H132217   2.671   5.628   7.963
 2674TIP3    H232218   2.606   5.763   7.974
 2675TIP3   OH232219   3.233   7.244   7.731
 2675TIP3    H132220   3.261   7.163   7.683
 2675TIP3    H232221   3.303   7.305   7.697
 2676TIP3   OH232222   3.340   7.028   7.588
 2676TIP3    H132223   3.333   6.965   7.513
 2676TIP3    H232224   3.345   6.965   7.661
 2677TIP3   OH232225   3.494   6.895   8.456
 2677TIP3    H132226   3.520   6.823   8.395
 2677TIP3    H232227   3.518   6.972   8.400
 2678TIP3   OH232228   2.961   6.602   7.435
 2678TIP3    H132229   2.898   6.666   7.395
 2678TIP3    H232230   3.033   6.600   7.369
 2679TIP3   OH232231   3.704   6.534   8.240
 2679TIP3    H132232   3.644   6.611   8.249
 2679TIP3    H232233   3.763   6.571   8.170
 2680TIP3   OH232234   3.316   6.591   7.526
 2680TIP3    H132235   3.244   6.617   7.589
 2680TIP3    H232236   3.376   6.541   7.586
 2681TIP3   OH232237   3.313   6.440   8.430
 2681TIP3    H132238   3.297   6.529   8.465
 2681TIP3    H232239   3.252   6.440   8.354
 2682TIP3   OH232240   2.460   6.653   7.702
 2682TIP3    H132241   2.430   6.612   7.617
 2682TIP3    H232242   2.521   6.584   7.738
 2683TIP3   OH232243   2.595   6.992   7.973
 2683TIP3    H132244   2.612   7.002   7.877
 2683TIP3    H232245   2.679   6.956   8.008
 2684TIP3   OH232246   2.476   6.530   8.080
 2684TIP3    H132247   2.516   6.531   7.990
 2684TIP3    H232248   2.526   6.603   8.125
 2685TIP3   OH232249   3.137   7.105   8.147
 2685TIP3    H132250   3.097   7.176   8.202
 2685TIP3    H232251   3.099   7.026   8.191
 2686TIP3   OH232252   2.590   6.980   8.556
 2686TIP3    H132253   2.526   7.045   8.593
 2686TIP3    H232254   2.555   6.968   8.466
 2687TIP3   OH232255   3.194   6.537   7.300
 2687TIP3    H132256   3.227   6.545   7.392
 2687TIP3    H232257   3.251   6.603   7.259
 2688TIP3   OH232258   2.299   6.601   8.455
 2688TIP3    H132259   2.296   6.689   8.494
 2688TIP3    H232260   2.245   6.554   8.521
 2689TIP3   OH232261   2.938   7.187   7.580
 2689TIP3    H132262   2.980   7.183   7.667
 2689TIP3    H232263   2.895   7.273   7.585
 2690TIP3   OH232264   2.409   7.174   8.618
 2690TIP3    H132265   2.397   7.182   8.522
 2690TIP3    H232266   2.324   7.132   8.644
 2691TIP3   OH232267   3.582   5.683   7.307
 2691TIP3    H132268   3.486   5.683   7.334
 2691TIP3    H232269   3.586   5.764   7.252
 2692TIP3   OH232270   2.354   6.552   7.475
 2692TIP3    H132271   2.322   6.631   7.426
 2692TIP3    H232272   2.307   6.481   7.429
 2693TIP3   OH232273   1.994   6.822   8.374
 2693TIP3    H132274   1.948   6.814   8.290
 2693TIP3    H232275   2.031   6.731   8.385
 2694TIP3   OH232276   1.974   7.067   8.004
 2694TIP3    H132277   2.069   7.051   8.009
 2694TIP3    H232278   1.965   7.146   8.061
 2695TIP3   OH232279   3.744   7.161   8.630
 2695TIP3    H132280   3.728   7.065   8.628
 2695TIP3    H232281   3.657   7.190   8.668
 2696TIP3   OH232282   2.848   7.093   8.492
 2696TIP3    H132283   2.863   7.182   8.532
 2696TIP3    H232284   2.759   7.070   8.523
 2697TIP3   OH232285   2.939   7.517   7.473
 2697TIP3    H132286   2.941   7.538   7.378
 2697TIP3    H232287   2.893   7.592   7.511
 2698TIP3   OH232288   2.292   7.319   7.678
 2698TIP3    H132289   2.327   7.314   7.770
 2698TIP3    H232290   2.217   7.259   7.687
 2699TIP3   OH232291   3.161   7.370   7.451
 2699TIP3    H132292   3.079   7.411   7.486
 2699TIP3    H232293   3.173   7.289   7.502
 2700TIP3   OH232294   3.469   6.289   8.645
 2700TIP3    H132295   3.416   6.334   8.576
 2700TIP3    H232296   3.461   6.196   8.617
 2701TIP3   OH232297   2.221   6.931   8.458
 2701TIP3    H132298   2.218   6.895   8.549
 2701TIP3    H232299   2.131   6.912   8.425
 2702TIP3   OH232300   2.474   5.810   8.055
 2702TIP3    H132301   2.389   5.806   8.008
 2702TIP3    H232302   2.447   5.862   8.134
 2703TIP3   OH232303   2.962   5.753   8.385
 2703TIP3    H132304   2.992   5.710   8.467
 2703TIP3    H232305   2.865   5.759   8.396
 2704TIP3   OH232306   3.210   6.167   8.457
 2704TIP3    H132307   3.169   6.134   8.541
 2704TIP3    H232308   3.190   6.261   8.460
 2705TIP3   OH232309   2.483   6.280   8.169
 2705TIP3    H132310   2.407   6.281   8.231
 2705TIP3    H232311   2.486   6.375   8.142
 2706TIP3   OH232312   2.452   6.296   7.705
 2706TIP3    H132313   2.358   6.286   7.677
 2706TIP3    H232314   2.499   6.303   7.619
 2707TIP3   OH232315   3.033   6.342   7.543
 2707TIP3    H132316   3.007   6.430   7.511
 2707TIP3    H232317   3.103   6.318   7.479
 2708TIP3   OH232318   2.916   6.378   8.671
 2708TIP3    H132319   2.865   6.305   8.714
 2708TIP3    H232320   2.995   6.378   8.728
 2709TIP3   OH232321   3.122   6.291   7.840
 2709TIP3    H132322   3.128   6.383   7.810
 2709TIP3    H232323   3.109   6.248   7.753
 2710TIP3   OH232324   2.249   6.284   8.302
 2710TIP3    H132325   2.271   6.329   8.386
 2710TIP3    H232326   2.215   6.198   8.334
 2711TIP3   OH232327   1.928   6.023   7.779
 2711TIP3    H132328   2.003   6.027   7.840
 2711TIP3    H232329   1.971   6.031   7.691
 2712TIP3   OH232330   1.993   6.128   7.278
 2712TIP3    H132331   2.078   6.101   7.317
 2712TIP3    H232332   1.951   6.180   7.348
 2713TIP3   OH232333   3.042   6.442   8.262
 2713TIP3    H132334   3.100   6.375   8.222
 2713TIP3    H232335   2.981   6.389   8.319
 2714TIP3   OH232336   2.764   6.075   7.789
 2714TIP3    H132337   2.677   6.039   7.812
 2714TIP3    H232338   2.824   6.001   7.818
 2715TIP3   OH232339   2.187   6.204   7.685
 2715TIP3    H132340   2.131   6.244   7.614
 2715TIP3    H232341   2.219   6.122   7.641
 2716TIP3   OH232342   2.556   6.245   7.451
 2716TIP3    H132343   2.652   6.231   7.455
 2716TIP3    H232344   2.545   6.275   7.358
 2717TIP3   OH232345   2.511   6.281   7.192
 2717TIP3    H132346   2.415   6.296   7.187
 2717TIP3    H232347   2.544   6.360   7.145
 2718TIP3   OH232348   3.437   7.536   8.726
 2718TIP3    H132349   3.450   7.567   8.634
 2718TIP3    H232350   3.529   7.548   8.765
 2719TIP3   OH232351   2.251   6.774   8.690
 2719TIP3    H132352   2.316   6.797   8.760
 2719TIP3    H232353   2.170   6.756   8.743
 2720TIP3   OH232354   2.834   6.331   7.965
 2720TIP3    H132355   2.898   6.292   7.904
 2720TIP3    H232356   2.767   6.260   7.974
 2721TIP3   OH232357   2.292   5.966   7.585
 2721TIP3    H132358   2.249   5.891   7.632
 2721TIP3    H232359   2.353   5.919   7.527
 2722TIP3   OH232360   2.703   6.142   8.219
 2722TIP3    H132361   2.628   6.202   8.200
 2722TIP3    H232362   2.774   6.204   8.239
 2723TIP3   OH232363   2.774   6.795   7.360
 2723TIP3    H132364   2.708   6.729   7.334
 2723TIP3    H232365   2.735   6.825   7.446
 2724TIP3   OH232366   3.528   6.736   8.244
 2724TIP3    H132367   3.574   6.784   8.170
 2724TIP3    H232368   3.439   6.731   8.204
 2725TIP3   OH232369   2.875   6.820   8.483
 2725TIP3    H132370   2.880   6.789   8.575
 2725TIP3    H232371   2.872   6.916   8.495
 2726TIP3   OH232372   3.263   6.245   7.395
 2726TIP3    H132373   3.313   6.172   7.355
 2726TIP3    H232374   3.287   6.325   7.347
 2727TIP3   OH232375   2.297   6.750   7.912
 2727TIP3    H132376   2.352   6.726   7.834
 2727TIP3    H232377   2.310   6.673   7.970
 2728TIP3   OH232378   2.932   6.990   7.278
 2728TIP3    H132379   2.915   7.026   7.366
 2728TIP3    H232380   2.882   6.905   7.286
 2729TIP3   OH232381   1.990   6.565   8.482
 2729TIP3    H132382   1.970   6.507   8.559
 2729TIP3    H232383   1.938   6.525   8.411
 2730TIP3   OH232384   2.674   6.521   8.664
 2730TIP3    H132385   2.627   6.454   8.612
 2730TIP3    H232386   2.766   6.488   8.660
 2731TIP3   OH232387   3.175   7.042   8.511
 2731TIP3    H132388   3.094   7.061   8.460
 2731TIP3    H232389   3.159   7.095   8.591
 2732TIP3   OH232390   3.716   6.325   7.323
 2732TIP3    H132391   3.653   6.302   7.252
 2732TIP3    H232392   3.729   6.420   7.299
 2733TIP3   OH232393   3.729   6.880   8.594
 2733TIP3    H132394   3.637   6.891   8.562
 2733TIP3    H232395   3.779   6.871   8.510
 2734TIP3   OH232396   3.556   7.137   7.383
 2734TIP3    H132397   3.478   7.079   7.381
 2734TIP3    H232398   3.574   7.148   7.288
 2735TIP3   OH232399   3.284   6.657   8.067
 2735TIP3    H132400   3.193   6.628   8.056
 2735TIP3    H232401   3.333   6.586   8.020
 2736TIP3   OH232402   2.518   7.075   7.692
 2736TIP3    H132403   2.557   7.159   7.659
 2736TIP3    H232404   2.427   7.081   7.657
 2737TIP3   OH232405   2.663   6.851   7.613
 2737TIP3    H132406   2.618   6.933   7.640
 2737TIP3    H232407   2.616   6.783   7.666
 2738TIP3   OH232408   2.715   7.252   8.319
 2738TIP3    H132409   2.768   7.331   8.297
 2738TIP3    H232410   2.781   7.198   8.368
 2739TIP3   OH232411   2.560   7.322   7.580
 2739TIP3    H132412   2.467   7.340   7.604
 2739TIP3    H232413   2.606   7.397   7.622
 2740TIP3   OH232414   3.023   6.858   8.243
 2740TIP3    H132415   2.976   6.829   8.325
 2740TIP3    H232416   3.068   6.776   8.216
 2741TIP3   OH232417   3.309   7.019   7.183
 2741TIP3    H132418   3.319   6.936   7.233
 2741TIP3    H232419   3.233   6.996   7.126
 2742TIP3   OH232420   3.327   7.321   8.497
 2742TIP3    H132421   3.249   7.270   8.467
 2742TIP3    H232422   3.348   7.382   8.422
 2743TIP3   OH232423   2.167   6.041   8.423
 2743TIP3    H132424   2.094   6.096   8.458
 2743TIP3    H232425   2.157   5.962   8.478
 2744TIP3   OH232426   3.375   6.814   7.372
 2744TIP3    H132427   3.376   6.728   7.422
 2744TIP3    H232428   3.471   6.824   7.353
 2745TIP3   OH232429   2.124   7.191   8.282
 2745TIP3    H132430   2.171   7.109   8.265
 2745TIP3    H232431   2.184   7.232   8.347
 2746TIP3   OH232432   2.207   6.739   7.308
 2746TIP3    H132433   2.141   6.798   7.351
 2746TIP3    H232434   2.267   6.803   7.267
 2747TIP3   OH232435   3.057   6.027   8.294
 2747TIP3    H132436   3.135   6.044   8.348
 2747TIP3    H232437   3.014   5.953   8.341
 2748TIP3   OH232438   2.816   6.153   7.525
 2748TIP3    H132439   2.897   6.208   7.528
 2748TIP3    H232440   2.806   6.124   7.618
 2749TIP3   OH232441   2.916   6.271   8.420
 2749TIP3    H132442   2.925   6.297   8.514
 2749TIP3    H232443   2.967   6.188   8.415
 2750TIP3   OH232444   2.479   5.993   7.298
 2750TIP3    H132445   2.499   6.082   7.331
 2750TIP3    H232446   2.570   5.960   7.282
 2751TIP3   OH232447   3.459   6.054   8.511
 2751TIP3    H132448   3.374   6.091   8.477
 2751TIP3    H232449   3.518   6.056   8.435
 2752TIP3   OH232450   3.372   6.424   7.937
 2752TIP3    H132451   3.301   6.366   7.967
 2752TIP3    H232452   3.452   6.374   7.964
 2753TIP3   OH232453   2.273   6.411   7.142
 2753TIP3    H132454   2.245   6.495   7.101
 2753TIP3    H232455   2.190   6.365   7.158
 2754TIP3   OH232456   3.475   7.394   8.108
 2754TIP3    H132457   3.470   7.432   8.018
 2754TIP3    H232458   3.573   7.391   8.114
 2755TIP3   OH232459   2.219   5.757   7.982
 2755TIP3    H132460   2.216   5.742   7.885
 2755TIP3    H232461   2.187   5.670   8.015
 2756TIP3   OH232462   2.083   7.133   7.535
 2756TIP3    H132463   2.015   7.173   7.591
 2756TIP3    H232464   2.081   7.194   7.458
 2757TIP3   OH232465   2.025   7.423   8.708
 2757TIP3    H132466   2.115   7.422   8.742
 2757TIP3    H232467   1.995   7.331   8.721
 2758TIP3   OH232468   2.520   7.253   8.865
 2758TIP3    H132469   2.614   7.268   8.857
 2758TIP3    H232470   2.488   7.235   8.774
 2759TIP3   OH232471   3.129   7.163   8.752
 2759TIP3    H132472   3.097   7.073   8.778
 2759TIP3    H232473   3.204   7.172   8.813
 2760TIP3   OH232474   3.424   7.215   7.017
 2760TIP3    H132475   3.391   7.143   7.074
 2760TIP3    H232476   3.521   7.196   7.022
 2761TIP3   OH232477   1.990   6.784   8.802
 2761TIP3    H132478   1.962   6.691   8.803
 2761TIP3    H232479   1.936   6.818   8.727
 2762TIP3   OH232480   2.681   6.782   8.717
 2762TIP3    H132481   2.655   6.840   8.641
 2762TIP3    H232482   2.660   6.692   8.685
 2763TIP3   OH232483   3.083   6.930   7.063
 2763TIP3    H132484   3.023   6.973   7.128
 2763TIP3    H232485   3.049   6.962   6.979
 2764TIP3   OH232486   3.250   6.766   8.488
 2764TIP3    H132487   3.335   6.815   8.482
 2764TIP3    H232488   3.192   6.844   8.501
 2765TIP3   OH232489   2.125   6.508   8.781
 2765TIP3    H132490   2.180   6.430   8.781
 2765TIP3    H232491   2.158   6.560   8.858
 2766TIP3   OH232492   2.478   6.408   8.436
 2766TIP3    H132493   2.428   6.491   8.445
 2766TIP3    H232494   2.558   6.443   8.392
 2767TIP3   OH232495   3.044   6.679   8.813
 2767TIP3    H132496   3.095   6.631   8.746
 2767TIP3    H232497   3.013   6.609   8.873
 2768TIP3   OH232498   2.565   6.174   8.546
 2768TIP3    H132499   2.568   6.105   8.475
 2768TIP3    H232500   2.554   6.256   8.492
 2769TIP3   OH232501   2.585   5.966   8.366
 2769TIP3    H132502   2.639   6.023   8.304
 2769TIP3    H232503   2.502   5.959   8.315
 2770TIP3   OH232504   2.720   6.530   8.332
 2770TIP3    H132505   2.811   6.559   8.345
 2770TIP3    H232506   2.677   6.613   8.301
 2771TIP3   OH232507   3.175   6.282   8.828
 2771TIP3    H132508   3.207   6.191   8.824
 2771TIP3    H232509   3.248   6.331   8.868
 2772TIP3   OH232510   3.323   6.611   8.699
 2772TIP3    H132511   3.291   6.668   8.626
 2772TIP3    H232512   3.416   6.602   8.674
 2773TIP3   OH232513   2.414   6.246   8.764
 2773TIP3    H132514   2.324   6.209   8.747
 2773TIP3    H232515   2.464   6.214   8.684
 2774TIP3   OH232516   2.683   5.721   8.369
 2774TIP3    H132517   2.648   5.813   8.375
 2774TIP3    H232518   2.611   5.679   8.321
 2775TIP3   OH232519   2.771   6.158   8.773
 2775TIP3    H132520   2.709   6.128   8.843
 2775TIP3    H232521   2.715   6.142   8.695
 2776TIP3   OH232522   3.054   6.082   8.661
 2776TIP3    H132523   2.962   6.079   8.689
 2776TIP3    H232524   3.097   6.033   8.735
 2777TIP3   OH232525   3.197   5.939   8.835
 2777TIP3    H132526   3.204   5.842   8.835
 2777TIP3    H232527   3.191   5.959   8.931
 2778TIP3   OH232528   2.195   6.085   8.780
 2778TIP3    H132529   2.235   6.006   8.743
 2778TIP3    H232530   2.174   6.057   8.872
 2779TIP3   OH232531   2.682   5.701   8.641
 2779TIP3    H132532   2.750   5.632   8.654
 2779TIP3    H232533   2.682   5.699   8.543
 2780TIP3   OH232534   2.654   5.800   8.897
 2780TIP3    H132535   2.665   5.773   8.803
 2780TIP3    H232536   2.627   5.894   8.888
 2781TIP3   OH232537   2.667   7.483   7.179
 2781TIP3    H132538   2.755   7.524   7.167
 2781TIP3    H232539   2.611   7.542   7.127
 2782TIP3   OH232540   1.907   7.510   7.615
 2782TIP3    H132541   1.819   7.482   7.584
 2782TIP3    H232542   1.908   7.464   7.701
 2783TIP3   OH232543   1.991   7.318   7.833
 2783TIP3    H132544   1.926   7.253   7.867
 2783TIP3    H232545   2.041   7.335   7.915
 2784TIP3   OH232546   3.746   7.426   8.075
 2784TIP3    H132547   3.763   7.486   8.151
 2784TIP3    H232548   3.832   7.422   8.031
 2785TIP3   OH232549   3.685   7.345   8.429
 2785TIP3    H132550   3.663   7.280   8.359
 2785TIP3    H232551   3.715   7.282   8.497
 2786TIP3   OH232552   3.549   6.960   8.862
 2786TIP3    H132553   3.465   6.948   8.912
 2786TIP3    H232554   3.582   7.043   8.901
 2787TIP3   OH232555   3.650   6.792   7.385
 2787TIP3    H132556   3.732   6.838   7.411
 2787TIP3    H232557   3.642   6.730   7.460
 2788TIP3   OH232558   3.709   6.590   7.593
 2788TIP3    H132559   3.625   6.546   7.618
 2788TIP3    H232560   3.753   6.601   7.678
 2789TIP3   OH232561   3.684   6.843   8.064
 2789TIP3    H132562   3.752   6.775   8.047
 2789TIP3    H232563   3.731   6.926   8.042
 2790TIP3   OH232564   3.549   7.133   8.326
 2790TIP3    H132565   3.475   7.177   8.368
 2790TIP3    H232566   3.512   7.122   8.234
 2791TIP3   OH232567   3.728   6.591   7.207
 2791TIP3    H132568   3.690   6.630   7.125
 2791TIP3    H232569   3.707   6.665   7.268
 2792TIP3   OH232570   3.575   6.265   7.106
 2792TIP3    H132571   3.587   6.325   7.031
 2792TIP3    H232572   3.570   6.177   7.069
 2793TIP3   OH232573   3.493   6.442   7.670
 2793TIP3    H132574   3.500   6.350   7.641
 2793TIP3    H232575   3.476   6.436   7.766
 2794TIP3   OH232576   1.980   6.666   8.077
 2794TIP3    H132577   1.988   6.631   7.985
 2794TIP3    H232578   2.068   6.639   8.112
 2795TIP3   OH232579   3.604   6.625   8.626
 2795TIP3    H132580   3.658   6.543   8.639
 2795TIP3    H232581   3.670   6.694   8.609
 2796TIP3   OH232582   3.714   6.382   8.664
 2796TIP3    H132583   3.621   6.348   8.661
 2796TIP3    H232584   3.769   6.303   8.685
 2797TIP3   OH232585   3.563   6.250   8.037
 2797TIP3    H132586   3.660   6.262   8.054
 2797TIP3    H232587   3.531   6.247   8.129
 2798TIP3   OH232588   3.525   6.322   8.293
 2798TIP3    H132589   3.450   6.360   8.345
 2798TIP3    H232590   3.581   6.402   8.278
 2799TIP3   OH232591   1.967   6.143   8.658
 2799TIP3    H132592   2.048   6.156   8.711
 2799TIP3    H232593   1.940   6.053   8.683
 2800TIP3   OH232594   3.766   5.773   8.839
 2800TIP3    H132595   3.804   5.697   8.792
 2800TIP3    H232596   3.755   5.838   8.766
 2801TIP3   OH232597   2.083   5.987   8.036
 2801TIP3    H132598   2.133   5.904   8.018
 2801TIP3    H232599   2.151   6.055   8.022
 2802TIP3   OH232600   1.932   6.300   8.083
 2802TIP3    H132601   1.993   6.280   8.009
 2802TIP3    H232602   1.974   6.379   8.118
 2803TIP3   OH232603   3.706   5.970   8.665
 2803TIP3    H132604   3.629   5.998   8.720
 2803TIP3    H232605   3.661   5.916   8.598
 2804TIP3   OH232606   3.751   5.899   7.153
 2804TIP3    H132607   3.819   5.870   7.091
 2804TIP3    H232608   3.790   5.981   7.187
 2805TIP3   OH232609   1.936   5.959   7.494
 2805TIP3    H132610   1.840   5.948   7.504
 2805TIP3    H232611   1.940   5.952   7.397
 2806TIP3   OH232612   3.404   7.431   7.650
 2806TIP3    H132613   3.490   7.401   7.614
 2806TIP3    H232614   3.432   7.474   7.733
 2807TIP3   OH232615   1.949   5.779   8.325
 2807TIP3    H132616   1.873   5.722   8.304
 2807TIP3    H232617   1.947   5.840   8.249
 2808TIP3   OH232618   2.167   7.093   8.701
 2808TIP3    H132619   2.082   7.084   8.655
 2808TIP3    H232620   2.142   7.092   8.794
 2809TIP3   OH232621   2.442   7.220   8.359
 2809TIP3    H132622   2.437   7.318   8.350
 2809TIP3    H232623   2.539   7.213   8.352
 2810TIP3   OH232624   2.888   7.322   8.621
 2810TIP3    H132625   2.878   7.307   8.718
 2810TIP3    H232626   2.968   7.377   8.621
 2811TIP3   OH232627   3.127   7.500   8.587
 2811TIP3    H132628   3.208   7.449   8.570
 2811TIP3    H232629   3.134   7.507   8.684
 2812TIP3   OH232630   3.612   5.725   8.495
 2812TIP3    H132631   3.546   5.763   8.435
 2812TIP3    H232632   3.621   5.633   8.460
 2813TIP3   OH232633   2.191   7.570   8.340
 2813TIP3    H132634   2.106   7.562   8.292
 2813TIP3    H232635   2.161   7.561   8.431
 2814TIP3   OH232636   2.430   7.476   8.293
 2814TIP3    H132637   2.340   7.509   8.320
 2814TIP3    H232638   2.431   7.507   8.200
 2815TIP3   OH232639   2.929   7.463   8.160
 2815TIP3    H132640   2.855   7.473   8.096
 2815TIP3    H232641   2.932   7.551   8.200
 2816TIP3   OH232642   3.095   7.312   8.314
 2816TIP3    H132643   3.030   7.372   8.271
 2816TIP3    H232644   3.179   7.357   8.292
 2817TIP3   OH232645   3.350   7.531   8.296
 2817TIP3    H132646   3.318   7.620   8.275
 2817TIP3    H232647   3.387   7.500   8.209
 2818TIP3   OH232648   2.156   7.340   8.058
 2818TIP3    H132649   2.132   7.300   8.145
 2818TIP3    H232650   2.235   7.290   8.030
 2819TIP3   OH232651   2.371   7.270   7.923
 2819TIP3    H132652   2.366   7.172   7.935
 2819TIP3    H232653   2.460   7.284   7.963
 2820TIP3   OH232654   2.597   7.262   8.051
 2820TIP3    H132655   2.618   7.167   8.042
 2820TIP3    H232656   2.624   7.283   8.142
 2821TIP3   OH232657   2.900   5.858   7.871
 2821TIP3    H132658   2.829   5.812   7.922
 2821TIP3    H232659   2.945   5.782   7.833
 2822TIP3   OH232660   3.468   5.656   7.869
 2822TIP3    H132661   3.551   5.699   7.843
 2822TIP3    H232662   3.444   5.601   7.792
 2823TIP3   OH232663   2.198   5.744   7.695
 2823TIP3    H132664   2.116   5.738   7.643
 2823TIP3    H232665   2.236   5.655   7.680
 2824TIP3   OH232666   2.549   5.723   7.694
 2824TIP3    H132667   2.613   5.741   7.623
 2824TIP3    H232668   2.600   5.745   7.774
 2825TIP3   OH232669   2.026   7.317   7.344
 2825TIP3    H132670   1.931   7.318   7.328
 2825TIP3    H232671   2.040   7.407   7.377
 2826TIP3   OH232672   2.257   5.979   7.138
 2826TIP3    H132673   2.244   5.890   7.103
 2826TIP3    H232674   2.343   5.970   7.182
 2827TIP3   OH232675   2.750   5.971   7.302
 2827TIP3    H132676   2.742   5.885   7.345
 2827TIP3    H232677   2.763   6.034   7.376
 2828TIP3   OH232678   3.614   7.375   7.511
 2828TIP3    H132679   3.595   7.283   7.479
 2828TIP3    H232680   3.593   7.422   7.427
 2829TIP3   OH232681   2.136   5.781   8.631
 2829TIP3    H132682   2.127   5.687   8.658
 2829TIP3    H232683   2.207   5.805   8.694
 2830TIP3   OH232684   2.355   5.731   8.824
 2830TIP3    H132685   2.451   5.723   8.811
 2830TIP3    H232686   2.340   5.643   8.865
 2831TIP3   OH232687   3.206   5.674   8.820
 2831TIP3    H132688   3.204   5.601   8.885
 2831TIP3    H232689   3.299   5.668   8.788
 2832TIP3   OH232690   3.507   7.258   8.691
 2832TIP3    H132691   3.423   7.260   8.640
 2832TIP3    H232692   3.523   7.352   8.702
 2833TIP3   OH232693   4.111   6.557   8.166
 2833TIP3    H132694   4.105   6.473   8.217
 2833TIP3    H232695   4.145   6.616   8.237
 2834TIP3   OH232696   5.213   6.854   7.882
 2834TIP3    H132697   5.192   6.775   7.937
 2834TIP3    H232698   5.216   6.921   7.951
 2835TIP3   OH232699   4.170   7.018   7.982
 2835TIP3    H132700   4.147   6.924   7.968
 2835TIP3    H232701   4.265   7.006   7.996
 2836TIP3   OH232702   3.835   6.320   7.569
 2836TIP3    H132703   3.809   6.414   7.569
 2836TIP3    H232704   3.777   6.286   7.500
 2837TIP3   OH232705   3.938   6.585   7.816
 2837TIP3    H132706   3.973   6.493   7.828
 2837TIP3    H232707   3.977   6.617   7.734
 2838TIP3   OH232708   4.921   7.376   7.860
 2838TIP3    H132709   5.009   7.334   7.843
 2838TIP3    H232710   4.874   7.305   7.905
 2839TIP3   OH232711   4.677   6.805   8.110
 2839TIP3    H132712   4.713   6.827   8.024
 2839TIP3    H232713   4.756   6.825   8.165
 2840TIP3   OH232714   5.552   5.960   8.143
 2840TIP3    H132715   5.560   6.024   8.217
 2840TIP3    H232716   5.635   5.980   8.096
 2841TIP3   OH232717   5.050   6.275   8.114
 2841TIP3    H132718   5.067   6.180   8.134
 2841TIP3    H232719   5.043   6.269   8.016
 2842TIP3   OH232720   4.327   6.064   7.799
 2842TIP3    H132721   4.283   6.130   7.743
 2842TIP3    H232722   4.323   5.986   7.740
 2843TIP3   OH232723   5.115   6.082   7.668
 2843TIP3    H132724   5.163   6.051   7.748
 2843TIP3    H232725   5.183   6.137   7.628
 2844TIP3   OH232726   4.018   6.340   7.900
 2844TIP3    H132727   4.068   6.273   7.951
 2844TIP3    H232728   4.021   6.301   7.811
 2845TIP3   OH232729   5.575   6.116   8.360
 2845TIP3    H132730   5.542   6.199   8.318
 2845TIP3    H232731   5.578   6.145   8.452
 2846TIP3   OH232732   4.224   5.970   8.237
 2846TIP3    H132733   4.193   6.022   8.160
 2846TIP3    H232734   4.158   5.997   8.306
 2847TIP3   OH232735   4.441   6.725   8.225
 2847TIP3    H132736   4.394   6.800   8.269
 2847TIP3    H232737   4.518   6.772   8.186
 2848TIP3   OH232738   5.270   6.029   7.875
 2848TIP3    H132739   5.276   5.954   7.935
 2848TIP3    H232740   5.350   6.078   7.897
 2849TIP3   OH232741   4.188   6.161   8.027
 2849TIP3    H132742   4.254   6.211   8.080
 2849TIP3    H232743   4.243   6.132   7.950
 2850TIP3   OH232744   4.327   6.955   8.322
 2850TIP3    H132745   4.315   7.043   8.285
 2850TIP3    H232746   4.239   6.936   8.361
 2851TIP3   OH232747   3.932   6.873   7.446
 2851TIP3    H132748   3.918   6.934   7.373
 2851TIP3    H232749   3.940   6.935   7.520
 2852TIP3   OH232750   5.278   7.106   8.127
 2852TIP3    H132751   5.181   7.100   8.128
 2852TIP3    H232752   5.290   7.161   8.049
 2853TIP3   OH232753   5.274   5.909   8.215
 2853TIP3    H132754   5.206   5.955   8.161
 2853TIP3    H232755   5.357   5.929   8.168
 2854TIP3   OH232756   4.580   5.720   7.951
 2854TIP3    H132757   4.542   5.633   7.960
 2854TIP3    H232758   4.501   5.773   7.981
 2855TIP3   OH232759   5.143   7.251   7.772
 2855TIP3    H132760   5.129   7.166   7.727
 2855TIP3    H232761   5.217   7.288   7.718
 2856TIP3   OH232762   5.248   7.032   7.593
 2856TIP3    H132763   5.203   6.981   7.524
 2856TIP3    H232764   5.230   6.971   7.667
 2857TIP3   OH232765   5.376   6.895   8.458
 2857TIP3    H132766   5.385   6.820   8.396
 2857TIP3    H232767   5.405   6.969   8.399
 2858TIP3   OH232768   5.596   6.544   8.250
 2858TIP3    H132769   5.532   6.618   8.257
 2858TIP3    H232770   5.653   6.580   8.178
 2859TIP3   OH232771   5.182   6.528   7.542
 2859TIP3    H132772   5.145   6.616   7.550
 2859TIP3    H232773   5.262   6.529   7.599
 2860TIP3   OH232774   5.197   6.433   8.434
 2860TIP3    H132775   5.182   6.513   8.485
 2860TIP3    H232776   5.125   6.440   8.369
 2861TIP3   OH232777   4.473   7.000   7.994
 2861TIP3    H132778   4.472   7.008   7.895
 2861TIP3    H232779   4.559   6.958   8.014
 2862TIP3   OH232780   4.407   6.517   8.071
 2862TIP3    H132781   4.407   6.560   7.985
 2862TIP3    H232782   4.417   6.593   8.132
 2863TIP3   OH232783   5.013   7.102   8.143
 2863TIP3    H132784   4.971   7.176   8.191
 2863TIP3    H232785   4.978   7.025   8.191
 2864TIP3   OH232786   4.485   6.969   8.541
 2864TIP3    H132787   4.421   7.030   8.584
 2864TIP3    H232788   4.443   6.961   8.453
 2865TIP3   OH232789   4.183   6.623   8.434
 2865TIP3    H132790   4.192   6.698   8.496
 2865TIP3    H232791   4.119   6.570   8.486
 2866TIP3   OH232792   4.308   7.163   8.620
 2866TIP3    H132793   4.302   7.171   8.522
 2866TIP3    H232794   4.216   7.135   8.642
 2867TIP3   OH232795   4.189   6.555   7.520
 2867TIP3    H132796   4.184   6.621   7.450
 2867TIP3    H232797   4.181   6.472   7.471
 2868TIP3   OH232798   3.870   6.826   8.372
 2868TIP3    H132799   3.823   6.805   8.290
 2868TIP3    H232800   3.907   6.738   8.394
 2869TIP3   OH232801   3.860   7.076   8.030
 2869TIP3    H132802   3.954   7.056   8.014
 2869TIP3    H232803   3.864   7.160   8.077
 2870TIP3   OH232804   5.629   7.157   8.648
 2870TIP3    H132805   5.607   7.062   8.651
 2870TIP3    H232806   5.541   7.193   8.677
 2871TIP3   OH232807   4.730   7.095   8.484
 2871TIP3    H132808   4.742   7.182   8.528
 2871TIP3    H232809   4.643   7.065   8.518
 2872TIP3   OH232810   4.770   7.454   7.442
 2872TIP3    H132811   4.866   7.445   7.429
 2872TIP3    H232812   4.765   7.473   7.536
 2873TIP3   OH232813   4.175   7.304   7.685
 2873TIP3    H132814   4.205   7.316   7.778
 2873TIP3    H232815   4.102   7.242   7.699
 2874TIP3   OH232816   5.086   7.406   7.203
 2874TIP3    H132817   5.143   7.367   7.136
 2874TIP3    H232818   5.104   7.351   7.281
 2875TIP3   OH232819   5.036   7.354   7.482
 2875TIP3    H132820   4.999   7.342   7.570
 2875TIP3    H232821   5.095   7.278   7.479
 2876TIP3   OH232822   5.347   6.289   8.655
 2876TIP3    H132823   5.292   6.328   8.585
 2876TIP3    H232824   5.346   6.194   8.630
 2877TIP3   OH232825   4.097   6.934   8.455
 2877TIP3    H132826   4.100   6.894   8.545
 2877TIP3    H232827   4.006   6.911   8.428
 2878TIP3   OH232828   4.342   5.814   8.045
 2878TIP3    H132829   4.253   5.797   8.011
 2878TIP3    H232830   4.320   5.868   8.124
 2879TIP3   OH232831   4.830   5.710   8.358
 2879TIP3    H132832   4.859   5.705   8.450
 2879TIP3    H232833   4.734   5.730   8.365
 2880TIP3   OH232834   5.098   6.176   8.510
 2880TIP3    H132835   5.038   6.138   8.580
 2880TIP3    H232836   5.070   6.269   8.507
 2881TIP3   OH232837   4.365   6.282   8.187
 2881TIP3    H132838   4.296   6.304   8.253
 2881TIP3    H232839   4.371   6.367   8.137
 2882TIP3   OH232840   4.913   6.376   7.538
 2882TIP3    H132841   4.933   6.464   7.505
 2882TIP3    H232842   4.972   6.320   7.485
 2883TIP3   OH232843   4.803   6.378   8.685
 2883TIP3    H132844   4.770   6.292   8.716
 2883TIP3    H232845   4.878   6.393   8.746
 2884TIP3   OH232846   5.028   6.301   7.838
 2884TIP3    H132847   5.011   6.381   7.786
 2884TIP3    H232848   5.021   6.231   7.770
 2885TIP3   OH232849   4.114   6.303   8.308
 2885TIP3    H132850   4.161   6.328   8.389
 2885TIP3    H232851   4.086   6.211   8.330
 2886TIP3   OH232852   4.428   6.106   7.029
 2886TIP3    H132853   4.412   6.049   7.106
 2886TIP3    H232854   4.486   6.048   6.975
 2887TIP3   OH232855   3.765   6.014   7.758
 2887TIP3    H132856   3.836   5.999   7.822
 2887TIP3    H232857   3.802   5.986   7.672
 2888TIP3   OH232858   3.880   6.112   7.267
 2888TIP3    H132859   3.961   6.157   7.238
 2888TIP3    H232860   3.823   6.188   7.289
 2889TIP3   OH232861   4.975   6.489   8.265
 2889TIP3    H132862   4.994   6.410   8.210
 2889TIP3    H232863   4.904   6.453   8.322
 2890TIP3   OH232864   4.606   6.056   7.775
 2890TIP3    H132865   4.509   6.069   7.789
 2890TIP3    H232866   4.640   6.088   7.860
 2891TIP3   OH232867   4.100   6.213   7.656
 2891TIP3    H132868   4.022   6.246   7.607
 2891TIP3    H232869   4.100   6.119   7.628
 2892TIP3   OH232870   4.470   6.220   7.394
 2892TIP3    H132871   4.548   6.273   7.414
 2892TIP3    H232872   4.409   6.283   7.354
 2893TIP3   OH232873   5.055   6.006   8.085
 2893TIP3    H132874   4.982   5.996   8.150
 2893TIP3    H232875   5.010   5.986   8.001
 2894TIP3   OH232876   4.328   6.343   7.175
 2894TIP3    H132877   4.294   6.263   7.133
 2894TIP3    H232878   4.409   6.350   7.123
 2895TIP3   OH232879   5.318   7.548   8.721
 2895TIP3    H132880   5.337   7.572   8.629
 2895TIP3    H232881   5.408   7.556   8.760
 2896TIP3   OH232882   4.134   6.770   8.686
 2896TIP3    H132883   4.202   6.802   8.748
 2896TIP3    H232884   4.056   6.755   8.745
 2897TIP3   OH232885   4.737   6.299   7.923
 2897TIP3    H132886   4.832   6.282   7.924
 2897TIP3    H232887   4.709   6.256   8.005
 2898TIP3   OH232888   4.200   5.940   7.586
 2898TIP3    H132889   4.133   5.888   7.635
 2898TIP3    H232890   4.240   5.874   7.530
 2899TIP3   OH232891   4.590   6.146   8.174
 2899TIP3    H132892   4.517   6.211   8.186
 2899TIP3    H232893   4.660   6.183   8.229
 2900TIP3   OH232894   5.407   6.736   8.253
 2900TIP3    H132895   5.461   6.786   8.188
 2900TIP3    H232896   5.326   6.728   8.201
 2901TIP3   OH232897   4.988   6.086   7.168
 2901TIP3    H132898   4.938   6.155   7.124
 2901TIP3    H232899   5.054   6.138   7.217
 2902TIP3   OH232900   4.770   6.823   8.482
 2902TIP3    H132901   4.769   6.797   8.575
 2902TIP3    H232902   4.749   6.918   8.489
 2903TIP3   OH232903   5.117   6.261   7.355
 2903TIP3    H132904   5.182   6.241   7.426
 2903TIP3    H232905   5.170   6.322   7.303
 2904TIP3   OH232906   4.202   6.752   7.938
 2904TIP3    H132907   4.188   6.720   7.848
 2904TIP3    H232908   4.185   6.673   7.993
 2905TIP3   OH232909   3.879   6.567   8.480
 2905TIP3    H132910   3.869   6.505   8.556
 2905TIP3    H232911   3.825   6.524   8.411
 2906TIP3   OH232912   4.572   6.517   8.652
 2906TIP3    H132913   4.525   6.454   8.597
 2906TIP3    H232914   4.663   6.478   8.656
 2907TIP3   OH232915   5.056   7.044   8.504
 2907TIP3    H132916   4.975   7.069   8.460
 2907TIP3    H232917   5.046   7.093   8.588
 2908TIP3   OH232918   5.581   6.289   7.365
 2908TIP3    H132919   5.583   6.233   7.286
 2908TIP3    H232920   5.591   6.380   7.327
 2909TIP3   OH232921   5.614   6.872   8.598
 2909TIP3    H132922   5.521   6.884   8.568
 2909TIP3    H232923   5.660   6.873   8.512
 2910TIP3   OH232924   5.457   7.114   7.338
 2910TIP3    H132925   5.397   7.052   7.384
 2910TIP3    H232926   5.450   7.085   7.246
 2911TIP3   OH232927   5.168   6.650   8.068
 2911TIP3    H132928   5.107   6.595   8.121
 2911TIP3    H232929   5.220   6.583   8.020
 2912TIP3   OH232930   4.427   7.057   7.736
 2912TIP3    H132931   4.506   7.071   7.680
 2912TIP3    H232932   4.354   7.090   7.681
 2913TIP3   OH232933   4.057   6.577   7.079
 2913TIP3    H132934   4.079   6.642   7.147
 2913TIP3    H232935   3.963   6.561   7.097
 2914TIP3   OH232936   4.607   7.260   8.315
 2914TIP3    H132937   4.660   7.341   8.298
 2914TIP3    H232938   4.675   7.203   8.359
 2915TIP3   OH232939   4.416   7.336   7.553
 2915TIP3    H132940   4.332   7.328   7.604
 2915TIP3    H232941   4.470   7.388   7.616
 2916TIP3   OH232942   4.907   6.861   8.249
 2916TIP3    H132943   4.864   6.839   8.336
 2916TIP3    H232944   4.978   6.795   8.249
 2917TIP3   OH232945   5.215   7.315   8.493
 2917TIP3    H132946   5.137   7.264   8.461
 2917TIP3    H232947   5.231   7.380   8.421
 2918TIP3   OH232948   5.684   7.399   7.168
 2918TIP3    H132949   5.728   7.481   7.144
 2918TIP3    H232950   5.600   7.436   7.204
 2919TIP3   OH232951   4.055   6.057   8.428
 2919TIP3    H132952   3.974   6.098   8.462
 2919TIP3    H232953   4.056   5.975   8.482
 2920TIP3   OH232954   5.291   6.813   7.383
 2920TIP3    H132955   5.275   6.723   7.409
 2920TIP3    H232956   5.390   6.815   7.372
 2921TIP3   OH232957   4.016   7.194   8.287
 2921TIP3    H132958   4.048   7.104   8.284
 2921TIP3    H232959   4.081   7.234   8.347
 2922TIP3   OH232960   4.541   7.119   6.999
 2922TIP3    H132961   4.626   7.080   6.979
 2922TIP3    H232962   4.528   7.096   7.092
 2923TIP3   OH232963   4.446   7.020   7.242
 2923TIP3    H132964   4.524   6.993   7.293
 2923TIP3    H232965   4.440   7.115   7.268
 2924TIP3   OH232966   4.148   6.753   7.297
 2924TIP3    H132967   4.066   6.783   7.341
 2924TIP3    H232968   4.194   6.835   7.275
 2925TIP3   OH232969   4.903   6.021   8.349
 2925TIP3    H132970   4.986   6.051   8.390
 2925TIP3    H232971   4.887   5.934   8.389
 2926TIP3   OH232972   5.016   5.965   7.457
 2926TIP3    H132973   5.007   6.049   7.410
 2926TIP3    H232974   5.052   6.000   7.543
 2927TIP3   OH232975   4.748   6.133   7.543
 2927TIP3    H132976   4.781   6.224   7.555
 2927TIP3    H232977   4.688   6.121   7.619
 2928TIP3   OH232978   4.820   6.275   8.423
 2928TIP3    H132979   4.822   6.294   8.519
 2928TIP3    H232980   4.844   6.180   8.416
 2929TIP3   OH232981   4.798   5.824   7.575
 2929TIP3    H132982   4.763   5.891   7.636
 2929TIP3    H232983   4.881   5.869   7.549
 2930TIP3   OH232984   4.454   7.287   7.299
 2930TIP3    H132985   4.383   7.349   7.281
 2930TIP3    H232986   4.451   7.295   7.398
 2931TIP3   OH232987   4.372   5.978   7.266
 2931TIP3    H132988   4.359   6.052   7.327
 2931TIP3    H232989   4.462   5.950   7.292
 2932TIP3   OH232990   5.349   6.050   8.525
 2932TIP3    H132991   5.256   6.076   8.505
 2932TIP3    H232992   5.394   6.056   8.439
 2933TIP3   OH232993   5.261   6.419   7.912
 2933TIP3    H132994   5.187   6.356   7.904
 2933TIP3    H232995   5.330   6.365   7.957
 2934TIP3   OH232996   5.361   7.394   8.112
 2934TIP3    H132997   5.362   7.438   8.024
 2934TIP3    H232998   5.456   7.369   8.116
 2935TIP3   OH232999   4.079   5.760   7.995
 2935TIP3    H133000   4.074   5.751   7.897
 2935TIP3    H233001   4.057   5.668   8.023
 2936TIP3   OH233002   3.956   7.136   7.574
 2936TIP3    H133003   3.878   7.184   7.602
 2936TIP3    H233004   3.975   7.185   7.491
 2937TIP3   OH233005   3.911   7.425   8.712
 2937TIP3    H133006   4.001   7.418   8.749
 2937TIP3    H233007   3.880   7.333   8.718
 2938TIP3   OH233008   4.399   7.259   8.867
 2938TIP3    H133009   4.494   7.277   8.872
 2938TIP3    H233010   4.385   7.238   8.772
 2939TIP3   OH233011   5.016   7.162   8.753
 2939TIP3    H133012   4.979   7.075   8.780
 2939TIP3    H233013   5.095   7.165   8.808
 2940TIP3   OH233014   3.879   6.786   8.801
 2940TIP3    H133015   3.842   6.697   8.809
 2940TIP3    H233016   3.826   6.821   8.726
 2941TIP3   OH233017   4.561   6.778   8.710
 2941TIP3    H133018   4.536   6.838   8.635
 2941TIP3    H233019   4.542   6.688   8.674
 2942TIP3   OH233020   5.126   6.772   8.498
 2942TIP3    H133021   5.207   6.828   8.492
 2942TIP3    H233022   5.061   6.845   8.507
 2943TIP3   OH233023   4.020   6.489   8.748
 2943TIP3    H133024   4.003   6.400   8.779
 2943TIP3    H233025   4.054   6.538   8.826
 2944TIP3   OH233026   4.356   6.414   8.429
 2944TIP3    H133027   4.317   6.505   8.427
 2944TIP3    H233028   4.445   6.436   8.394
 2945TIP3   OH233029   4.930   6.684   8.825
 2945TIP3    H133030   5.012   6.636   8.805
 2945TIP3    H233031   4.888   6.623   8.888
 2946TIP3   OH233032   4.458   6.163   8.547
 2946TIP3    H133033   4.453   6.090   8.481
 2946TIP3    H233034   4.426   6.238   8.494
 2947TIP3   OH233035   4.468   5.968   8.345
 2947TIP3    H133036   4.515   6.012   8.271
 2947TIP3    H233037   4.375   5.970   8.314
 2948TIP3   OH233038   4.594   6.544   8.343
 2948TIP3    H133039   4.674   6.596   8.333
 2948TIP3    H233040   4.533   6.602   8.293
 2949TIP3   OH233041   5.067   6.288   8.849
 2949TIP3    H133042   5.094   6.196   8.835
 2949TIP3    H233043   5.151   6.335   8.855
 2950TIP3   OH233044   5.209   6.609   8.700
 2950TIP3    H133045   5.171   6.664   8.628
 2950TIP3    H233046   5.304   6.609   8.677
 2951TIP3   OH233047   4.290   6.248   8.780
 2951TIP3    H133048   4.206   6.203   8.757
 2951TIP3    H233049   4.344   6.229   8.701
 2952TIP3   OH233050   4.560   5.720   8.351
 2952TIP3    H133051   4.531   5.814   8.360
 2952TIP3    H233052   4.476   5.681   8.323
 2953TIP3   OH233053   4.672   6.135   8.751
 2953TIP3    H133054   4.610   6.116   8.824
 2953TIP3    H233055   4.610   6.137   8.676
 2954TIP3   OH233056   4.926   6.070   8.674
 2954TIP3    H133057   4.837   6.083   8.713
 2954TIP3    H233058   4.969   6.015   8.743
 2955TIP3   OH233059   5.094   5.937   8.847
 2955TIP3    H133060   5.098   5.839   8.841
 2955TIP3    H233061   5.083   5.953   8.943
 2956TIP3   OH233062   4.079   6.052   8.780
 2956TIP3    H133063   4.054   5.972   8.730
 2956TIP3    H233064   4.058   6.024   8.873
 2957TIP3   OH233065   4.562   5.687   8.653
 2957TIP3    H133066   4.641   5.631   8.660
 2957TIP3    H233067   4.549   5.675   8.557
 2958TIP3   OH233068   4.584   5.821   8.891
 2958TIP3    H133069   4.563   5.784   8.802
 2958TIP3    H233070   4.530   5.903   8.894
 2959TIP3   OH233071   3.794   7.533   7.638
 2959TIP3    H133072   3.719   7.484   7.596
 2959TIP3    H233073   3.803   7.478   7.718
 2960TIP3   OH233074   3.888   7.320   7.835
 2960TIP3    H133075   3.819   7.259   7.868
 2960TIP3    H233076   3.953   7.322   7.908
 2961TIP3   OH233077   5.635   7.400   8.082
 2961TIP3    H133078   5.657   7.463   8.154
 2961TIP3    H233079   5.693   7.428   8.009
 2962TIP3   OH233080   5.568   7.346   8.421
 2962TIP3    H133081   5.540   7.276   8.358
 2962TIP3    H233082   5.620   7.290   8.481
 2963TIP3   OH233083   5.439   6.933   8.867
 2963TIP3    H133084   5.350   6.931   8.909
 2963TIP3    H233085   5.472   7.020   8.897
 2964TIP3   OH233086   5.554   6.777   7.390
 2964TIP3    H133087   5.635   6.833   7.401
 2964TIP3    H233088   5.561   6.724   7.471
 2965TIP3   OH233089   5.595   6.584   7.583
 2965TIP3    H133090   5.519   6.533   7.618
 2965TIP3    H233091   5.641   6.610   7.664
 2966TIP3   OH233092   5.561   6.847   8.071
 2966TIP3    H133093   5.630   6.779   8.057
 2966TIP3    H233094   5.602   6.927   8.032
 2967TIP3   OH233095   5.439   7.126   8.330
 2967TIP3    H133096   5.377   7.177   8.385
 2967TIP3    H233097   5.388   7.118   8.246
 2968TIP3   OH233098   5.599   6.533   7.273
 2968TIP3    H133099   5.556   6.599   7.218
 2968TIP3    H233100   5.638   6.594   7.339
 2969TIP3   OH233101   5.399   6.441   7.678
 2969TIP3    H133102   5.366   6.352   7.657
 2969TIP3    H233103   5.369   6.450   7.771
 2970TIP3   OH233104   3.881   6.648   8.069
 2970TIP3    H133105   3.895   6.628   7.973
 2970TIP3    H233106   3.970   6.625   8.103
 2971TIP3   OH233107   5.489   6.625   8.624
 2971TIP3    H133108   5.540   6.540   8.637
 2971TIP3    H233109   5.557   6.694   8.609
 2972TIP3   OH233110   5.594   6.379   8.641
 2972TIP3    H133111   5.502   6.345   8.648
 2972TIP3    H233112   5.648   6.301   8.666
 2973TIP3   OH233113   5.344   6.194   7.519
 2973TIP3    H133114   5.368   6.099   7.529
 2973TIP3    H233115   5.427   6.224   7.478
 2974TIP3   OH233116   5.444   6.247   8.052
 2974TIP3    H133117   5.541   6.260   8.066
 2974TIP3    H233118   5.412   6.260   8.143
 2975TIP3   OH233119   5.423   6.328   8.312
 2975TIP3    H133120   5.338   6.362   8.348
 2975TIP3    H233121   5.475   6.412   8.302
 2976TIP3   OH233122   3.869   6.173   8.683
 2976TIP3    H133123   3.952   6.132   8.717
 2976TIP3    H233124   3.810   6.095   8.679
 2977TIP3   OH233125   5.667   5.767   8.842
 2977TIP3    H133126   5.709   5.690   8.800
 2977TIP3    H233127   5.642   5.823   8.766
 2978TIP3   OH233128   5.411   5.930   7.518
 2978TIP3    H133129   5.446   5.893   7.603
 2978TIP3    H233130   5.359   5.854   7.482
 2979TIP3   OH233131   3.954   6.002   7.998
 2979TIP3    H133132   3.996   5.914   8.004
 2979TIP3    H233133   4.031   6.061   8.000
 2980TIP3   OH233134   3.826   6.303   8.081
 2980TIP3    H133135   3.888   6.288   8.006
 2980TIP3    H233136   3.866   6.384   8.113
 2981TIP3   OH233137   5.572   5.953   8.657
 2981TIP3    H133138   5.481   5.989   8.654
 2981TIP3    H233139   5.568   5.890   8.584
 2982TIP3   OH233140   5.564   5.916   7.163
 2982TIP3    H133141   5.551   5.946   7.071
 2982TIP3    H233142   5.617   5.987   7.201
 2983TIP3   OH233143   3.833   5.950   7.488
 2983TIP3    H133144   3.740   5.967   7.475
 2983TIP3    H233145   3.866   5.959   7.397
 2984TIP3   OH233146   5.314   7.405   7.640
 2984TIP3    H133147   5.396   7.378   7.594
 2984TIP3    H233148   5.349   7.454   7.717
 2985TIP3   OH233149   3.823   5.780   8.310
 2985TIP3    H133150   3.762   5.748   8.379
 2985TIP3    H233151   3.767   5.841   8.257
 2986TIP3   OH233152   4.053   7.095   8.701
 2986TIP3    H133153   3.966   7.095   8.658
 2986TIP3    H233154   4.031   7.109   8.793
 2987TIP3   OH233155   4.340   7.226   8.366
 2987TIP3    H133156   4.325   7.324   8.361
 2987TIP3    H233157   4.436   7.225   8.351
 2988TIP3   OH233158   4.771   7.321   8.623
 2988TIP3    H133159   4.764   7.305   8.720
 2988TIP3    H233160   4.852   7.376   8.618
 2989TIP3   OH233161   5.005   7.507   8.580
 2989TIP3    H133162   5.079   7.444   8.568
 2989TIP3    H233163   5.014   7.522   8.678
 2990TIP3   OH233164   5.513   5.733   8.487
 2990TIP3    H133165   5.440   5.774   8.439
 2990TIP3    H233166   5.521   5.645   8.444
 2991TIP3   OH233167   4.058   7.577   8.342
 2991TIP3    H133168   3.970   7.584   8.298
 2991TIP3    H233169   4.034   7.547   8.431
 2992TIP3   OH233170   4.298   7.482   8.297
 2992TIP3    H133171   4.214   7.530   8.321
 2992TIP3    H233172   4.308   7.508   8.204
 2993TIP3   OH233173   4.799   7.471   8.173
 2993TIP3    H133174   4.728   7.489   8.109
 2993TIP3    H233175   4.804   7.557   8.220
 2994TIP3   OH233176   4.982   7.324   8.311
 2994TIP3    H133177   4.911   7.377   8.267
 2994TIP3    H233178   5.057   7.385   8.297
 2995TIP3   OH233179   5.223   7.527   8.295
 2995TIP3    H133180   5.205   7.619   8.271
 2995TIP3    H233181   5.270   7.494   8.214
 2996TIP3   OH233182   4.035   7.330   8.062
 2996TIP3    H133183   4.024   7.277   8.146
 2996TIP3    H233184   4.120   7.296   8.027
 2997TIP3   OH233185   4.257   7.283   7.928
 2997TIP3    H133186   4.238   7.189   7.948
 2997TIP3    H233187   4.350   7.287   7.962
 2998TIP3   OH233188   4.488   7.271   8.056
 2998TIP3    H133189   4.514   7.180   8.033
 2998TIP3    H233190   4.514   7.278   8.150
 2999TIP3   OH233191   4.832   5.901   7.905
 2999TIP3    H133192   4.739   5.871   7.909
 2999TIP3    H233193   4.874   5.822   7.870
 3000TIP3   OH233194   5.362   5.673   7.898
 3000TIP3    H133195   5.431   5.732   7.858
 3000TIP3    H233196   5.282   5.719   7.869
 3001TIP3   OH233197   5.523   5.817   7.745
 3001TIP3    H133198   5.577   5.760   7.686
 3001TIP3    H233199   5.586   5.890   7.765
 3002TIP3   OH233200   4.057   5.742   7.713
 3002TIP3    H133201   3.975   5.729   7.662
 3002TIP3    H233202   4.104   5.658   7.692
 3003TIP3   OH233203   4.509   5.741   7.676
 3003TIP3    H133204   4.589   5.726   7.624
 3003TIP3    H233205   4.542   5.734   7.767
 3004TIP3   OH233206   5.099   5.718   7.807
 3004TIP3    H133207   5.101   5.795   7.750
 3004TIP3    H233208   5.144   5.647   7.756
 3005TIP3   OH233209   5.246   5.732   7.428
 3005TIP3    H133210   5.164   5.783   7.432
 3005TIP3    H233211   5.209   5.642   7.433
 3006TIP3   OH233212   3.936   7.309   7.371
 3006TIP3    H133213   3.844   7.308   7.338
 3006TIP3    H233214   3.964   7.396   7.336
 3007TIP3   OH233215   4.104   5.889   7.130
 3007TIP3    H133216   4.180   5.853   7.082
 3007TIP3    H233217   4.148   5.955   7.183
 3008TIP3   OH233218   4.644   5.933   7.337
 3008TIP3    H133219   4.676   5.904   7.423
 3008TIP3    H233220   4.639   6.029   7.353
 3009TIP3   OH233221   5.506   7.359   7.461
 3009TIP3    H133222   5.489   7.278   7.407
 3009TIP3    H233223   5.483   7.429   7.396
 3010TIP3   OH233224   4.040   5.808   8.639
 3010TIP3    H133225   3.989   5.726   8.647
 3010TIP3    H233226   4.115   5.791   8.702
 3011TIP3   OH233227   4.239   5.724   8.819
 3011TIP3    H133228   4.334   5.706   8.803
 3011TIP3    H233229   4.211   5.636   8.852
 3012TIP3   OH233230   5.086   5.662   8.812
 3012TIP3    H133231   5.070   5.601   8.886
 3012TIP3    H233232   5.183   5.648   8.796
 3013TIP3   OH233233   5.390   7.256   8.696
 3013TIP3    H133234   5.314   7.262   8.633
 3013TIP3    H233235   5.415   7.350   8.701
 3014TIP3   OH233236   6.870   6.642   7.665
 3014TIP3    H133237   6.872   6.740   7.673
 3014TIP3    H233238   6.785   6.635   7.621
 3015TIP3   OH233239   6.751   6.531   8.001
 3015TIP3    H133240   6.762   6.500   8.094
 3015TIP3    H233241   6.664   6.499   7.971
 3016TIP3   OH233242   5.967   6.534   8.176
 3016TIP3    H133243   5.981   6.464   8.242
 3016TIP3    H233244   6.039   6.596   8.195
 3017TIP3   OH233245   7.137   6.891   7.897
 3017TIP3    H133246   7.117   6.814   7.952
 3017TIP3    H233247   7.114   6.966   7.954
 3018TIP3   OH233248   6.077   6.998   8.019
 3018TIP3    H133249   6.043   6.911   7.989
 3018TIP3    H233250   6.172   6.981   8.004
 3019TIP3   OH233251   5.752   6.338   7.557
 3019TIP3    H133252   5.716   6.419   7.596
 3019TIP3    H233253   5.693   6.327   7.481
 3020TIP3   OH233254   5.816   6.574   7.830
 3020TIP3    H133255   5.856   6.484   7.840
 3020TIP3    H233256   5.866   6.615   7.758
 3021TIP3   OH233257   6.801   7.387   7.865
 3021TIP3    H133258   6.883   7.337   7.843
 3021TIP3    H233259   6.768   7.334   7.939
 3022TIP3   OH233260   6.577   6.817   8.103
 3022TIP3    H133261   6.608   6.800   8.013
 3022TIP3    H233262   6.661   6.838   8.148
 3023TIP3   OH233263   7.464   5.994   8.105
 3023TIP3    H133264   7.461   6.068   8.168
 3023TIP3    H233265   7.519   6.033   8.035
 3024TIP3   OH233266   6.928   6.252   8.122
 3024TIP3    H133267   6.965   6.161   8.134
 3024TIP3    H233268   6.927   6.255   8.025
 3025TIP3   OH233269   6.228   6.050   7.783
 3025TIP3    H133270   6.235   6.143   7.752
 3025TIP3    H233271   6.170   6.014   7.713
 3026TIP3   OH233272   6.977   6.061   7.682
 3026TIP3    H133273   7.030   6.039   7.762
 3026TIP3    H233274   7.040   6.117   7.634
 3027TIP3   OH233275   5.870   6.310   7.892
 3027TIP3    H133276   5.933   6.267   7.953
 3027TIP3    H233277   5.907   6.280   7.806
 3028TIP3   OH233278   6.365   6.487   7.852
 3028TIP3    H133279   6.448   6.442   7.876
 3028TIP3    H233280   6.330   6.417   7.792
 3029TIP3   OH233281   7.464   6.087   8.395
 3029TIP3    H133282   7.409   6.160   8.360
 3029TIP3    H233283   7.520   6.136   8.457
 3030TIP3   OH233284   6.136   5.958   8.212
 3030TIP3    H133285   6.093   6.012   8.143
 3030TIP3    H233286   6.078   5.977   8.288
 3031TIP3   OH233287   6.818   6.893   7.585
 3031TIP3    H133288   6.801   6.883   7.489
 3031TIP3    H233289   6.791   6.987   7.599
 3032TIP3   OH233290   6.344   6.738   8.207
 3032TIP3    H133291   6.299   6.813   8.250
 3032TIP3    H233292   6.418   6.781   8.158
 3033TIP3   OH233293   7.159   6.050   7.890
 3033TIP3    H133294   7.158   5.957   7.909
 3033TIP3    H233295   7.251   6.075   7.914
 3034TIP3   OH233296   6.080   6.150   8.018
 3034TIP3    H133297   6.144   6.213   8.059
 3034TIP3    H233298   6.129   6.119   7.938
 3035TIP3   OH233299   6.215   6.950   8.319
 3035TIP3    H133300   6.201   7.042   8.290
 3035TIP3    H233301   6.127   6.932   8.361
 3036TIP3   OH233302   5.798   6.886   7.401
 3036TIP3    H133303   5.822   6.938   7.323
 3036TIP3    H233304   5.803   6.953   7.472
 3037TIP3   OH233305   7.149   7.121   8.112
 3037TIP3    H133306   7.052   7.110   8.110
 3037TIP3    H233307   7.155   7.204   8.062
 3038TIP3   OH233308   7.196   5.955   8.225
 3038TIP3    H133309   7.106   5.973   8.189
 3038TIP3    H233310   7.250   5.955   8.144
 3039TIP3   OH233311   6.472   5.702   7.955
 3039TIP3    H133312   6.452   5.607   7.955
 3039TIP3    H233313   6.382   5.736   7.980
 3040TIP3   OH233314   6.999   7.234   7.771
 3040TIP3    H133315   7.020   7.155   7.720
 3040TIP3    H233316   7.058   7.298   7.725
 3041TIP3   OH233317   7.121   7.018   7.597
 3041TIP3    H133318   7.091   6.945   7.541
 3041TIP3    H233319   7.149   6.970   7.677
 3042TIP3   OH233320   7.249   6.890   8.463
 3042TIP3    H133321   7.246   6.820   8.392
 3042TIP3    H233322   7.282   6.963   8.408
 3043TIP3   OH233323   6.716   6.584   7.405
 3043TIP3    H133324   6.666   6.667   7.392
 3043TIP3    H233325   6.800   6.600   7.358
 3044TIP3   OH233326   7.401   6.519   8.233
 3044TIP3    H133327   7.347   6.601   8.240
 3044TIP3    H233328   7.480   6.554   8.185
 3045TIP3   OH233329   7.094   6.605   7.515
 3045TIP3    H133330   7.016   6.622   7.572
 3045TIP3    H233331   7.147   6.548   7.575
 3046TIP3   OH233332   7.073   6.439   8.438
 3046TIP3    H133333   7.032   6.514   8.484
 3046TIP3    H233334   7.018   6.437   8.358
 3047TIP3   OH233335   6.228   6.666   7.699
 3047TIP3    H133336   6.201   6.617   7.618
 3047TIP3    H233337   6.286   6.602   7.744
 3048TIP3   OH233338   6.362   7.000   7.960
 3048TIP3    H133339   6.383   7.027   7.868
 3048TIP3    H233340   6.444   6.964   7.997
 3049TIP3   OH233341   6.242   6.536   8.089
 3049TIP3    H133342   6.275   6.535   7.996
 3049TIP3    H233343   6.297   6.607   8.129
 3050TIP3   OH233344   6.877   7.107   8.123
 3050TIP3    H133345   6.862   7.180   8.187
 3050TIP3    H233346   6.856   7.027   8.177
 3051TIP3   OH233347   6.362   6.987   8.547
 3051TIP3    H133348   6.299   7.051   8.586
 3051TIP3    H233349   6.322   6.972   8.458
 3052TIP3   OH233350   6.960   6.530   7.303
 3052TIP3    H133351   7.022   6.549   7.378
 3052TIP3    H233352   7.009   6.570   7.228
 3053TIP3   OH233353   6.075   6.594   8.459
 3053TIP3    H133354   6.070   6.684   8.495
 3053TIP3    H233355   6.000   6.554   8.506
 3054TIP3   OH233356   6.757   7.165   7.659
 3054TIP3    H133357   6.803   7.199   7.737
 3054TIP3    H233358   6.694   7.236   7.640
 3055TIP3   OH233359   6.174   7.172   8.624
 3055TIP3    H133360   6.166   7.186   8.527
 3055TIP3    H233361   6.092   7.122   8.645
 3056TIP3   OH233362   6.121   6.551   7.472
 3056TIP3    H133363   6.078   6.633   7.444
 3056TIP3    H233364   6.066   6.484   7.428
 3057TIP3   OH233365   5.765   6.822   8.376
 3057TIP3    H133366   5.727   6.813   8.287
 3057TIP3    H233367   5.795   6.730   8.392
 3058TIP3   OH233368   5.758   7.073   8.016
 3058TIP3    H133369   5.853   7.054   8.020
 3058TIP3    H233370   5.750   7.149   8.076
 3059TIP3   OH233371   7.530   7.163   8.632
 3059TIP3    H133372   7.514   7.076   8.592
 3059TIP3    H233373   7.448   7.177   8.684
 3060TIP3   OH233374   6.625   7.080   8.490
 3060TIP3    H133375   6.642   7.167   8.531
 3060TIP3    H233376   6.532   7.061   8.515
 3061TIP3   OH233377   6.702   7.473   7.480
 3061TIP3    H133378   6.659   7.455   7.394
 3061TIP3    H233379   6.665   7.559   7.500
 3062TIP3   OH233380   6.049   7.322   7.671
 3062TIP3    H133381   6.074   7.312   7.765
 3062TIP3    H233382   5.986   7.248   7.660
 3063TIP3   OH233383   7.047   7.404   7.194
 3063TIP3    H133384   7.002   7.348   7.129
 3063TIP3    H233385   7.003   7.371   7.275
 3064TIP3   OH233386   6.932   7.349   7.439
 3064TIP3    H133387   6.850   7.395   7.468
 3064TIP3    H233388   6.935   7.273   7.500
 3065TIP3   OH233389   7.236   6.310   8.655
 3065TIP3    H133390   7.170   6.335   8.588
 3065TIP3    H233391   7.252   6.215   8.635
 3066TIP3   OH233392   5.992   6.932   8.464
 3066TIP3    H133393   5.989   6.897   8.556
 3066TIP3    H233394   5.902   6.911   8.429
 3067TIP3   OH233395   6.232   5.783   8.040
 3067TIP3    H133396   6.141   5.789   8.004
 3067TIP3    H233397   6.220   5.844   8.116
 3068TIP3   OH233398   6.725   5.745   8.372
 3068TIP3    H133399   6.753   5.709   8.459
 3068TIP3    H233400   6.627   5.752   8.382
 3069TIP3   OH233401   6.997   6.159   8.486
 3069TIP3    H133402   6.948   6.120   8.562
 3069TIP3    H233403   7.000   6.253   8.509
 3070TIP3   OH233404   7.081   6.634   7.073
 3070TIP3    H133405   7.084   6.588   6.988
 3070TIP3    H233406   7.160   6.689   7.062
 3071TIP3   OH233407   6.256   6.296   8.184
 3071TIP3    H133408   6.175   6.286   8.239
 3071TIP3    H233409   6.245   6.392   8.160
 3072TIP3   OH233410   6.249   6.296   7.678
 3072TIP3    H133411   6.153   6.293   7.659
 3072TIP3    H233412   6.285   6.278   7.588
 3073TIP3   OH233413   6.825   6.340   7.499
 3073TIP3    H133414   6.783   6.421   7.462
 3073TIP3    H233415   6.910   6.380   7.525
 3074TIP3   OH233416   6.680   6.380   8.694
 3074TIP3    H133417   6.645   6.294   8.725
 3074TIP3    H233418   6.754   6.391   8.756
 3075TIP3   OH233419   6.900   6.313   7.842
 3075TIP3    H133420   6.884   6.399   7.799
 3075TIP3    H233421   6.901   6.252   7.766
 3076TIP3   OH233422   6.020   6.288   8.302
 3076TIP3    H133423   6.042   6.326   8.388
 3076TIP3    H233424   5.980   6.203   8.328
 3077TIP3   OH233425   5.703   6.019   7.769
 3077TIP3    H133426   5.762   6.031   7.846
 3077TIP3    H233427   5.752   6.062   7.697
 3078TIP3   OH233428   5.772   6.100   7.280
 3078TIP3    H133429   5.840   6.123   7.213
 3078TIP3    H233430   5.756   6.192   7.309
 3079TIP3   OH233431   6.826   6.464   8.257
 3079TIP3    H133432   6.872   6.388   8.213
 3079TIP3    H233433   6.769   6.416   8.319
 3080TIP3   OH233434   6.529   6.002   7.761
 3080TIP3    H133435   6.432   6.002   7.751
 3080TIP3    H233436   6.539   6.048   7.846
 3081TIP3   OH233437   5.972   6.216   7.665
 3081TIP3    H133438   5.903   6.249   7.603
 3081TIP3    H233439   5.998   6.129   7.627
 3082TIP3   OH233440   6.308   6.237   7.422
 3082TIP3    H133441   6.405   6.235   7.431
 3082TIP3    H233442   6.292   6.296   7.347
 3083TIP3   OH233443   6.951   5.974   8.110
 3083TIP3    H133444   6.873   5.974   8.169
 3083TIP3    H233445   6.913   5.944   8.024
 3084TIP3   OH233446   6.220   6.353   7.136
 3084TIP3    H133447   6.175   6.324   7.054
 3084TIP3    H233448   6.309   6.369   7.098
 3085TIP3   OH233449   7.228   7.531   8.742
 3085TIP3    H133450   7.257   7.559   8.653
 3085TIP3    H233451   7.311   7.535   8.793
 3086TIP3   OH233452   6.027   6.765   8.686
 3086TIP3    H133453   6.090   6.804   8.749
 3086TIP3    H233454   5.946   6.753   8.741
 3087TIP3   OH233455   6.603   6.315   7.916
 3087TIP3    H133456   6.698   6.309   7.895
 3087TIP3    H233457   6.603   6.293   8.010
 3088TIP3   OH233458   6.055   5.969   7.589
 3088TIP3    H133459   6.009   5.892   7.629
 3088TIP3    H233460   6.096   5.930   7.510
 3089TIP3   OH233461   6.475   6.148   8.202
 3089TIP3    H133462   6.397   6.210   8.199
 3089TIP3    H233463   6.540   6.201   8.250
 3090TIP3   OH233464   6.536   6.787   7.361
 3090TIP3    H133465   6.466   6.721   7.343
 3090TIP3    H233466   6.510   6.816   7.452
 3091TIP3   OH233467   7.254   6.746   8.247
 3091TIP3    H133468   7.306   6.780   8.172
 3091TIP3    H233469   7.171   6.719   8.201
 3092TIP3   OH233470   6.686   6.819   8.502
 3092TIP3    H133471   6.660   6.792   8.591
 3092TIP3    H233472   6.673   6.916   8.506
 3093TIP3   OH233473   6.063   6.752   7.918
 3093TIP3    H133474   6.119   6.738   7.838
 3093TIP3    H233475   6.090   6.680   7.977
 3094TIP3   OH233476   6.777   6.904   7.317
 3094TIP3    H133477   6.754   6.992   7.283
 3094TIP3    H233478   6.687   6.861   7.316
 3095TIP3   OH233479   5.776   6.554   8.472
 3095TIP3    H133480   5.751   6.501   8.551
 3095TIP3    H233481   5.715   6.521   8.403
 3096TIP3   OH233482   6.445   6.521   8.669
 3096TIP3    H133483   6.406   6.461   8.603
 3096TIP3    H233484   6.539   6.492   8.668
 3097TIP3   OH233485   6.953   7.052   8.507
 3097TIP3    H133486   6.862   7.058   8.475
 3097TIP3    H233487   6.941   7.091   8.596
 3098TIP3   OH233488   7.417   6.316   7.362
 3098TIP3    H133489   7.413   6.283   7.269
 3098TIP3    H233490   7.454   6.404   7.347
 3099TIP3   OH233491   7.473   6.868   8.591
 3099TIP3    H133492   7.378   6.890   8.570
 3099TIP3    H233493   7.510   6.865   8.500
 3100TIP3   OH233494   7.288   7.119   7.339
 3100TIP3    H133495   7.252   7.111   7.430
 3100TIP3    H233496   7.211   7.084   7.289
 3101TIP3   OH233497   7.066   6.653   8.073
 3101TIP3    H133498   6.971   6.643   8.056
 3101TIP3    H233499   7.102   6.584   8.014
 3102TIP3   OH233500   6.291   7.068   7.692
 3102TIP3    H133501   6.313   7.154   7.648
 3102TIP3    H233502   6.197   7.063   7.668
 3103TIP3   OH233503   5.876   6.585   7.200
 3103TIP3    H133504   5.927   6.555   7.121
 3103TIP3    H233505   5.788   6.562   7.170
 3104TIP3   OH233506   6.438   6.850   7.618
 3104TIP3    H133507   6.394   6.936   7.632
 3104TIP3    H233508   6.379   6.790   7.666
 3105TIP3   OH233509   6.486   7.257   8.324
 3105TIP3    H133510   6.537   7.336   8.301
 3105TIP3    H233511   6.557   7.197   8.354
 3106TIP3   OH233512   6.308   7.306   7.582
 3106TIP3    H133513   6.223   7.343   7.611
 3106TIP3    H233514   6.364   7.386   7.589
 3107TIP3   OH233515   6.801   6.855   8.245
 3107TIP3    H133516   6.757   6.840   8.333
 3107TIP3    H233517   6.863   6.781   8.247
 3108TIP3   OH233518   7.072   6.986   7.189
 3108TIP3    H133519   7.090   6.921   7.261
 3108TIP3    H233520   6.977   6.973   7.189
 3109TIP3   OH233521   7.091   7.319   8.493
 3109TIP3    H133522   7.017   7.261   8.463
 3109TIP3    H233523   7.108   7.381   8.420
 3110TIP3   OH233524   7.515   7.354   7.156
 3110TIP3    H133525   7.566   7.433   7.137
 3110TIP3    H233526   7.432   7.394   7.187
 3111TIP3   OH233527   5.940   6.038   8.422
 3111TIP3    H133528   5.859   6.085   8.447
 3111TIP3    H233529   5.928   5.953   8.469
 3112TIP3   OH233530   7.147   6.830   7.380
 3112TIP3    H133531   7.118   6.742   7.411
 3112TIP3    H233532   7.242   6.824   7.402
 3113TIP3   OH233533   5.901   7.198   8.284
 3113TIP3    H133534   5.952   7.116   8.274
 3113TIP3    H233535   5.957   7.245   8.348
 3114TIP3   OH233536   6.797   6.016   8.356
 3114TIP3    H133537   6.883   6.035   8.399
 3114TIP3    H233538   6.776   5.925   8.382
 3115TIP3   OH233539   6.846   5.984   7.468
 3115TIP3    H133540   6.918   5.939   7.422
 3115TIP3    H233541   6.891   5.999   7.554
 3116TIP3   OH233542   6.569   6.148   7.505
 3116TIP3    H133543   6.655   6.191   7.520
 3116TIP3    H233544   6.553   6.105   7.590
 3117TIP3   OH233545   6.690   6.278   8.416
 3117TIP3    H133546   6.682   6.301   8.511
 3117TIP3    H233547   6.738   6.193   8.417
 3118TIP3   OH233548   6.661   5.828   7.622
 3118TIP3    H133549   6.606   5.893   7.672
 3118TIP3    H233550   6.730   5.885   7.583
 3119TIP3   OH233551   6.241   5.955   7.320
 3119TIP3    H133552   6.230   6.051   7.329
 3119TIP3    H233553   6.337   5.945   7.326
 3120TIP3   OH233554   7.234   6.049   8.547
 3120TIP3    H133555   7.149   6.066   8.501
 3120TIP3    H233556   7.298   6.060   8.474
 3121TIP3   OH233557   7.124   6.453   7.891
 3121TIP3    H133558   7.044   6.398   7.891
 3121TIP3    H233559   7.175   6.402   7.957
 3122TIP3   OH233560   5.859   6.300   7.078
 3122TIP3    H133561   5.944   6.347   7.066
 3122TIP3    H233562   5.845   6.275   6.984
 3123TIP3   OH233563   7.266   7.388   8.104
 3123TIP3    H133564   7.243   7.431   8.018
 3123TIP3    H233565   7.361   7.370   8.090
 3124TIP3   OH233566   5.973   5.762   7.981
 3124TIP3    H133567   5.977   5.750   7.883
 3124TIP3    H233568   5.954   5.670   8.010
 3125TIP3   OH233569   5.841   7.129   7.588
 3125TIP3    H133570   5.778   7.192   7.626
 3125TIP3    H233571   5.856   7.172   7.501
 3126TIP3   OH233572   5.795   7.427   8.710
 3126TIP3    H133573   5.884   7.421   8.749
 3126TIP3    H233574   5.767   7.333   8.710
 3127TIP3   OH233575   6.274   7.281   8.860
 3127TIP3    H133576   6.371   7.282   8.865
 3127TIP3    H233577   6.256   7.247   8.770
 3128TIP3   OH233578   6.900   7.163   8.752
 3128TIP3    H133579   6.864   7.076   8.778
 3128TIP3    H233580   6.980   7.167   8.808
 3129TIP3   OH233581   5.770   6.788   8.798
 3129TIP3    H133582   5.730   6.700   8.805
 3129TIP3    H233583   5.716   6.826   8.726
 3130TIP3   OH233584   6.452   6.787   8.725
 3130TIP3    H133585   6.426   6.838   8.646
 3130TIP3    H233586   6.429   6.694   8.701
 3131TIP3   OH233587   7.025   6.758   8.496
 3131TIP3    H133588   7.114   6.799   8.505
 3131TIP3    H233589   6.972   6.840   8.508
 3132TIP3   OH233590   5.906   6.497   8.788
 3132TIP3    H133591   5.994   6.457   8.780
 3132TIP3    H233592   5.923   6.556   8.865
 3133TIP3   OH233593   6.338   6.599   7.266
 3133TIP3    H133594   6.274   6.572   7.333
 3133TIP3    H233595   6.314   6.536   7.195
 3134TIP3   OH233596   6.265   6.402   8.462
 3134TIP3    H133597   6.208   6.481   8.472
 3134TIP3    H233598   6.333   6.437   8.402
 3135TIP3   OH233599   6.440   6.443   7.027
 3135TIP3    H133600   6.435   6.444   6.930
 3135TIP3    H233601   6.515   6.500   7.046
 3136TIP3   OH233602   6.795   6.683   8.818
 3136TIP3    H133603   6.860   6.647   8.754
 3136TIP3    H233604   6.779   6.604   8.873
 3137TIP3   OH233605   6.306   6.137   8.549
 3137TIP3    H133606   6.339   6.076   8.479
 3137TIP3    H233607   6.297   6.222   8.504
 3138TIP3   OH233608   6.367   5.964   8.345
 3138TIP3    H133609   6.413   6.013   8.271
 3138TIP3    H233610   6.276   5.961   8.310
 3139TIP3   OH233611   6.480   6.554   8.347
 3139TIP3    H133612   6.565   6.599   8.340
 3139TIP3    H233613   6.422   6.618   8.301
 3140TIP3   OH233614   6.975   6.275   8.845
 3140TIP3    H133615   7.032   6.198   8.838
 3140TIP3    H233616   7.034   6.341   8.882
 3141TIP3   OH233617   7.062   6.606   8.713
 3141TIP3    H133618   7.046   6.659   8.632
 3141TIP3    H233619   7.156   6.582   8.700
 3142TIP3   OH233620   6.167   6.249   8.768
 3142TIP3    H133621   6.081   6.201   8.765
 3142TIP3    H233622   6.210   6.217   8.686
 3143TIP3   OH233623   6.454   5.718   8.351
 3143TIP3    H133624   6.424   5.812   8.355
 3143TIP3    H233625   6.370   5.675   8.324
 3144TIP3   OH233626   6.554   6.137   8.769
 3144TIP3    H133627   6.500   6.118   8.849
 3144TIP3    H233628   6.494   6.112   8.699
 3145TIP3   OH233629   6.824   6.060   8.682
 3145TIP3    H133630   6.730   6.060   8.710
 3145TIP3    H233631   6.868   6.021   8.760
 3146TIP3   OH233632   7.009   5.945   8.847
 3146TIP3    H133633   7.003   5.847   8.841
 3146TIP3    H233634   6.990   5.963   8.941
 3147TIP3   OH233635   5.960   6.056   8.777
 3147TIP3    H133636   5.950   5.978   8.719
 3147TIP3    H233637   5.947   6.018   8.867
 3148TIP3   OH233638   6.413   5.682   8.617
 3148TIP3    H133639   6.494   5.635   8.644
 3148TIP3    H233640   6.425   5.684   8.520
 3149TIP3   OH233641   6.482   5.854   8.877
 3149TIP3    H133642   6.429   5.788   8.829
 3149TIP3    H233643   6.412   5.917   8.904
 3150TIP3   OH233644   5.670   7.501   7.622
 3150TIP3    H133645   5.604   7.461   7.562
 3150TIP3    H233646   5.660   7.442   7.698
 3151TIP3   OH233647   5.755   7.306   7.822
 3151TIP3    H133648   5.693   7.246   7.868
 3151TIP3    H233649   5.830   7.308   7.886
 3152TIP3   OH233650   7.548   7.369   8.103
 3152TIP3    H133651   7.571   7.393   8.194
 3152TIP3    H233652   7.536   7.459   8.068
 3153TIP3   OH233653   7.466   7.344   8.405
 3153TIP3    H133654   7.414   7.277   8.355
 3153TIP3    H233655   7.526   7.285   8.453
 3154TIP3   OH233656   7.286   6.953   8.868
 3154TIP3    H133657   7.213   6.966   8.933
 3154TIP3    H233658   7.340   7.032   8.883
 3155TIP3   OH233659   7.406   6.762   7.431
 3155TIP3    H133660   7.492   6.803   7.449
 3155TIP3    H233661   7.410   6.683   7.490
 3156TIP3   OH233662   7.477   6.570   7.602
 3156TIP3    H133663   7.384   6.543   7.615
 3156TIP3    H233664   7.508   6.576   7.694
 3157TIP3   OH233665   7.477   6.826   8.098
 3157TIP3    H133666   7.565   6.809   8.059
 3157TIP3    H233667   7.472   6.920   8.069
 3158TIP3   OH233668   7.318   7.135   8.325
 3158TIP3    H133669   7.241   7.168   8.375
 3158TIP3    H233670   7.280   7.129   8.235
 3159TIP3   OH233671   7.358   6.269   7.094
 3159TIP3    H133672   7.307   6.339   7.051
 3159TIP3    H233673   7.304   6.189   7.076
 3160TIP3   OH233674   7.246   6.434   7.654
 3160TIP3    H133675   7.232   6.341   7.624
 3160TIP3    H233676   7.216   6.430   7.748
 3161TIP3   OH233677   5.759   6.655   8.073
 3161TIP3    H133678   5.768   6.631   7.977
 3161TIP3    H233679   5.847   6.619   8.103
 3162TIP3   OH233680   7.346   6.625   8.636
 3162TIP3    H133681   7.410   6.554   8.613
 3162TIP3    H233682   7.396   6.706   8.613
 3163TIP3   OH233683   7.492   6.408   8.651
 3163TIP3    H133684   7.395   6.396   8.667
 3163TIP3    H233685   7.519   6.314   8.670
 3164TIP3   OH233686   7.195   6.050   7.052
 3164TIP3    H133687   7.253   5.977   7.081
 3164TIP3    H233688   7.187   6.024   6.959
 3165TIP3   OH233689   7.241   6.193   7.523
 3165TIP3    H133690   7.243   6.096   7.508
 3165TIP3    H233691   7.304   6.226   7.454
 3166TIP3   OH233692   7.237   6.281   8.060
 3166TIP3    H133693   7.333   6.267   8.046
 3166TIP3    H233694   7.231   6.266   8.156
 3167TIP3   OH233695   7.291   6.304   8.345
 3167TIP3    H133696   7.204   6.344   8.368
 3167TIP3    H233697   7.331   6.380   8.298
 3168TIP3   OH233698   5.733   6.161   8.676
 3168TIP3    H133699   5.815   6.147   8.726
 3168TIP3    H233700   5.685   6.076   8.689
 3169TIP3   OH233701   7.503   5.700   8.851
 3169TIP3    H133702   7.557   5.644   8.794
 3169TIP3    H233703   7.493   5.780   8.794
 3170TIP3   OH233704   7.246   5.923   7.505
 3170TIP3    H133705   7.267   5.877   7.589
 3170TIP3    H233706   7.276   5.857   7.439
 3171TIP3   OH233707   5.845   5.997   8.028
 3171TIP3    H133708   5.882   5.906   8.024
 3171TIP3    H233709   5.926   6.052   8.029
 3172TIP3   OH233710   5.698   6.304   8.094
 3172TIP3    H133711   5.745   6.286   8.011
 3172TIP3    H233712   5.745   6.385   8.121
 3173TIP3   OH233713   7.450   5.916   8.712
 3173TIP3    H133714   7.372   5.973   8.738
 3173TIP3    H233715   7.424   5.889   8.623
 3174TIP3   OH233716   5.684   5.909   7.455
 3174TIP3    H133717   5.593   5.940   7.474
 3174TIP3    H233718   5.715   5.974   7.390
 3175TIP3   OH233719   7.158   7.402   7.646
 3175TIP3    H133720   7.225   7.404   7.574
 3175TIP3    H233721   7.204   7.447   7.719
 3176TIP3   OH233722   5.713   5.775   8.308
 3176TIP3    H133723   5.656   5.751   8.383
 3176TIP3    H233724   5.663   5.845   8.262
 3177TIP3   OH233725   5.931   7.077   8.708
 3177TIP3    H133726   5.845   7.073   8.664
 3177TIP3    H233727   5.908   7.098   8.799
 3178TIP3   OH233728   6.221   7.222   8.368
 3178TIP3    H133729   6.216   7.318   8.346
 3178TIP3    H233730   6.319   7.218   8.379
 3179TIP3   OH233731   6.673   7.320   8.616
 3179TIP3    H133732   6.656   7.304   8.711
 3179TIP3    H233733   6.750   7.380   8.620
 3180TIP3   OH233734   6.893   7.505   8.575
 3180TIP3    H133735   6.967   7.450   8.544
 3180TIP3    H233736   6.916   7.509   8.671
 3181TIP3   OH233737   7.359   5.730   8.506
 3181TIP3    H133738   7.280   5.767   8.462
 3181TIP3    H233739   7.368   5.643   8.462
 3182TIP3   OH233740   5.941   7.547   8.337
 3182TIP3    H133741   5.851   7.547   8.298
 3182TIP3    H233742   5.918   7.540   8.431
 3183TIP3   OH233743   6.193   7.473   8.290
 3183TIP3    H133744   6.105   7.513   8.313
 3183TIP3    H233745   6.208   7.514   8.203
 3184TIP3   OH233746   6.679   7.465   8.169
 3184TIP3    H133747   6.611   7.489   8.101
 3184TIP3    H233748   6.685   7.549   8.219
 3185TIP3   OH233749   6.876   7.322   8.295
 3185TIP3    H133750   6.804   7.378   8.261
 3185TIP3    H233751   6.952   7.380   8.277
 3186TIP3   OH233752   7.132   7.547   8.281
 3186TIP3    H133753   7.122   7.632   8.233
 3186TIP3    H233754   7.182   7.492   8.215
 3187TIP3   OH233755   5.919   7.333   8.037
 3187TIP3    H133756   5.904   7.283   8.120
 3187TIP3    H233757   6.007   7.298   8.008
 3188TIP3   OH233758   6.144   7.272   7.913
 3188TIP3    H133759   6.139   7.175   7.926
 3188TIP3    H233760   6.234   7.288   7.950
 3189TIP3   OH233761   6.369   7.268   8.050
 3189TIP3    H133762   6.394   7.174   8.039
 3189TIP3    H233763   6.379   7.282   8.146
 3190TIP3   OH233764   6.811   5.868   7.889
 3190TIP3    H133765   6.741   5.847   7.952
 3190TIP3    H233766   6.760   5.880   7.807
 3191TIP3   OH233767   7.206   5.682   7.925
 3191TIP3    H133768   7.267   5.733   7.866
 3191TIP3    H233769   7.143   5.651   7.860
 3192TIP3   OH233770   7.353   5.837   7.751
 3192TIP3    H133771   7.415   5.770   7.714
 3192TIP3    H233772   7.419   5.904   7.780
 3193TIP3   OH233773   5.964   5.737   7.703
 3193TIP3    H133774   5.878   5.736   7.659
 3193TIP3    H233775   5.997   5.646   7.683
 3194TIP3   OH233776   5.821   5.728   7.257
 3194TIP3    H133777   5.779   5.792   7.196
 3194TIP3    H233778   5.773   5.751   7.338
 3195TIP3   OH233779   6.362   5.706   7.682
 3195TIP3    H133780   6.430   5.748   7.626
 3195TIP3    H233781   6.395   5.720   7.772
 3196TIP3   OH233782   5.848   7.311   7.385
 3196TIP3    H133783   5.766   7.301   7.334
 3196TIP3    H233784   5.891   7.383   7.336
 3197TIP3   OH233785   6.529   5.907   7.357
 3197TIP3    H133786   6.582   5.858   7.422
 3197TIP3    H233787   6.539   5.999   7.388
 3198TIP3   OH233788   7.367   7.376   7.483
 3198TIP3    H133789   7.355   7.285   7.448
 3198TIP3    H233790   7.364   7.426   7.399
 3199TIP3   OH233791   5.905   5.808   8.603
 3199TIP3    H133792   5.861   5.723   8.622
 3199TIP3    H233793   5.978   5.797   8.670
 3200TIP3   OH233794   6.094   5.727   8.764
 3200TIP3    H133795   6.180   5.715   8.722
 3200TIP3    H233796   6.119   5.698   8.855
 3201TIP3   OH233797   6.990   5.670   8.829
 3201TIP3    H133798   6.983   5.630   8.918
 3201TIP3    H233799   7.074   5.629   8.798
 3202TIP3   OH233800   7.283   7.252   8.690
 3202TIP3    H133801   7.215   7.274   8.623
 3202TIP3    H233802   7.307   7.340   8.722
 3203TIP3   OH233803   7.588   6.310   7.575
 3203TIP3    H133804   7.555   6.402   7.579
 3203TIP3    H233805   7.541   6.281   7.495
 3204TIP3   OH233806   7.574   6.784   8.358
 3204TIP3    H133807   7.529   6.774   8.271
 3204TIP3    H233808   7.583   6.691   8.390
 3205TIP3   OH233809   7.559   7.059   8.028
 3205TIP3    H133810   7.651   7.060   7.994
 3205TIP3    H233811   7.559   7.140   8.082
 3206TIP3   OH233812   7.556   6.020   7.762
 3206TIP3    H133813   7.626   6.089   7.754
 3206TIP3    H233814   7.537   6.003   7.667
 3207TIP3   OH233815   7.590   6.534   8.438
 3207TIP3    H133816   7.583   6.479   8.519
 3207TIP3    H233817   7.511   6.506   8.389
 3208TIP3   OH233818   7.626   6.751   8.771
 3208TIP3    H133819   7.612   6.656   8.761
 3208TIP3    H233820   7.558   6.790   8.710
 3209TIP3   OH233821   7.496   7.529   7.678
 3209TIP3    H133822   7.432   7.494   7.612
 3209TIP3    H233823   7.507   7.449   7.734
 3210TIP3   OH233824   7.558   7.306   7.814
 3210TIP3    H133825   7.515   7.228   7.853
 3210TIP3    H233826   7.641   7.307   7.866
 3211TIP3   OH233827   7.626   6.580   8.104
 3211TIP3    H133828   7.618   6.591   8.008
 3211TIP3    H233829   7.707   6.633   8.118
 3212TIP3   OH233830   7.547   6.157   8.677
 3212TIP3    H133831   7.644   6.151   8.665
 3212TIP3    H233832   7.525   6.063   8.690
 3213TIP3   OH233833   7.505   6.267   8.058
 3213TIP3    H133834   7.603   6.261   8.052
 3213TIP3    H233835   7.495   6.359   8.085
 3214TIP3   OH233836   7.536   5.930   7.507
 3214TIP3    H133837   7.450   5.972   7.490
 3214TIP3    H233838   7.553   5.887   7.421
 3215TIP3   OH233839   7.485   5.749   8.266
 3215TIP3    H133840   7.464   5.772   8.359
 3215TIP3    H233841   7.457   5.829   8.216
 3216TIP3   OH233842   0.805   7.535   8.022
 3216TIP3    H133843   0.801   7.482   7.939
 3216TIP3    H233844   0.710   7.563   8.033
 3217TIP3   OH233845   1.720   7.501   7.277
 3217TIP3    H133846   1.625   7.511   7.262
 3217TIP3    H233847   1.747   7.594   7.266
 3218TIP3   OH233848   0.579  -0.021   8.059
 3218TIP3    H133849   0.485  -0.034   8.030
 3218TIP3    H233850   0.592   0.076   8.056
 3219TIP3   OH233851   1.078   7.599   8.383
 3219TIP3    H133852   1.155   7.572   8.438
 3219TIP3    H233853   1.010   7.538   8.417
 3220TIP3   OH233854   0.325   7.605   7.987
 3220TIP3    H133855   0.310   7.596   7.889
 3220TIP3    H233856   0.288   7.518   8.016
 3221TIP3   OH233857   0.795   7.517   8.357
 3221TIP3    H133858   0.785   7.613   8.342
 3221TIP3    H233859   0.731   7.480   8.294
 3222TIP3   OH233860   0.753   7.498   8.624
 3222TIP3    H133861   0.815   7.440   8.669
 3222TIP3    H233862   0.776   7.485   8.529
 3223TIP3   OH233863   1.801   7.547   8.788
 3223TIP3    H133864   1.885   7.516   8.746
 3223TIP3    H233865   1.840   7.612   8.850
 3224TIP3   OH233866   0.055   7.616   8.296
 3224TIP3    H133867  -0.009   7.662   8.351
 3224TIP3    H233868   0.075   7.685   8.231
 3225TIP3   OH233869   1.668   7.576   8.462
 3225TIP3    H133870   1.605   7.552   8.391
 3225TIP3    H233871   1.724   7.495   8.465
 3226TIP3   OH233872   1.587   7.542   7.898
 3226TIP3    H133873   1.600   7.637   7.918
 3226TIP3    H233874   1.496   7.548   7.865
 3227TIP3   OH233875   0.275   7.565   7.725
 3227TIP3    H133876   0.194   7.545   7.673
 3227TIP3    H233877   0.336   7.500   7.684
 3228TIP3   OH233878   0.210   7.545   7.247
 3228TIP3    H133879   0.234   7.641   7.244
 3228TIP3    H233880   0.142   7.552   7.315
 3229TIP3   OH233881   0.736   7.528   7.727
 3229TIP3    H133882   0.794   7.579   7.670
 3229TIP3    H233883   0.662   7.590   7.739
 3230TIP3   OH233884   1.294   7.545   7.829
 3230TIP3    H133885   1.230   7.545   7.756
 3230TIP3    H233886   1.256   7.480   7.888
 3231TIP3   OH233887   1.398   7.561   7.382
 3231TIP3    H133888   1.358   7.573   7.295
 3231TIP3    H233889   1.364   7.475   7.411
 3232TIP3   OH233890   0.443   7.531   8.746
 3232TIP3    H133891   0.525   7.501   8.704
 3232TIP3    H233892   0.430   7.463   8.816
 3233TIP3   OH233893   1.326   7.456   8.826
 3233TIP3    H133894   1.345   7.431   8.919
 3233TIP3    H233895   1.418   7.470   8.794
 3234TIP3   OH233896   2.715   7.532   8.023
 3234TIP3    H133897   2.705   7.466   7.952
 3234TIP3    H233898   2.620   7.550   8.043
 3235TIP3   OH233899   3.544   7.501   7.287
 3235TIP3    H133900   3.453   7.510   7.320
 3235TIP3    H233901   3.569   7.594   7.274
 3236TIP3   OH233902   2.466   7.632   8.069
 3236TIP3    H133903   2.371   7.619   8.044
 3236TIP3    H233904   2.475   7.730   8.060
 3237TIP3   OH233905   2.955   7.609   8.396
 3237TIP3    H133906   3.026   7.566   8.450
 3237TIP3    H233907   2.879   7.553   8.420
 3238TIP3   OH233908   2.202   7.590   7.975
 3238TIP3    H133909   2.194   7.583   7.878
 3238TIP3    H233910   2.176   7.498   8.002
 3239TIP3   OH233911   2.690   7.517   8.373
 3239TIP3    H133912   2.691   7.615   8.361
 3239TIP3    H233913   2.606   7.495   8.327
 3240TIP3   OH233914   2.626   7.489   8.631
 3240TIP3    H133915   2.705   7.457   8.678
 3240TIP3    H233916   2.656   7.481   8.538
 3241TIP3   OH233917   3.687   7.546   8.802
 3241TIP3    H133918   3.772   7.507   8.774
 3241TIP3    H233919   3.716   7.633   8.836
 3242TIP3   OH233920   1.921   7.587   8.294
 3242TIP3    H133921   1.845   7.593   8.354
 3242TIP3    H233922   1.938   7.681   8.271
 3243TIP3   OH233923   3.552   7.582   8.478
 3243TIP3    H133924   3.497   7.560   8.400
 3243TIP3    H233925   3.593   7.495   8.496
 3244TIP3   OH233926   3.479   7.536   7.889
 3244TIP3    H133927   3.519   7.624   7.901
 3244TIP3    H233928   3.385   7.563   7.891
 3245TIP3   OH233929   2.158   7.556   7.708
 3245TIP3    H133930   2.070   7.542   7.667
 3245TIP3    H233931   2.207   7.479   7.670
 3246TIP3   OH233932   2.654   7.532   7.727
 3246TIP3    H133933   2.703   7.609   7.696
 3246TIP3    H233934   2.565   7.569   7.731
 3247TIP3   OH233935   3.216   7.579   7.797
 3247TIP3    H133936   3.161   7.592   7.719
 3247TIP3    H233937   3.168   7.503   7.839
 3248TIP3   OH233938   3.300   7.590   7.367
 3248TIP3    H133939   3.239   7.552   7.301
 3248TIP3    H233940   3.283   7.527   7.440
 3249TIP3   OH233941   2.355   7.528   8.723
 3249TIP3    H133942   2.439   7.478   8.713
 3249TIP3    H233943   2.318   7.487   8.804
 3250TIP3   OH233944   3.213   7.462   8.834
 3250TIP3    H133945   3.228   7.440   8.928
 3250TIP3    H233946   3.306   7.470   8.803
 3251TIP3   OH233947   4.590   7.552   8.032
 3251TIP3    H133948   4.580   7.483   7.964
 3251TIP3    H233949   4.497   7.560   8.061
 3252TIP3   OH233950   5.453   7.536   7.274
 3252TIP3    H133951   5.360   7.561   7.291
 3252TIP3    H233952   5.493   7.625   7.287
 3253TIP3   OH233953   4.342   7.639   8.066
 3253TIP3    H133954   4.246   7.635   8.042
 3253TIP3    H233955   4.357   7.736   8.068
 3254TIP3   OH233956   4.840   7.615   8.401
 3254TIP3    H133957   4.913   7.578   8.457
 3254TIP3    H233958   4.769   7.552   8.426
 3255TIP3   OH233959   4.082   7.592   7.992
 3255TIP3    H133960   4.082   7.576   7.895
 3255TIP3    H233961   4.064   7.501   8.024
 3256TIP3   OH233962   4.574   7.528   8.372
 3256TIP3    H133963   4.568   7.623   8.348
 3256TIP3    H233964   4.486   7.496   8.344
 3257TIP3   OH233965   4.511   7.496   8.624
 3257TIP3    H133966   4.575   7.438   8.668
 3257TIP3    H233967   4.547   7.499   8.533
 3258TIP3   OH233968   5.565   7.544   8.793
 3258TIP3    H133969   5.649   7.517   8.748
 3258TIP3    H233970   5.602   7.610   8.854
 3259TIP3   OH233971   3.791   7.599   8.281
 3259TIP3    H133972   3.729   7.605   8.356
 3259TIP3    H233973   3.811   7.694   8.262
 3260TIP3   OH233974   5.441   7.581   8.467
 3260TIP3    H133975   5.376   7.567   8.395
 3260TIP3    H233976   5.489   7.495   8.463
 3261TIP3   OH233977   5.373   7.525   7.881
 3261TIP3    H133978   5.390   7.621   7.885
 3261TIP3    H233979   5.276   7.531   7.869
 3262TIP3   OH233980   4.056   7.539   7.720
 3262TIP3    H133981   3.969   7.537   7.673
 3262TIP3    H233982   4.094   7.453   7.690
 3263TIP3   OH233983   3.931   7.563   7.282
 3263TIP3    H133984   3.973   7.642   7.247
 3263TIP3    H233985   3.869   7.590   7.350
 3264TIP3   OH233986   4.514   7.518   7.731
 3264TIP3    H133987   4.556   7.586   7.673
 3264TIP3    H233988   4.446   7.574   7.769
 3265TIP3   OH233989   5.098   7.570   7.793
 3265TIP3    H133990   5.052   7.591   7.710
 3265TIP3    H233991   5.038   7.501   7.831
 3266TIP3   OH233992   5.189   7.592   7.364
 3266TIP3    H133993   5.140   7.545   7.292
 3266TIP3    H233994   5.170   7.536   7.440
 3267TIP3   OH233995   4.236   7.530   8.720
 3267TIP3    H133996   4.315   7.476   8.701
 3267TIP3    H233997   4.196   7.482   8.795
 3268TIP3   OH233998   5.090   7.482   8.829
 3268TIP3    H133999   5.107   7.452   8.921
 3268TIP3    H234000   5.182   7.479   8.794
 3269TIP3   OH234001   6.471   7.539   8.030
 3269TIP3    H134002   6.462   7.461   7.972
 3269TIP3    H234003   6.377   7.559   8.053
 3270TIP3   OH234004   7.327   7.509   7.260
 3270TIP3    H134005   7.231   7.499   7.266
 3270TIP3    H234006   7.337   7.607   7.267
 3271TIP3   OH234007   6.221   7.635   8.076
 3271TIP3    H134008   6.136   7.619   8.029
 3271TIP3    H234009   6.228   7.733   8.067
 3272TIP3   OH234010   6.732   7.604   8.395
 3272TIP3    H134011   6.800   7.571   8.459
 3272TIP3    H234012   6.663   7.538   8.410
 3273TIP3   OH234013   5.978   7.585   7.957
 3273TIP3    H134014   5.955   7.577   7.862
 3273TIP3    H234015   5.950   7.498   7.992
 3274TIP3   OH234016   6.474   7.532   8.371
 3274TIP3    H134017   6.465   7.629   8.353
 3274TIP3    H234018   6.384   7.501   8.350
 3275TIP3   OH234019   6.417   7.502   8.629
 3275TIP3    H134020   6.483   7.455   8.681
 3275TIP3    H234021   6.454   7.496   8.538
 3276TIP3   OH234022   7.516   7.522   8.819
 3276TIP3    H134023   7.599   7.509   8.770
 3276TIP3    H234024   7.539   7.595   8.879
 3277TIP3   OH234025   5.675   7.587   8.283
 3277TIP3    H134026   5.613   7.591   8.358
 3277TIP3    H234027   5.690   7.683   8.265
 3278TIP3   OH234028   7.323   7.568   8.473
 3278TIP3    H134029   7.264   7.570   8.395
 3278TIP3    H234030   7.363   7.478   8.463
 3279TIP3   OH234031   7.227   7.531   7.884
 3279TIP3    H134032   7.278   7.615   7.883
 3279TIP3    H234033   7.139   7.563   7.855
 3280TIP3   OH234034   5.929   7.559   7.686
 3280TIP3    H134035   5.839   7.538   7.652
 3280TIP3    H234036   5.976   7.477   7.660
 3281TIP3   OH234037   6.385   7.536   7.695
 3281TIP3    H134038   6.419   7.620   7.659
 3281TIP3    H234039   6.329   7.569   7.765
 3282TIP3   OH234040   6.981   7.578   7.763
 3282TIP3    H134041   6.995   7.543   7.673
 3282TIP3    H234042   6.918   7.513   7.801
 3283TIP3   OH234043   7.077   7.600   7.397
 3283TIP3    H134044   7.081   7.581   7.302
 3283TIP3    H234045   7.042   7.515   7.429
 3284TIP3   OH234046   6.122   7.536   8.717
 3284TIP3    H134047   6.195   7.475   8.696
 3284TIP3    H234048   6.083   7.491   8.795
 3285TIP3   OH234049   6.988   7.465   8.820
 3285TIP3    H134050   6.998   7.449   8.917
 3285TIP3    H234051   7.082   7.463   8.795
 3286TIP3   OH234052   7.452   7.599   8.219
 3286TIP3    H134053   7.455   7.608   8.315
 3286TIP3    H234054   7.478   7.688   8.192
 3287TIP3   OH234055   1.237   1.014   9.551
 3287TIP3    H134056   1.223   1.110   9.556
 3287TIP3    H234057   1.146   0.979   9.552
 3288TIP3   OH234058   1.042   0.981   9.963
 3288TIP3    H134059   1.067   0.903  10.018
 3288TIP3    H234060   1.053   0.943   9.874
 3289TIP3   OH234061   1.405   1.204   9.723
 3289TIP3    H134062   1.371   1.130   9.778
 3289TIP3    H234063   1.441   1.267   9.789
 3290TIP3   OH234064   0.396   1.333   9.859
 3290TIP3    H134065   0.385   1.239   9.833
 3290TIP3    H234066   0.491   1.332   9.881
 3291TIP3   OH234067   0.131   0.666   9.385
 3291TIP3    H134068   0.115   0.748   9.434
 3291TIP3    H234069   0.049   0.621   9.411
 3292TIP3   OH234070   0.113   0.916   9.683
 3292TIP3    H134071   0.169   0.840   9.711
 3292TIP3    H234072   0.176   0.962   9.624
 3293TIP3   OH234073   1.172   1.769   9.794
 3293TIP3    H134074   1.237   1.723   9.736
 3293TIP3    H234075   1.132   1.691   9.834
 3294TIP3   OH234076   0.947   1.244   9.983
 3294TIP3    H134077   0.960   1.158   9.937
 3294TIP3    H234078   1.015   1.233  10.052
 3295TIP3   OH234079   1.188   0.568   9.962
 3295TIP3    H134080   1.278   0.606   9.972
 3295TIP3    H234081   1.154   0.620   9.887
 3296TIP3   OH234082   0.593   0.416   9.696
 3296TIP3    H134083   0.616   0.493   9.639
 3296TIP3    H234084   0.540   0.362   9.632
 3297TIP3   OH234085   1.356   0.403   9.505
 3297TIP3    H134086   1.418   0.373   9.574
 3297TIP3    H234087   1.353   0.498   9.529
 3298TIP3   OH234088   0.245   0.683   9.733
 3298TIP3    H134089   0.293   0.620   9.788
 3298TIP3    H234090   0.244   0.633   9.649
 3299TIP3   OH234091   0.684   0.809   9.729
 3299TIP3    H134092   0.768   0.765   9.751
 3299TIP3    H234093   0.655   0.752   9.654
 3300TIP3   OH234094   1.155   1.269   9.442
 3300TIP3    H134095   1.134   1.242   9.351
 3300TIP3    H234096   1.130   1.364   9.441
 3301TIP3   OH234097   1.513   0.344   9.715
 3301TIP3    H134098   1.518   0.339   9.813
 3301TIP3    H234099   1.565   0.426   9.709
 3302TIP3   OH234100   0.410   0.500   9.890
 3302TIP3    H134101   0.446   0.589   9.901
 3302TIP3    H234102   0.463   0.464   9.816
 3303TIP3   OH234103   0.125   1.226   9.276
 3303TIP3    H134104   0.118   1.283   9.196
 3303TIP3    H234105   0.151   1.292   9.344
 3304TIP3   OH234106   1.521   1.370   9.895
 3304TIP3    H134107   1.458   1.323   9.953
 3304TIP3    H234108   1.564   1.428   9.960
 3305TIP3   OH234109   0.840   0.096   9.807
 3305TIP3    H134110   0.859   0.002   9.826
 3305TIP3    H234111   0.762   0.110   9.865
 3306TIP3   OH234112   1.314   1.607   9.634
 3306TIP3    H134113   1.348   1.521   9.603
 3306TIP3    H234114   1.397   1.660   9.626
 3307TIP3   OH234115   1.461   1.400   9.515
 3307TIP3    H134116   1.428   1.342   9.444
 3307TIP3    H234117   1.463   1.338   9.590
 3308TIP3   OH234118   1.062   0.924   9.323
 3308TIP3    H134119   1.011   1.007   9.310
 3308TIP3    H234120   1.150   0.950   9.291
 3309TIP3   OH234121   1.077   0.842   8.995
 3309TIP3    H134122   1.136   0.882   9.063
 3309TIP3    H234123   1.093   0.748   9.011
 3310TIP3   OH234124   1.449   0.909   9.398
 3310TIP3    H134125   1.381   0.946   9.459
 3310TIP3    H234126   1.509   0.865   9.461
 3311TIP3   OH234127   0.577   1.015   9.584
 3311TIP3    H134128   0.530   0.970   9.511
 3311TIP3    H234129   0.623   0.944   9.632
 3312TIP3   OH234130   0.738   1.390   9.856
 3312TIP3    H134131   0.728   1.352   9.768
 3312TIP3    H234132   0.810   1.337   9.896
 3313TIP3   OH234133   0.551   0.888   9.946
 3313TIP3    H134134   0.590   0.858   9.862
 3313TIP3    H234135   0.629   0.892  10.003
 3314TIP3   OH234136   1.294   0.897   9.168
 3314TIP3    H134137   1.349   0.899   9.250
 3314TIP3    H234138   1.356   0.933   9.100
 3315TIP3   OH234139   1.085   1.528   9.471
 3315TIP3    H134140   1.141   1.562   9.543
 3315TIP3    H234141   1.034   1.606   9.444
 3316TIP3   OH234142   1.687   0.094   9.173
 3316TIP3    H134143   1.599   0.127   9.199
 3316TIP3    H234144   1.725   0.177   9.138
 3317TIP3   OH234145   0.429   0.905   9.360
 3317TIP3    H134146   0.420   0.990   9.310
 3317TIP3    H234147   0.421   0.841   9.289
 3318TIP3   OH234148   1.788   1.460   9.013
 3318TIP3    H134149   1.817   1.552   9.026
 3318TIP3    H234150   1.874   1.414   9.025
 3319TIP3   OH234151   0.141   1.469   9.894
 3319TIP3    H134152   0.214   1.404   9.898
 3319TIP3    H234153   0.163   1.524   9.970
 3320TIP3   OH234154   1.045   1.801   9.355
 3320TIP3    H134155   1.042   1.810   9.257
 3320TIP3    H234156   1.020   1.893   9.382
 3321TIP3   OH234157   0.409   1.695   9.534
 3321TIP3    H134158   0.431   1.661   9.624
 3321TIP3    H234159   0.315   1.672   9.529
 3322TIP3   OH234160   1.336   1.744   9.051
 3322TIP3    H134161   1.386   1.667   9.015
 3322TIP3    H234162   1.339   1.727   9.148
 3323TIP3   OH234163   1.305   1.740   9.321
 3323TIP3    H134164   1.210   1.758   9.340
 3323TIP3    H234165   1.321   1.667   9.381
 3324TIP3   OH234166   0.617   0.183   9.946
 3324TIP3    H134167   0.532   0.224   9.922
 3324TIP3    H234168   0.670   0.264   9.962
 3325TIP3   OH234169   1.464   1.010   8.986
 3325TIP3    H134170   1.446   1.024   8.891
 3325TIP3    H234171   1.561   1.020   8.987
 3326TIP3   OH234172   1.009   0.361   9.018
 3326TIP3    H134173   0.961   0.318   9.092
 3326TIP3    H234174   0.977   0.309   8.944
 3327TIP3   OH234175   0.590   0.637   9.555
 3327TIP3    H134176   0.496   0.613   9.540
 3327TIP3    H234177   0.633   0.611   9.470
 3328TIP3   OH234178   1.170   0.685   9.385
 3328TIP3    H134179   1.133   0.770   9.356
 3328TIP3    H234180   1.233   0.662   9.314
 3329TIP3   OH234181   1.345   0.608   9.672
 3329TIP3    H134182   1.273   0.674   9.656
 3329TIP3    H234183   1.293   0.535   9.710
 3330TIP3   OH234184   0.670   0.386   8.893
 3330TIP3    H134185   0.640   0.354   8.981
 3330TIP3    H234186   0.589   0.428   8.861
 3331TIP3   OH234187   0.079   0.447   9.652
 3331TIP3    H134188   0.121   0.418   9.736
 3331TIP3    H234189   0.119   0.384   9.590
 3332TIP3   OH234190   0.141   0.440   9.172
 3332TIP3    H134191   0.184   0.489   9.097
 3332TIP3    H234192   0.094   0.513   9.215
 3333TIP3   OH234193   0.882   0.406   9.643
 3333TIP3    H134194   0.801   0.394   9.695
 3333TIP3    H234195   0.946   0.379   9.713
 3334TIP3   OH234196   0.334   0.534   9.525
 3334TIP3    H134197   0.271   0.561   9.456
 3334TIP3    H234198   0.356   0.444   9.494
 3335TIP3   OH234199   0.702   0.569   9.321
 3335TIP3    H134200   0.799   0.576   9.330
 3335TIP3    H234201   0.678   0.631   9.252
 3336TIP3   OH234202   1.268   0.277   9.957
 3336TIP3    H134203   1.258   0.368   9.992
 3336TIP3    H234204   1.178   0.266   9.922
 3337TIP3   OH234205   0.571   0.731   9.035
 3337TIP3    H134206   0.530   0.657   8.988
 3337TIP3    H234207   0.657   0.742   8.991
 3338TIP3   OH234208   0.907   0.620   9.892
 3338TIP3    H134209   0.963   0.664   9.824
 3338TIP3    H234210   0.972   0.559   9.931
 3339TIP3   OH234211   0.464   0.315   9.454
 3339TIP3    H134212   0.420   0.234   9.487
 3339TIP3    H234213   0.542   0.282   9.408
 3340TIP3   OH234214   0.909   1.142   9.285
 3340TIP3    H134215   0.834   1.097   9.240
 3340TIP3    H234216   0.862   1.177   9.364
 3341TIP3   OH234217   1.252   0.415   9.112
 3341TIP3    H134218   1.159   0.426   9.079
 3341TIP3    H234219   1.282   0.506   9.134
 3342TIP3   OH234220   1.362   0.628   9.209
 3342TIP3    H134221   1.426   0.611   9.280
 3342TIP3    H234222   1.399   0.708   9.168
 3343TIP3   OH234223   0.407   1.076   9.787
 3343TIP3    H134224   0.461   1.073   9.705
 3343TIP3    H234225   0.469   1.039   9.853
 3344TIP3   OH234226   1.090   1.275   9.155
 3344TIP3    H134227   1.045   1.363   9.166
 3344TIP3    H234228   1.023   1.215   9.195
 3345TIP3   OH234229   1.809   0.648   9.203
 3345TIP3    H134230   1.766   0.612   9.122
 3345TIP3    H234231   1.831   0.740   9.177
 3346TIP3   OH234232   1.626   1.501   9.230
 3346TIP3    H134233   1.604   1.439   9.301
 3346TIP3    H234234   1.683   1.450   9.169
 3347TIP3   OH234235   1.356   0.987   9.902
 3347TIP3    H134236   1.268   0.962   9.869
 3347TIP3    H234237   1.415   0.932   9.845
 3348TIP3   OH234238   0.625   1.430   9.565
 3348TIP3    H134239   0.652   1.510   9.515
 3348TIP3    H234240   0.536   1.419   9.531
 3349TIP3   OH234241   0.253   0.924   9.075
 3349TIP3    H134242   0.307   0.997   9.112
 3349TIP3    H234243   0.165   0.944   9.107
 3350TIP3   OH234244   0.764   1.213   9.490
 3350TIP3    H134245   0.707   1.286   9.523
 3350TIP3    H234246   0.735   1.138   9.544
 3351TIP3   OH234247   0.664   1.668   9.445
 3351TIP3    H134248   0.569   1.686   9.466
 3351TIP3    H234249   0.701   1.753   9.477
 3352TIP3   OH234250   1.429   1.309   9.034
 3352TIP3    H134251   1.445   1.267   9.122
 3352TIP3    H234252   1.335   1.289   9.024
 3353TIP3   OH234253   1.854   1.737   9.076
 3353TIP3    H134254   1.919   1.802   9.045
 3353TIP3    H234255   1.782   1.799   9.106
 3354TIP3   OH234256   1.507   1.165   9.262
 3354TIP3    H134257   1.486   1.074   9.292
 3354TIP3    H234258   1.604   1.158   9.253
 3355TIP3   OH234259   0.821   1.444   8.887
 3355TIP3    H134260   0.815   1.391   8.807
 3355TIP3    H234261   0.767   1.390   8.949
 3356TIP3   OH234262   0.694   1.357   9.130
 3356TIP3    H134263   0.761   1.326   9.193
 3356TIP3    H234264   0.698   1.453   9.153
 3357TIP3   OH234265   0.376   1.123   9.197
 3357TIP3    H134266   0.288   1.151   9.231
 3357TIP3    H234267   0.397   1.192   9.132
 3358TIP3   OH234268   1.197   0.281   9.338
 3358TIP3    H134269   1.196   0.349   9.268
 3358TIP3    H234270   1.257   0.323   9.404
 3359TIP3   OH234271   0.988   1.530   9.171
 3359TIP3    H134272   0.901   1.572   9.187
 3359TIP3    H234273   1.047   1.607   9.176
 3360TIP3   OH234274   0.968   0.514   9.398
 3360TIP3    H134275   1.049   0.569   9.415
 3360TIP3    H234276   0.942   0.493   9.490
 3361TIP3   OH234277   1.012   0.211   9.505
 3361TIP3    H134278   0.998   0.299   9.543
 3361TIP3    H234279   1.090   0.226   9.446
 3362TIP3   OH234280   0.730   1.610   9.190
 3362TIP3    H134281   0.747   1.686   9.129
 3362TIP3    H234282   0.697   1.660   9.267
 3363TIP3   OH234283   0.573   0.355   9.137
 3363TIP3    H134284   0.554   0.434   9.191
 3363TIP3    H234285   0.656   0.328   9.180
 3364TIP3   OH234286   1.493   0.808   9.766
 3364TIP3    H134287   1.419   0.747   9.748
 3364TIP3    H234288   1.532   0.759   9.840
 3365TIP3   OH234289   0.430   1.356   9.039
 3365TIP3    H134290   0.519   1.368   9.081
 3365TIP3    H234291   0.453   1.297   8.965
 3366TIP3   OH234292   0.232   0.647   8.998
 3366TIP3    H134293   0.275   0.733   9.015
 3366TIP3    H234294   0.175   0.667   8.922
 3367TIP3   OH234295   1.594   1.727   9.965
 3367TIP3    H134296   1.607   1.804   9.907
 3367TIP3    H234297   1.680   1.717  10.008
 3368TIP3   OH234298   0.354   0.167   9.852
 3368TIP3    H134299   0.324   0.172   9.759
 3368TIP3    H234300   0.347   0.070   9.862
 3369TIP3   OH234301   0.201   1.457   9.416
 3369TIP3    H134302   0.124   1.509   9.443
 3369TIP3    H234303   0.250   1.527   9.369
 3370TIP3   OH234304   1.030   1.640   8.875
 3370TIP3    H134305   0.980   1.560   8.901
 3370TIP3    H234306   1.108   1.599   8.832
 3371TIP3   OH234307   1.484   1.563   8.895
 3371TIP3    H134308   1.497   1.494   8.964
 3371TIP3    H234309   1.568   1.562   8.846
 3372TIP3   OH234310   0.571   1.145   8.884
 3372TIP3    H134311   0.606   1.129   8.973
 3372TIP3    H234312   0.655   1.143   8.831
 3373TIP3   OH234313   1.133   1.302   8.876
 3373TIP3    H134314   1.099   1.289   8.966
 3373TIP3    H234315   1.128   1.209   8.845
 3374TIP3   OH234316   0.701   0.988   9.153
 3374TIP3    H134317   0.633   0.926   9.184
 3374TIP3    H234318   0.750   0.932   9.091
 3375TIP3   OH234319   0.821   0.809   8.923
 3375TIP3    H134320   0.820   0.864   8.842
 3375TIP3    H234321   0.917   0.816   8.947
 3376TIP3   OH234322   1.730   1.015   8.876
 3376TIP3    H134323   1.711   0.989   8.784
 3376TIP3    H234324   1.722   1.114   8.872
 3377TIP3   OH234325   0.786   1.838   9.077
 3377TIP3    H134326   0.883   1.846   9.082
 3377TIP3    H234327   0.769   1.901   9.005
 3378TIP3   OH234328   0.161   1.356   9.044
 3378TIP3    H134329   0.258   1.369   9.046
 3378TIP3    H234330   0.151   1.308   8.959
 3379TIP3   OH234331   0.093   1.849   9.499
 3379TIP3    H134332  -0.003   1.865   9.504
 3379TIP3    H234333   0.107   1.786   9.572
 3380TIP3   OH234334   0.136   1.663   9.706
 3380TIP3    H134335   0.146   1.580   9.759
 3380TIP3    H234336   0.185   1.723   9.767
 3381TIP3   OH234337   1.782   1.124   9.263
 3381TIP3    H134338   1.865   1.172   9.282
 3381TIP3    H234339   1.776   1.065   9.343
 3382TIP3   OH234340   1.791   0.966   9.478
 3382TIP3    H134341   1.734   0.894   9.512
 3382TIP3    H234342   1.869   0.955   9.537
 3383TIP3   OH234343   1.891   1.221   9.947
 3383TIP3    H134344   1.920   1.158   9.879
 3383TIP3    H234345   1.824   1.273   9.901
 3384TIP3   OH234346   1.866   0.908   9.106
 3384TIP3    H134347   1.807   0.913   9.029
 3384TIP3    H234348   1.829   0.979   9.162
 3385TIP3   OH234349   1.656   0.655   8.948
 3385TIP3    H134350   1.687   0.701   8.870
 3385TIP3    H234351   1.639   0.562   8.918
 3386TIP3   OH234352   1.629   0.746   9.536
 3386TIP3    H134353   1.595   0.676   9.476
 3386TIP3    H234354   1.582   0.729   9.621
 3387TIP3   OH234355   0.167   1.100   9.930
 3387TIP3    H134356   0.181   1.081   9.836
 3387TIP3    H234357   0.226   1.031   9.967
 3388TIP3   OH234358   1.628   0.397   8.907
 3388TIP3    H134359   1.690   0.331   8.943
 3388TIP3    H234360   1.540   0.354   8.910
 3389TIP3   OH234361   1.583   0.559   9.367
 3389TIP3    H134362   1.595   0.462   9.375
 3389TIP3    H234363   1.672   0.583   9.334
 3390TIP3   OH234364   1.654   0.573   9.851
 3390TIP3    H134365   1.745   0.601   9.876
 3390TIP3    H234366   1.602   0.579   9.934
 3391TIP3   OH234367   1.659   0.288   9.395
 3391TIP3    H134368   1.651   0.254   9.486
 3391TIP3    H234369   1.575   0.258   9.353
 3392TIP3   OH234370   0.164   0.360   9.897
 3392TIP3    H134371   0.227   0.287   9.914
 3392TIP3    H234372   0.222   0.436   9.918
 3393TIP3   OH234373   0.114   0.634   9.984
 3393TIP3    H134374   0.128   0.629   9.889
 3393TIP3    H234375   0.067   0.720   9.989
 3394TIP3   OH234376   1.841   0.271   9.052
 3394TIP3    H134377   1.876   0.204   8.988
 3394TIP3    H234378   1.919   0.321   9.084
 3395TIP3   OH234379   0.142   0.287   9.399
 3395TIP3    H134380   0.044   0.284   9.390
 3395TIP3    H234381   0.162   0.353   9.331
 3396TIP3   OH234382   1.514   1.772   9.575
 3396TIP3    H134383   1.588   1.749   9.515
 3396TIP3    H234384   1.556   1.831   9.640
 3397TIP3   OH234385   0.272   1.764   9.926
 3397TIP3    H134386   0.293   1.788  10.017
 3397TIP3    H234387   0.352   1.713   9.902
 3398TIP3   OH234388   0.444   1.612   9.785
 3398TIP3    H134389   0.419   1.518   9.797
 3398TIP3    H234390   0.537   1.614   9.817
 3399TIP3   OH234391   0.707   1.662   9.887
 3399TIP3    H134392   0.729   1.569   9.863
 3399TIP3    H234393   0.744   1.671   9.976
 3400TIP3   OH234394   1.040   0.289   9.817
 3400TIP3    H134395   0.987   0.207   9.820
 3400TIP3    H234396   1.104   0.264   9.747
 3401TIP3   OH234397   1.567   0.107   9.836
 3401TIP3    H134398   1.642   0.154   9.792
 3401TIP3    H234399   1.494   0.157   9.798
 3402TIP3   OH234400   1.755   0.176   9.631
 3402TIP3    H134401   1.813   0.115   9.584
 3402TIP3    H234402   1.801   0.262   9.615
 3403TIP3   OH234403   0.296   0.152   9.587
 3403TIP3    H134404   0.233   0.182   9.519
 3403TIP3    H234405   0.289   0.054   9.577
 3404TIP3   OH234406   0.101   0.133   9.150
 3404TIP3    H134407   0.160   0.161   9.078
 3404TIP3    H234408   0.135   0.187   9.225
 3405TIP3   OH234409   0.765   0.120   9.507
 3405TIP3    H134410   0.860   0.147   9.507
 3405TIP3    H234411   0.731   0.166   9.585
 3406TIP3   OH234412   1.247   0.168   9.679
 3406TIP3    H134413   1.319   0.176   9.616
 3406TIP3    H234414   1.282   0.105   9.742
 3407TIP3   OH234415   1.444   0.188   9.252
 3407TIP3    H134416   1.350   0.216   9.245
 3407TIP3    H234417   1.434   0.094   9.272
 3408TIP3   OH234418   0.196   1.696   9.255
 3408TIP3    H134419   0.100   1.703   9.239
 3408TIP3    H234420   0.222   1.787   9.226
 3409TIP3   OH234421   0.320   0.203   8.995
 3409TIP3    H134422   0.393   0.177   8.933
 3409TIP3    H234423   0.371   0.248   9.065
 3410TIP3   OH234424   0.855   0.309   9.246
 3410TIP3    H134425   0.882   0.237   9.306
 3410TIP3    H234426   0.896   0.387   9.292
 3411TIP3   OH234427   1.070   1.794   9.085
 3411TIP3    H134428   1.165   1.797   9.063
 3411TIP3    H234429   1.041   1.741   9.007
 3412TIP3   OH234430   1.704   1.707   9.381
 3412TIP3    H134431   1.683   1.630   9.322
 3412TIP3    H234432   1.705   1.780   9.316
 3413TIP3   OH234433   0.316   1.739   8.944
 3413TIP3    H134434   0.304   1.763   9.036
 3413TIP3    H234435   0.387   1.674   8.953
 3414TIP3   OH234436   3.085   1.005   9.570
 3414TIP3    H134437   3.088   1.102   9.578
 3414TIP3    H234438   3.013   0.994   9.507
 3415TIP3   OH234439   2.979   0.909   9.889
 3415TIP3    H134440   2.971   0.866   9.976
 3415TIP3    H234441   2.922   0.856   9.831
 3416TIP3   OH234442   3.286   1.200   9.720
 3416TIP3    H134443   3.260   1.128   9.781
 3416TIP3    H234444   3.320   1.265   9.784
 3417TIP3   OH234445   2.324   1.352   9.906
 3417TIP3    H134446   2.301   1.261   9.878
 3417TIP3    H234447   2.421   1.354   9.892
 3418TIP3   OH234448   2.004   0.662   9.436
 3418TIP3    H134449   1.972   0.753   9.439
 3418TIP3    H234450   1.921   0.613   9.436
 3419TIP3   OH234451   2.013   0.909   9.622
 3419TIP3    H134452   2.052   0.834   9.672
 3419TIP3    H234453   2.089   0.947   9.576
 3420TIP3   OH234454   3.050   1.763   9.754
 3420TIP3    H134455   3.108   1.710   9.695
 3420TIP3    H234456   3.027   1.692   9.815
 3421TIP3   OH234457   2.853   1.180   9.999
 3421TIP3    H134458   2.892   1.139   9.921
 3421TIP3    H234459   2.919   1.157  10.065
 3422TIP3   OH234460   3.156   0.591   9.999
 3422TIP3    H134461   3.175   0.497  10.002
 3422TIP3    H234462   3.151   0.606   9.903
 3423TIP3   OH234463   2.468   0.401   9.689
 3423TIP3    H134464   2.480   0.488   9.645
 3423TIP3    H234465   2.416   0.352   9.621
 3424TIP3   OH234466   3.203   0.440   9.543
 3424TIP3    H134467   3.261   0.391   9.606
 3424TIP3    H234468   3.266   0.503   9.506
 3425TIP3   OH234469   2.131   0.702   9.751
 3425TIP3    H134470   2.188   0.647   9.807
 3425TIP3    H234471   2.132   0.645   9.671
 3426TIP3   OH234472   2.596   0.817   9.718
 3426TIP3    H134473   2.661   0.756   9.758
 3426TIP3    H234474   2.548   0.754   9.661
 3427TIP3   OH234475   3.022   1.245   9.444
 3427TIP3    H134476   3.005   1.244   9.348
 3427TIP3    H234477   3.002   1.339   9.466
 3428TIP3   OH234478   3.367   0.375   9.736
 3428TIP3    H134479   3.330   0.351   9.822
 3428TIP3    H234480   3.462   0.377   9.757
 3429TIP3   OH234481   2.313   0.507   9.887
 3429TIP3    H134482   2.334   0.599   9.869
 3429TIP3    H234483   2.348   0.463   9.806
 3430TIP3   OH234484   2.038   1.227   9.275
 3430TIP3    H134485   2.031   1.282   9.194
 3430TIP3    H234486   2.046   1.295   9.344
 3431TIP3   OH234487   3.400   1.362   9.895
 3431TIP3    H134488   3.349   1.311   9.962
 3431TIP3    H234489   3.443   1.426   9.952
 3432TIP3   OH234490   2.732   0.091   9.820
 3432TIP3    H134491   2.742  -0.006   9.832
 3432TIP3    H234492   2.659   0.106   9.883
 3433TIP3   OH234493   3.201   1.593   9.614
 3433TIP3    H134494   3.247   1.509   9.593
 3433TIP3    H234495   3.276   1.655   9.599
 3434TIP3   OH234496   3.360   1.382   9.505
 3434TIP3    H134497   3.347   1.315   9.435
 3434TIP3    H234498   3.352   1.324   9.583
 3435TIP3   OH234499   2.947   0.921   9.302
 3435TIP3    H134500   2.903   1.007   9.289
 3435TIP3    H234501   3.024   0.927   9.243
 3436TIP3   OH234502   2.963   0.822   9.003
 3436TIP3    H134503   3.040   0.864   9.045
 3436TIP3    H234504   2.994   0.731   8.991
 3437TIP3   OH234505   3.326   0.916   9.407
 3437TIP3    H134506   3.258   0.954   9.467
 3437TIP3    H234507   3.396   0.891   9.469
 3438TIP3   OH234508   2.460   1.003   9.584
 3438TIP3    H134509   2.426   0.952   9.507
 3438TIP3    H234510   2.513   0.935   9.631
 3439TIP3   OH234511   2.604   1.375   9.861
 3439TIP3    H134512   2.586   1.352   9.768
 3439TIP3    H234513   2.666   1.307   9.888
 3440TIP3   OH234514   2.447   0.865   9.937
 3440TIP3    H134515   2.505   0.856   9.858
 3440TIP3    H234516   2.489   0.935   9.991
 3441TIP3   OH234517   3.188   0.884   9.171
 3441TIP3    H134518   3.240   0.903   9.252
 3441TIP3    H234519   3.241   0.931   9.101
 3442TIP3   OH234520   2.958   1.502   9.474
 3442TIP3    H134521   3.031   1.536   9.530
 3442TIP3    H234522   2.919   1.584   9.442
 3443TIP3   OH234523   3.564   0.104   9.199
 3443TIP3    H134524   3.477   0.147   9.208
 3443TIP3    H234525   3.611   0.175   9.150
 3444TIP3   OH234526   2.329   0.904   9.358
 3444TIP3    H134527   2.314   0.992   9.317
 3444TIP3    H234528   2.295   0.845   9.289
 3445TIP3   OH234529   3.677   1.472   9.004
 3445TIP3    H134530   3.704   1.565   9.022
 3445TIP3    H234531   3.763   1.428   9.022
 3446TIP3   OH234532   1.969   1.476   9.851
 3446TIP3    H134533   2.038   1.413   9.879
 3446TIP3    H234534   1.945   1.521   9.932
 3447TIP3   OH234535   2.931   1.799   9.353
 3447TIP3    H134536   2.926   1.817   9.257
 3447TIP3    H234537   2.921   1.891   9.387
 3448TIP3   OH234538   2.281   1.698   9.524
 3448TIP3    H134539   2.301   1.681   9.619
 3448TIP3    H234540   2.194   1.655   9.514
 3449TIP3   OH234541   3.233   1.750   9.045
 3449TIP3    H134542   3.279   1.669   9.011
 3449TIP3    H234543   3.236   1.738   9.141
 3450TIP3   OH234544   3.193   1.730   9.320
 3450TIP3    H134545   3.099   1.755   9.331
 3450TIP3    H234546   3.201   1.655   9.381
 3451TIP3   OH234547   2.477   0.170   9.952
 3451TIP3    H134548   2.398   0.195   9.899
 3451TIP3    H234549   2.516   0.258   9.965
 3452TIP3   OH234550   3.341   1.008   8.991
 3452TIP3    H134551   3.324   1.022   8.896
 3452TIP3    H234552   3.438   1.021   8.990
 3453TIP3   OH234553   2.878   0.359   9.045
 3453TIP3    H134554   2.845   0.294   9.109
 3453TIP3    H234555   2.827   0.336   8.966
 3454TIP3   OH234556   2.472   0.636   9.578
 3454TIP3    H134557   2.378   0.612   9.559
 3454TIP3    H234558   2.513   0.629   9.488
 3455TIP3   OH234559   3.044   0.700   9.413
 3455TIP3    H134560   3.003   0.782   9.375
 3455TIP3    H234561   3.100   0.672   9.338
 3456TIP3   OH234562   3.128   0.631   9.718
 3456TIP3    H134563   3.111   0.696   9.647
 3456TIP3    H234564   3.142   0.551   9.662
 3457TIP3   OH234565   2.534   0.384   8.895
 3457TIP3    H134566   2.500   0.361   8.983
 3457TIP3    H234567   2.463   0.441   8.861
 3458TIP3   OH234568   1.920   0.410   9.628
 3458TIP3    H134569   1.981   0.389   9.700
 3458TIP3    H234570   1.963   0.367   9.552
 3459TIP3   OH234571   2.004   0.442   9.176
 3459TIP3    H134572   2.067   0.483   9.113
 3459TIP3    H234573   1.950   0.520   9.199
 3460TIP3   OH234574   2.759   0.393   9.631
 3460TIP3    H134575   2.669   0.363   9.657
 3460TIP3    H234576   2.811   0.363   9.708
 3461TIP3   OH234577   2.197   0.524   9.556
 3461TIP3    H134578   2.130   0.572   9.502
 3461TIP3    H234579   2.219   0.447   9.499
 3462TIP3   OH234580   2.561   0.604   9.326
 3462TIP3    H134581   2.649   0.584   9.288
 3462TIP3    H234582   2.513   0.637   9.248
 3463TIP3   OH234583   3.154   0.283   9.961
 3463TIP3    H134584   3.139   0.275  10.056
 3463TIP3    H234585   3.061   0.282   9.927
 3464TIP3   OH234586   2.453   0.705   9.035
 3464TIP3    H134587   2.428   0.659   8.952
 3464TIP3    H234588   2.541   0.737   9.005
 3465TIP3   OH234589   2.848   0.649   9.863
 3465TIP3    H134590   2.919   0.634   9.797
 3465TIP3    H234591   2.864   0.572   9.920
 3466TIP3   OH234592   2.342   0.313   9.450
 3466TIP3    H134593   2.304   0.231   9.491
 3466TIP3    H234594   2.408   0.274   9.390
 3467TIP3   OH234595   2.786   1.153   9.263
 3467TIP3    H134596   2.714   1.101   9.221
 3467TIP3    H234597   2.741   1.174   9.349
 3468TIP3   OH234598   3.140   0.412   9.049
 3468TIP3    H134599   3.041   0.412   9.053
 3468TIP3    H234600   3.163   0.495   9.096
 3469TIP3   OH234601   3.216   0.611   9.206
 3469TIP3    H134602   3.296   0.601   9.261
 3469TIP3    H234603   3.229   0.700   9.167
 3470TIP3   OH234604   2.270   1.105   9.813
 3470TIP3    H134605   2.318   1.104   9.729
 3470TIP3    H234606   2.328   1.051   9.871
 3471TIP3   OH234607   2.981   1.284   9.149
 3471TIP3    H134608   2.942   1.373   9.164
 3471TIP3    H234609   2.910   1.227   9.185
 3472TIP3   OH234610   3.704   0.639   9.213
 3472TIP3    H134611   3.660   0.607   9.132
 3472TIP3    H234612   3.719   0.733   9.192
 3473TIP3   OH234613   3.497   1.513   9.215
 3473TIP3    H134614   3.482   1.449   9.287
 3473TIP3    H234615   3.559   1.469   9.155
 3474TIP3   OH234616   3.243   0.990   9.899
 3474TIP3    H134617   3.151   0.957   9.885
 3474TIP3    H234618   3.294   0.926   9.845
 3475TIP3   OH234619   2.502   1.425   9.600
 3475TIP3    H134620   2.552   1.508   9.591
 3475TIP3    H234621   2.432   1.441   9.536
 3476TIP3   OH234622   2.142   0.940   9.034
 3476TIP3    H134623   2.181   0.994   9.106
 3476TIP3    H234624   2.046   0.943   9.049
 3477TIP3   OH234625   2.639   1.192   9.489
 3477TIP3    H134626   2.599   1.272   9.527
 3477TIP3    H234627   2.592   1.121   9.538
 3478TIP3   OH234628   2.543   1.670   9.446
 3478TIP3    H134629   2.446   1.681   9.458
 3478TIP3    H234630   2.574   1.754   9.488
 3479TIP3   OH234631   3.313   1.311   9.030
 3479TIP3    H134632   3.327   1.284   9.122
 3479TIP3    H234633   3.221   1.281   9.018
 3480TIP3   OH234634   3.735   1.736   9.069
 3480TIP3    H134635   3.797   1.798   9.028
 3480TIP3    H234636   3.666   1.798   9.101
 3481TIP3   OH234637   3.390   1.155   9.270
 3481TIP3    H134638   3.372   1.060   9.283
 3481TIP3    H234639   3.486   1.155   9.253
 3482TIP3   OH234640   2.706   1.466   8.881
 3482TIP3    H134641   2.696   1.406   8.806
 3482TIP3    H234642   2.644   1.429   8.946
 3483TIP3   OH234643   2.583   1.360   9.129
 3483TIP3    H134644   2.661   1.320   9.170
 3483TIP3    H234645   2.594   1.454   9.159
 3484TIP3   OH234646   2.274   1.113   9.191
 3484TIP3    H134647   2.186   1.152   9.212
 3484TIP3    H234648   2.317   1.185   9.141
 3485TIP3   OH234649   3.082   0.313   9.348
 3485TIP3    H134650   3.077   0.383   9.282
 3485TIP3    H234651   3.138   0.353   9.418
 3486TIP3   OH234652   2.885   1.539   9.179
 3486TIP3    H134653   2.797   1.577   9.200
 3486TIP3    H234654   2.938   1.620   9.164
 3487TIP3   OH234655   2.823   0.504   9.381
 3487TIP3    H134656   2.900   0.560   9.403
 3487TIP3    H234657   2.793   0.473   9.469
 3488TIP3   OH234658   2.887   0.200   9.488
 3488TIP3    H134659   2.865   0.280   9.539
 3488TIP3    H234660   2.971   0.229   9.446
 3489TIP3   OH234661   2.622   1.612   9.185
 3489TIP3    H134662   2.634   1.693   9.129
 3489TIP3    H234663   2.583   1.653   9.265
 3490TIP3   OH234664   2.440   0.334   9.154
 3490TIP3    H134665   2.425   0.411   9.210
 3490TIP3    H234666   2.531   0.312   9.184
 3491TIP3   OH234667   3.348   0.783   9.760
 3491TIP3    H134668   3.273   0.720   9.767
 3491TIP3    H234669   3.413   0.741   9.820
 3492TIP3   OH234670   2.302   1.352   9.038
 3492TIP3    H134671   2.373   1.387   9.095
 3492TIP3    H234672   2.355   1.305   8.971
 3493TIP3   OH234673   2.119   0.645   9.004
 3493TIP3    H134674   2.164   0.729   9.022
 3493TIP3    H234675   2.050   0.673   8.943
 3494TIP3   OH234676   3.482   1.715   9.964
 3494TIP3    H134677   3.492   1.791   9.903
 3494TIP3    H234678   3.565   1.715  10.013
 3495TIP3   OH234679   2.231   0.163   9.801
 3495TIP3    H134680   2.240   0.161   9.703
 3495TIP3    H234681   2.204   0.069   9.815
 3496TIP3   OH234682   2.090   1.485   9.451
 3496TIP3    H134683   2.013   1.542   9.465
 3496TIP3    H234684   2.124   1.524   9.369
 3497TIP3   OH234685   2.928   1.643   8.881
 3497TIP3    H134686   2.875   1.562   8.895
 3497TIP3    H234687   3.008   1.605   8.839
 3498TIP3   OH234688   3.364   1.559   8.898
 3498TIP3    H134689   3.380   1.495   8.969
 3498TIP3    H234690   3.450   1.563   8.852
 3499TIP3   OH234691   2.458   1.169   8.883
 3499TIP3    H134692   2.490   1.141   8.971
 3499TIP3    H234693   2.539   1.156   8.829
 3500TIP3   OH234694   3.020   1.302   8.864
 3500TIP3    H134695   2.988   1.288   8.955
 3500TIP3    H234696   3.015   1.209   8.832
 3501TIP3   OH234697   2.586   0.996   9.144
 3501TIP3    H134698   2.517   0.943   9.186
 3501TIP3    H234699   2.626   0.931   9.083
 3502TIP3   OH234700   2.699   0.799   8.948
 3502TIP3    H134701   2.707   0.818   8.853
 3502TIP3    H234702   2.792   0.811   8.978
 3503TIP3   OH234703   3.602   1.011   8.882
 3503TIP3    H134704   3.587   0.988   8.788
 3503TIP3    H234705   3.599   1.110   8.879
 3504TIP3   OH234706   2.677   1.855   9.088
 3504TIP3    H134707   2.775   1.853   9.088
 3504TIP3    H234708   2.661   1.905   9.006
 3505TIP3   OH234709   2.019   1.327   9.022
 3505TIP3    H134710   2.117   1.330   9.013
 3505TIP3    H234711   1.991   1.269   8.947
 3506TIP3   OH234712   1.921   1.830   9.475
 3506TIP3    H134713   1.837   1.784   9.451
 3506TIP3    H234714   1.941   1.783   9.559
 3507TIP3   OH234715   1.990   1.675   9.677
 3507TIP3    H134716   1.966   1.589   9.718
 3507TIP3    H234717   2.041   1.717   9.750
 3508TIP3   OH234718   3.668   1.131   9.261
 3508TIP3    H134719   3.752   1.180   9.275
 3508TIP3    H234720   3.666   1.072   9.340
 3509TIP3   OH234721   3.679   0.975   9.486
 3509TIP3    H134722   3.616   0.914   9.530
 3509TIP3    H234723   3.757   0.971   9.545
 3510TIP3   OH234724   3.772   1.219   9.963
 3510TIP3    H134725   3.820   1.162   9.902
 3510TIP3    H234726   3.712   1.270   9.906
 3511TIP3   OH234727   3.748   0.906   9.108
 3511TIP3    H134728   3.678   0.906   9.040
 3511TIP3    H234729   3.723   0.987   9.157
 3512TIP3   OH234730   3.573   0.658   8.968
 3512TIP3    H134731   3.597   0.705   8.886
 3512TIP3    H234732   3.548   0.569   8.934
 3513TIP3   OH234733   3.510   0.763   9.551
 3513TIP3    H134734   3.465   0.689   9.507
 3513TIP3    H234735   3.460   0.767   9.635
 3514TIP3   OH234736   1.953   0.950   9.889
 3514TIP3    H134737   2.000   0.931   9.806
 3514TIP3    H234738   2.026   0.970   9.951
 3515TIP3   OH234739   3.528   0.414   8.889
 3515TIP3    H134740   3.582   0.340   8.920
 3515TIP3    H234741   3.437   0.373   8.891
 3516TIP3   OH234742   3.436   0.558   9.388
 3516TIP3    H134743   3.469   0.465   9.391
 3516TIP3    H234744   3.519   0.602   9.359
 3517TIP3   OH234745   3.525   0.625   9.891
 3517TIP3    H134746   3.622   0.617   9.891
 3517TIP3    H234747   3.498   0.540   9.934
 3518TIP3   OH234748   3.523   0.295   9.416
 3518TIP3    H134749   3.546   0.246   9.497
 3518TIP3    H234750   3.459   0.236   9.372
 3519TIP3   OH234751   2.048   0.359   9.902
 3519TIP3    H134752   2.107   0.280   9.905
 3519TIP3    H234753   2.113   0.428   9.916
 3520TIP3   OH234754   1.913   0.679   9.904
 3520TIP3    H134755   1.983   0.666   9.839
 3520TIP3    H234756   1.920   0.775   9.920
 3521TIP3   OH234757   3.721   0.265   9.049
 3521TIP3    H134758   3.757   0.199   8.985
 3521TIP3    H234759   3.777   0.342   9.034
 3522TIP3   OH234760   1.947   0.254   9.397
 3522TIP3    H134761   1.851   0.247   9.377
 3522TIP3    H234762   1.979   0.302   9.319
 3523TIP3   OH234763   3.405   1.770   9.569
 3523TIP3    H134764   3.475   1.751   9.504
 3523TIP3    H234765   3.451   1.827   9.634
 3524TIP3   OH234766   2.152   1.770   9.886
 3524TIP3    H134767   2.174   1.777   9.982
 3524TIP3    H234768   2.230   1.721   9.851
 3525TIP3   OH234769   2.347   1.620   9.777
 3525TIP3    H134770   2.337   1.524   9.788
 3525TIP3    H234771   2.433   1.635   9.821
 3526TIP3   OH234772   2.593   1.664   9.876
 3526TIP3    H134773   2.617   1.570   9.863
 3526TIP3    H234774   2.589   1.667   9.972
 3527TIP3   OH234775   2.922   0.285   9.813
 3527TIP3    H134776   2.874   0.199   9.819
 3527TIP3    H234777   2.994   0.258   9.752
 3528TIP3   OH234778   3.448   0.108   9.821
 3528TIP3    H134779   3.508   0.128   9.747
 3528TIP3    H234780   3.363   0.146   9.791
 3529TIP3   OH234781   3.637   0.172   9.624
 3529TIP3    H134782   3.686   0.102   9.577
 3529TIP3    H234783   3.696   0.251   9.614
 3530TIP3   OH234784   2.207   0.120   9.545
 3530TIP3    H134785   2.133   0.135   9.483
 3530TIP3    H234786   2.198   0.024   9.561
 3531TIP3   OH234787   2.080   0.114   9.180
 3531TIP3    H134788   2.094   0.148   9.089
 3531TIP3    H234789   1.990   0.144   9.199
 3532TIP3   OH234790   2.653   0.117   9.567
 3532TIP3    H134791   2.732   0.146   9.516
 3532TIP3    H234792   2.688   0.122   9.659
 3533TIP3   OH234793   3.149   0.168   9.682
 3533TIP3    H134794   3.203   0.142   9.606
 3533TIP3    H234795   3.154   0.087   9.736
 3534TIP3   OH234796   3.315   0.193   9.257
 3534TIP3    H134797   3.221   0.214   9.246
 3534TIP3    H234798   3.309   0.100   9.284
 3535TIP3   OH234799   2.071   1.662   9.249
 3535TIP3    H134800   1.981   1.660   9.213
 3535TIP3    H234801   2.096   1.753   9.226
 3536TIP3   OH234802   2.202   0.247   8.981
 3536TIP3    H134803   2.266   0.195   8.927
 3536TIP3    H234804   2.259   0.272   9.055
 3537TIP3   OH234805   2.709   0.295   9.256
 3537TIP3    H134806   2.766   0.236   9.309
 3537TIP3    H234807   2.753   0.381   9.277
 3538TIP3   OH234808   2.968   1.799   9.087
 3538TIP3    H134809   3.063   1.798   9.064
 3538TIP3    H234810   2.938   1.748   9.008
 3539TIP3   OH234811   3.588   1.713   9.371
 3539TIP3    H134812   3.562   1.640   9.309
 3539TIP3    H234813   3.586   1.790   9.310
 3540TIP3   OH234814   2.172   1.740   8.936
 3540TIP3    H134815   2.150   1.788   9.018
 3540TIP3    H234816   2.254   1.694   8.962
 3541TIP3   OH234817   4.964   1.009   9.564
 3541TIP3    H134818   4.965   1.106   9.572
 3541TIP3    H234819   4.892   0.998   9.500
 3542TIP3   OH234820   4.864   0.905   9.891
 3542TIP3    H134821   4.859   0.864   9.980
 3542TIP3    H234822   4.798   0.857   9.839
 3543TIP3   OH234823   5.169   1.202   9.715
 3543TIP3    H134824   5.142   1.125   9.769
 3543TIP3    H234825   5.212   1.259   9.783
 3544TIP3   OH234826   4.211   1.348   9.899
 3544TIP3    H134827   4.191   1.257   9.868
 3544TIP3    H234828   4.308   1.351   9.888
 3545TIP3   OH234829   3.876   0.664   9.472
 3545TIP3    H134830   3.836   0.751   9.482
 3545TIP3    H234831   3.798   0.612   9.446
 3546TIP3   OH234832   3.910   0.911   9.627
 3546TIP3    H134833   3.951   0.837   9.675
 3546TIP3    H234834   3.982   0.949   9.575
 3547TIP3   OH234835   4.945   1.759   9.764
 3547TIP3    H134836   5.004   1.700   9.713
 3547TIP3    H234837   4.902   1.692   9.819
 3548TIP3   OH234838   4.747   1.191  10.009
 3548TIP3    H134839   4.780   1.152   9.927
 3548TIP3    H234840   4.808   1.152  10.073
 3549TIP3   OH234841   5.030   0.590   9.989
 3549TIP3    H134842   5.054   0.497   9.998
 3549TIP3    H234843   5.019   0.598   9.892
 3550TIP3   OH234844   4.346   0.411   9.687
 3550TIP3    H134845   4.356   0.491   9.630
 3550TIP3    H234846   4.299   0.353   9.624
 3551TIP3   OH234847   5.090   0.446   9.533
 3551TIP3    H134848   5.147   0.398   9.598
 3551TIP3    H234849   5.153   0.512   9.501
 3552TIP3   OH234850   3.970   0.675   9.772
 3552TIP3    H134851   4.038   0.627   9.821
 3552TIP3    H234852   3.985   0.639   9.682
 3553TIP3   OH234853   4.491   0.816   9.718
 3553TIP3    H134854   4.559   0.757   9.755
 3553TIP3    H234855   4.450   0.755   9.653
 3554TIP3   OH234856   4.906   1.252   9.434
 3554TIP3    H134857   4.884   1.252   9.339
 3554TIP3    H234858   4.887   1.346   9.455
 3555TIP3   OH234859   5.245   0.373   9.732
 3555TIP3    H134860   5.215   0.356   9.823
 3555TIP3    H234861   5.341   0.378   9.745
 3556TIP3   OH234862   4.196   0.507   9.893
 3556TIP3    H134863   4.217   0.598   9.865
 3556TIP3    H234864   4.231   0.457   9.815
 3557TIP3   OH234865   3.929   1.228   9.276
 3557TIP3    H134866   3.921   1.285   9.198
 3557TIP3    H234867   3.940   1.294   9.347
 3558TIP3   OH234868   5.295   1.355   9.893
 3558TIP3    H134869   5.255   1.317   9.975
 3558TIP3    H234870   5.324   1.441   9.924
 3559TIP3   OH234871   4.614   0.093   9.826
 3559TIP3    H134872   4.621  -0.005   9.835
 3559TIP3    H234873   4.538   0.111   9.885
 3560TIP3   OH234874   5.084   1.593   9.620
 3560TIP3    H134875   5.133   1.513   9.590
 3560TIP3    H234876   5.152   1.662   9.601
 3561TIP3   OH234877   5.242   1.390   9.514
 3561TIP3    H134878   5.228   1.323   9.445
 3561TIP3    H234879   5.233   1.333   9.593
 3562TIP3   OH234880   4.829   0.925   9.306
 3562TIP3    H134881   4.785   1.009   9.280
 3562TIP3    H234882   4.917   0.933   9.265
 3563TIP3   OH234883   4.856   0.821   9.008
 3563TIP3    H134884   4.916   0.861   9.073
 3563TIP3    H234885   4.877   0.727   9.014
 3564TIP3   OH234886   5.218   0.934   9.410
 3564TIP3    H134887   5.141   0.958   9.466
 3564TIP3    H234888   5.280   0.901   9.476
 3565TIP3   OH234889   4.353   1.005   9.581
 3565TIP3    H134890   4.316   0.957   9.504
 3565TIP3    H234891   4.405   0.937   9.627
 3566TIP3   OH234892   4.492   1.376   9.858
 3566TIP3    H134893   4.473   1.354   9.764
 3566TIP3    H234894   4.550   1.305   9.885
 3567TIP3   OH234895   4.322   0.846   9.934
 3567TIP3    H134896   4.385   0.853   9.859
 3567TIP3    H234897   4.367   0.896  10.004
 3568TIP3   OH234898   5.074   0.887   9.176
 3568TIP3    H134899   5.135   0.911   9.249
 3568TIP3    H234900   5.124   0.927   9.099
 3569TIP3   OH234901   4.853   1.505   9.467
 3569TIP3    H134902   4.920   1.538   9.529
 3569TIP3    H234903   4.803   1.585   9.445
 3570TIP3   OH234904   5.453   0.103   9.200
 3570TIP3    H134905   5.363   0.140   9.204
 3570TIP3    H234906   5.499   0.176   9.153
 3571TIP3   OH234907   4.214   0.909   9.363
 3571TIP3    H134908   4.204   0.996   9.319
 3571TIP3    H234909   4.187   0.849   9.292
 3572TIP3   OH234910   5.566   1.455   9.023
 3572TIP3    H134911   5.590   1.550   9.031
 3572TIP3    H234912   5.656   1.416   9.028
 3573TIP3   OH234913   3.840   1.471   9.854
 3573TIP3    H134914   3.916   1.430   9.897
 3573TIP3    H234915   3.791   1.509   9.929
 3574TIP3   OH234916   4.816   1.802   9.370
 3574TIP3    H134917   4.815   1.821   9.274
 3574TIP3    H234918   4.802   1.893   9.405
 3575TIP3   OH234919   4.160   1.699   9.527
 3575TIP3    H134920   4.180   1.675   9.620
 3575TIP3    H234921   4.071   1.660   9.515
 3576TIP3   OH234922   5.121   1.747   9.045
 3576TIP3    H134923   5.165   1.668   9.006
 3576TIP3    H234924   5.124   1.726   9.140
 3577TIP3   OH234925   5.075   1.735   9.326
 3577TIP3    H134926   4.980   1.759   9.340
 3577TIP3    H234927   5.085   1.662   9.390
 3578TIP3   OH234928   4.368   0.174   9.946
 3578TIP3    H134929   4.287   0.187   9.893
 3578TIP3    H234930   4.397   0.267   9.958
 3579TIP3   OH234931   5.223   1.010   8.985
 3579TIP3    H134932   5.201   1.027   8.892
 3579TIP3    H234933   5.319   1.022   8.982
 3580TIP3   OH234934   4.759   0.358   9.035
 3580TIP3    H134935   4.740   0.303   9.112
 3580TIP3    H234936   4.717   0.307   8.964
 3581TIP3   OH234937   4.360   0.641   9.563
 3581TIP3    H134938   4.264   0.624   9.551
 3581TIP3    H234939   4.394   0.624   9.472
 3582TIP3   OH234940   4.931   0.701   9.409
 3582TIP3    H134941   4.883   0.775   9.367
 3582TIP3    H234942   4.989   0.672   9.336
 3583TIP3   OH234943   5.013   0.634   9.716
 3583TIP3    H134944   5.000   0.703   9.649
 3583TIP3    H234945   5.024   0.557   9.656
 3584TIP3   OH234946   4.431   0.390   8.893
 3584TIP3    H134947   4.398   0.357   8.980
 3584TIP3    H234948   4.358   0.451   8.870
 3585TIP3   OH234949   3.797   0.408   9.628
 3585TIP3    H134950   3.852   0.392   9.706
 3585TIP3    H234951   3.854   0.374   9.557
 3586TIP3   OH234952   3.910   0.443   9.185
 3586TIP3    H134953   3.969   0.476   9.115
 3586TIP3    H234954   3.854   0.521   9.202
 3587TIP3   OH234955   4.643   0.397   9.643
 3587TIP3    H134956   4.551   0.377   9.671
 3587TIP3    H234957   4.689   0.368   9.725
 3588TIP3   OH234958   4.103   0.548   9.558
 3588TIP3    H134959   4.027   0.594   9.516
 3588TIP3    H234960   4.123   0.477   9.493
 3589TIP3   OH234961   4.450   0.599   9.317
 3589TIP3    H134962   4.540   0.586   9.283
 3589TIP3    H234963   4.404   0.642   9.243
 3590TIP3   OH234964   5.045   0.287   9.967
 3590TIP3    H134965   5.033   0.280  10.064
 3590TIP3    H234966   4.952   0.284   9.937
 3591TIP3   OH234967   4.330   0.701   9.052
 3591TIP3    H134968   4.283   0.634   9.000
 3591TIP3    H234969   4.410   0.714   8.999
 3592TIP3   OH234970   4.731   0.650   9.859
 3592TIP3    H134971   4.798   0.641   9.789
 3592TIP3    H234972   4.755   0.574   9.915
 3593TIP3   OH234973   4.219   0.317   9.449
 3593TIP3    H134974   4.174   0.239   9.489
 3593TIP3    H234975   4.295   0.272   9.411
 3594TIP3   OH234976   4.669   1.150   9.261
 3594TIP3    H134977   4.598   1.093   9.224
 3594TIP3    H234978   4.628   1.176   9.347
 3595TIP3   OH234979   5.012   0.411   9.066
 3595TIP3    H134980   4.913   0.413   9.062
 3595TIP3    H234981   5.035   0.500   9.099
 3596TIP3   OH234982   5.104   0.616   9.203
 3596TIP3    H134983   5.184   0.601   9.257
 3596TIP3    H234984   5.121   0.705   9.168
 3597TIP3   OH234985   4.143   1.094   9.803
 3597TIP3    H134986   4.158   1.066   9.712
 3597TIP3    H234987   4.218   1.055   9.851
 3598TIP3   OH234988   4.863   1.287   9.149
 3598TIP3    H134989   4.826   1.376   9.170
 3598TIP3    H234990   4.793   1.227   9.183
 3599TIP3   OH234991   5.584   0.647   9.207
 3599TIP3    H134992   5.540   0.612   9.127
 3599TIP3    H234993   5.599   0.741   9.179
 3600TIP3   OH234994   5.386   1.513   9.230
 3600TIP3    H134995   5.364   1.448   9.298
 3600TIP3    H234996   5.440   1.462   9.167
 3601TIP3   OH234997   5.126   0.984   9.901
 3601TIP3    H134998   5.033   0.955   9.885
 3601TIP3    H234999   5.179   0.921   9.847
 3602TIP3   OH235000   4.396   1.431   9.592
 3602TIP3    H135001   4.441   1.518   9.587
 3602TIP3    H235002   4.319   1.447   9.536
 3603TIP3   OH235003   4.018   0.937   9.043
 3603TIP3    H135004   4.060   0.997   9.108
 3603TIP3    H235005   3.922   0.938   9.065
 3604TIP3   OH235006   4.533   1.199   9.486
 3604TIP3    H135007   4.489   1.277   9.524
 3604TIP3    H235008   4.484   1.126   9.528
 3605TIP3   OH235009   4.421   1.679   9.446
 3605TIP3    H135010   4.326   1.686   9.467
 3605TIP3    H235011   4.455   1.759   9.492
 3606TIP3   OH235012   5.201   1.309   9.033
 3606TIP3    H135013   5.203   1.267   9.122
 3606TIP3    H235014   5.112   1.280   9.004
 3607TIP3   OH235015   5.623   1.732   9.073
 3607TIP3    H135016   5.680   1.792   9.024
 3607TIP3    H235017   5.554   1.794   9.107
 3608TIP3   OH235018   5.271   1.172   9.261
 3608TIP3    H135019   5.250   1.088   9.307
 3608TIP3    H235020   5.367   1.165   9.246
 3609TIP3   OH235021   4.598   1.444   8.886
 3609TIP3    H135022   4.583   1.388   8.809
 3609TIP3    H235023   4.541   1.399   8.952
 3610TIP3   OH235024   4.472   1.368   9.124
 3610TIP3    H135025   4.547   1.326   9.169
 3610TIP3    H235026   4.485   1.461   9.154
 3611TIP3   OH235027   4.160   1.109   9.190
 3611TIP3    H135028   4.076   1.149   9.220
 3611TIP3    H235029   4.199   1.183   9.138
 3612TIP3   OH235030   4.970   0.308   9.348
 3612TIP3    H135031   4.957   0.381   9.287
 3612TIP3    H235032   5.021   0.351   9.421
 3613TIP3   OH235033   4.764   1.536   9.183
 3613TIP3    H135034   4.679   1.580   9.204
 3613TIP3    H235035   4.820   1.613   9.168
 3614TIP3   OH235036   4.709   0.499   9.397
 3614TIP3    H135037   4.790   0.549   9.419
 3614TIP3    H235038   4.669   0.481   9.485
 3615TIP3   OH235039   4.763   0.205   9.476
 3615TIP3    H135040   4.754   0.287   9.528
 3615TIP3    H235041   4.848   0.226   9.430
 3616TIP3   OH235042   4.500   1.617   9.187
 3616TIP3    H135043   4.505   1.696   9.127
 3616TIP3    H235044   4.452   1.658   9.262
 3617TIP3   OH235045   4.348   0.350   9.147
 3617TIP3    H135046   4.322   0.417   9.213
 3617TIP3    H235047   4.440   0.334   9.179
 3618TIP3   OH235048   5.240   0.783   9.755
 3618TIP3    H135049   5.168   0.719   9.775
 3618TIP3    H235050   5.310   0.750   9.817
 3619TIP3   OH235051   4.180   1.359   9.035
 3619TIP3    H135052   4.252   1.400   9.086
 3619TIP3    H235053   4.232   1.313   8.965
 3620TIP3   OH235054   4.014   0.645   8.978
 3620TIP3    H135055   4.052   0.732   9.001
 3620TIP3    H235056   3.945   0.674   8.917
 3621TIP3   OH235057   5.361   1.723   9.966
 3621TIP3    H135058   5.373   1.799   9.905
 3621TIP3    H235059   5.447   1.719  10.008
 3622TIP3   OH235060   4.136   0.160   9.798
 3622TIP3    H135061   4.133   0.160   9.700
 3622TIP3    H235062   4.101   0.068   9.811
 3623TIP3   OH235063   3.976   1.476   9.442
 3623TIP3    H135064   3.901   1.534   9.464
 3623TIP3    H235065   4.011   1.526   9.365
 3624TIP3   OH235066   4.810   1.650   8.885
 3624TIP3    H135067   4.760   1.567   8.900
 3624TIP3    H235068   4.887   1.613   8.836
 3625TIP3   OH235069   5.256   1.553   8.895
 3625TIP3    H135070   5.273   1.491   8.968
 3625TIP3    H235071   5.344   1.566   8.858
 3626TIP3   OH235072   4.347   1.161   8.872
 3626TIP3    H135073   4.392   1.144   8.956
 3626TIP3    H235074   4.421   1.140   8.810
 3627TIP3   OH235075   4.907   1.299   8.863
 3627TIP3    H135076   4.872   1.291   8.953
 3627TIP3    H235077   4.896   1.205   8.834
 3628TIP3   OH235078   4.477   0.988   9.141
 3628TIP3    H135079   4.407   0.933   9.180
 3628TIP3    H235080   4.516   0.925   9.076
 3629TIP3   OH235081   4.596   0.810   8.942
 3629TIP3    H135082   4.591   0.839   8.849
 3629TIP3    H235083   4.693   0.818   8.958
 3630TIP3   OH235084   5.503   1.007   8.889
 3630TIP3    H135085   5.481   0.987   8.796
 3630TIP3    H235086   5.504   1.106   8.888
 3631TIP3   OH235087   4.550   1.854   9.089
 3631TIP3    H135088   4.643   1.852   9.119
 3631TIP3    H235089   4.559   1.910   9.009
 3632TIP3   OH235090   3.903   1.327   9.021
 3632TIP3    H135091   4.001   1.338   9.016
 3632TIP3    H235092   3.886   1.272   8.940
 3633TIP3   OH235093   3.806   1.826   9.472
 3633TIP3    H135094   3.719   1.785   9.451
 3633TIP3    H235095   3.826   1.776   9.554
 3634TIP3   OH235096   3.869   1.669   9.677
 3634TIP3    H135097   3.844   1.586   9.724
 3634TIP3    H235098   3.923   1.711   9.747
 3635TIP3   OH235099   5.552   1.134   9.256
 3635TIP3    H135100   5.636   1.181   9.271
 3635TIP3    H235101   5.550   1.073   9.334
 3636TIP3   OH235102   5.556   0.978   9.481
 3636TIP3    H135103   5.495   0.913   9.521
 3636TIP3    H235104   5.634   0.968   9.540
 3637TIP3   OH235105   5.645   1.216   9.953
 3637TIP3    H135106   5.706   1.175   9.890
 3637TIP3    H235107   5.590   1.274   9.898
 3638TIP3   OH235108   5.636   0.900   9.106
 3638TIP3    H135109   5.573   0.905   9.031
 3638TIP3    H235110   5.608   0.979   9.156
 3639TIP3   OH235111   5.451   0.648   8.948
 3639TIP3    H135112   5.459   0.694   8.864
 3639TIP3    H235113   5.415   0.558   8.927
 3640TIP3   OH235114   5.402   0.766   9.550
 3640TIP3    H135115   5.363   0.688   9.509
 3640TIP3    H235116   5.351   0.768   9.634
 3641TIP3   OH235117   3.837   0.952   9.885
 3641TIP3    H135118   3.881   0.948   9.797
 3641TIP3    H235119   3.914   0.950   9.945
 3642TIP3   OH235120   5.400   0.394   8.915
 3642TIP3    H135121   5.463   0.328   8.949
 3642TIP3    H235122   5.314   0.347   8.909
 3643TIP3   OH235123   5.317   0.567   9.380
 3643TIP3    H135124   5.344   0.472   9.380
 3643TIP3    H235125   5.401   0.607   9.351
 3644TIP3   OH235126   5.411   0.622   9.886
 3644TIP3    H135127   5.507   0.610   9.883
 3644TIP3    H235128   5.382   0.539   9.931
 3645TIP3   OH235129   5.407   0.304   9.407
 3645TIP3    H135130   5.432   0.250   9.485
 3645TIP3    H235131   5.343   0.248   9.359
 3646TIP3   OH235132   3.944   0.362   9.868
 3646TIP3    H135133   4.004   0.285   9.873
 3646TIP3    H235134   4.004   0.432   9.897
 3647TIP3   OH235135   3.799   0.621   9.986
 3647TIP3    H135136   3.829   0.596   9.896
 3647TIP3    H235137   3.821   0.715   9.982
 3648TIP3   OH235138   5.619   0.260   9.054
 3648TIP3    H135139   5.656   0.200   8.985
 3648TIP3    H235140   5.686   0.330   9.063
 3649TIP3   OH235141   3.841   0.250   9.391
 3649TIP3    H135142   3.745   0.250   9.385
 3649TIP3    H235143   3.865   0.302   9.311
 3650TIP3   OH235144   5.275   1.769   9.559
 3650TIP3    H135145   5.358   1.747   9.510
 3650TIP3    H235146   5.305   1.831   9.627
 3651TIP3   OH235147   4.034   1.766   9.882
 3651TIP3    H135148   4.044   1.769   9.981
 3651TIP3    H235149   4.113   1.713   9.858
 3652TIP3   OH235150   4.231   1.617   9.780
 3652TIP3    H135151   4.226   1.521   9.795
 3652TIP3    H235152   4.318   1.637   9.818
 3653TIP3   OH235153   4.482   1.664   9.881
 3653TIP3    H135154   4.506   1.572   9.860
 3653TIP3    H235155   4.479   1.661   9.978
 3654TIP3   OH235156   4.805   0.292   9.824
 3654TIP3    H135157   4.756   0.207   9.828
 3654TIP3    H235158   4.873   0.269   9.758
 3655TIP3   OH235159   5.329   0.116   9.817
 3655TIP3    H135160   5.392   0.138   9.744
 3655TIP3    H235161   5.248   0.159   9.786
 3656TIP3   OH235162   5.521   0.182   9.617
 3656TIP3    H135163   5.567   0.108   9.573
 3656TIP3    H235164   5.586   0.255   9.609
 3657TIP3   OH235165   4.084   0.122   9.543
 3657TIP3    H135166   4.011   0.140   9.481
 3657TIP3    H235167   4.079   0.024   9.547
 3658TIP3   OH235168   3.971   0.120   9.171
 3658TIP3    H135169   3.978   0.162   9.082
 3658TIP3    H235170   3.884   0.150   9.201
 3659TIP3   OH235171   4.534   0.125   9.573
 3659TIP3    H135172   4.610   0.153   9.519
 3659TIP3    H235173   4.575   0.123   9.663
 3660TIP3   OH235174   5.035   0.172   9.681
 3660TIP3    H135175   5.089   0.148   9.606
 3660TIP3    H235176   5.044   0.092   9.737
 3661TIP3   OH235177   5.205   0.196   9.250
 3661TIP3    H135178   5.112   0.223   9.238
 3661TIP3    H235179   5.193   0.104   9.278
 3662TIP3   OH235180   3.949   1.667   9.253
 3662TIP3    H135181   3.852   1.677   9.251
 3662TIP3    H235182   3.973   1.758   9.225
 3663TIP3   OH235183   4.097   0.250   8.980
 3663TIP3    H135184   4.152   0.192   8.922
 3663TIP3    H235185   4.158   0.257   9.056
 3664TIP3   OH235186   4.597   0.300   9.258
 3664TIP3    H135187   4.644   0.238   9.316
 3664TIP3    H235188   4.639   0.385   9.286
 3665TIP3   OH235189   4.857   1.794   9.104
 3665TIP3    H135190   4.950   1.793   9.075
 3665TIP3    H235191   4.819   1.760   9.020
 3666TIP3   OH235192   5.477   1.708   9.381
 3666TIP3    H135193   5.451   1.633   9.323
 3666TIP3    H235194   5.479   1.780   9.315
 3667TIP3   OH235195   4.076   1.743   8.938
 3667TIP3    H135196   4.053   1.781   9.024
 3667TIP3    H235197   4.149   1.685   8.964
 3668TIP3   OH235198   6.875   0.993   9.565
 3668TIP3    H135199   6.879   1.088   9.583
 3668TIP3    H235200   6.798   0.988   9.507
 3669TIP3   OH235201   6.748   0.899   9.880
 3669TIP3    H135202   6.748   0.863   9.972
 3669TIP3    H235203   6.689   0.837   9.835
 3670TIP3   OH235204   7.041   1.204   9.703
 3670TIP3    H135205   7.005   1.132   9.760
 3670TIP3    H235206   7.082   1.258   9.774
 3671TIP3   OH235207   6.093   1.342   9.902
 3671TIP3    H135208   6.078   1.253   9.861
 3671TIP3    H235209   6.189   1.350   9.893
 3672TIP3   OH235210   5.762   0.667   9.464
 3672TIP3    H135211   5.726   0.754   9.484
 3672TIP3    H235212   5.683   0.618   9.438
 3673TIP3   OH235213   5.792   0.907   9.623
 3673TIP3    H135214   5.834   0.833   9.671
 3673TIP3    H235215   5.865   0.946   9.574
 3674TIP3   OH235216   6.882   1.760   9.822
 3674TIP3    H135217   6.923   1.710   9.746
 3674TIP3    H235218   6.810   1.698   9.843
 3675TIP3   OH235219   6.618   1.187  10.009
 3675TIP3    H135220   6.648   1.146   9.926
 3675TIP3    H235221   6.691   1.167  10.069
 3676TIP3   OH235222   6.916   0.575   9.996
 3676TIP3    H135223   6.947   0.483  10.003
 3676TIP3    H235224   6.946   0.598   9.906
 3677TIP3   OH235225   6.237   0.410   9.696
 3677TIP3    H135226   6.251   0.491   9.640
 3677TIP3    H235227   6.188   0.354   9.632
 3678TIP3   OH235228   6.997   0.436   9.512
 3678TIP3    H135229   7.037   0.412   9.599
 3678TIP3    H235230   7.048   0.515   9.488
 3679TIP3   OH235231   5.850   0.673   9.768
 3679TIP3    H135232   5.922   0.631   9.819
 3679TIP3    H235233   5.868   0.635   9.680
 3680TIP3   OH235234   6.376   0.820   9.720
 3680TIP3    H135235   6.447   0.767   9.758
 3680TIP3    H235236   6.337   0.753   9.659
 3681TIP3   OH235237   6.800   1.241   9.451
 3681TIP3    H135238   6.777   1.250   9.357
 3681TIP3    H235239   6.768   1.326   9.487
 3682TIP3   OH235240   7.104   0.379   9.748
 3682TIP3    H135241   7.062   0.365   9.835
 3682TIP3    H235242   7.199   0.361   9.765
 3683TIP3   OH235243   6.074   0.504   9.891
 3683TIP3    H135244   6.103   0.595   9.872
 3683TIP3    H235245   6.118   0.456   9.817
 3684TIP3   OH235246   5.812   1.229   9.274
 3684TIP3    H135247   5.804   1.288   9.196
 3684TIP3    H235248   5.821   1.294   9.346
 3685TIP3   OH235249   7.188   1.335   9.898
 3685TIP3    H135250   7.151   1.283   9.972
 3685TIP3    H235251   7.221   1.412   9.946
 3686TIP3   OH235252   6.497   0.091   9.821
 3686TIP3    H135253   6.509  -0.005   9.838
 3686TIP3    H235254   6.422   0.108   9.882
 3687TIP3   OH235255   6.973   1.597   9.620
 3687TIP3    H135256   6.997   1.507   9.588
 3687TIP3    H235257   7.055   1.647   9.599
 3688TIP3   OH235258   7.117   1.379   9.496
 3688TIP3    H135259   7.105   1.307   9.432
 3688TIP3    H235260   7.135   1.327   9.577
 3689TIP3   OH235261   6.725   0.927   9.314
 3689TIP3    H135262   6.682   1.012   9.292
 3689TIP3    H235263   6.814   0.936   9.274
 3690TIP3   OH235264   6.747   0.829   8.993
 3690TIP3    H135265   6.808   0.871   9.058
 3690TIP3    H235266   6.758   0.736   9.017
 3691TIP3   OH235267   7.098   0.953   9.395
 3691TIP3    H135268   7.030   0.977   9.462
 3691TIP3    H235269   7.153   0.893   9.450
 3692TIP3   OH235270   6.238   1.004   9.585
 3692TIP3    H135271   6.207   0.957   9.505
 3692TIP3    H235272   6.297   0.939   9.628
 3693TIP3   OH235273   6.374   1.377   9.851
 3693TIP3    H135274   6.355   1.353   9.758
 3693TIP3    H235275   6.430   1.302   9.880
 3694TIP3   OH235276   6.209   0.837   9.938
 3694TIP3    H135277   6.262   0.851   9.857
 3694TIP3    H235278   6.242   0.908   9.996
 3695TIP3   OH235279   6.952   0.886   9.171
 3695TIP3    H135280   7.010   0.913   9.245
 3695TIP3    H235281   7.000   0.927   9.095
 3696TIP3   OH235282   6.731   1.502   9.477
 3696TIP3    H135283   6.779   1.536   9.554
 3696TIP3    H235284   6.687   1.583   9.445
 3697TIP3   OH235285   7.315   0.106   9.107
 3697TIP3    H135286   7.236   0.149   9.141
 3697TIP3    H235287   7.382   0.175   9.126
 3698TIP3   OH235288   6.100   0.911   9.357
 3698TIP3    H135289   6.085   0.997   9.312
 3698TIP3    H235290   6.078   0.848   9.286
 3699TIP3   OH235291   7.448   1.492   9.006
 3699TIP3    H135292   7.479   1.585   9.023
 3699TIP3    H235293   7.536   1.450   9.013
 3700TIP3   OH235294   5.731   1.474   9.863
 3700TIP3    H135295   5.803   1.422   9.902
 3700TIP3    H235296   5.687   1.512   9.940
 3701TIP3   OH235297   6.696   1.799   9.349
 3701TIP3    H135298   6.687   1.809   9.251
 3701TIP3    H235299   6.679   1.892   9.376
 3702TIP3   OH235300   6.053   1.690   9.525
 3702TIP3    H135301   6.073   1.677   9.620
 3702TIP3    H235302   5.962   1.655   9.517
 3703TIP3   OH235303   6.976   1.741   9.046
 3703TIP3    H135304   7.029   1.667   9.007
 3703TIP3    H235305   6.988   1.724   9.142
 3704TIP3   OH235306   6.956   1.724   9.318
 3704TIP3    H135307   6.861   1.739   9.334
 3704TIP3    H235308   6.976   1.658   9.386
 3705TIP3   OH235309   6.252   0.177   9.949
 3705TIP3    H135310   6.179   0.192   9.884
 3705TIP3    H235311   6.287   0.268   9.960
 3706TIP3   OH235312   7.096   1.007   8.986
 3706TIP3    H135313   7.071   1.016   8.891
 3706TIP3    H235314   7.191   1.025   8.981
 3707TIP3   OH235315   6.648   0.373   9.032
 3707TIP3    H135316   6.622   0.315   9.106
 3707TIP3    H235317   6.615   0.323   8.957
 3708TIP3   OH235318   6.252   0.642   9.570
 3708TIP3    H135319   6.156   0.622   9.563
 3708TIP3    H235320   6.283   0.624   9.478
 3709TIP3   OH235321   6.828   0.703   9.416
 3709TIP3    H135322   6.780   0.778   9.374
 3709TIP3    H235323   6.882   0.673   9.341
 3710TIP3   OH235324   6.910   0.630   9.705
 3710TIP3    H135325   6.883   0.695   9.637
 3710TIP3    H235326   6.913   0.550   9.648
 3711TIP3   OH235327   6.319   0.401   8.912
 3711TIP3    H135328   6.275   0.362   8.992
 3711TIP3    H235329   6.245   0.457   8.879
 3712TIP3   OH235330   5.684   0.414   9.642
 3712TIP3    H135331   5.729   0.401   9.729
 3712TIP3    H235332   5.748   0.376   9.581
 3713TIP3   OH235333   5.772   0.444   9.170
 3713TIP3    H135334   5.837   0.480   9.108
 3713TIP3    H235335   5.724   0.525   9.197
 3714TIP3   OH235336   6.522   0.403   9.631
 3714TIP3    H135337   6.439   0.364   9.664
 3714TIP3    H235338   6.582   0.382   9.706
 3715TIP3   OH235339   5.992   0.556   9.556
 3715TIP3    H135340   5.914   0.601   9.515
 3715TIP3    H235341   6.014   0.489   9.488
 3716TIP3   OH235342   6.330   0.601   9.320
 3716TIP3    H135343   6.422   0.581   9.292
 3716TIP3    H235344   6.290   0.645   9.243
 3717TIP3   OH235345   6.922   0.292   9.960
 3717TIP3    H135346   6.892   0.274  10.051
 3717TIP3    H235347   6.835   0.279   9.917
 3718TIP3   OH235348   6.228   0.716   9.054
 3718TIP3    H135349   6.200   0.640   9.001
 3718TIP3    H235350   6.309   0.742   9.004
 3719TIP3   OH235351   6.620   0.650   9.855
 3719TIP3    H135352   6.690   0.631   9.791
 3719TIP3    H235353   6.645   0.587   9.924
 3720TIP3   OH235354   6.109   0.318   9.459
 3720TIP3    H135355   6.060   0.242   9.498
 3720TIP3    H235356   6.179   0.268   9.416
 3721TIP3   OH235357   6.559   1.155   9.260
 3721TIP3    H135358   6.484   1.105   9.219
 3721TIP3    H235359   6.515   1.178   9.345
 3722TIP3   OH235360   6.902   0.404   9.088
 3722TIP3    H135361   6.809   0.418   9.062
 3722TIP3    H235362   6.932   0.494   9.115
 3723TIP3   OH235363   6.995   0.612   9.208
 3723TIP3    H135364   7.084   0.606   9.249
 3723TIP3    H235365   7.000   0.693   9.155
 3724TIP3   OH235366   6.040   1.093   9.808
 3724TIP3    H135367   6.069   1.067   9.719
 3724TIP3    H235368   6.101   1.047   9.867
 3725TIP3   OH235369   6.756   1.290   9.157
 3725TIP3    H135370   6.718   1.379   9.179
 3725TIP3    H235371   6.684   1.230   9.188
 3726TIP3   OH235372   7.469   0.635   9.199
 3726TIP3    H135373   7.423   0.595   9.122
 3726TIP3    H235374   7.493   0.723   9.160
 3727TIP3   OH235375   7.310   1.504   9.241
 3727TIP3    H135376   7.252   1.429   9.263
 3727TIP3    H235377   7.361   1.475   9.163
 3728TIP3   OH235378   6.989   1.018   9.893
 3728TIP3    H135379   6.904   0.971   9.872
 3728TIP3    H235380   7.053   0.964   9.840
 3729TIP3   OH235381   6.281   1.430   9.595
 3729TIP3    H135382   6.325   1.516   9.579
 3729TIP3    H235383   6.204   1.439   9.538
 3730TIP3   OH235384   5.911   0.925   9.038
 3730TIP3    H135385   5.952   0.986   9.103
 3730TIP3    H235386   5.815   0.931   9.057
 3731TIP3   OH235387   6.408   1.191   9.478
 3731TIP3    H135388   6.376   1.271   9.524
 3731TIP3    H235389   6.360   1.120   9.525
 3732TIP3   OH235390   6.312   1.669   9.449
 3732TIP3    H135391   6.215   1.678   9.461
 3732TIP3    H235392   6.341   1.754   9.485
 3733TIP3   OH235393   7.084   1.333   9.033
 3733TIP3    H135394   7.100   1.286   9.117
 3733TIP3    H235395   6.994   1.301   9.018
 3734TIP3   OH235396   7.532   1.742   9.052
 3734TIP3    H135397   7.556   1.828   9.011
 3734TIP3    H235398   7.446   1.769   9.087
 3735TIP3   OH235399   7.181   1.177   9.244
 3735TIP3    H135400   7.151   1.088   9.266
 3735TIP3    H235401   7.279   1.165   9.236
 3736TIP3   OH235402   6.479   1.448   8.883
 3736TIP3    H135403   6.459   1.399   8.801
 3736TIP3    H235404   6.426   1.396   8.947
 3737TIP3   OH235405   6.359   1.357   9.121
 3737TIP3    H135406   6.438   1.320   9.162
 3737TIP3    H235407   6.367   1.450   9.152
 3738TIP3   OH235408   6.037   1.112   9.180
 3738TIP3    H135409   5.952   1.151   9.211
 3738TIP3    H235410   6.078   1.189   9.137
 3739TIP3   OH235411   6.842   0.306   9.350
 3739TIP3    H135412   6.838   0.377   9.283
 3739TIP3    H235413   6.907   0.344   9.413
 3740TIP3   OH235414   6.648   1.549   9.186
 3740TIP3    H135415   6.557   1.582   9.203
 3740TIP3    H235416   6.694   1.632   9.166
 3741TIP3   OH235417   6.584   0.501   9.389
 3741TIP3    H135418   6.660   0.556   9.414
 3741TIP3    H235419   6.548   0.476   9.477
 3742TIP3   OH235420   6.652   0.200   9.487
 3742TIP3    H135421   6.639   0.291   9.516
 3742TIP3    H235422   6.739   0.211   9.442
 3743TIP3   OH235423   6.384   1.610   9.185
 3743TIP3    H135424   6.394   1.688   9.124
 3743TIP3    H235425   6.339   1.655   9.259
 3744TIP3   OH235426   6.210   0.343   9.153
 3744TIP3    H135427   6.192   0.411   9.219
 3744TIP3    H235428   6.303   0.325   9.177
 3745TIP3   OH235429   7.109   0.829   9.755
 3745TIP3    H135430   7.035   0.767   9.744
 3745TIP3    H235431   7.164   0.777   9.817
 3746TIP3   OH235432   6.073   1.353   9.037
 3746TIP3    H135433   6.144   1.392   9.091
 3746TIP3    H235434   6.126   1.304   8.972
 3747TIP3   OH235435   5.901   0.643   8.974
 3747TIP3    H135436   5.943   0.727   9.001
 3747TIP3    H235437   5.828   0.678   8.921
 3748TIP3   OH235438   7.277   1.713   9.961
 3748TIP3    H135439   7.281   1.776   9.887
 3748TIP3    H235440   7.369   1.715   9.995
 3749TIP3   OH235441   6.018   0.162   9.796
 3749TIP3    H135442   6.014   0.160   9.698
 3749TIP3    H235443   5.984   0.071   9.812
 3750TIP3   OH235444   5.865   1.476   9.446
 3750TIP3    H135445   5.788   1.533   9.463
 3750TIP3    H235446   5.900   1.524   9.368
 3751TIP3   OH235447   6.688   1.642   8.880
 3751TIP3    H135448   6.640   1.559   8.901
 3751TIP3    H235449   6.772   1.607   8.844
 3752TIP3   OH235450   7.145   1.577   8.906
 3752TIP3    H135451   7.165   1.502   8.966
 3752TIP3    H235452   7.223   1.576   8.847
 3753TIP3   OH235453   6.224   1.163   8.873
 3753TIP3    H135454   6.252   1.129   8.959
 3753TIP3    H235455   6.302   1.138   8.816
 3754TIP3   OH235456   6.792   1.293   8.861
 3754TIP3    H135457   6.757   1.289   8.952
 3754TIP3    H235458   6.775   1.199   8.835
 3755TIP3   OH235459   6.358   0.992   9.145
 3755TIP3    H135460   6.294   0.931   9.185
 3755TIP3    H235461   6.404   0.931   9.085
 3756TIP3   OH235462   6.489   0.808   8.932
 3756TIP3    H135463   6.480   0.838   8.840
 3756TIP3    H235464   6.586   0.820   8.943
 3757TIP3   OH235465   7.376   1.015   8.888
 3757TIP3    H135466   7.341   1.006   8.797
 3757TIP3    H235467   7.387   1.113   8.896
 3758TIP3   OH235468   6.437   1.844   9.081
 3758TIP3    H135469   6.532   1.848   9.104
 3758TIP3    H235470   6.435   1.908   9.008
 3759TIP3   OH235471   5.797   1.328   9.018
 3759TIP3    H135472   5.896   1.329   9.015
 3759TIP3    H235473   5.775   1.275   8.938
 3760TIP3   OH235474   5.685   1.841   9.476
 3760TIP3    H135475   5.603   1.791   9.454
 3760TIP3    H235476   5.711   1.793   9.558
 3761TIP3   OH235477   5.756   1.672   9.675
 3761TIP3    H135478   5.723   1.589   9.716
 3761TIP3    H235479   5.799   1.716   9.753
 3762TIP3   OH235480   7.451   1.130   9.263
 3762TIP3    H135481   7.540   1.159   9.285
 3762TIP3    H235482   7.437   1.064   9.334
 3763TIP3   OH235483   7.469   0.948   9.471
 3763TIP3    H135484   7.380   0.908   9.484
 3763TIP3    H235485   7.511   0.926   9.556
 3764TIP3   OH235486   7.548   1.180   9.968
 3764TIP3    H135487   7.640   1.194   9.940
 3764TIP3    H235488   7.507   1.266   9.943
 3765TIP3   OH235489   7.494   0.902   9.112
 3765TIP3    H135490   7.439   0.913   9.032
 3765TIP3    H235491   7.491   0.993   9.147
 3766TIP3   OH235492   7.313   0.637   8.970
 3766TIP3    H135493   7.325   0.691   8.892
 3766TIP3    H235494   7.291   0.549   8.931
 3767TIP3   OH235495   7.261   0.794   9.546
 3767TIP3    H135496   7.317   0.717   9.562
 3767TIP3    H235497   7.202   0.793   9.625
 3768TIP3   OH235498   5.725   0.944   9.881
 3768TIP3    H135499   5.761   0.941   9.790
 3768TIP3    H235500   5.807   0.953   9.933
 3769TIP3   OH235501   7.266   0.388   8.870
 3769TIP3    H135502   7.304   0.330   8.939
 3769TIP3    H235503   7.172   0.362   8.869
 3770TIP3   OH235504   7.239   0.552   9.361
 3770TIP3    H135505   7.250   0.455   9.372
 3770TIP3    H235506   7.332   0.578   9.350
 3771TIP3   OH235507   7.234   0.629   9.876
 3771TIP3    H135508   7.331   0.622   9.858
 3771TIP3    H235509   7.222   0.544   9.923
 3772TIP3   OH235510   7.283   0.288   9.386
 3772TIP3    H135511   7.289   0.221   9.457
 3772TIP3    H235512   7.200   0.261   9.340
 3773TIP3   OH235513   5.825   0.350   9.871
 3773TIP3    H135514   5.887   0.274   9.874
 3773TIP3    H235515   5.884   0.422   9.899
 3774TIP3   OH235516   5.688   0.632   9.981
 3774TIP3    H135517   5.728   0.628   9.891
 3774TIP3    H235518   5.698   0.727   9.999
 3775TIP3   OH235519   7.485   0.297   9.050
 3775TIP3    H135520   7.527   0.219   9.004
 3775TIP3    H235521   7.513   0.371   8.995
 3776TIP3   OH235522   5.734   0.249   9.393
 3776TIP3    H135523   5.638   0.240   9.390
 3776TIP3    H235524   5.749   0.301   9.313
 3777TIP3   OH235525   7.179   1.772   9.565
 3777TIP3    H135526   7.230   1.752   9.483
 3777TIP3    H235527   7.249   1.810   9.621
 3778TIP3   OH235528   5.920   1.769   9.888
 3778TIP3    H135529   5.939   1.774   9.984
 3778TIP3    H235530   5.996   1.715   9.856
 3779TIP3   OH235531   6.124   1.622   9.779
 3779TIP3    H135532   6.122   1.525   9.784
 3779TIP3    H235533   6.215   1.640   9.811
 3780TIP3   OH235534   6.369   1.653   9.879
 3780TIP3    H135535   6.378   1.555   9.880
 3780TIP3    H235536   6.355   1.671   9.972
 3781TIP3   OH235537   6.688   0.291   9.811
 3781TIP3    H135538   6.631   0.211   9.827
 3781TIP3    H235539   6.753   0.253   9.747
 3782TIP3   OH235540   7.237   0.109   9.831
 3782TIP3    H135541   7.288   0.112   9.747
 3782TIP3    H235542   7.149   0.137   9.805
 3783TIP3   OH235543   7.371   0.131   9.597
 3783TIP3    H135544   7.440   0.068   9.570
 3783TIP3    H235545   7.421   0.216   9.600
 3784TIP3   OH235546   5.965   0.123   9.543
 3784TIP3    H135547   5.892   0.139   9.481
 3784TIP3    H235548   5.963   0.025   9.549
 3785TIP3   OH235549   5.863   0.118   9.170
 3785TIP3    H135550   5.868   0.153   9.079
 3785TIP3    H235551   5.771   0.136   9.192
 3786TIP3   OH235552   6.420   0.122   9.567
 3786TIP3    H135553   6.498   0.153   9.516
 3786TIP3    H235554   6.459   0.120   9.658
 3787TIP3   OH235555   6.900   0.164   9.685
 3787TIP3    H135556   6.984   0.182   9.642
 3787TIP3    H235557   6.917   0.079   9.729
 3788TIP3   OH235558   7.077   0.185   9.258
 3788TIP3    H135559   6.983   0.214   9.253
 3788TIP3    H235560   7.067   0.092   9.284
 3789TIP3   OH235561   5.839   1.672   9.255
 3789TIP3    H135562   5.743   1.685   9.248
 3789TIP3    H235563   5.869   1.758   9.220
 3790TIP3   OH235564   5.977   0.259   8.973
 3790TIP3    H135565   6.037   0.201   8.921
 3790TIP3    H235566   6.028   0.270   9.055
 3791TIP3   OH235567   6.484   0.300   9.249
 3791TIP3    H135568   6.531   0.236   9.304
 3791TIP3    H235569   6.527   0.383   9.281
 3792TIP3   OH235570   6.712   1.805   9.083
 3792TIP3    H135571   6.806   1.805   9.053
 3792TIP3    H235572   6.678   1.749   9.009
 3793TIP3   OH235573   7.339   1.743   9.355
 3793TIP3    H135574   7.334   1.656   9.310
 3793TIP3    H235575   7.340   1.805   9.279
 3794TIP3   OH235576   5.956   1.744   8.937
 3794TIP3    H135577   5.931   1.783   9.023
 3794TIP3    H235578   6.034   1.690   8.960
 3795TIP3   OH235579   7.552   0.690   9.474
 3795TIP3    H135580   7.539   0.782   9.447
 3795TIP3    H235581   7.528   0.646   9.392
 3796TIP3   OH235582   7.556   1.446   9.898
 3796TIP3    H135583   7.654   1.452   9.896
 3796TIP3    H235584   7.532   1.493   9.979
 3797TIP3   OH235585   7.501   0.385   9.634
 3797TIP3    H135586   7.581   0.435   9.663
 3797TIP3    H235587   7.522   0.375   9.540
 3798TIP3   OH235588   7.511   1.853   9.524
 3798TIP3    H135589   7.454   1.803   9.461
 3798TIP3    H235590   7.523   1.786   9.596
 3799TIP3   OH235591   7.550   1.702   9.745
 3799TIP3    H135592   7.514   1.612   9.755
 3799TIP3    H235593   7.647   1.687   9.743
 3800TIP3   OH235594   7.645   0.891   9.916
 3800TIP3    H135595   7.671   0.931   9.831
 3800TIP3    H235596   7.661   0.965   9.976
 3801TIP3   OH235597   7.503   0.628   9.887
 3801TIP3    H135598   7.582   0.572   9.893
 3801TIP3    H235599   7.540   0.714   9.913
 3802TIP3   OH235600   7.558   0.308   9.363
 3802TIP3    H135601   7.461   0.305   9.368
 3802TIP3    H235602   7.571   0.309   9.266
 3803TIP3   OH235603   1.207   2.897   9.551
 3803TIP3    H135604   1.212   2.994   9.562
 3803TIP3    H235605   1.131   2.890   9.493
 3804TIP3   OH235606   1.103   2.796   9.892
 3804TIP3    H135607   1.094   2.755   9.979
 3804TIP3    H235608   1.035   2.751   9.840
 3805TIP3   OH235609   1.399   3.088   9.720
 3805TIP3    H135610   1.377   3.010   9.775
 3805TIP3    H235611   1.439   3.149   9.786
 3806TIP3   OH235612   0.388   3.225   9.869
 3806TIP3    H135613   0.380   3.131   9.841
 3806TIP3    H235614   0.482   3.228   9.896
 3807TIP3   OH235615   0.127   2.531   9.388
 3807TIP3    H135616   0.149   2.611   9.438
 3807TIP3    H235617   0.037   2.514   9.423
 3808TIP3   OH235618   0.108   2.799   9.695
 3808TIP3    H135619   0.153   2.717   9.726
 3808TIP3    H235620   0.176   2.841   9.641
 3809TIP3   OH235621   1.164   3.654   9.763
 3809TIP3    H135622   1.221   3.599   9.704
 3809TIP3    H235623   1.123   3.581   9.811
 3810TIP3   OH235624   0.972   3.068   9.998
 3810TIP3    H135625   1.017   3.021   9.927
 3810TIP3    H235626   1.039   3.060  10.067
 3811TIP3   OH235627   1.251   2.505   9.990
 3811TIP3    H135628   1.275   2.410   9.993
 3811TIP3    H235629   1.245   2.518   9.894
 3812TIP3   OH235630   0.595   2.279   9.726
 3812TIP3    H135631   0.603   2.363   9.675
 3812TIP3    H235632   0.551   2.224   9.658
 3813TIP3   OH235633   1.292   2.328   9.535
 3813TIP3    H135634   1.347   2.290   9.609
 3813TIP3    H235635   1.358   2.390   9.501
 3814TIP3   OH235636   0.243   2.563   9.741
 3814TIP3    H135637   0.293   2.494   9.789
 3814TIP3    H235638   0.255   2.529   9.651
 3815TIP3   OH235639   0.685   2.691   9.713
 3815TIP3    H135640   0.762   2.646   9.751
 3815TIP3    H235641   0.650   2.618   9.657
 3816TIP3   OH235642   1.146   3.139   9.431
 3816TIP3    H135643   1.124   3.138   9.336
 3816TIP3    H235644   1.124   3.233   9.452
 3817TIP3   OH235645   1.470   2.264   9.715
 3817TIP3    H135646   1.409   2.241   9.789
 3817TIP3    H235647   1.556   2.238   9.751
 3818TIP3   OH235648   0.391   2.393   9.884
 3818TIP3    H135649   0.434   2.461   9.937
 3818TIP3    H235650   0.465   2.353   9.834
 3819TIP3   OH235651   0.120   3.109   9.272
 3819TIP3    H135652   0.116   3.164   9.191
 3819TIP3    H235653   0.149   3.175   9.339
 3820TIP3   OH235654   1.514   3.253   9.891
 3820TIP3    H135655   1.489   3.191   9.962
 3820TIP3    H235656   1.556   3.321   9.944
 3821TIP3   OH235657   0.855   1.964   9.843
 3821TIP3    H135658   0.878   1.870   9.847
 3821TIP3    H235659   0.758   1.965   9.864
 3822TIP3   OH235660   1.307   3.487   9.618
 3822TIP3    H135661   1.353   3.406   9.591
 3822TIP3    H235662   1.379   3.551   9.597
 3823TIP3   OH235663   1.468   3.274   9.510
 3823TIP3    H135664   1.435   3.211   9.444
 3823TIP3    H235665   1.464   3.218   9.590
 3824TIP3   OH235666   1.065   2.816   9.295
 3824TIP3    H135667   1.023   2.903   9.277
 3824TIP3    H235668   1.155   2.826   9.258
 3825TIP3   OH235669   1.096   2.706   8.985
 3825TIP3    H135670   1.144   2.740   9.064
 3825TIP3    H235671   1.122   2.613   8.986
 3826TIP3   OH235672   1.451   2.820   9.403
 3826TIP3    H135673   1.386   2.838   9.474
 3826TIP3    H235674   1.520   2.768   9.450
 3827TIP3   OH235675   0.575   2.893   9.586
 3827TIP3    H135676   0.530   2.850   9.510
 3827TIP3    H235677   0.624   2.819   9.628
 3828TIP3   OH235678   0.733   3.265   9.853
 3828TIP3    H135679   0.718   3.232   9.763
 3828TIP3    H235680   0.798   3.201   9.889
 3829TIP3   OH235681   0.570   2.777   9.941
 3829TIP3    H135682   0.604   2.742   9.856
 3829TIP3    H235683   0.652   2.801   9.987
 3830TIP3   OH235684   1.303   2.797   9.170
 3830TIP3    H135685   1.366   2.812   9.245
 3830TIP3    H235686   1.356   2.829   9.093
 3831TIP3   OH235687   1.077   3.392   9.470
 3831TIP3    H135688   1.130   3.423   9.545
 3831TIP3    H235689   1.026   3.471   9.446
 3832TIP3   OH235690   1.690   1.907   9.194
 3832TIP3    H135691   1.596   1.918   9.218
 3832TIP3    H235692   1.719   1.996   9.169
 3833TIP3   OH235693   0.448   2.782   9.354
 3833TIP3    H135694   0.437   2.867   9.305
 3833TIP3    H235695   0.417   2.719   9.289
 3834TIP3   OH235696   1.799   3.350   9.002
 3834TIP3    H135697   1.819   3.443   9.024
 3834TIP3    H235698   1.879   3.307   9.038
 3835TIP3   OH235699   0.141   3.355   9.902
 3835TIP3    H135700   0.213   3.289   9.895
 3835TIP3    H235701   0.171   3.402   9.981
 3836TIP3   OH235702   1.054   3.702   9.358
 3836TIP3    H135703   1.052   3.711   9.260
 3836TIP3    H235704   1.025   3.792   9.384
 3837TIP3   OH235705   0.409   3.574   9.533
 3837TIP3    H135706   0.425   3.543   9.625
 3837TIP3    H235707   0.313   3.564   9.525
 3838TIP3   OH235708   1.354   3.633   9.045
 3838TIP3    H135709   1.406   3.557   9.011
 3838TIP3    H235710   1.350   3.614   9.142
 3839TIP3   OH235711   1.310   3.621   9.314
 3839TIP3    H135712   1.217   3.642   9.334
 3839TIP3    H235713   1.328   3.552   9.380
 3840TIP3   OH235714   0.590   2.018   9.865
 3840TIP3    H135715   0.501   2.046   9.836
 3840TIP3    H235716   0.618   2.095   9.920
 3841TIP3   OH235717   1.463   2.896   8.983
 3841TIP3    H135718   1.444   2.911   8.888
 3841TIP3    H235719   1.559   2.913   8.985
 3842TIP3   OH235720   1.026   2.250   8.990
 3842TIP3    H135721   0.984   2.247   9.077
 3842TIP3    H235722   0.983   2.171   8.951
 3843TIP3   OH235723   0.600   2.493   9.565
 3843TIP3    H135724   0.504   2.485   9.544
 3843TIP3    H235725   0.639   2.490   9.473
 3844TIP3   OH235726   1.162   2.597   9.407
 3844TIP3    H135727   1.118   2.673   9.364
 3844TIP3    H235728   1.219   2.566   9.334
 3845TIP3   OH235729   1.227   2.552   9.712
 3845TIP3    H135730   1.205   2.627   9.653
 3845TIP3    H235731   1.231   2.478   9.647
 3846TIP3   OH235732   0.659   2.281   8.935
 3846TIP3    H135733   0.605   2.222   8.994
 3846TIP3    H235734   0.592   2.327   8.884
 3847TIP3   OH235735   0.085   2.248   9.644
 3847TIP3    H135736   0.125   2.251   9.734
 3847TIP3    H235737   0.123   2.165   9.611
 3848TIP3   OH235738   0.112   2.342   9.158
 3848TIP3    H135739   0.175   2.373   9.090
 3848TIP3    H235740   0.105   2.422   9.213
 3849TIP3   OH235741   0.878   2.284   9.624
 3849TIP3    H135742   0.793   2.271   9.668
 3849TIP3    H235743   0.939   2.241   9.689
 3850TIP3   OH235744   0.339   2.439   9.519
 3850TIP3    H135745   0.270   2.447   9.449
 3850TIP3    H235746   0.347   2.340   9.517
 3851TIP3   OH235747   0.694   2.464   9.311
 3851TIP3    H135748   0.789   2.455   9.290
 3851TIP3    H235749   0.657   2.518   9.238
 3852TIP3   OH235750   1.292   2.243   9.915
 3852TIP3    H135751   1.295   2.219  10.010
 3852TIP3    H235752   1.198   2.226   9.894
 3853TIP3   OH235753   0.571   2.589   9.046
 3853TIP3    H135754   0.526   2.535   8.979
 3853TIP3    H235755   0.655   2.612   9.000
 3854TIP3   OH235756   0.953   2.556   9.846
 3854TIP3    H135757   0.990   2.537   9.759
 3854TIP3    H235758   1.014   2.506   9.903
 3855TIP3   OH235759   0.408   2.188   9.504
 3855TIP3    H135760   0.341   2.118   9.525
 3855TIP3    H235761   0.447   2.146   9.427
 3856TIP3   OH235762   0.906   3.033   9.271
 3856TIP3    H135763   0.833   2.984   9.227
 3856TIP3    H235764   0.860   3.058   9.355
 3857TIP3   OH235765   1.264   2.296   9.098
 3857TIP3    H135766   1.181   2.303   9.047
 3857TIP3    H235767   1.289   2.391   9.108
 3858TIP3   OH235768   1.330   2.528   9.194
 3858TIP3    H135769   1.400   2.497   9.254
 3858TIP3    H235770   1.359   2.617   9.167
 3859TIP3   OH235771   0.415   2.976   9.782
 3859TIP3    H135772   0.465   2.956   9.700
 3859TIP3    H235773   0.470   2.930   9.848
 3860TIP3   OH235774   1.089   3.174   9.143
 3860TIP3    H135775   1.056   3.263   9.168
 3860TIP3    H235776   1.021   3.116   9.184
 3861TIP3   OH235777   1.822   2.494   9.195
 3861TIP3    H135778   1.764   2.487   9.116
 3861TIP3    H235779   1.847   2.588   9.193
 3862TIP3   OH235780   1.646   3.376   9.231
 3862TIP3    H135781   1.627   3.310   9.298
 3862TIP3    H235782   1.692   3.327   9.160
 3863TIP3   OH235783   1.373   2.868   9.900
 3863TIP3    H135784   1.279   2.840   9.890
 3863TIP3    H235785   1.421   2.798   9.847
 3864TIP3   OH235786   0.631   3.314   9.563
 3864TIP3    H135787   0.657   3.399   9.520
 3864TIP3    H235788   0.541   3.307   9.531
 3865TIP3   OH235789   0.241   2.805   9.037
 3865TIP3    H135790   0.295   2.879   9.073
 3865TIP3    H235791   0.157   2.816   9.084
 3866TIP3   OH235792   0.756   3.074   9.502
 3866TIP3    H135793   0.710   3.156   9.529
 3866TIP3    H235794   0.709   3.005   9.553
 3867TIP3   OH235795   0.664   3.552   9.448
 3867TIP3    H135796   0.570   3.570   9.467
 3867TIP3    H235797   0.705   3.632   9.485
 3868TIP3   OH235798   1.426   3.206   9.019
 3868TIP3    H135799   1.439   3.165   9.107
 3868TIP3    H235800   1.335   3.176   9.005
 3869TIP3   OH235801   1.850   3.630   9.064
 3869TIP3    H135802   1.896   3.697   9.011
 3869TIP3    H235803   1.782   3.686   9.107
 3870TIP3   OH235804   1.508   3.058   9.251
 3870TIP3    H135805   1.486   2.972   9.290
 3870TIP3    H235806   1.605   3.049   9.239
 3871TIP3   OH235807   0.828   3.335   8.886
 3871TIP3    H135808   0.825   3.278   8.807
 3871TIP3    H235809   0.768   3.286   8.945
 3872TIP3   OH235810   0.685   3.242   9.120
 3872TIP3    H135811   0.762   3.205   9.165
 3872TIP3    H235812   0.695   3.337   9.148
 3873TIP3   OH235813   0.367   2.994   9.191
 3873TIP3    H135814   0.287   3.030   9.234
 3873TIP3    H235815   0.396   3.066   9.132
 3874TIP3   OH235816   1.218   2.168   9.325
 3874TIP3    H135817   1.231   2.226   9.247
 3874TIP3    H235818   1.256   2.222   9.397
 3875TIP3   OH235819   1.001   3.427   9.184
 3875TIP3    H135820   0.912   3.462   9.206
 3875TIP3    H235821   1.050   3.509   9.168
 3876TIP3   OH235822   0.952   2.381   9.382
 3876TIP3    H135823   1.009   2.458   9.400
 3876TIP3    H235824   0.918   2.356   9.471
 3877TIP3   OH235825   1.000   2.064   9.444
 3877TIP3    H135826   0.974   2.140   9.500
 3877TIP3    H235827   1.080   2.103   9.400
 3878TIP3   OH235828   0.732   3.491   9.185
 3878TIP3    H135829   0.749   3.575   9.135
 3878TIP3    H235830   0.693   3.532   9.266
 3879TIP3   OH235831   0.562   2.181   9.165
 3879TIP3    H135832   0.570   2.265   9.215
 3879TIP3    H235833   0.653   2.147   9.173
 3880TIP3   OH235834   1.481   2.671   9.757
 3880TIP3    H135835   1.400   2.617   9.768
 3880TIP3    H235836   1.543   2.618   9.814
 3881TIP3   OH235837   0.426   3.237   9.031
 3881TIP3    H135838   0.515   3.250   9.072
 3881TIP3    H235839   0.450   3.178   8.957
 3882TIP3   OH235840   0.239   2.517   8.988
 3882TIP3    H135841   0.263   2.608   9.013
 3882TIP3    H235842   0.168   2.529   8.924
 3883TIP3   OH235843   1.594   3.617   9.970
 3883TIP3    H135844   1.606   3.690   9.906
 3883TIP3    H235845   1.682   3.607  10.008
 3884TIP3   OH235846   0.320   2.008   9.808
 3884TIP3    H135847   0.318   1.985   9.712
 3884TIP3    H235848   0.309   1.919   9.846
 3885TIP3   OH235849   0.209   3.329   9.403
 3885TIP3    H135850   0.140   3.381   9.444
 3885TIP3    H235851   0.256   3.399   9.354
 3886TIP3   OH235852   1.041   3.529   8.882
 3886TIP3    H135853   0.986   3.450   8.899
 3886TIP3    H235854   1.120   3.488   8.840
 3887TIP3   OH235855   1.494   3.444   8.898
 3887TIP3    H135856   1.496   3.362   8.952
 3887TIP3    H235857   1.577   3.437   8.847
 3888TIP3   OH235858   0.573   3.040   8.882
 3888TIP3    H135859   0.614   3.017   8.968
 3888TIP3    H235860   0.651   3.028   8.822
 3889TIP3   OH235861   1.132   3.182   8.858
 3889TIP3    H135862   1.098   3.170   8.949
 3889TIP3    H235863   1.132   3.088   8.827
 3890TIP3   OH235864   0.702   2.868   9.136
 3890TIP3    H135865   0.646   2.805   9.184
 3890TIP3    H235866   0.742   2.807   9.071
 3891TIP3   OH235867   0.814   2.694   8.938
 3891TIP3    H135868   0.820   2.726   8.846
 3891TIP3    H235869   0.909   2.693   8.962
 3892TIP3   OH235870   1.740   2.898   8.885
 3892TIP3    H135871   1.718   2.868   8.794
 3892TIP3    H235872   1.723   2.996   8.878
 3893TIP3   OH235873   0.796   3.728   9.099
 3893TIP3    H135874   0.893   3.742   9.095
 3893TIP3    H235875   0.764   3.795   9.037
 3894TIP3   OH235876   0.163   3.241   9.043
 3894TIP3    H135877   0.261   3.250   9.046
 3894TIP3    H235878   0.153   3.190   8.961
 3895TIP3   OH235879   0.092   3.725   9.507
 3895TIP3    H135880  -0.004   3.741   9.512
 3895TIP3    H235881   0.105   3.665   9.582
 3896TIP3   OH235882   0.145   3.543   9.712
 3896TIP3    H135883   0.148   3.457   9.760
 3896TIP3    H235884   0.193   3.598   9.778
 3897TIP3   OH235885   1.777   3.005   9.260
 3897TIP3    H135886   1.864   3.047   9.278
 3897TIP3    H235887   1.774   2.941   9.335
 3898TIP3   OH235888   1.801   2.836   9.478
 3898TIP3    H135889   1.729   2.791   9.527
 3898TIP3    H235890   1.878   2.820   9.537
 3899TIP3   OH235891   1.883   3.118   9.957
 3899TIP3    H135892   1.920   3.043   9.907
 3899TIP3    H235893   1.826   3.163   9.893
 3900TIP3   OH235894   1.867   2.784   9.101
 3900TIP3    H135895   1.810   2.807   9.025
 3900TIP3    H235896   1.843   2.856   9.163
 3901TIP3   OH235897   1.662   2.504   8.952
 3901TIP3    H135898   1.685   2.564   8.879
 3901TIP3    H235899   1.643   2.421   8.904
 3902TIP3   OH235900   1.611   2.643   9.528
 3902TIP3    H135901   1.580   2.558   9.493
 3902TIP3    H235902   1.571   2.645   9.619
 3903TIP3   OH235903   0.195   2.957   9.953
 3903TIP3    H135904   0.195   2.923   9.862
 3903TIP3    H235905   0.264   2.899   9.989
 3904TIP3   OH235906   1.618   2.244   8.860
 3904TIP3    H135907   1.655   2.208   8.943
 3904TIP3    H235908   1.525   2.218   8.863
 3905TIP3   OH235909   1.538   2.441   9.363
 3905TIP3    H135910   1.556   2.347   9.385
 3905TIP3    H235911   1.623   2.462   9.323
 3906TIP3   OH235912   1.633   2.503   9.885
 3906TIP3    H135913   1.730   2.493   9.897
 3906TIP3    H235914   1.607   2.412   9.911
 3907TIP3   OH235915   1.623   2.178   9.380
 3907TIP3    H135916   1.663   2.131   9.456
 3907TIP3    H235917   1.564   2.108   9.347
 3908TIP3   OH235918   0.163   2.230   9.901
 3908TIP3    H135919   0.202   2.140   9.898
 3908TIP3    H235920   0.239   2.283   9.935
 3909TIP3   OH235921   0.104   2.533  10.000
 3909TIP3    H135922   0.134   2.519   9.909
 3909TIP3    H235923   0.074   2.625   9.994
 3910TIP3   OH235924   1.819   2.153   9.049
 3910TIP3    H135925   1.853   2.096   8.977
 3910TIP3    H235926   1.890   2.219   9.057
 3911TIP3   OH235927   0.111   2.143   9.333
 3911TIP3    H135928   0.022   2.139   9.373
 3911TIP3    H235929   0.098   2.210   9.263
 3912TIP3   OH235930   1.507   3.660   9.559
 3912TIP3    H135931   1.585   3.633   9.507
 3912TIP3    H235932   1.546   3.716   9.627
 3913TIP3   OH235933   0.283   3.656   9.922
 3913TIP3    H135934   0.313   3.681  10.012
 3913TIP3    H235935   0.360   3.600   9.895
 3914TIP3   OH235936   0.450   3.491   9.780
 3914TIP3    H135937   0.425   3.397   9.787
 3914TIP3    H235938   0.541   3.494   9.815
 3915TIP3   OH235939   0.714   3.551   9.894
 3915TIP3    H135940   0.748   3.465   9.860
 3915TIP3    H235941   0.743   3.547   9.986
 3916TIP3   OH235942   1.044   2.160   9.801
 3916TIP3    H135943   0.979   2.095   9.836
 3916TIP3    H235944   1.108   2.099   9.762
 3917TIP3   OH235945   1.601   1.955   9.787
 3917TIP3    H135946   1.653   1.995   9.713
 3917TIP3    H235947   1.510   1.986   9.768
 3918TIP3   OH235948   1.754   2.039   9.585
 3918TIP3    H135949   1.823   1.984   9.541
 3918TIP3    H235950   1.806   2.121   9.604
 3919TIP3   OH235951   0.327   1.948   9.552
 3919TIP3    H135952   0.243   1.926   9.503
 3919TIP3    H235953   0.375   1.862   9.542
 3920TIP3   OH235954   0.225   1.949   9.185
 3920TIP3    H135955   0.218   1.991   9.098
 3920TIP3    H235956   0.184   2.018   9.243
 3921TIP3   OH235957   0.728   1.908   9.559
 3921TIP3    H135958   0.809   1.955   9.536
 3921TIP3    H235959   0.730   1.904   9.655
 3922TIP3   OH235960   1.348   1.986   9.695
 3922TIP3    H135961   1.316   2.002   9.606
 3922TIP3    H235962   1.305   1.902   9.720
 3923TIP3   OH235963   1.457   1.971   9.314
 3923TIP3    H135964   1.384   2.008   9.262
 3923TIP3    H235965   1.420   1.884   9.343
 3924TIP3   OH235966   0.196   3.582   9.260
 3924TIP3    H135967   0.099   3.587   9.256
 3924TIP3    H235968   0.213   3.675   9.232
 3925TIP3   OH235969   0.310   2.127   8.990
 3925TIP3    H135970   0.384   2.082   8.946
 3925TIP3    H235971   0.347   2.142   9.079
 3926TIP3   OH235972   0.871   2.171   9.222
 3926TIP3    H135973   0.896   2.113   9.297
 3926TIP3    H235974   0.886   2.258   9.265
 3927TIP3   OH235975   1.073   3.687   9.091
 3927TIP3    H135976   1.165   3.692   9.059
 3927TIP3    H235977   1.039   3.635   9.013
 3928TIP3   OH235978   1.702   3.590   9.379
 3928TIP3    H135979   1.678   3.513   9.324
 3928TIP3    H235980   1.699   3.663   9.313
 3929TIP3   OH235981   0.305   3.640   8.951
 3929TIP3    H135982   0.290   3.648   9.046
 3929TIP3    H235983   0.374   3.572   8.950
 3930TIP3   OH235984   3.099   2.904   9.550
 3930TIP3    H135985   3.099   3.000   9.568
 3930TIP3    H235986   3.017   2.894   9.502
 3931TIP3   OH235987   2.993   2.801   9.884
 3931TIP3    H135988   2.984   2.755   9.970
 3931TIP3    H235989   2.918   2.768   9.834
 3932TIP3   OH235990   3.286   3.096   9.702
 3932TIP3    H135991   3.269   3.019   9.761
 3932TIP3    H235992   3.328   3.158   9.766
 3933TIP3   OH235993   2.313   3.236   9.890
 3933TIP3    H135994   2.295   3.144   9.861
 3933TIP3    H235995   2.409   3.241   9.880
 3934TIP3   OH235996   1.997   2.539   9.468
 3934TIP3    H135997   1.961   2.625   9.491
 3934TIP3    H235998   1.917   2.494   9.436
 3935TIP3   OH235999   2.063   2.801   9.668
 3935TIP3    H136000   2.098   2.723   9.716
 3935TIP3    H236001   2.113   2.874   9.710
 3936TIP3   OH236002   3.046   3.652   9.752
 3936TIP3    H136003   3.112   3.599   9.701
 3936TIP3    H236004   3.022   3.583   9.814
 3937TIP3   OH236005   2.873   3.082   9.998
 3937TIP3    H136006   2.914   3.017   9.938
 3937TIP3    H236007   2.925   3.067  10.078
 3938TIP3   OH236008   3.137   2.497   9.991
 3938TIP3    H136009   3.157   2.402  10.000
 3938TIP3    H236010   3.122   2.506   9.895
 3939TIP3   OH236011   2.476   2.285   9.718
 3939TIP3    H136012   2.502   2.365   9.669
 3939TIP3    H236013   2.428   2.233   9.650
 3940TIP3   OH236014   3.185   2.321   9.539
 3940TIP3    H136015   3.240   2.285   9.613
 3940TIP3    H236016   3.247   2.387   9.506
 3941TIP3   OH236017   2.108   2.523   9.773
 3941TIP3    H136018   2.158   2.455   9.822
 3941TIP3    H236019   2.105   2.486   9.683
 3942TIP3   OH236020   2.603   2.681   9.711
 3942TIP3    H136021   2.674   2.629   9.753
 3942TIP3    H236022   2.557   2.613   9.657
 3943TIP3   OH236023   3.022   3.144   9.434
 3943TIP3    H136024   2.996   3.135   9.340
 3943TIP3    H236025   3.008   3.240   9.450
 3944TIP3   OH236026   3.367   2.270   9.720
 3944TIP3    H136027   3.313   2.247   9.798
 3944TIP3    H236028   3.456   2.243   9.750
 3945TIP3   OH236029   2.311   2.385   9.909
 3945TIP3    H136030   2.330   2.479   9.896
 3945TIP3    H236031   2.356   2.344   9.832
 3946TIP3   OH236032   2.035   3.102   9.282
 3946TIP3    H136033   2.027   3.158   9.202
 3946TIP3    H236034   2.050   3.168   9.352
 3947TIP3   OH236035   3.397   3.256   9.890
 3947TIP3    H136036   3.363   3.200   9.962
 3947TIP3    H236037   3.444   3.323   9.941
 3948TIP3   OH236038   2.725   1.955   9.823
 3948TIP3    H136039   2.736   1.860   9.837
 3948TIP3    H236040   2.636   1.975   9.861
 3949TIP3   OH236041   3.214   3.486   9.635
 3949TIP3    H136042   3.234   3.406   9.584
 3949TIP3    H236043   3.295   3.540   9.618
 3950TIP3   OH236044   3.374   3.259   9.458
 3950TIP3    H136045   3.339   3.196   9.391
 3950TIP3    H236046   3.357   3.206   9.539
 3951TIP3   OH236047   2.943   2.811   9.292
 3951TIP3    H136048   2.902   2.900   9.284
 3951TIP3    H236049   3.031   2.825   9.251
 3952TIP3   OH236050   2.998   2.717   8.980
 3952TIP3    H136051   3.055   2.750   9.052
 3952TIP3    H236052   3.009   2.621   8.990
 3953TIP3   OH236053   3.344   2.830   9.401
 3953TIP3    H136054   3.268   2.855   9.459
 3953TIP3    H236055   3.402   2.782   9.465
 3954TIP3   OH236056   2.472   2.884   9.582
 3954TIP3    H136057   2.436   2.833   9.508
 3954TIP3    H236058   2.534   2.820   9.622
 3955TIP3   OH236059   2.601   3.254   9.858
 3955TIP3    H136060   2.589   3.227   9.765
 3955TIP3    H236061   2.667   3.191   9.889
 3956TIP3   OH236062   2.443   2.700   9.927
 3956TIP3    H136063   2.508   2.705   9.855
 3956TIP3    H236064   2.458   2.784   9.972
 3957TIP3   OH236065   3.187   2.797   9.175
 3957TIP3    H136066   3.249   2.816   9.249
 3957TIP3    H236067   3.238   2.833   9.098
 3958TIP3   OH236068   2.972   3.404   9.476
 3958TIP3    H136069   2.977   3.421   9.571
 3958TIP3    H236070   2.927   3.484   9.444
 3959TIP3   OH236071   3.582   1.912   9.193
 3959TIP3    H136072   3.487   1.926   9.213
 3959TIP3    H236073   3.616   2.001   9.169
 3960TIP3   OH236074   2.333   2.777   9.331
 3960TIP3    H136075   2.359   2.868   9.304
 3960TIP3    H236076   2.237   2.789   9.327
 3961TIP3   OH236077   3.717   3.363   8.975
 3961TIP3    H136078   3.715   3.450   9.020
 3961TIP3    H236079   3.795   3.327   9.023
 3962TIP3   OH236080   1.955   3.363   9.851
 3962TIP3    H136081   2.035   3.315   9.875
 3962TIP3    H236082   1.921   3.392   9.937
 3963TIP3   OH236083   2.930   3.689   9.360
 3963TIP3    H136084   2.935   3.703   9.263
 3963TIP3    H236085   2.912   3.782   9.391
 3964TIP3   OH236086   2.283   3.588   9.525
 3964TIP3    H136087   2.301   3.571   9.620
 3964TIP3    H236088   2.196   3.544   9.513
 3965TIP3   OH236089   3.240   3.636   9.045
 3965TIP3    H136090   3.281   3.555   9.007
 3965TIP3    H236091   3.238   3.616   9.140
 3966TIP3   OH236092   3.192   3.625   9.315
 3966TIP3    H136093   3.098   3.644   9.334
 3966TIP3    H236094   3.209   3.554   9.378
 3967TIP3   OH236095   2.462   2.047   9.905
 3967TIP3    H136096   2.386   2.052   9.843
 3967TIP3    H236097   2.457   2.134   9.945
 3968TIP3   OH236098   3.333   2.899   8.982
 3968TIP3    H136099   3.314   2.903   8.886
 3968TIP3    H236100   3.430   2.906   8.980
 3969TIP3   OH236101   2.911   2.248   9.001
 3969TIP3    H136102   2.860   2.242   9.083
 3969TIP3    H236103   2.854   2.192   8.946
 3970TIP3   OH236104   2.487   2.497   9.559
 3970TIP3    H136105   2.397   2.454   9.558
 3970TIP3    H236106   2.522   2.480   9.468
 3971TIP3   OH236107   3.042   2.603   9.410
 3971TIP3    H136108   3.000   2.676   9.358
 3971TIP3    H236109   3.101   2.568   9.340
 3972TIP3   OH236110   3.091   2.551   9.710
 3972TIP3    H136111   3.081   2.625   9.647
 3972TIP3    H236112   3.117   2.480   9.649
 3973TIP3   OH236113   2.551   2.291   8.926
 3973TIP3    H136114   2.500   2.228   8.982
 3973TIP3    H236115   2.482   2.330   8.870
 3974TIP3   OH236116   1.895   2.260   9.635
 3974TIP3    H136117   1.964   2.262   9.703
 3974TIP3    H236118   1.942   2.239   9.554
 3975TIP3   OH236119   2.021   2.323   9.151
 3975TIP3    H136120   2.077   2.364   9.083
 3975TIP3    H236121   1.951   2.392   9.160
 3976TIP3   OH236122   2.765   2.293   9.620
 3976TIP3    H136123   2.687   2.281   9.677
 3976TIP3    H236124   2.832   2.247   9.675
 3977TIP3   OH236125   2.233   2.416   9.515
 3977TIP3    H136126   2.145   2.448   9.485
 3977TIP3    H236127   2.227   2.318   9.504
 3978TIP3   OH236128   2.585   2.459   9.320
 3978TIP3    H136129   2.675   2.435   9.357
 3978TIP3    H236130   2.613   2.483   9.231
 3979TIP3   OH236131   3.185   2.234   9.918
 3979TIP3    H136132   3.177   2.206  10.011
 3979TIP3    H236133   3.092   2.231   9.890
 3980TIP3   OH236134   2.440   2.571   9.068
 3980TIP3    H136135   2.408   2.516   8.994
 3980TIP3    H236136   2.516   2.608   9.021
 3981TIP3   OH236137   2.846   2.540   9.848
 3981TIP3    H136138   2.908   2.549   9.774
 3981TIP3    H236139   2.898   2.487   9.910
 3982TIP3   OH236140   2.310   2.162   9.489
 3982TIP3    H136141   2.250   2.093   9.527
 3982TIP3    H236142   2.359   2.104   9.429
 3983TIP3   OH236143   2.792   3.028   9.259
 3983TIP3    H136144   2.714   2.990   9.212
 3983TIP3    H236145   2.748   3.059   9.342
 3984TIP3   OH236146   3.152   2.289   9.099
 3984TIP3    H136147   3.065   2.297   9.053
 3984TIP3    H236148   3.183   2.382   9.103
 3985TIP3   OH236149   3.221   2.526   9.195
 3985TIP3    H136150   3.288   2.494   9.258
 3985TIP3    H236151   3.253   2.616   9.178
 3986TIP3   OH236152   2.262   2.974   9.813
 3986TIP3    H136153   2.303   2.969   9.725
 3986TIP3    H236154   2.335   2.952   9.874
 3987TIP3   OH236155   2.975   3.179   9.147
 3987TIP3    H136156   2.927   3.264   9.161
 3987TIP3    H236157   2.908   3.112   9.172
 3988TIP3   OH236158   3.704   2.497   9.196
 3988TIP3    H136159   3.652   2.495   9.113
 3988TIP3    H236160   3.738   2.589   9.197
 3989TIP3   OH236161   3.545   3.351   9.224
 3989TIP3    H136162   3.488   3.342   9.303
 3989TIP3    H236163   3.568   3.259   9.211
 3990TIP3   OH236164   3.256   2.882   9.892
 3990TIP3    H136165   3.164   2.849   9.884
 3990TIP3    H236166   3.307   2.818   9.838
 3991TIP3   OH236167   2.500   3.323   9.591
 3991TIP3    H136168   2.550   3.407   9.585
 3991TIP3    H236169   2.436   3.338   9.520
 3992TIP3   OH236170   2.153   2.811   9.034
 3992TIP3    H136171   2.192   2.886   9.084
 3992TIP3    H236172   2.056   2.823   9.045
 3993TIP3   OH236173   2.656   3.104   9.480
 3993TIP3    H136174   2.600   3.174   9.517
 3993TIP3    H236175   2.637   3.030   9.539
 3994TIP3   OH236176   2.542   3.553   9.440
 3994TIP3    H136177   2.448   3.568   9.464
 3994TIP3    H236178   2.579   3.638   9.472
 3995TIP3   OH236179   3.315   3.203   9.036
 3995TIP3    H136180   3.314   3.155   9.122
 3995TIP3    H236181   3.221   3.189   9.012
 3996TIP3   OH236182   3.741   3.625   9.072
 3996TIP3    H136183   3.794   3.688   9.021
 3996TIP3    H236184   3.670   3.685   9.104
 3997TIP3   OH236185   3.393   3.063   9.258
 3997TIP3    H136186   3.371   2.979   9.303
 3997TIP3    H236187   3.490   3.057   9.254
 3998TIP3   OH236188   2.710   3.333   8.889
 3998TIP3    H136189   2.710   3.278   8.809
 3998TIP3    H236190   2.655   3.280   8.950
 3999TIP3   OH236191   2.584   3.257   9.125
 3999TIP3    H136192   2.659   3.229   9.180
 3999TIP3    H236193   2.590   3.354   9.145
 4000TIP3   OH236194   2.266   3.007   9.169
 4000TIP3    H136195   2.180   3.030   9.211
 4000TIP3    H236196   2.299   3.094   9.138
 4001TIP3   OH236197   3.145   2.146   9.326
 4001TIP3    H136198   3.128   2.207   9.251
 4001TIP3    H236199   3.164   2.206   9.400
 4002TIP3   OH236200   2.870   3.427   9.178
 4002TIP3    H136201   2.783   3.470   9.192
 4002TIP3    H236202   2.927   3.505   9.173
 4003TIP3   OH236203   2.834   2.390   9.383
 4003TIP3    H136204   2.896   2.466   9.393
 4003TIP3    H236205   2.817   2.360   9.475
 4004TIP3   OH236206   2.903   2.073   9.430
 4004TIP3    H136207   2.870   2.134   9.497
 4004TIP3    H236208   2.986   2.118   9.399
 4005TIP3   OH236209   2.608   3.509   9.174
 4005TIP3    H136210   2.625   3.593   9.124
 4005TIP3    H236211   2.570   3.548   9.255
 4006TIP3   OH236212   2.439   2.165   9.148
 4006TIP3    H136213   2.470   2.236   9.206
 4006TIP3    H236214   2.521   2.111   9.141
 4007TIP3   OH236215   3.358   2.671   9.760
 4007TIP3    H136216   3.284   2.612   9.780
 4007TIP3    H236217   3.427   2.632   9.819
 4008TIP3   OH236218   2.322   3.263   9.046
 4008TIP3    H136219   2.304   3.340   9.101
 4008TIP3    H236220   2.418   3.250   9.071
 4009TIP3   OH236221   2.132   2.519   8.981
 4009TIP3    H136222   2.169   2.608   8.995
 4009TIP3    H236223   2.055   2.536   8.925
 4010TIP3   OH236224   3.477   3.607   9.958
 4010TIP3    H136225   3.492   3.694   9.915
 4010TIP3    H236226   3.561   3.594  10.005
 4011TIP3   OH236227   2.222   2.022   9.788
 4011TIP3    H136228   2.206   1.983   9.699
 4011TIP3    H236229   2.221   1.942   9.844
 4012TIP3   OH236230   2.095   3.375   9.454
 4012TIP3    H136231   2.016   3.426   9.481
 4012TIP3    H236232   2.111   3.417   9.368
 4013TIP3   OH236233   2.918   3.526   8.880
 4013TIP3    H136234   2.867   3.444   8.902
 4013TIP3    H236235   2.995   3.489   8.831
 4014TIP3   OH236236   3.364   3.443   8.892
 4014TIP3    H136237   3.378   3.373   8.960
 4014TIP3    H236238   3.450   3.452   8.850
 4015TIP3   OH236239   2.460   3.061   8.872
 4015TIP3    H136240   2.485   3.032   8.961
 4015TIP3    H236241   2.543   3.038   8.823
 4016TIP3   OH236242   3.007   3.190   8.856
 4016TIP3    H136243   2.984   3.180   8.950
 4016TIP3    H236244   3.011   3.094   8.831
 4017TIP3   OH236245   2.580   2.878   9.140
 4017TIP3    H136246   2.520   2.814   9.183
 4017TIP3    H236247   2.626   2.818   9.077
 4018TIP3   OH236248   2.681   2.702   8.946
 4018TIP3    H136249   2.662   2.726   8.853
 4018TIP3    H236250   2.779   2.696   8.946
 4019TIP3   OH236251   3.609   2.907   8.881
 4019TIP3    H136252   3.595   2.876   8.789
 4019TIP3    H236253   3.592   3.004   8.875
 4020TIP3   OH236254   2.678   3.745   9.099
 4020TIP3    H136255   2.775   3.742   9.094
 4020TIP3    H236256   2.657   3.815   9.034
 4021TIP3   OH236257   2.012   3.195   9.034
 4021TIP3    H136258   2.098   3.179   8.993
 4021TIP3    H236259   1.953   3.149   8.969
 4022TIP3   OH236260   1.922   3.711   9.474
 4022TIP3    H136261   1.837   3.668   9.453
 4022TIP3    H236262   1.943   3.665   9.559
 4023TIP3   OH236263   2.002   3.556   9.677
 4023TIP3    H136264   1.970   3.474   9.722
 4023TIP3    H236265   2.047   3.602   9.751
 4024TIP3   OH236266   3.666   3.005   9.255
 4024TIP3    H136267   3.754   3.046   9.271
 4024TIP3    H236268   3.662   2.943   9.332
 4025TIP3   OH236269   3.690   2.832   9.470
 4025TIP3    H136270   3.622   2.780   9.517
 4025TIP3    H236271   3.761   2.839   9.536
 4026TIP3   OH236272   3.733   3.108   9.946
 4026TIP3    H136273   3.805   3.052   9.909
 4026TIP3    H236274   3.713   3.176   9.880
 4027TIP3   OH236275   3.753   2.798   9.094
 4027TIP3    H136276   3.681   2.811   9.029
 4027TIP3    H236277   3.726   2.864   9.162
 4028TIP3   OH236278   3.564   2.518   8.938
 4028TIP3    H136279   3.587   2.578   8.865
 4028TIP3    H236280   3.540   2.435   8.891
 4029TIP3   OH236281   3.501   2.653   9.538
 4029TIP3    H136282   3.471   2.568   9.498
 4029TIP3    H236283   3.455   2.651   9.625
 4030TIP3   OH236284   1.969   2.864   9.908
 4030TIP3    H136285   2.001   2.836   9.820
 4030TIP3    H236286   2.046   2.844   9.964
 4031TIP3   OH236287   3.508   2.251   8.861
 4031TIP3    H136288   3.546   2.214   8.943
 4031TIP3    H236289   3.417   2.217   8.858
 4032TIP3   OH236290   3.422   2.446   9.374
 4032TIP3    H136291   3.436   2.350   9.391
 4032TIP3    H236292   3.506   2.465   9.330
 4033TIP3   OH236293   3.518   2.505   9.895
 4033TIP3    H136294   3.616   2.495   9.887
 4033TIP3    H236295   3.495   2.413   9.919
 4034TIP3   OH236296   3.503   2.176   9.385
 4034TIP3    H136297   3.543   2.133   9.463
 4034TIP3    H236298   3.457   2.100   9.346
 4035TIP3   OH236299   2.066   2.237   9.871
 4035TIP3    H136300   2.110   2.153   9.844
 4035TIP3    H236301   2.132   2.270   9.935
 4036TIP3   OH236302   1.897   2.503   9.968
 4036TIP3    H136303   1.945   2.461   9.895
 4036TIP3    H236304   1.931   2.594   9.966
 4037TIP3   OH236305   3.704   2.139   9.054
 4037TIP3    H136306   3.736   2.088   8.977
 4037TIP3    H236307   3.786   2.182   9.085
 4038TIP3   OH236308   1.912   2.144   9.328
 4038TIP3    H136309   1.820   2.176   9.331
 4038TIP3    H236310   1.947   2.197   9.255
 4039TIP3   OH236311   3.402   3.663   9.566
 4039TIP3    H136312   3.480   3.637   9.514
 4039TIP3    H236313   3.438   3.718   9.638
 4040TIP3   OH236314   2.146   3.652   9.888
 4040TIP3    H136315   2.170   3.661   9.983
 4040TIP3    H236316   2.225   3.603   9.855
 4041TIP3   OH236317   2.340   3.516   9.773
 4041TIP3    H136318   2.330   3.420   9.782
 4041TIP3    H236319   2.425   3.531   9.820
 4042TIP3   OH236320   2.578   3.544   9.887
 4042TIP3    H136321   2.614   3.455   9.867
 4042TIP3    H236322   2.584   3.547   9.983
 4043TIP3   OH236323   2.942   2.150   9.786
 4043TIP3    H136324   2.880   2.080   9.816
 4043TIP3    H236325   3.024   2.097   9.788
 4044TIP3   OH236326   3.484   1.949   9.785
 4044TIP3    H136327   3.535   1.996   9.714
 4044TIP3    H236328   3.392   1.979   9.767
 4045TIP3   OH236329   3.644   2.040   9.584
 4045TIP3    H136330   3.713   1.988   9.537
 4045TIP3    H236331   3.695   2.123   9.604
 4046TIP3   OH236332   2.175   1.938   9.538
 4046TIP3    H136333   2.092   1.915   9.490
 4046TIP3    H236334   2.221   1.851   9.535
 4047TIP3   OH236335   2.066   1.947   9.150
 4047TIP3    H136336   2.092   2.013   9.084
 4047TIP3    H236337   2.009   2.001   9.209
 4048TIP3   OH236338   2.617   1.911   9.561
 4048TIP3    H136339   2.696   1.944   9.518
 4048TIP3    H236340   2.642   1.911   9.655
 4049TIP3   OH236341   3.229   1.981   9.701
 4049TIP3    H136342   3.196   2.003   9.613
 4049TIP3    H236343   3.189   1.893   9.718
 4050TIP3   OH236344   3.350   1.956   9.313
 4050TIP3    H136345   3.269   2.011   9.308
 4050TIP3    H236346   3.312   1.872   9.344
 4051TIP3   OH236347   2.064   3.540   9.242
 4051TIP3    H136348   1.967   3.550   9.234
 4051TIP3    H236349   2.088   3.627   9.205
 4052TIP3   OH236350   2.193   2.152   8.978
 4052TIP3    H136351   2.245   2.091   8.922
 4052TIP3    H236352   2.244   2.145   9.060
 4053TIP3   OH236353   2.741   2.194   9.208
 4053TIP3    H136354   2.776   2.119   9.258
 4053TIP3    H236355   2.773   2.268   9.262
 4054TIP3   OH236356   2.963   3.683   9.090
 4054TIP3    H136357   3.056   3.693   9.060
 4054TIP3    H236358   2.931   3.630   9.013
 4055TIP3   OH236359   3.579   3.581   9.371
 4055TIP3    H136360   3.572   3.509   9.304
 4055TIP3    H236361   3.578   3.660   9.313
 4056TIP3   OH236362   2.172   3.596   8.933
 4056TIP3    H136363   2.159   3.652   9.011
 4056TIP3    H236364   2.261   3.559   8.949
 4057TIP3   OH236365   5.004   2.908   9.532
 4057TIP3    H136366   4.978   3.002   9.512
 4057TIP3    H236367   4.918   2.873   9.562
 4058TIP3   OH236368   4.853   2.854   9.988
 4058TIP3    H136369   4.848   2.765  10.027
 4058TIP3    H236370   4.804   2.842   9.904
 4059TIP3   OH236371   5.183   3.093   9.716
 4059TIP3    H136372   5.144   3.022   9.769
 4059TIP3    H236373   5.221   3.152   9.785
 4060TIP3   OH236374   4.196   3.237   9.902
 4060TIP3    H136375   4.176   3.145   9.879
 4060TIP3    H236376   4.292   3.241   9.886
 4061TIP3   OH236377   3.872   2.542   9.462
 4061TIP3    H136378   3.847   2.630   9.494
 4061TIP3    H236379   3.785   2.507   9.436
 4062TIP3   OH236380   3.936   2.797   9.668
 4062TIP3    H136381   3.985   2.726   9.715
 4062TIP3    H236382   3.997   2.873   9.675
 4063TIP3   OH236383   4.922   3.648   9.794
 4063TIP3    H136384   4.980   3.600   9.732
 4063TIP3    H236385   4.898   3.569   9.846
 4064TIP3   OH236386   4.736   3.114   9.976
 4064TIP3    H136387   4.734   3.069   9.890
 4064TIP3    H236388   4.798   3.054  10.022
 4065TIP3   OH236389   5.057   2.504   9.974
 4065TIP3    H136390   5.051   2.407   9.977
 4065TIP3    H236391   5.034   2.521   9.880
 4066TIP3   OH236392   4.357   2.286   9.706
 4066TIP3    H136393   4.378   2.365   9.651
 4066TIP3    H236394   4.311   2.230   9.640
 4067TIP3   OH236395   5.069   2.332   9.539
 4067TIP3    H136396   5.112   2.280   9.612
 4067TIP3    H236397   5.142   2.392   9.520
 4068TIP3   OH236398   3.993   2.523   9.763
 4068TIP3    H136399   4.051   2.457   9.803
 4068TIP3    H236400   4.000   2.496   9.669
 4069TIP3   OH236401   4.418   2.707   9.714
 4069TIP3    H136402   4.513   2.730   9.723
 4069TIP3    H236403   4.422   2.626   9.658
 4070TIP3   OH236404   4.910   3.145   9.455
 4070TIP3    H136405   4.907   3.136   9.357
 4070TIP3    H236406   4.899   3.242   9.465
 4071TIP3   OH236407   5.241   2.266   9.723
 4071TIP3    H136408   5.181   2.255   9.801
 4071TIP3    H236409   5.327   2.247   9.762
 4072TIP3   OH236410   4.189   2.389   9.894
 4072TIP3    H136411   4.214   2.482   9.886
 4072TIP3    H236412   4.237   2.348   9.819
 4073TIP3   OH236413   3.922   3.103   9.264
 4073TIP3    H136414   3.918   3.158   9.183
 4073TIP3    H236415   3.925   3.171   9.334
 4074TIP3   OH236416   5.301   3.247   9.895
 4074TIP3    H136417   5.259   3.198   9.970
 4074TIP3    H236418   5.340   3.321   9.942
 4075TIP3   OH236419   4.600   1.941   9.832
 4075TIP3    H136420   4.606   1.844   9.836
 4075TIP3    H236421   4.508   1.959   9.863
 4076TIP3   OH236422   5.072   3.507   9.628
 4076TIP3    H136423   5.112   3.418   9.617
 4076TIP3    H236424   5.150   3.561   9.600
 4077TIP3   OH236425   5.235   3.288   9.519
 4077TIP3    H136426   5.217   3.228   9.444
 4077TIP3    H236427   5.223   3.225   9.593
 4078TIP3   OH236428   4.823   2.793   9.268
 4078TIP3    H136429   4.790   2.883   9.289
 4078TIP3    H236430   4.907   2.814   9.221
 4079TIP3   OH236431   4.907   2.646   8.971
 4079TIP3    H136432   4.946   2.695   9.045
 4079TIP3    H236433   4.938   2.556   8.988
 4080TIP3   OH236434   5.216   2.792   9.400
 4080TIP3    H136435   5.144   2.831   9.457
 4080TIP3    H236436   5.288   2.781   9.464
 4081TIP3   OH236437   4.328   2.911   9.589
 4081TIP3    H136438   4.316   2.862   9.506
 4081TIP3    H236439   4.366   2.840   9.646
 4082TIP3   OH236440   4.476   3.252   9.858
 4082TIP3    H136441   4.467   3.217   9.767
 4082TIP3    H236442   4.555   3.204   9.889
 4083TIP3   OH236443   4.302   2.744   9.954
 4083TIP3    H136444   4.337   2.739   9.862
 4083TIP3    H236445   4.380   2.774  10.002
 4084TIP3   OH236446   5.081   2.775   9.164
 4084TIP3    H136447   5.142   2.781   9.242
 4084TIP3    H236448   5.134   2.821   9.094
 4085TIP3   OH236449   4.858   3.410   9.469
 4085TIP3    H136450   4.910   3.447   9.543
 4085TIP3    H236451   4.800   3.484   9.445
 4086TIP3   OH236452   5.467   1.903   9.201
 4086TIP3    H136453   5.375   1.917   9.233
 4086TIP3    H236454   5.497   1.994   9.180
 4087TIP3   OH236455   4.229   2.772   9.353
 4087TIP3    H136456   4.207   2.857   9.308
 4087TIP3    H236457   4.169   2.711   9.310
 4088TIP3   OH236458   5.563   3.340   9.021
 4088TIP3    H136459   5.593   3.433   9.033
 4088TIP3    H236460   5.650   3.295   9.026
 4089TIP3   OH236461   3.856   3.360   9.863
 4089TIP3    H136462   3.929   3.312   9.906
 4089TIP3    H236463   3.807   3.396   9.939
 4090TIP3   OH236464   4.810   3.687   9.361
 4090TIP3    H136465   4.814   3.692   9.263
 4090TIP3    H236466   4.793   3.782   9.383
 4091TIP3   OH236467   4.156   3.577   9.526
 4091TIP3    H136468   4.175   3.559   9.620
 4091TIP3    H236469   4.068   3.534   9.517
 4092TIP3   OH236470   5.103   3.622   9.041
 4092TIP3    H136471   5.164   3.550   9.012
 4092TIP3    H236472   5.104   3.612   9.139
 4093TIP3   OH236473   5.069   3.622   9.310
 4093TIP3    H136474   4.975   3.643   9.330
 4093TIP3    H236475   5.086   3.554   9.377
 4094TIP3   OH236476   4.341   2.038   9.913
 4094TIP3    H136477   4.259   2.050   9.859
 4094TIP3    H236478   4.362   2.130   9.938
 4095TIP3   OH236479   5.241   2.900   8.994
 4095TIP3    H136480   5.226   2.908   8.897
 4095TIP3    H236481   5.338   2.905   8.996
 4096TIP3   OH236482   4.793   2.254   8.993
 4096TIP3    H136483   4.756   2.252   9.082
 4096TIP3    H236484   4.751   2.171   8.960
 4097TIP3   OH236485   4.356   2.499   9.556
 4097TIP3    H136486   4.262   2.480   9.539
 4097TIP3    H236487   4.395   2.498   9.466
 4098TIP3   OH236488   4.926   2.596   9.407
 4098TIP3    H136489   4.885   2.671   9.357
 4098TIP3    H236490   4.984   2.560   9.339
 4099TIP3   OH236491   5.003   2.557   9.705
 4099TIP3    H136492   4.965   2.625   9.646
 4099TIP3    H236493   5.014   2.484   9.642
 4100TIP3   OH236494   4.424   2.253   8.888
 4100TIP3    H136495   4.386   2.232   8.977
 4100TIP3    H236496   4.367   2.325   8.856
 4101TIP3   OH236497   3.782   2.264   9.637
 4101TIP3    H136498   3.846   2.267   9.711
 4101TIP3    H236499   3.836   2.294   9.563
 4102TIP3   OH236500   3.900   2.317   9.144
 4102TIP3    H136501   3.953   2.357   9.074
 4102TIP3    H236502   3.832   2.387   9.155
 4103TIP3   OH236503   4.665   2.249   9.591
 4103TIP3    H136504   4.586   2.262   9.646
 4103TIP3    H236505   4.734   2.228   9.657
 4104TIP3   OH236506   4.077   2.398   9.549
 4104TIP3    H136507   4.014   2.437   9.484
 4104TIP3    H236508   4.106   2.315   9.504
 4105TIP3   OH236509   4.463   2.454   9.316
 4105TIP3    H136510   4.560   2.467   9.323
 4105TIP3    H236511   4.435   2.520   9.251
 4106TIP3   OH236512   5.069   2.244   9.924
 4106TIP3    H136513   5.063   2.217  10.018
 4106TIP3    H236514   4.981   2.220   9.892
 4107TIP3   OH236515   4.287   2.577   9.024
 4107TIP3    H136516   4.283   2.539   8.934
 4107TIP3    H236517   4.385   2.573   9.033
 4108TIP3   OH236518   4.709   2.508   9.864
 4108TIP3    H136519   4.740   2.581   9.806
 4108TIP3    H236520   4.791   2.467   9.895
 4109TIP3   OH236521   4.187   2.180   9.471
 4109TIP3    H136522   4.136   2.107   9.514
 4109TIP3    H236523   4.241   2.131   9.409
 4110TIP3   OH236524   4.669   3.014   9.261
 4110TIP3    H136525   4.595   2.969   9.216
 4110TIP3    H236526   4.622   3.053   9.340
 4111TIP3   OH236527   5.042   2.280   9.087
 4111TIP3    H136528   4.960   2.293   9.036
 4111TIP3    H236529   5.065   2.374   9.107
 4112TIP3   OH236530   5.104   2.509   9.192
 4112TIP3    H136531   5.169   2.484   9.260
 4112TIP3    H236532   5.136   2.599   9.172
 4113TIP3   OH236533   4.161   2.974   9.800
 4113TIP3    H136534   4.216   2.973   9.718
 4113TIP3    H236535   4.228   2.949   9.867
 4114TIP3   OH236536   4.869   3.166   9.190
 4114TIP3    H136537   4.820   3.252   9.204
 4114TIP3    H236538   4.796   3.101   9.198
 4115TIP3   OH236539   5.577   2.495   9.203
 4115TIP3    H136540   5.535   2.487   9.114
 4115TIP3    H236541   5.610   2.587   9.199
 4116TIP3   OH236542   5.409   3.391   9.237
 4116TIP3    H136543   5.393   3.320   9.300
 4116TIP3    H236544   5.451   3.345   9.161
 4117TIP3   OH236545   5.147   2.861   9.898
 4117TIP3    H136546   5.051   2.844   9.906
 4117TIP3    H236547   5.171   2.807   9.820
 4118TIP3   OH236548   4.380   3.305   9.596
 4118TIP3    H136549   4.434   3.386   9.595
 4118TIP3    H236550   4.316   3.326   9.527
 4119TIP3   OH236551   4.039   2.838   9.025
 4119TIP3    H136552   4.080   2.863   9.110
 4119TIP3    H236553   3.946   2.824   9.049
 4120TIP3   OH236554   4.541   3.106   9.472
 4120TIP3    H136555   4.480   3.160   9.525
 4120TIP3    H236556   4.572   3.040   9.535
 4121TIP3   OH236557   4.422   3.558   9.448
 4121TIP3    H136558   4.325   3.561   9.464
 4121TIP3    H236559   4.450   3.643   9.488
 4122TIP3   OH236560   5.196   3.199   9.036
 4122TIP3    H136561   5.212   3.166   9.127
 4122TIP3    H236562   5.102   3.176   9.026
 4123TIP3   OH236563   5.618   3.613   9.064
 4123TIP3    H136564   5.656   3.676   9.003
 4123TIP3    H236565   5.543   3.663   9.104
 4124TIP3   OH236566   5.271   3.059   9.267
 4124TIP3    H136567   5.244   2.969   9.290
 4124TIP3    H236568   5.368   3.047   9.250
 4125TIP3   OH236569   4.586   3.355   8.885
 4125TIP3    H136570   4.594   3.283   8.819
 4125TIP3    H236571   4.529   3.311   8.950
 4126TIP3   OH236572   4.458   3.248   9.126
 4126TIP3    H136573   4.534   3.204   9.168
 4126TIP3    H236574   4.470   3.340   9.158
 4127TIP3   OH236575   4.170   2.995   9.200
 4127TIP3    H136576   4.086   3.025   9.239
 4127TIP3    H236577   4.196   3.075   9.149
 4128TIP3   OH236578   4.992   2.177   9.334
 4128TIP3    H136579   5.018   2.212   9.247
 4128TIP3    H236580   5.026   2.245   9.395
 4129TIP3   OH236581   4.748   3.405   9.199
 4129TIP3    H136582   4.672   3.456   9.234
 4129TIP3    H236583   4.810   3.473   9.171
 4130TIP3   OH236584   4.738   2.395   9.374
 4130TIP3    H136585   4.794   2.472   9.397
 4130TIP3    H236586   4.728   2.349   9.460
 4131TIP3   OH236587   4.776   2.061   9.445
 4131TIP3    H136588   4.736   2.125   9.508
 4131TIP3    H236589   4.853   2.114   9.411
 4132TIP3   OH236590   4.489   3.502   9.186
 4132TIP3    H136591   4.500   3.578   9.124
 4132TIP3    H236592   4.448   3.548   9.262
 4133TIP3   OH236593   4.351   2.193   9.144
 4133TIP3    H136594   4.354   2.265   9.209
 4133TIP3    H236595   4.435   2.147   9.162
 4134TIP3   OH236596   5.269   2.672   9.743
 4134TIP3    H136597   5.186   2.626   9.765
 4134TIP3    H236598   5.331   2.627   9.807
 4135TIP3   OH236599   4.185   3.222   9.035
 4135TIP3    H136600   4.257   3.270   9.081
 4135TIP3    H236601   4.241   3.161   8.980
 4136TIP3   OH236602   3.992   2.525   8.965
 4136TIP3    H136603   4.061   2.584   9.001
 4136TIP3    H236604   3.927   2.587   8.928
 4137TIP3   OH236605   5.375   3.604   9.960
 4137TIP3    H136606   5.384   3.679   9.898
 4137TIP3    H236607   5.457   3.605  10.009
 4138TIP3   OH236608   4.105   2.017   9.801
 4138TIP3    H136609   4.089   1.981   9.710
 4138TIP3    H236610   4.095   1.933   9.852
 4139TIP3   OH236611   3.967   3.365   9.454
 4139TIP3    H136612   3.891   3.421   9.473
 4139TIP3    H236613   4.002   3.411   9.376
 4140TIP3   OH236614   4.801   3.532   8.884
 4140TIP3    H136615   4.740   3.456   8.898
 4140TIP3    H236616   4.880   3.488   8.848
 4141TIP3   OH236617   5.245   3.443   8.892
 4141TIP3    H136618   5.253   3.358   8.941
 4141TIP3    H236619   5.327   3.444   8.839
 4142TIP3   OH236620   4.362   3.059   8.898
 4142TIP3    H136621   4.404   3.012   8.972
 4142TIP3    H236622   4.441   3.079   8.843
 4143TIP3   OH236623   4.886   3.212   8.860
 4143TIP3    H136624   4.853   3.187   8.948
 4143TIP3    H236625   4.896   3.122   8.824
 4144TIP3   OH236626   4.476   2.876   9.132
 4144TIP3    H136627   4.398   2.824   9.156
 4144TIP3    H236628   4.532   2.812   9.084
 4145TIP3   OH236629   4.544   2.579   8.982
 4145TIP3    H136630   4.530   2.643   8.908
 4145TIP3    H236631   4.641   2.577   8.983
 4146TIP3   OH236632   5.502   2.905   8.886
 4146TIP3    H136633   5.494   2.871   8.795
 4146TIP3    H236634   5.498   3.003   8.869
 4147TIP3   OH236635   4.548   3.736   9.073
 4147TIP3    H136636   4.642   3.735   9.095
 4147TIP3    H236637   4.549   3.805   9.003
 4148TIP3   OH236638   3.920   3.200   9.008
 4148TIP3    H136639   4.018   3.213   9.019
 4148TIP3    H236640   3.922   3.120   8.953
 4149TIP3   OH236641   3.794   3.704   9.469
 4149TIP3    H136642   3.709   3.657   9.454
 4149TIP3    H236643   3.821   3.664   9.555
 4150TIP3   OH236644   3.875   3.552   9.679
 4150TIP3    H136645   3.853   3.468   9.726
 4150TIP3    H236646   3.927   3.598   9.748
 4151TIP3   OH236647   5.546   3.010   9.254
 4151TIP3    H136648   5.629   3.059   9.270
 4151TIP3    H236649   5.547   2.946   9.329
 4152TIP3   OH236650   5.589   2.844   9.476
 4152TIP3    H136651   5.520   2.780   9.502
 4152TIP3    H236652   5.656   2.833   9.546
 4153TIP3   OH236653   5.613   3.111   9.960
 4153TIP3    H136654   5.676   3.044   9.925
 4153TIP3    H236655   5.595   3.171   9.886
 4154TIP3   OH236656   5.618   2.771   9.112
 4154TIP3    H136657   5.557   2.780   9.036
 4154TIP3    H236658   5.602   2.859   9.154
 4155TIP3   OH236659   5.471   2.510   8.935
 4155TIP3    H136660   5.491   2.571   8.863
 4155TIP3    H236661   5.437   2.431   8.891
 4156TIP3   OH236662   5.430   2.627   9.522
 4156TIP3    H136663   5.383   2.554   9.476
 4156TIP3    H236664   5.375   2.638   9.602
 4157TIP3   OH236665   3.889   2.893   9.913
 4157TIP3    H136666   3.908   2.852   9.826
 4157TIP3    H236667   3.962   2.861   9.968
 4158TIP3   OH236668   5.395   2.252   8.856
 4158TIP3    H136669   5.425   2.212   8.939
 4158TIP3    H236670   5.305   2.213   8.844
 4159TIP3   OH236671   5.334   2.435   9.359
 4159TIP3    H136672   5.350   2.341   9.383
 4159TIP3    H236673   5.416   2.452   9.309
 4160TIP3   OH236674   5.409   2.495   9.881
 4160TIP3    H136675   5.507   2.486   9.885
 4160TIP3    H236676   5.387   2.403   9.909
 4161TIP3   OH236677   5.402   2.166   9.386
 4161TIP3    H136678   5.437   2.122   9.466
 4161TIP3    H236679   5.347   2.092   9.352
 4162TIP3   OH236680   3.946   2.230   9.875
 4162TIP3    H136681   3.988   2.144   9.852
 4162TIP3    H236682   4.020   2.277   9.918
 4163TIP3   OH236683   3.791   2.512   9.965
 4163TIP3    H136684   3.843   2.476   9.890
 4163TIP3    H236685   3.829   2.601   9.970
 4164TIP3   OH236686   5.571   2.144   9.061
 4164TIP3    H136687   5.610   2.097   8.984
 4164TIP3    H236688   5.651   2.189   9.093
 4165TIP3   OH236689   3.805   2.147   9.331
 4165TIP3    H136690   3.714   2.177   9.338
 4165TIP3    H236691   3.840   2.207   9.262
 4166TIP3   OH236692   5.279   3.658   9.547
 4166TIP3    H136693   5.358   3.629   9.496
 4166TIP3    H236694   5.316   3.717   9.614
 4167TIP3   OH236695   4.032   3.656   9.890
 4167TIP3    H136696   4.056   3.670   9.984
 4167TIP3    H236697   4.111   3.606   9.858
 4168TIP3   OH236698   4.234   3.515   9.781
 4168TIP3    H136699   4.228   3.418   9.792
 4168TIP3    H236700   4.326   3.532   9.812
 4169TIP3   OH236701   4.478   3.546   9.876
 4169TIP3    H136702   4.495   3.450   9.873
 4169TIP3    H236703   4.479   3.564   9.970
 4170TIP3   OH236704   4.844   2.132   9.782
 4170TIP3    H136705   4.769   2.080   9.817
 4170TIP3    H236706   4.916   2.068   9.799
 4171TIP3   OH236707   5.355   1.944   9.783
 4171TIP3    H136708   5.412   1.990   9.716
 4171TIP3    H236709   5.268   1.986   9.770
 4172TIP3   OH236710   5.522   2.036   9.590
 4172TIP3    H136711   5.589   1.980   9.544
 4172TIP3    H236712   5.574   2.118   9.609
 4173TIP3   OH236713   4.067   1.946   9.546
 4173TIP3    H136714   3.983   1.933   9.496
 4173TIP3    H236715   4.105   1.855   9.541
 4174TIP3   OH236716   3.967   1.954   9.159
 4174TIP3    H136717   3.997   2.014   9.089
 4174TIP3    H236718   3.903   2.010   9.207
 4175TIP3   OH236719   4.508   1.906   9.576
 4175TIP3    H136720   4.576   1.947   9.522
 4175TIP3    H236721   4.540   1.923   9.667
 4176TIP3   OH236722   5.088   1.992   9.688
 4176TIP3    H136723   5.072   2.002   9.593
 4176TIP3    H236724   5.047   1.905   9.708
 4177TIP3   OH236725   5.239   1.958   9.322
 4177TIP3    H136726   5.172   1.993   9.262
 4177TIP3    H236727   5.196   1.874   9.351
 4178TIP3   OH236728   3.954   3.553   9.256
 4178TIP3    H136729   3.858   3.566   9.248
 4178TIP3    H236730   3.984   3.637   9.215
 4179TIP3   OH236731   4.088   2.168   8.990
 4179TIP3    H136732   4.150   2.105   8.947
 4179TIP3    H236733   4.144   2.207   9.059
 4180TIP3   OH236734   4.640   2.168   9.218
 4180TIP3    H136735   4.674   2.113   9.291
 4180TIP3    H236736   4.651   2.256   9.259
 4181TIP3   OH236737   4.847   3.682   9.094
 4181TIP3    H136738   4.941   3.685   9.068
 4181TIP3    H236739   4.812   3.636   9.014
 4182TIP3   OH236740   5.491   3.594   9.377
 4182TIP3    H136741   5.461   3.519   9.321
 4182TIP3    H236742   5.479   3.670   9.315
 4183TIP3   OH236743   4.052   3.624   8.937
 4183TIP3    H136744   4.040   3.670   9.022
 4183TIP3    H236745   4.138   3.581   8.954
 4184TIP3   OH236746   6.879   2.883   9.554
 4184TIP3    H136747   6.858   2.980   9.557
 4184TIP3    H236748   6.801   2.853   9.505
 4185TIP3   OH236749   6.744   2.815   9.889
 4185TIP3    H136750   6.747   2.773   9.978
 4185TIP3    H236751   6.673   2.763   9.846
 4186TIP3   OH236752   7.062   3.073   9.711
 4186TIP3    H136753   7.014   3.024   9.781
 4186TIP3    H236754   7.103   3.143   9.769
 4187TIP3   OH236755   6.081   3.251   9.900
 4187TIP3    H136756   6.013   3.184   9.917
 4187TIP3    H236757   6.160   3.213   9.942
 4188TIP3   OH236758   5.775   2.556   9.447
 4188TIP3    H136759   5.733   2.643   9.448
 4188TIP3    H236760   5.697   2.502   9.429
 4189TIP3   OH236761   5.809   2.789   9.665
 4189TIP3    H136762   5.816   2.692   9.679
 4189TIP3    H236763   5.852   2.803   9.579
 4190TIP3   OH236764   6.820   3.633   9.756
 4190TIP3    H136765   6.898   3.583   9.720
 4190TIP3    H236766   6.777   3.561   9.803
 4191TIP3   OH236767   6.643   3.085  10.006
 4191TIP3    H136768   6.676   3.017   9.946
 4191TIP3    H236769   6.706   3.076  10.079
 4192TIP3   OH236770   6.878   2.497   9.978
 4192TIP3    H136771   6.879   2.420  10.037
 4192TIP3    H236772   6.840   2.462   9.896
 4193TIP3   OH236773   6.245   2.287   9.707
 4193TIP3    H136774   6.264   2.368   9.655
 4193TIP3    H236775   6.200   2.232   9.641
 4194TIP3   OH236776   6.970   2.331   9.532
 4194TIP3    H136777   7.015   2.283   9.606
 4194TIP3    H236778   7.041   2.391   9.505
 4195TIP3   OH236779   5.853   2.508   9.759
 4195TIP3    H136780   5.924   2.478   9.818
 4195TIP3    H236781   5.888   2.477   9.672
 4196TIP3   OH236782   6.375   2.696   9.717
 4196TIP3    H136783   6.453   2.645   9.747
 4196TIP3    H236784   6.332   2.628   9.660
 4197TIP3   OH236785   6.808   3.123   9.440
 4197TIP3    H136786   6.772   3.129   9.349
 4197TIP3    H236787   6.788   3.215   9.472
 4198TIP3   OH236788   7.116   2.259   9.745
 4198TIP3    H136789   7.108   2.219   9.832
 4198TIP3    H236790   7.212   2.254   9.733
 4199TIP3   OH236791   6.074   2.392   9.893
 4199TIP3    H136792   6.105   2.483   9.886
 4199TIP3    H236793   6.122   2.349   9.819
 4200TIP3   OH236794   5.811   3.106   9.262
 4200TIP3    H136795   5.798   3.156   9.177
 4200TIP3    H236796   5.819   3.177   9.329
 4201TIP3   OH236797   7.181   3.226   9.899
 4201TIP3    H136798   7.143   3.193   9.983
 4201TIP3    H236799   7.194   3.319   9.923
 4202TIP3   OH236800   6.505   1.942   9.818
 4202TIP3    H136801   6.504   1.844   9.816
 4202TIP3    H236802   6.419   1.964   9.860
 4203TIP3   OH236803   6.981   3.472   9.624
 4203TIP3    H136804   7.006   3.388   9.580
 4203TIP3    H236805   7.061   3.526   9.604
 4204TIP3   OH236806   7.120   3.272   9.490
 4204TIP3    H136807   7.102   3.206   9.421
 4204TIP3    H236808   7.140   3.216   9.567
 4205TIP3   OH236809   6.725   2.818   9.287
 4205TIP3    H136810   6.673   2.899   9.273
 4205TIP3    H236811   6.810   2.843   9.243
 4206TIP3   OH236812   6.752   2.705   9.000
 4206TIP3    H136813   6.817   2.751   9.057
 4206TIP3    H236814   6.770   2.613   9.023
 4207TIP3   OH236815   7.109   2.850   9.404
 4207TIP3    H136816   7.015   2.840   9.434
 4207TIP3    H236817   7.150   2.764   9.423
 4208TIP3   OH236818   6.231   2.923   9.599
 4208TIP3    H136819   6.192   2.874   9.524
 4208TIP3    H236820   6.261   2.849   9.656
 4209TIP3   OH236821   6.381   3.239   9.847
 4209TIP3    H136822   6.444   3.238   9.773
 4209TIP3    H236823   6.442   3.219   9.920
 4210TIP3   OH236824   6.201   2.762   9.931
 4210TIP3    H136825   6.269   2.732   9.868
 4210TIP3    H236826   6.249   2.760  10.016
 4211TIP3   OH236827   6.965   2.787   9.175
 4211TIP3    H136828   7.027   2.824   9.240
 4211TIP3    H236829   7.008   2.818   9.090
 4212TIP3   OH236830   6.736   3.383   9.476
 4212TIP3    H136831   6.781   3.421   9.553
 4212TIP3    H236832   6.685   3.459   9.442
 4213TIP3   OH236833   7.329   1.920   9.145
 4213TIP3    H136834   7.234   1.930   9.168
 4213TIP3    H236835   7.364   2.010   9.152
 4214TIP3   OH236836   6.077   2.782   9.376
 4214TIP3    H136837   6.078   2.857   9.312
 4214TIP3    H236838   6.076   2.706   9.316
 4215TIP3   OH236839   7.453   3.375   8.999
 4215TIP3    H136840   7.487   3.466   9.014
 4215TIP3    H236841   7.539   3.329   9.001
 4216TIP3   OH236842   5.754   3.359   9.867
 4216TIP3    H136843   5.835   3.322   9.905
 4216TIP3    H236844   5.716   3.410   9.940
 4217TIP3   OH236845   6.683   3.690   9.353
 4217TIP3    H136846   6.678   3.707   9.257
 4217TIP3    H236847   6.680   3.783   9.387
 4218TIP3   OH236848   6.057   3.590   9.519
 4218TIP3    H136849   6.073   3.575   9.615
 4218TIP3    H236850   5.971   3.547   9.508
 4219TIP3   OH236851   6.977   3.633   9.053
 4219TIP3    H136852   7.028   3.559   9.012
 4219TIP3    H236853   6.992   3.620   9.149
 4220TIP3   OH236854   6.957   3.619   9.328
 4220TIP3    H136855   6.859   3.625   9.333
 4220TIP3    H236856   6.976   3.545   9.388
 4221TIP3   OH236857   6.237   2.044   9.893
 4221TIP3    H136858   6.163   2.032   9.829
 4221TIP3    H236859   6.203   2.124   9.934
 4222TIP3   OH236860   7.100   2.894   8.981
 4222TIP3    H136861   7.079   2.896   8.886
 4222TIP3    H236862   7.196   2.917   8.979
 4223TIP3   OH236863   6.688   2.247   8.993
 4223TIP3    H136864   6.673   2.217   9.084
 4223TIP3    H236865   6.617   2.195   8.952
 4224TIP3   OH236866   6.265   2.514   9.562
 4224TIP3    H136867   6.169   2.506   9.547
 4224TIP3    H236868   6.303   2.506   9.471
 4225TIP3   OH236869   6.835   2.611   9.403
 4225TIP3    H136870   6.787   2.678   9.347
 4225TIP3    H236871   6.888   2.566   9.333
 4226TIP3   OH236872   6.827   2.531   9.681
 4226TIP3    H136873   6.808   2.589   9.605
 4226TIP3    H236874   6.877   2.462   9.633
 4227TIP3   OH236875   6.321   2.293   8.938
 4227TIP3    H136876   6.265   2.242   9.000
 4227TIP3    H236877   6.255   2.343   8.886
 4228TIP3   OH236878   5.662   2.259   9.643
 4228TIP3    H136879   5.717   2.256   9.724
 4228TIP3    H236880   5.727   2.242   9.574
 4229TIP3   OH236881   5.770   2.315   9.159
 4229TIP3    H136882   5.829   2.357   9.093
 4229TIP3    H236883   5.707   2.389   9.171
 4230TIP3   OH236884   6.550   2.315   9.622
 4230TIP3    H136885   6.475   2.311   9.683
 4230TIP3    H236886   6.619   2.271   9.677
 4231TIP3   OH236887   5.982   2.418   9.544
 4231TIP3    H136888   5.914   2.452   9.481
 4231TIP3    H236889   6.000   2.328   9.508
 4232TIP3   OH236890   6.353   2.479   9.315
 4232TIP3    H136891   6.439   2.468   9.273
 4232TIP3    H236892   6.301   2.525   9.246
 4233TIP3   OH236893   6.908   2.133   9.960
 4233TIP3    H136894   6.909   2.190  10.039
 4233TIP3    H236895   6.859   2.190   9.899
 4234TIP3   OH236896   6.227   2.582   9.053
 4234TIP3    H136897   6.188   2.527   8.983
 4234TIP3    H236898   6.305   2.617   9.005
 4235TIP3   OH236899   6.617   2.582   9.835
 4235TIP3    H136900   6.676   2.568   9.758
 4235TIP3    H236901   6.654   2.514   9.893
 4236TIP3   OH236902   6.066   2.177   9.485
 4236TIP3    H136903   6.017   2.106   9.531
 4236TIP3    H236904   6.119   2.124   9.425
 4237TIP3   OH236905   6.561   3.037   9.245
 4237TIP3    H136906   6.483   2.990   9.209
 4237TIP3    H236907   6.523   3.066   9.331
 4238TIP3   OH236908   6.932   2.289   9.094
 4238TIP3    H136909   6.842   2.303   9.058
 4238TIP3    H236910   6.961   2.380   9.113
 4239TIP3   OH236911   7.005   2.513   9.213
 4239TIP3    H136912   7.093   2.498   9.252
 4239TIP3    H236913   7.022   2.580   9.144
 4240TIP3   OH236914   6.053   2.985   9.796
 4240TIP3    H136915   6.002   2.927   9.737
 4240TIP3    H236916   6.112   2.924   9.845
 4241TIP3   OH236917   6.764   3.176   9.144
 4241TIP3    H136918   6.727   3.263   9.172
 4241TIP3    H236919   6.692   3.115   9.172
 4242TIP3   OH236920   7.469   2.511   9.198
 4242TIP3    H136921   7.416   2.482   9.121
 4242TIP3    H236922   7.486   2.603   9.169
 4243TIP3   OH236923   7.315   3.388   9.239
 4243TIP3    H136924   7.255   3.314   9.258
 4243TIP3    H236925   7.362   3.362   9.156
 4244TIP3   OH236926   6.997   2.889   9.891
 4244TIP3    H136927   6.901   2.866   9.883
 4244TIP3    H236928   7.034   2.800   9.878
 4245TIP3   OH236929   6.272   3.315   9.587
 4245TIP3    H136930   6.336   3.383   9.613
 4245TIP3    H236931   6.232   3.363   9.512
 4246TIP3   OH236932   5.922   2.820   9.046
 4246TIP3    H136933   5.960   2.888   9.105
 4246TIP3    H236934   5.826   2.830   9.054
 4247TIP3   OH236935   6.425   3.090   9.462
 4247TIP3    H136936   6.378   3.163   9.507
 4247TIP3    H236937   6.407   3.011   9.515
 4248TIP3   OH236938   6.316   3.547   9.442
 4248TIP3    H136939   6.223   3.573   9.462
 4248TIP3    H236940   6.358   3.631   9.466
 4249TIP3   OH236941   7.088   3.225   9.035
 4249TIP3    H136942   7.105   3.173   9.117
 4249TIP3    H236943   7.002   3.186   9.013
 4250TIP3   OH236944   7.529   3.628   9.057
 4250TIP3    H136945   7.563   3.709   9.015
 4250TIP3    H236946   7.443   3.662   9.086
 4251TIP3   OH236947   7.190   3.068   9.244
 4251TIP3    H136948   7.171   2.983   9.289
 4251TIP3    H236949   7.288   3.059   9.232
 4252TIP3   OH236950   6.483   3.335   8.889
 4252TIP3    H136951   6.474   3.287   8.805
 4252TIP3    H236952   6.422   3.285   8.947
 4253TIP3   OH236953   6.348   3.249   9.121
 4253TIP3    H136954   6.423   3.210   9.169
 4253TIP3    H236955   6.362   3.344   9.145
 4254TIP3   OH236956   6.051   3.001   9.193
 4254TIP3    H136957   5.962   3.033   9.217
 4254TIP3    H236958   6.089   3.077   9.145
 4255TIP3   OH236959   6.873   2.181   9.330
 4255TIP3    H136960   6.904   2.229   9.251
 4255TIP3    H236961   6.903   2.242   9.402
 4256TIP3   OH236962   6.644   3.423   9.193
 4256TIP3    H136963   6.553   3.459   9.205
 4256TIP3    H236964   6.692   3.504   9.172
 4257TIP3   OH236965   6.625   2.372   9.366
 4257TIP3    H136966   6.658   2.461   9.388
 4257TIP3    H236967   6.585   2.344   9.451
 4258TIP3   OH236968   6.652   2.064   9.434
 4258TIP3    H136969   6.622   2.128   9.500
 4258TIP3    H236970   6.731   2.110   9.396
 4259TIP3   OH236971   6.387   3.496   9.186
 4259TIP3    H136972   6.393   3.572   9.123
 4259TIP3    H236973   6.343   3.539   9.262
 4260TIP3   OH236974   6.228   2.184   9.162
 4260TIP3    H136975   6.229   2.264   9.216
 4260TIP3    H236976   6.321   2.155   9.167
 4261TIP3   OH236977   7.053   2.665   9.777
 4261TIP3    H136978   6.987   2.597   9.799
 4261TIP3    H236979   7.136   2.619   9.805
 4262TIP3   OH236980   6.069   3.248   9.032
 4262TIP3    H136981   6.144   3.277   9.087
 4262TIP3    H236982   6.118   3.194   8.966
 4263TIP3   OH236983   5.890   2.517   9.004
 4263TIP3    H136984   5.934   2.599   9.031
 4263TIP3    H236985   5.832   2.548   8.933
 4264TIP3   OH236986   7.265   3.588   9.964
 4264TIP3    H136987   7.248   3.670   9.912
 4264TIP3    H236988   7.353   3.607   9.998
 4265TIP3   OH236989   5.999   2.018   9.788
 4265TIP3    H136990   5.984   1.978   9.700
 4265TIP3    H236991   5.985   1.939   9.844
 4266TIP3   OH236992   5.866   3.381   9.463
 4266TIP3    H136993   5.779   3.416   9.487
 4266TIP3    H236994   5.874   3.422   9.374
 4267TIP3   OH236995   6.691   3.522   8.893
 4267TIP3    H136996   6.637   3.441   8.906
 4267TIP3    H236997   6.771   3.486   8.849
 4268TIP3   OH236998   7.148   3.468   8.904
 4268TIP3    H136999   7.163   3.394   8.966
 4268TIP3    H237000   7.228   3.465   8.849
 4269TIP3   OH237001   6.226   3.062   8.878
 4269TIP3    H137002   6.264   3.025   8.959
 4269TIP3    H237003   6.301   3.050   8.816
 4270TIP3   OH237004   6.793   3.183   8.859
 4270TIP3    H137005   6.762   3.182   8.951
 4270TIP3    H237006   6.778   3.088   8.839
 4271TIP3   OH237007   6.362   2.863   9.142
 4271TIP3    H137008   6.293   2.805   9.179
 4271TIP3    H237009   6.402   2.804   9.075
 4272TIP3   OH237010   6.467   2.691   8.948
 4272TIP3    H137011   6.458   2.706   8.851
 4272TIP3    H237012   6.564   2.703   8.959
 4273TIP3   OH237013   7.364   2.903   8.901
 4273TIP3    H137014   7.340   2.889   8.807
 4273TIP3    H237015   7.383   2.999   8.903
 4274TIP3   OH237016   6.439   3.723   9.072
 4274TIP3    H137017   6.537   3.724   9.079
 4274TIP3    H237018   6.428   3.794   9.005
 4275TIP3   OH237019   5.793   3.208   9.020
 4275TIP3    H137020   5.891   3.223   9.018
 4275TIP3    H237021   5.783   3.145   8.944
 4276TIP3   OH237022   5.696   3.728   9.468
 4276TIP3    H137023   5.615   3.679   9.443
 4276TIP3    H237024   5.711   3.687   9.557
 4277TIP3   OH237025   5.738   3.594   9.697
 4277TIP3    H137026   5.700   3.510   9.727
 4277TIP3    H237027   5.803   3.610   9.769
 4278TIP3   OH237028   7.452   3.005   9.260
 4278TIP3    H137029   7.518   3.066   9.295
 4278TIP3    H237030   7.454   2.938   9.331
 4279TIP3   OH237031   7.473   2.854   9.489
 4279TIP3    H137032   7.394   2.812   9.525
 4279TIP3    H237033   7.536   2.836   9.560
 4280TIP3   OH237034   7.524   3.053   9.897
 4280TIP3    H137035   7.616   3.083   9.905
 4280TIP3    H237036   7.480   3.139   9.906
 4281TIP3   OH237037   7.486   2.782   9.124
 4281TIP3    H137038   7.443   2.805   9.039
 4281TIP3    H237039   7.492   2.872   9.161
 4282TIP3   OH237040   7.320   2.495   8.957
 4282TIP3    H137041   7.333   2.556   8.883
 4282TIP3    H237042   7.293   2.414   8.908
 4283TIP3   OH237043   7.237   2.643   9.533
 4283TIP3    H137044   7.234   2.584   9.454
 4283TIP3    H237045   7.284   2.582   9.592
 4284TIP3   OH237046   5.798   2.915   9.904
 4284TIP3    H137047   5.804   2.862   9.822
 4284TIP3    H237048   5.846   2.863   9.971
 4285TIP3   OH237049   7.261   2.247   8.861
 4285TIP3    H137050   7.255   2.214   8.951
 4285TIP3    H237051   7.173   2.219   8.827
 4286TIP3   OH237052   7.241   2.436   9.371
 4286TIP3    H137053   7.224   2.343   9.394
 4286TIP3    H237054   7.334   2.430   9.343
 4287TIP3   OH237055   7.260   2.518   9.841
 4287TIP3    H137056   7.360   2.522   9.844
 4287TIP3    H237057   7.241   2.458   9.914
 4288TIP3   OH237058   7.254   2.150   9.391
 4288TIP3    H137059   7.285   2.115   9.477
 4288TIP3    H237060   7.201   2.074   9.357
 4289TIP3   OH237061   5.835   2.225   9.866
 4289TIP3    H137062   5.880   2.138   9.854
 4289TIP3    H237063   5.908   2.278   9.904
 4290TIP3   OH237064   5.670   2.513   9.958
 4290TIP3    H137065   5.720   2.472   9.885
 4290TIP3    H237066   5.706   2.603   9.953
 4291TIP3   OH237067   7.483   2.145   9.066
 4291TIP3    H137068   7.498   2.088   8.988
 4291TIP3    H237069   7.521   2.230   9.036
 4292TIP3   OH237070   5.690   2.137   9.336
 4292TIP3    H137071   5.600   2.169   9.349
 4292TIP3    H237072   5.725   2.212   9.282
 4293TIP3   OH237073   7.181   3.647   9.575
 4293TIP3    H137074   7.239   3.625   9.499
 4293TIP3    H237075   7.240   3.700   9.631
 4294TIP3   OH237076   5.926   3.641   9.888
 4294TIP3    H137077   5.950   3.652   9.983
 4294TIP3    H237078   6.006   3.601   9.849
 4295TIP3   OH237079   6.126   3.508   9.771
 4295TIP3    H137080   6.130   3.418   9.806
 4295TIP3    H237081   6.206   3.546   9.814
 4296TIP3   OH237082   6.355   3.571   9.879
 4296TIP3    H137083   6.413   3.495   9.867
 4296TIP3    H237084   6.355   3.582   9.975
 4297TIP3   OH237085   6.693   2.163   9.788
 4297TIP3    H137086   6.637   2.088   9.817
 4297TIP3    H237087   6.774   2.112   9.770
 4298TIP3   OH237088   7.200   1.929   9.805
 4298TIP3    H137089   7.276   1.983   9.773
 4298TIP3    H237090   7.133   1.968   9.745
 4299TIP3   OH237091   7.364   2.055   9.636
 4299TIP3    H137092   7.430   1.999   9.589
 4299TIP3    H237093   7.409   2.143   9.636
 4300TIP3   OH237094   5.952   1.930   9.543
 4300TIP3    H137095   5.872   1.919   9.488
 4300TIP3    H237096   5.991   1.841   9.537
 4301TIP3   OH237097   5.856   1.942   9.169
 4301TIP3    H137098   5.875   2.003   9.096
 4301TIP3    H237099   5.788   1.989   9.219
 4302TIP3   OH237100   6.376   1.924   9.566
 4302TIP3    H137101   6.456   1.939   9.515
 4302TIP3    H237102   6.411   1.931   9.657
 4303TIP3   OH237103   6.945   1.997   9.654
 4303TIP3    H137104   6.931   1.998   9.558
 4303TIP3    H237105   6.920   1.906   9.680
 4304TIP3   OH237106   7.101   1.948   9.306
 4304TIP3    H137107   7.019   1.992   9.278
 4304TIP3    H237108   7.069   1.863   9.342
 4305TIP3   OH237109   5.828   3.539   9.251
 4305TIP3    H137110   5.735   3.567   9.253
 4305TIP3    H237111   5.866   3.618   9.208
 4306TIP3   OH237112   5.970   2.150   8.992
 4306TIP3    H137113   6.027   2.091   8.939
 4306TIP3    H237114   6.019   2.152   9.076
 4307TIP3   OH237115   6.538   2.157   9.200
 4307TIP3    H137116   6.568   2.102   9.274
 4307TIP3    H237117   6.547   2.246   9.241
 4308TIP3   OH237118   6.714   3.694   9.085
 4308TIP3    H137119   6.808   3.693   9.058
 4308TIP3    H237120   6.683   3.632   9.014
 4309TIP3   OH237121   7.348   3.618   9.365
 4309TIP3    H137122   7.346   3.535   9.311
 4309TIP3    H237123   7.347   3.685   9.293
 4310TIP3   OH237124   5.957   3.629   8.928
 4310TIP3    H137125   5.936   3.661   9.017
 4310TIP3    H237126   6.035   3.573   8.945
 4311TIP3   OH237127   7.556   2.590   9.461
 4311TIP3    H137128   7.532   2.680   9.433
 4311TIP3    H237129   7.535   2.538   9.382
 4312TIP3   OH237130   7.558   3.323   9.893
 4312TIP3    H137131   7.656   3.332   9.902
 4312TIP3    H237132   7.525   3.374   9.969
 4313TIP3   OH237133   7.508   2.278   9.595
 4313TIP3    H137134   7.603   2.295   9.616
 4313TIP3    H237135   7.517   2.228   9.510
 4314TIP3   OH237136   7.510   3.739   9.532
 4314TIP3    H137137   7.458   3.686   9.467
 4314TIP3    H237138   7.520   3.675   9.606
 4315TIP3   OH237139   7.559   3.588   9.749
 4315TIP3    H137140   7.514   3.505   9.767
 4315TIP3    H237141   7.654   3.561   9.740
 4316TIP3   OH237142   7.661   2.771   9.932
 4316TIP3    H137143   7.702   2.802   9.848
 4316TIP3    H237144   7.666   2.852   9.986
 4317TIP3   OH237145   7.507   2.559   9.915
 4317TIP3    H137146   7.580   2.502   9.886
 4317TIP3    H237147   7.560   2.639   9.939
 4318TIP3   OH237148   7.520   2.169   9.356
 4318TIP3    H137149   7.423   2.173   9.340
 4318TIP3    H237150   7.557   2.176   9.266
 4319TIP3   OH237151   1.223   4.785   9.541
 4319TIP3    H137152   1.221   4.880   9.563
 4319TIP3    H237153   1.136   4.774   9.501
 4320TIP3   OH237154   1.095   4.678   9.884
 4320TIP3    H137155   1.086   4.642   9.975
 4320TIP3    H237156   1.023   4.630   9.840
 4321TIP3   OH237157   1.399   4.971   9.720
 4321TIP3    H137158   1.371   4.895   9.776
 4321TIP3    H237159   1.433   5.034   9.789
 4322TIP3   OH237160   0.398   5.096   9.866
 4322TIP3    H137161   0.375   5.004   9.838
 4322TIP3    H237162   0.493   5.085   9.880
 4323TIP3   OH237163   0.128   4.418   9.386
 4323TIP3    H137164   0.133   4.498   9.439
 4323TIP3    H237165   0.039   4.391   9.414
 4324TIP3   OH237166   0.120   4.693   9.706
 4324TIP3    H137167   0.159   4.603   9.720
 4324TIP3    H237168   0.199   4.745   9.684
 4325TIP3   OH237169   1.163   5.534   9.768
 4325TIP3    H137170   1.225   5.481   9.713
 4325TIP3    H237171   1.123   5.461   9.817
 4326TIP3   OH237172   0.969   4.946  10.002
 4326TIP3    H137173   1.016   4.891   9.937
 4326TIP3    H237174   1.041   4.963  10.066
 4327TIP3   OH237175   1.238   4.390   9.988
 4327TIP3    H137176   1.268   4.297   9.993
 4327TIP3    H237177   1.235   4.403   9.891
 4328TIP3   OH237178   0.575   4.180   9.719
 4328TIP3    H137179   0.596   4.259   9.665
 4328TIP3    H237180   0.532   4.123   9.652
 4329TIP3   OH237181   1.299   4.219   9.543
 4329TIP3    H137182   1.354   4.178   9.614
 4329TIP3    H237183   1.368   4.275   9.502
 4330TIP3   OH237184   0.238   4.441   9.746
 4330TIP3    H137185   0.292   4.376   9.794
 4330TIP3    H237186   0.251   4.409   9.654
 4331TIP3   OH237187   0.699   4.577   9.722
 4331TIP3    H137188   0.776   4.529   9.757
 4331TIP3    H237189   0.661   4.506   9.665
 4332TIP3   OH237190   1.143   5.027   9.433
 4332TIP3    H137191   1.125   5.014   9.338
 4332TIP3    H237192   1.128   5.124   9.438
 4333TIP3   OH237193   1.481   4.149   9.715
 4333TIP3    H137194   1.421   4.125   9.790
 4333TIP3    H237195   1.567   4.127   9.752
 4334TIP3   OH237196   0.391   4.278   9.904
 4334TIP3    H137197   0.439   4.355   9.938
 4334TIP3    H237198   0.458   4.234   9.847
 4335TIP3   OH237199   0.128   4.996   9.276
 4335TIP3    H137200   0.103   5.050   9.198
 4335TIP3    H237201   0.152   5.065   9.342
 4336TIP3   OH237202   1.515   5.133   9.893
 4336TIP3    H137203   1.481   5.089   9.974
 4336TIP3    H237204   1.570   5.201   9.933
 4337TIP3   OH237205   0.859   3.850   9.830
 4337TIP3    H137206   0.880   3.756   9.830
 4337TIP3    H237207   0.765   3.853   9.860
 4338TIP3   OH237208   1.316   5.373   9.625
 4338TIP3    H137209   1.357   5.286   9.609
 4338TIP3    H237210   1.394   5.431   9.604
 4339TIP3   OH237211   1.455   5.159   9.513
 4339TIP3    H137212   1.432   5.087   9.452
 4339TIP3    H237213   1.459   5.107   9.596
 4340TIP3   OH237214   1.077   4.709   9.284
 4340TIP3    H137215   1.021   4.787   9.267
 4340TIP3    H237216   1.167   4.745   9.269
 4341TIP3   OH237217   1.092   4.582   8.984
 4341TIP3    H137218   1.135   4.614   9.066
 4341TIP3    H237219   1.124   4.490   8.981
 4342TIP3   OH237220   1.456   4.699   9.408
 4342TIP3    H137221   1.376   4.725   9.459
 4342TIP3    H237222   1.515   4.666   9.478
 4343TIP3   OH237223   0.585   4.767   9.573
 4343TIP3    H137224   0.541   4.713   9.504
 4343TIP3    H237225   0.640   4.701   9.620
 4344TIP3   OH237226   0.733   5.148   9.854
 4344TIP3    H137227   0.714   5.110   9.766
 4344TIP3    H237228   0.798   5.085   9.889
 4345TIP3   OH237229   0.559   4.661   9.931
 4345TIP3    H137230   0.608   4.647   9.847
 4345TIP3    H237231   0.629   4.691   9.990
 4346TIP3   OH237232   1.317   4.682   9.177
 4346TIP3    H137233   1.383   4.702   9.246
 4346TIP3    H237234   1.366   4.709   9.095
 4347TIP3   OH237235   1.088   5.283   9.458
 4347TIP3    H137236   1.155   5.305   9.524
 4347TIP3    H237237   1.035   5.363   9.452
 4348TIP3   OH237238   1.684   3.791   9.202
 4348TIP3    H137239   1.589   3.806   9.211
 4348TIP3    H237240   1.720   3.880   9.180
 4349TIP3   OH237241   0.479   4.650   9.332
 4349TIP3    H137242   0.430   4.728   9.299
 4349TIP3    H237243   0.424   4.575   9.306
 4350TIP3   OH237244   1.799   5.222   9.024
 4350TIP3    H137245   1.823   5.317   9.026
 4350TIP3    H237246   1.889   5.184   9.037
 4351TIP3   OH237247   0.137   5.235   9.899
 4351TIP3    H137248   0.206   5.167   9.895
 4351TIP3    H237249   0.175   5.291   9.969
 4352TIP3   OH237250   1.049   5.578   9.361
 4352TIP3    H137251   1.046   5.586   9.263
 4352TIP3    H237252   1.026   5.670   9.386
 4353TIP3   OH237253   0.419   5.461   9.533
 4353TIP3    H137254   0.431   5.429   9.625
 4353TIP3    H237255   0.323   5.464   9.521
 4354TIP3   OH237256   1.334   5.512   9.043
 4354TIP3    H137257   1.383   5.436   9.004
 4354TIP3    H237258   1.343   5.497   9.138
 4355TIP3   OH237259   1.308   5.514   9.318
 4355TIP3    H137260   1.213   5.526   9.341
 4355TIP3    H237261   1.332   5.440   9.376
 4356TIP3   OH237262   0.591   3.905   9.866
 4356TIP3    H137263   0.501   3.922   9.830
 4356TIP3    H237264   0.616   3.993   9.899
 4357TIP3   OH237265   1.468   4.776   8.987
 4357TIP3    H137266   1.446   4.792   8.893
 4357TIP3    H237267   1.565   4.787   8.985
 4358TIP3   OH237268   1.019   4.128   8.984
 4358TIP3    H137269   0.988   4.120   9.076
 4358TIP3    H237270   0.967   4.055   8.946
 4359TIP3   OH237271   0.598   4.393   9.563
 4359TIP3    H137272   0.504   4.369   9.545
 4359TIP3    H237273   0.632   4.387   9.469
 4360TIP3   OH237274   1.143   4.492   9.406
 4360TIP3    H137275   1.115   4.571   9.354
 4360TIP3    H237276   1.206   4.455   9.342
 4361TIP3   OH237277   1.223   4.437   9.716
 4361TIP3    H137278   1.205   4.511   9.655
 4361TIP3    H237279   1.237   4.365   9.652
 4362TIP3   OH237280   0.643   4.161   8.922
 4362TIP3    H137281   0.605   4.102   8.992
 4362TIP3    H237282   0.563   4.191   8.879
 4363TIP3   OH237283   0.077   4.140   9.639
 4363TIP3    H137284   0.115   4.154   9.728
 4363TIP3    H237285   0.122   4.059   9.611
 4364TIP3   OH237286   0.100   4.219   9.154
 4364TIP3    H137287   0.172   4.261   9.101
 4364TIP3    H237288   0.056   4.296   9.191
 4365TIP3   OH237289   0.871   4.189   9.639
 4365TIP3    H137290   0.788   4.174   9.687
 4365TIP3    H237291   0.934   4.133   9.690
 4366TIP3   OH237292   0.343   4.321   9.515
 4366TIP3    H137293   0.273   4.329   9.446
 4366TIP3    H237294   0.349   4.222   9.518
 4367TIP3   OH237295   0.667   4.350   9.310
 4367TIP3    H137296   0.762   4.348   9.289
 4367TIP3    H237297   0.630   4.404   9.238
 4368TIP3   OH237298   1.302   4.138   9.907
 4368TIP3    H137299   1.300   4.112  10.002
 4368TIP3    H237300   1.208   4.127   9.882
 4369TIP3   OH237301   0.573   4.479   9.051
 4369TIP3    H137302   0.527   4.417   8.993
 4369TIP3    H237303   0.656   4.496   9.000
 4370TIP3   OH237304   0.944   4.442   9.829
 4370TIP3    H137305   0.980   4.422   9.741
 4370TIP3    H237306   1.013   4.399   9.883
 4371TIP3   OH237307   0.410   4.069   9.512
 4371TIP3    H137308   0.353   3.993   9.538
 4371TIP3    H237309   0.455   4.025   9.437
 4372TIP3   OH237310   0.909   4.909   9.268
 4372TIP3    H137311   0.836   4.861   9.224
 4372TIP3    H237312   0.863   4.938   9.351
 4373TIP3   OH237313   1.263   4.177   9.088
 4373TIP3    H137314   1.180   4.184   9.036
 4373TIP3    H237315   1.283   4.272   9.106
 4374TIP3   OH237316   1.322   4.410   9.196
 4374TIP3    H137317   1.381   4.372   9.262
 4374TIP3    H237318   1.365   4.495   9.178
 4375TIP3   OH237319   0.412   4.849   9.784
 4375TIP3    H137320   0.465   4.835   9.703
 4375TIP3    H237321   0.463   4.801   9.852
 4376TIP3   OH237322   1.096   5.054   9.167
 4376TIP3    H137323   1.056   5.143   9.183
 4376TIP3    H237324   1.024   4.993   9.198
 4377TIP3   OH237325   1.816   4.382   9.200
 4377TIP3    H137326   1.763   4.378   9.117
 4377TIP3    H237327   1.841   4.476   9.201
 4378TIP3   OH237328   1.633   5.261   9.231
 4378TIP3    H137329   1.606   5.189   9.289
 4378TIP3    H237330   1.691   5.218   9.164
 4379TIP3   OH237331   1.363   4.747   9.900
 4379TIP3    H137332   1.270   4.717   9.888
 4379TIP3    H237333   1.414   4.680   9.849
 4380TIP3   OH237334   0.627   5.183   9.580
 4380TIP3    H137335   0.672   5.266   9.601
 4380TIP3    H237336   0.552   5.218   9.530
 4381TIP3   OH237337   0.237   4.705   9.045
 4381TIP3    H137338   0.277   4.784   9.085
 4381TIP3    H237339   0.145   4.707   9.076
 4382TIP3   OH237340   0.761   4.964   9.479
 4382TIP3    H137341   0.717   5.038   9.526
 4382TIP3    H237342   0.741   4.887   9.535
 4383TIP3   OH237343   0.667   5.435   9.448
 4383TIP3    H137344   0.573   5.452   9.470
 4383TIP3    H237345   0.705   5.518   9.485
 4384TIP3   OH237346   1.432   5.083   9.018
 4384TIP3    H137347   1.441   5.049   9.109
 4384TIP3    H237348   1.339   5.058   9.003
 4385TIP3   OH237349   1.850   5.510   9.065
 4385TIP3    H137350   1.914   5.578   9.038
 4385TIP3    H237351   1.783   5.565   9.110
 4386TIP3   OH237352   1.507   4.943   9.255
 4386TIP3    H137353   1.486   4.858   9.297
 4386TIP3    H237354   1.602   4.929   9.233
 4387TIP3   OH237355   0.839   5.217   8.882
 4387TIP3    H137356   0.836   5.156   8.806
 4387TIP3    H237357   0.785   5.168   8.947
 4388TIP3   OH237358   0.731   5.133   9.121
 4388TIP3    H137359   0.817   5.114   9.163
 4388TIP3    H237360   0.726   5.230   9.142
 4389TIP3   OH237361   0.367   4.897   9.200
 4389TIP3    H137362   0.281   4.916   9.246
 4389TIP3    H237363   0.355   4.950   9.119
 4390TIP3   OH237364   1.207   4.083   9.328
 4390TIP3    H137365   1.233   4.125   9.243
 4390TIP3    H237366   1.248   4.141   9.396
 4391TIP3   OH237367   0.978   5.294   9.177
 4391TIP3    H137368   0.903   5.346   9.215
 4391TIP3    H237369   1.044   5.364   9.169
 4392TIP3   OH237370   0.937   4.279   9.390
 4392TIP3    H137371   0.993   4.357   9.405
 4392TIP3    H237372   0.909   4.249   9.480
 4393TIP3   OH237373   0.996   3.961   9.437
 4393TIP3    H137374   0.972   4.015   9.514
 4393TIP3    H237375   1.073   4.012   9.401
 4394TIP3   OH237376   0.729   5.389   9.184
 4394TIP3    H137377   0.744   5.472   9.130
 4394TIP3    H237378   0.690   5.431   9.264
 4395TIP3   OH237379   0.572   4.068   9.168
 4395TIP3    H137380   0.564   4.149   9.220
 4395TIP3    H237381   0.668   4.052   9.171
 4396TIP3   OH237382   1.475   4.546   9.759
 4396TIP3    H137383   1.396   4.492   9.777
 4396TIP3    H237384   1.541   4.500   9.818
 4397TIP3   OH237385   0.410   5.140   9.033
 4397TIP3    H137386   0.445   5.229   9.012
 4397TIP3    H237387   0.429   5.092   8.949
 4398TIP3   OH237388   0.239   4.401   8.994
 4398TIP3    H137389   0.261   4.493   9.017
 4398TIP3    H237390   0.189   4.414   8.912
 4399TIP3   OH237391   1.588   5.497   9.962
 4399TIP3    H137392   1.604   5.570   9.899
 4399TIP3    H237393   1.672   5.491  10.008
 4400TIP3   OH237394   0.321   3.900   9.805
 4400TIP3    H137395   0.315   3.878   9.710
 4400TIP3    H237396   0.309   3.810   9.842
 4401TIP3   OH237397   0.220   5.215   9.407
 4401TIP3    H137398   0.146   5.246   9.459
 4401TIP3    H237399   0.249   5.298   9.366
 4402TIP3   OH237400   1.038   5.407   8.872
 4402TIP3    H137401   0.989   5.326   8.896
 4402TIP3    H237402   1.119   5.369   8.833
 4403TIP3   OH237403   1.479   5.334   8.889
 4403TIP3    H137404   1.492   5.255   8.945
 4403TIP3    H237405   1.559   5.333   8.834
 4404TIP3   OH237406   0.583   4.931   8.907
 4404TIP3    H137407   0.604   4.843   8.940
 4404TIP3    H237408   0.667   4.950   8.861
 4405TIP3   OH237409   1.143   5.059   8.885
 4405TIP3    H137410   1.102   5.054   8.973
 4405TIP3    H237411   1.135   4.965   8.857
 4406TIP3   OH237412   0.682   4.772   9.145
 4406TIP3    H137413   0.632   4.710   9.202
 4406TIP3    H237414   0.729   4.707   9.090
 4407TIP3   OH237415   0.809   4.582   8.937
 4407TIP3    H137416   0.807   4.617   8.846
 4407TIP3    H237417   0.905   4.579   8.957
 4408TIP3   OH237418   1.738   4.786   8.885
 4408TIP3    H137419   1.710   4.760   8.794
 4408TIP3    H237420   1.730   4.884   8.881
 4409TIP3   OH237421   0.781   5.627   9.086
 4409TIP3    H137422   0.878   5.628   9.093
 4409TIP3    H237423   0.768   5.695   9.017
 4410TIP3   OH237424   0.138   5.120   9.031
 4410TIP3    H137425   0.233   5.144   9.033
 4410TIP3    H237426   0.134   5.068   8.950
 4411TIP3   OH237427   0.095   5.611   9.504
 4411TIP3    H137428  -0.003   5.621   9.514
 4411TIP3    H237429   0.112   5.548   9.577
 4412TIP3   OH237430   0.134   5.430   9.710
 4412TIP3    H137431   0.130   5.344   9.759
 4412TIP3    H237432   0.190   5.480   9.773
 4413TIP3   OH237433   1.775   4.890   9.260
 4413TIP3    H137434   1.860   4.935   9.279
 4413TIP3    H237435   1.770   4.829   9.337
 4414TIP3   OH237436   1.809   4.716   9.477
 4414TIP3    H137437   1.742   4.665   9.528
 4414TIP3    H237438   1.887   4.716   9.537
 4415TIP3   OH237439   1.900   5.003   9.960
 4415TIP3    H137440   1.934   4.928   9.908
 4415TIP3    H237441   1.824   5.034   9.907
 4416TIP3   OH237442   1.864   4.672   9.104
 4416TIP3    H137443   1.800   4.682   9.029
 4416TIP3    H237444   1.838   4.748   9.160
 4417TIP3   OH237445   1.703   4.400   8.947
 4417TIP3    H137446   1.695   4.458   8.871
 4417TIP3    H237447   1.664   4.315   8.913
 4418TIP3   OH237448   1.623   4.521   9.545
 4418TIP3    H137449   1.577   4.447   9.502
 4418TIP3    H237450   1.573   4.529   9.630
 4419TIP3   OH237451   0.186   4.846   9.945
 4419TIP3    H137452   0.178   4.802   9.859
 4419TIP3    H237453   0.244   4.781   9.989
 4420TIP3   OH237454   1.609   4.154   8.888
 4420TIP3    H137455   1.652   4.098   8.956
 4420TIP3    H237456   1.527   4.106   8.866
 4421TIP3   OH237457   1.528   4.321   9.376
 4421TIP3    H137458   1.551   4.229   9.402
 4421TIP3    H237459   1.614   4.342   9.336
 4422TIP3   OH237460   1.642   4.392   9.888
 4422TIP3    H137461   1.740   4.386   9.898
 4422TIP3    H237462   1.621   4.298   9.909
 4423TIP3   OH237463   1.617   4.068   9.384
 4423TIP3    H137464   1.654   4.022   9.461
 4423TIP3    H237465   1.559   3.997   9.350
 4424TIP3   OH237466   0.159   4.117   9.889
 4424TIP3    H137467   0.200   4.029   9.879
 4424TIP3    H237468   0.229   4.165   9.937
 4425TIP3   OH237469   0.104   4.419  10.010
 4425TIP3    H137470   0.126   4.397   9.918
 4425TIP3    H237471   0.061   4.506   9.996
 4426TIP3   OH237472   1.805   4.028   9.059
 4426TIP3    H137473   1.846   3.978   8.984
 4426TIP3    H237474   1.868   4.101   9.070
 4427TIP3   OH237475   0.103   4.029   9.335
 4427TIP3    H137476   0.022   4.057   9.382
 4427TIP3    H237477   0.098   4.086   9.255
 4428TIP3   OH237478   1.518   5.537   9.563
 4428TIP3    H137479   1.593   5.520   9.502
 4428TIP3    H237480   1.555   5.598   9.629
 4429TIP3   OH237481   0.282   5.528   9.918
 4429TIP3    H137482   0.300   5.549  10.011
 4429TIP3    H237483   0.365   5.480   9.896
 4430TIP3   OH237484   0.453   5.369   9.781
 4430TIP3    H137485   0.429   5.275   9.792
 4430TIP3    H237486   0.541   5.372   9.825
 4431TIP3   OH237487   0.708   5.421   9.892
 4431TIP3    H137488   0.739   5.332   9.864
 4431TIP3    H237489   0.752   5.428   9.977
 4432TIP3   OH237490   1.058   4.038   9.788
 4432TIP3    H137491   0.993   3.969   9.815
 4432TIP3    H237492   1.137   3.981   9.786
 4433TIP3   OH237493   1.602   3.838   9.792
 4433TIP3    H137494   1.653   3.879   9.718
 4433TIP3    H237495   1.509   3.866   9.773
 4434TIP3   OH237496   1.757   3.921   9.582
 4434TIP3    H137497   1.827   3.871   9.536
 4434TIP3    H237498   1.806   4.005   9.601
 4435TIP3   OH237499   0.326   3.830   9.547
 4435TIP3    H137500   0.241   3.810   9.500
 4435TIP3    H237501   0.374   3.746   9.532
 4436TIP3   OH237502   0.221   3.835   9.192
 4436TIP3    H137503   0.226   3.875   9.104
 4436TIP3    H237504   0.176   3.905   9.246
 4437TIP3   OH237505   0.732   3.790   9.565
 4437TIP3    H137506   0.811   3.837   9.535
 4437TIP3    H237507   0.740   3.792   9.661
 4438TIP3   OH237508   1.346   3.868   9.702
 4438TIP3    H137509   1.315   3.893   9.615
 4438TIP3    H237510   1.301   3.781   9.716
 4439TIP3   OH237511   1.441   3.867   9.330
 4439TIP3    H137512   1.359   3.919   9.336
 4439TIP3    H237513   1.412   3.774   9.344
 4440TIP3   OH237514   0.196   5.465   9.261
 4440TIP3    H137515   0.100   5.475   9.249
 4440TIP3    H237516   0.223   5.554   9.229
 4441TIP3   OH237517   0.306   4.010   8.988
 4441TIP3    H137518   0.376   3.961   8.941
 4441TIP3    H237519   0.343   4.019   9.077
 4442TIP3   OH237520   0.871   4.066   9.210
 4442TIP3    H137521   0.915   4.010   9.277
 4442TIP3    H237522   0.882   4.152   9.255
 4443TIP3   OH237523   1.067   5.567   9.088
 4443TIP3    H137524   1.161   5.576   9.062
 4443TIP3    H237525   1.039   5.512   9.011
 4444TIP3   OH237526   1.707   5.474   9.375
 4444TIP3    H137527   1.683   5.395   9.320
 4444TIP3    H237528   1.707   5.545   9.307
 4445TIP3   OH237529   0.323   5.469   8.958
 4445TIP3    H137530   0.307   5.511   9.043
 4445TIP3    H237531   0.417   5.448   8.964
 4446TIP3   OH237532   3.104   4.784   9.543
 4446TIP3    H137533   3.100   4.880   9.560
 4446TIP3    H237534   3.020   4.771   9.498
 4447TIP3   OH237535   2.984   4.686   9.884
 4447TIP3    H137536   2.981   4.637   9.968
 4447TIP3    H237537   2.924   4.634   9.828
 4448TIP3   OH237538   3.272   4.979   9.720
 4448TIP3    H137539   3.254   4.903   9.781
 4448TIP3    H237540   3.313   5.043   9.783
 4449TIP3   OH237541   2.316   5.121   9.884
 4449TIP3    H137542   2.295   5.026   9.874
 4449TIP3    H237543   2.413   5.121   9.872
 4450TIP3   OH237544   1.994   4.420   9.483
 4450TIP3    H137545   1.972   4.513   9.495
 4450TIP3    H237546   1.914   4.387   9.439
 4451TIP3   OH237547   2.050   4.682   9.647
 4451TIP3    H137548   2.090   4.608   9.698
 4451TIP3    H237549   2.126   4.738   9.623
 4452TIP3   OH237550   3.057   5.535   9.769
 4452TIP3    H137551   3.119   5.482   9.714
 4452TIP3    H237552   3.014   5.461   9.813
 4453TIP3   OH237553   2.850   4.929  10.013
 4453TIP3    H137554   2.902   4.871   9.955
 4453TIP3    H237555   2.912   4.944  10.086
 4454TIP3   OH237556   3.125   4.385   9.983
 4454TIP3    H137557   3.152   4.291   9.992
 4454TIP3    H237558   3.132   4.396   9.887
 4455TIP3   OH237559   2.481   4.161   9.710
 4455TIP3    H137560   2.496   4.240   9.653
 4455TIP3    H237561   2.421   4.110   9.651
 4456TIP3   OH237562   3.184   4.225   9.547
 4456TIP3    H137563   3.240   4.179   9.615
 4456TIP3    H237564   3.254   4.278   9.505
 4457TIP3   OH237565   2.107   4.420   9.775
 4457TIP3    H137566   2.167   4.355   9.818
 4457TIP3    H237567   2.111   4.389   9.682
 4458TIP3   OH237568   2.599   4.577   9.711
 4458TIP3    H137569   2.671   4.523   9.749
 4458TIP3    H237570   2.545   4.508   9.666
 4459TIP3   OH237571   3.016   5.016   9.438
 4459TIP3    H137572   3.003   5.015   9.342
 4459TIP3    H237573   3.005   5.113   9.453
 4460TIP3   OH237574   3.367   4.153   9.720
 4460TIP3    H137575   3.307   4.128   9.795
 4460TIP3    H237576   3.454   4.126   9.756
 4461TIP3   OH237577   2.304   4.271   9.894
 4461TIP3    H137578   2.334   4.364   9.895
 4461TIP3    H237579   2.351   4.236   9.816
 4462TIP3   OH237580   2.041   4.990   9.289
 4462TIP3    H137581   2.033   5.044   9.207
 4462TIP3    H237582   2.054   5.060   9.355
 4463TIP3   OH237583   3.396   5.139   9.890
 4463TIP3    H137584   3.383   5.074   9.962
 4463TIP3    H237585   3.442   5.207   9.939
 4464TIP3   OH237586   2.723   3.839   9.813
 4464TIP3    H137587   2.746   3.746   9.828
 4464TIP3    H237588   2.630   3.845   9.846
 4465TIP3   OH237589   3.197   5.372   9.621
 4465TIP3    H137590   3.242   5.290   9.594
 4465TIP3    H237591   3.269   5.437   9.600
 4466TIP3   OH237592   3.356   5.165   9.508
 4466TIP3    H137593   3.343   5.103   9.434
 4466TIP3    H237594   3.341   5.106   9.584
 4467TIP3   OH237595   2.943   4.704   9.288
 4467TIP3    H137596   2.898   4.787   9.268
 4467TIP3    H237597   3.032   4.715   9.249
 4468TIP3   OH237598   2.981   4.596   8.986
 4468TIP3    H137599   3.041   4.629   9.057
 4468TIP3    H237600   3.006   4.502   8.983
 4469TIP3   OH237601   3.324   4.688   9.397
 4469TIP3    H137602   3.256   4.721   9.461
 4469TIP3    H237603   3.394   4.652   9.456
 4470TIP3   OH237604   2.468   4.764   9.577
 4470TIP3    H137605   2.429   4.717   9.501
 4470TIP3    H237606   2.530   4.698   9.615
 4471TIP3   OH237607   2.605   5.147   9.855
 4471TIP3    H137608   2.598   5.120   9.762
 4471TIP3    H237609   2.662   5.075   9.889
 4472TIP3   OH237610   2.445   4.590   9.935
 4472TIP3    H137611   2.496   4.597   9.852
 4472TIP3    H237612   2.468   4.674   9.979
 4473TIP3   OH237613   3.182   4.684   9.166
 4473TIP3    H137614   3.241   4.697   9.244
 4473TIP3    H237615   3.242   4.709   9.091
 4474TIP3   OH237616   2.980   5.277   9.462
 4474TIP3    H137617   3.043   5.312   9.529
 4474TIP3    H237618   2.928   5.355   9.440
 4475TIP3   OH237619   3.570   3.788   9.199
 4475TIP3    H137620   3.476   3.813   9.207
 4475TIP3    H237621   3.613   3.874   9.176
 4476TIP3   OH237622   2.320   4.667   9.353
 4476TIP3    H137623   2.305   4.749   9.301
 4476TIP3    H237624   2.297   4.599   9.289
 4477TIP3   OH237625   3.684   5.234   9.012
 4477TIP3    H137626   3.704   5.330   9.022
 4477TIP3    H237627   3.774   5.197   9.024
 4478TIP3   OH237628   1.961   5.244   9.845
 4478TIP3    H137629   2.019   5.175   9.881
 4478TIP3    H237630   1.916   5.272   9.926
 4479TIP3   OH237631   2.937   5.586   9.349
 4479TIP3    H137632   2.932   5.601   9.253
 4479TIP3    H237633   2.913   5.676   9.382
 4480TIP3   OH237634   2.287   5.460   9.528
 4480TIP3    H137635   2.304   5.442   9.623
 4480TIP3    H237636   2.195   5.427   9.518
 4481TIP3   OH237637   3.229   5.517   9.038
 4481TIP3    H137638   3.282   5.442   9.005
 4481TIP3    H237639   3.232   5.503   9.135
 4482TIP3   OH237640   3.192   5.517   9.315
 4482TIP3    H137641   3.096   5.531   9.335
 4482TIP3    H237642   3.211   5.447   9.379
 4483TIP3   OH237643   2.462   3.918   9.903
 4483TIP3    H137644   2.385   3.915   9.843
 4483TIP3    H237645   2.457   4.010   9.929
 4484TIP3   OH237646   3.353   4.777   8.986
 4484TIP3    H137647   3.336   4.796   8.891
 4484TIP3    H237648   3.449   4.791   8.989
 4485TIP3   OH237649   2.905   4.132   8.994
 4485TIP3    H137650   2.865   4.130   9.082
 4485TIP3    H237651   2.849   4.066   8.950
 4486TIP3   OH237652   2.478   4.387   9.571
 4486TIP3    H137653   2.384   4.361   9.554
 4486TIP3    H237654   2.515   4.387   9.479
 4487TIP3   OH237655   3.040   4.488   9.404
 4487TIP3    H137656   3.002   4.565   9.354
 4487TIP3    H237657   3.099   4.453   9.335
 4488TIP3   OH237658   3.099   4.441   9.708
 4488TIP3    H137659   3.093   4.509   9.638
 4488TIP3    H237660   3.115   4.363   9.652
 4489TIP3   OH237661   2.558   4.174   8.924
 4489TIP3    H137662   2.509   4.133   8.998
 4489TIP3    H237663   2.486   4.207   8.868
 4490TIP3   OH237664   1.896   4.144   9.639
 4490TIP3    H137665   1.960   4.148   9.713
 4490TIP3    H237666   1.950   4.168   9.562
 4491TIP3   OH237667   2.007   4.204   9.139
 4491TIP3    H137668   2.071   4.247   9.078
 4491TIP3    H237669   1.944   4.278   9.153
 4492TIP3   OH237670   2.767   4.169   9.616
 4492TIP3    H137671   2.686   4.165   9.669
 4492TIP3    H237672   2.829   4.126   9.678
 4493TIP3   OH237673   2.218   4.291   9.556
 4493TIP3    H137674   2.144   4.338   9.511
 4493TIP3    H237675   2.222   4.203   9.512
 4494TIP3   OH237676   2.562   4.366   9.317
 4494TIP3    H137677   2.650   4.352   9.280
 4494TIP3    H237678   2.518   4.415   9.246
 4495TIP3   OH237679   3.186   4.133   9.916
 4495TIP3    H137680   3.185   4.108  10.010
 4495TIP3    H237681   3.092   4.121   9.894
 4496TIP3   OH237682   2.444   4.473   9.044
 4496TIP3    H137683   2.413   4.411   8.977
 4496TIP3    H237684   2.528   4.499   9.002
 4497TIP3   OH237685   2.846   4.425   9.843
 4497TIP3    H137686   2.913   4.429   9.772
 4497TIP3    H237687   2.894   4.373   9.909
 4498TIP3   OH237688   2.306   4.049   9.485
 4498TIP3    H137689   2.244   3.986   9.527
 4498TIP3    H237690   2.358   3.985   9.434
 4499TIP3   OH237691   2.784   4.921   9.254
 4499TIP3    H137692   2.708   4.874   9.213
 4499TIP3    H237693   2.745   4.942   9.343
 4500TIP3   OH237694   3.145   4.178   9.085
 4500TIP3    H137695   3.054   4.175   9.046
 4500TIP3    H237696   3.160   4.274   9.094
 4501TIP3   OH237697   3.221   4.412   9.196
 4501TIP3    H137698   3.285   4.380   9.262
 4501TIP3    H237699   3.258   4.499   9.174
 4502TIP3   OH237700   2.263   4.858   9.826
 4502TIP3    H137701   2.283   4.852   9.732
 4502TIP3    H237702   2.348   4.835   9.867
 4503TIP3   OH237703   2.983   5.062   9.151
 4503TIP3    H137704   2.946   5.152   9.169
 4503TIP3    H237705   2.910   5.003   9.180
 4504TIP3   OH237706   3.697   4.380   9.201
 4504TIP3    H137707   3.653   4.383   9.113
 4504TIP3    H237708   3.730   4.472   9.206
 4505TIP3   OH237709   3.515   5.275   9.228
 4505TIP3    H137710   3.500   5.206   9.294
 4505TIP3    H237711   3.562   5.230   9.156
 4506TIP3   OH237712   3.252   4.762   9.897
 4506TIP3    H137713   3.159   4.729   9.887
 4506TIP3    H237714   3.301   4.700   9.840
 4507TIP3   OH237715   2.525   5.211   9.571
 4507TIP3    H137716   2.549   5.292   9.521
 4507TIP3    H237717   2.430   5.210   9.552
 4508TIP3   OH237718   2.134   4.686   9.044
 4508TIP3    H137719   2.177   4.739   9.114
 4508TIP3    H237720   2.037   4.698   9.059
 4509TIP3   OH237721   2.636   4.958   9.478
 4509TIP3    H137722   2.608   5.041   9.521
 4509TIP3    H237723   2.597   4.889   9.535
 4510TIP3   OH237724   2.551   5.449   9.452
 4510TIP3    H137725   2.454   5.460   9.462
 4510TIP3    H237726   2.581   5.533   9.493
 4511TIP3   OH237727   3.311   5.094   9.019
 4511TIP3    H137728   3.325   5.056   9.108
 4511TIP3    H237729   3.219   5.070   9.009
 4512TIP3   OH237730   3.735   5.502   9.060
 4512TIP3    H137731   3.783   5.566   9.006
 4512TIP3    H237732   3.667   5.559   9.103
 4513TIP3   OH237733   3.383   4.952   9.253
 4513TIP3    H137734   3.349   4.870   9.291
 4513TIP3    H237735   3.480   4.934   9.250
 4514TIP3   OH237736   2.707   5.216   8.888
 4514TIP3    H137737   2.691   5.163   8.809
 4514TIP3    H237738   2.649   5.171   8.953
 4515TIP3   OH237739   2.578   5.137   9.117
 4515TIP3    H137740   2.655   5.098   9.162
 4515TIP3    H237741   2.589   5.231   9.145
 4516TIP3   OH237742   2.264   4.878   9.182
 4516TIP3    H137743   2.180   4.907   9.225
 4516TIP3    H237744   2.292   4.960   9.137
 4517TIP3   OH237745   3.112   4.077   9.336
 4517TIP3    H137746   3.129   4.123   9.251
 4517TIP3    H237747   3.144   4.140   9.403
 4518TIP3   OH237748   2.883   5.317   9.172
 4518TIP3    H137749   2.793   5.348   9.197
 4518TIP3    H237750   2.930   5.402   9.165
 4519TIP3   OH237751   2.829   4.271   9.368
 4519TIP3    H137752   2.888   4.347   9.388
 4519TIP3    H237753   2.793   4.246   9.456
 4520TIP3   OH237754   2.895   3.956   9.440
 4520TIP3    H137755   2.864   4.025   9.501
 4520TIP3    H237756   2.975   4.003   9.403
 4521TIP3   OH237757   2.615   5.384   9.187
 4521TIP3    H137758   2.626   5.463   9.128
 4521TIP3    H237759   2.578   5.428   9.265
 4522TIP3   OH237760   2.458   4.075   9.155
 4522TIP3    H137761   2.432   4.141   9.221
 4522TIP3    H237762   2.553   4.064   9.178
 4523TIP3   OH237763   3.357   4.562   9.755
 4523TIP3    H137764   3.279   4.507   9.774
 4523TIP3    H237765   3.424   4.518   9.814
 4524TIP3   OH237766   2.308   5.128   9.039
 4524TIP3    H137767   2.383   5.159   9.093
 4524TIP3    H237768   2.358   5.079   8.971
 4525TIP3   OH237769   2.132   4.406   8.974
 4525TIP3    H137770   2.170   4.488   9.012
 4525TIP3    H237771   2.050   4.439   8.934
 4526TIP3   OH237772   3.482   5.493   9.965
 4526TIP3    H137773   3.493   5.569   9.902
 4526TIP3    H237774   3.567   5.491  10.010
 4527TIP3   OH237775   2.220   3.904   9.791
 4527TIP3    H137776   2.207   3.867   9.700
 4527TIP3    H237777   2.209   3.823   9.844
 4528TIP3   OH237778   2.089   5.247   9.446
 4528TIP3    H137779   2.011   5.299   9.471
 4528TIP3    H237780   2.114   5.294   9.364
 4529TIP3   OH237781   2.924   5.406   8.875
 4529TIP3    H137782   2.873   5.326   8.899
 4529TIP3    H237783   3.005   5.368   8.833
 4530TIP3   OH237784   3.373   5.337   8.889
 4530TIP3    H137785   3.384   5.264   8.954
 4530TIP3    H237786   3.459   5.339   8.844
 4531TIP3   OH237787   2.454   4.950   8.878
 4531TIP3    H137788   2.481   4.912   8.962
 4531TIP3    H237789   2.533   4.932   8.822
 4532TIP3   OH237790   3.020   5.076   8.867
 4532TIP3    H137791   2.984   5.060   8.957
 4532TIP3    H237792   3.021   4.983   8.833
 4533TIP3   OH237793   2.583   4.769   9.139
 4533TIP3    H137794   2.513   4.716   9.181
 4533TIP3    H237795   2.626   4.702   9.083
 4534TIP3   OH237796   2.701   4.586   8.937
 4534TIP3    H137797   2.698   4.611   8.842
 4534TIP3    H237798   2.798   4.587   8.953
 4535TIP3   OH237799   3.622   4.790   8.884
 4535TIP3    H137800   3.602   4.759   8.793
 4535TIP3    H237801   3.616   4.889   8.873
 4536TIP3   OH237802   2.669   5.628   9.099
 4536TIP3    H137803   2.767   5.626   9.098
 4536TIP3    H237804   2.655   5.689   9.023
 4537TIP3   OH237805   2.028   5.097   9.030
 4537TIP3    H137806   2.126   5.105   9.017
 4537TIP3    H237807   2.004   5.036   8.955
 4538TIP3   OH237808   1.923   5.597   9.476
 4538TIP3    H137809   1.837   5.552   9.455
 4538TIP3    H237810   1.942   5.555   9.563
 4539TIP3   OH237811   1.984   5.446   9.682
 4539TIP3    H137812   1.958   5.359   9.720
 4539TIP3    H237813   2.015   5.492   9.762
 4540TIP3   OH237814   3.653   4.895   9.263
 4540TIP3    H137815   3.742   4.935   9.275
 4540TIP3    H237816   3.651   4.832   9.338
 4541TIP3   OH237817   3.691   4.726   9.477
 4541TIP3    H137818   3.623   4.672   9.522
 4541TIP3    H237819   3.769   4.720   9.536
 4542TIP3   OH237820   3.722   4.992   9.964
 4542TIP3    H137821   3.781   4.924   9.925
 4542TIP3    H237822   3.707   5.056   9.892
 4543TIP3   OH237823   3.753   4.676   9.099
 4543TIP3    H137824   3.685   4.693   9.031
 4543TIP3    H237825   3.731   4.747   9.162
 4544TIP3   OH237826   3.575   4.401   8.942
 4544TIP3    H137827   3.579   4.460   8.866
 4544TIP3    H237828   3.545   4.316   8.902
 4545TIP3   OH237829   3.507   4.536   9.539
 4545TIP3    H137830   3.470   4.454   9.500
 4545TIP3    H237831   3.459   4.540   9.625
 4546TIP3   OH237832   1.962   4.739   9.888
 4546TIP3    H137833   2.003   4.732   9.799
 4546TIP3    H237834   2.042   4.735   9.945
 4547TIP3   OH237835   3.509   4.142   8.863
 4547TIP3    H137836   3.548   4.101   8.943
 4547TIP3    H237837   3.416   4.117   8.866
 4548TIP3   OH237838   3.420   4.329   9.386
 4548TIP3    H137839   3.438   4.233   9.401
 4548TIP3    H237840   3.500   4.346   9.333
 4549TIP3   OH237841   3.517   4.398   9.886
 4549TIP3    H137842   3.609   4.374   9.869
 4549TIP3    H237843   3.487   4.311   9.920
 4550TIP3   OH237844   3.503   4.079   9.389
 4550TIP3    H137845   3.536   4.031   9.466
 4550TIP3    H237846   3.457   4.008   9.341
 4551TIP3   OH237847   2.063   4.122   9.865
 4551TIP3    H137848   2.107   4.037   9.843
 4551TIP3    H237849   2.132   4.165   9.919
 4552TIP3   OH237850   1.907   4.396   9.972
 4552TIP3    H137851   1.952   4.358   9.893
 4552TIP3    H237852   1.942   4.486   9.969
 4553TIP3   OH237853   3.692   4.024   9.059
 4553TIP3    H137854   3.730   3.977   8.981
 4553TIP3    H237855   3.770   4.071   9.094
 4554TIP3   OH237856   1.932   4.040   9.340
 4554TIP3    H137857   1.838   4.061   9.345
 4554TIP3    H237858   1.960   4.094   9.264
 4555TIP3   OH237859   3.391   5.541   9.556
 4555TIP3    H137860   3.472   5.513   9.508
 4555TIP3    H237861   3.424   5.608   9.617
 4556TIP3   OH237862   2.157   5.542   9.892
 4556TIP3    H137863   2.140   5.512   9.983
 4556TIP3    H237864   2.220   5.474   9.859
 4557TIP3   OH237865   2.336   5.375   9.784
 4557TIP3    H137866   2.296   5.285   9.779
 4557TIP3    H237867   2.423   5.354   9.819
 4558TIP3   OH237868   2.595   5.434   9.902
 4558TIP3    H137869   2.615   5.387   9.819
 4558TIP3    H237870   2.636   5.370   9.963
 4559TIP3   OH237871   2.945   4.040   9.792
 4559TIP3    H137872   2.886   3.967   9.819
 4559TIP3    H237873   3.026   3.989   9.774
 4560TIP3   OH237874   3.488   3.840   9.792
 4560TIP3    H137875   3.539   3.881   9.717
 4560TIP3    H237876   3.395   3.863   9.771
 4561TIP3   OH237877   3.639   3.922   9.583
 4561TIP3    H137878   3.704   3.868   9.534
 4561TIP3    H237879   3.692   4.003   9.604
 4562TIP3   OH237880   2.175   3.825   9.543
 4562TIP3    H137881   2.094   3.805   9.492
 4562TIP3    H237882   2.218   3.736   9.541
 4563TIP3   OH237883   2.089   3.836   9.160
 4563TIP3    H137884   2.114   3.905   9.096
 4563TIP3    H237885   2.018   3.881   9.209
 4564TIP3   OH237886   2.612   3.803   9.560
 4564TIP3    H137887   2.686   3.835   9.508
 4564TIP3    H237888   2.647   3.813   9.650
 4565TIP3   OH237889   3.232   3.864   9.701
 4565TIP3    H137890   3.211   3.882   9.609
 4565TIP3    H237891   3.182   3.782   9.721
 4566TIP3   OH237892   3.334   3.869   9.320
 4566TIP3    H137893   3.251   3.919   9.328
 4566TIP3    H237894   3.306   3.777   9.341
 4567TIP3   OH237895   2.066   5.439   9.256
 4567TIP3    H137896   1.969   5.443   9.249
 4567TIP3    H237897   2.087   5.526   9.217
 4568TIP3   OH237898   2.190   4.026   8.979
 4568TIP3    H137899   2.252   3.967   8.932
 4568TIP3    H237900   2.242   4.049   9.058
 4569TIP3   OH237901   2.739   4.067   9.216
 4569TIP3    H137902   2.773   4.001   9.280
 4569TIP3    H237903   2.768   4.149   9.262
 4570TIP3   OH237904   2.956   5.576   9.075
 4570TIP3    H137905   3.052   5.576   9.058
 4570TIP3    H237906   2.929   5.519   8.999
 4571TIP3   OH237907   3.591   5.475   9.379
 4571TIP3    H137908   3.564   5.399   9.322
 4571TIP3    H237909   3.595   5.547   9.313
 4572TIP3   OH237910   2.191   5.527   8.940
 4572TIP3    H137911   2.172   5.551   9.032
 4572TIP3    H237912   2.260   5.459   8.953
 4573TIP3   OH237913   4.997   4.787   9.540
 4573TIP3    H137914   4.995   4.881   9.568
 4573TIP3    H237915   4.908   4.777   9.503
 4574TIP3   OH237916   4.852   4.669   9.882
 4574TIP3    H137917   4.865   4.658   9.978
 4574TIP3    H237918   4.792   4.596   9.860
 4575TIP3   OH237919   5.162   4.986   9.705
 4575TIP3    H137920   5.152   4.904   9.757
 4575TIP3    H237921   5.204   5.044   9.773
 4576TIP3   OH237922   4.215   5.113   9.897
 4576TIP3    H137923   4.198   5.020   9.872
 4576TIP3    H237924   4.311   5.121   9.884
 4577TIP3   OH237925   3.871   4.394   9.462
 4577TIP3    H137926   3.870   4.484   9.497
 4577TIP3    H237927   3.779   4.386   9.432
 4578TIP3   OH237928   3.939   4.681   9.670
 4578TIP3    H137929   3.974   4.603   9.718
 4578TIP3    H237930   4.003   4.750   9.695
 4579TIP3   OH237931   4.933   5.543   9.770
 4579TIP3    H137932   4.993   5.485   9.719
 4579TIP3    H237933   4.901   5.476   9.831
 4580TIP3   OH237934   4.720   4.976   9.980
 4580TIP3    H137935   4.757   4.925   9.907
 4580TIP3    H237936   4.783   4.940  10.048
 4581TIP3   OH237937   5.024   4.385   9.984
 4581TIP3    H137938   5.035   4.290   9.996
 4581TIP3    H237939   5.017   4.393   9.887
 4582TIP3   OH237940   4.363   4.164   9.708
 4582TIP3    H137941   4.377   4.239   9.646
 4582TIP3    H237942   4.317   4.102   9.649
 4583TIP3   OH237943   5.074   4.221   9.551
 4583TIP3    H137944   5.130   4.171   9.615
 4583TIP3    H237945   5.143   4.276   9.510
 4584TIP3   OH237946   3.979   4.407   9.758
 4584TIP3    H137947   4.042   4.350   9.806
 4584TIP3    H237948   4.002   4.384   9.665
 4585TIP3   OH237949   4.490   4.579   9.716
 4585TIP3    H137950   4.560   4.522   9.753
 4585TIP3    H237951   4.442   4.512   9.661
 4586TIP3   OH237952   4.907   5.028   9.433
 4586TIP3    H137953   4.888   5.020   9.337
 4586TIP3    H237954   4.891   5.124   9.446
 4587TIP3   OH237955   5.257   4.138   9.716
 4587TIP3    H137956   5.198   4.120   9.793
 4587TIP3    H237957   5.344   4.127   9.756
 4588TIP3   OH237958   4.183   4.274   9.890
 4588TIP3    H137959   4.219   4.364   9.899
 4588TIP3    H237960   4.231   4.242   9.811
 4589TIP3   OH237961   3.918   4.986   9.268
 4589TIP3    H137962   3.910   5.040   9.186
 4589TIP3    H237963   3.932   5.054   9.336
 4590TIP3   OH237964   5.288   5.130   9.894
 4590TIP3    H137965   5.247   5.077   9.966
 4590TIP3    H237966   5.349   5.181   9.947
 4591TIP3   OH237967   4.607   3.835   9.819
 4591TIP3    H137968   4.630   3.740   9.826
 4591TIP3    H237969   4.517   3.842   9.858
 4592TIP3   OH237970   5.094   5.387   9.640
 4592TIP3    H137971   5.129   5.304   9.601
 4592TIP3    H237972   5.169   5.447   9.616
 4593TIP3   OH237973   5.229   5.180   9.509
 4593TIP3    H137974   5.206   5.122   9.434
 4593TIP3    H237975   5.222   5.116   9.584
 4594TIP3   OH237976   4.829   4.693   9.282
 4594TIP3    H137977   4.784   4.781   9.279
 4594TIP3    H237978   4.917   4.716   9.245
 4595TIP3   OH237979   4.871   4.597   8.981
 4595TIP3    H137980   4.931   4.642   9.043
 4595TIP3    H237981   4.880   4.506   9.013
 4596TIP3   OH237982   5.223   4.701   9.408
 4596TIP3    H137983   5.146   4.734   9.461
 4596TIP3    H237984   5.281   4.665   9.477
 4597TIP3   OH237985   4.344   4.758   9.576
 4597TIP3    H137986   4.307   4.711   9.498
 4597TIP3    H237987   4.410   4.695   9.611
 4598TIP3   OH237988   4.494   5.147   9.871
 4598TIP3    H137989   4.499   5.114   9.780
 4598TIP3    H237990   4.549   5.079   9.917
 4599TIP3   OH237991   4.346   4.587   9.943
 4599TIP3    H137992   4.388   4.591   9.854
 4599TIP3    H237993   4.373   4.673   9.980
 4600TIP3   OH237994   5.081   4.680   9.179
 4600TIP3    H137995   5.146   4.701   9.251
 4600TIP3    H237996   5.135   4.706   9.099
 4601TIP3   OH237997   4.862   5.287   9.465
 4601TIP3    H137998   4.910   5.310   9.545
 4601TIP3    H237999   4.812   5.367   9.446
 4602TIP3   OH238000   5.446   3.781   9.194
 4602TIP3    H138001   5.354   3.796   9.224
 4602TIP3    H238002   5.462   3.857   9.134
 4603TIP3   OH238003   4.205   4.660   9.358
 4603TIP3    H138004   4.186   4.744   9.311
 4603TIP3    H238005   4.188   4.594   9.289
 4604TIP3   OH238006   5.581   5.232   9.027
 4604TIP3    H138007   5.608   5.327   9.025
 4604TIP3    H238008   5.669   5.188   9.029
 4605TIP3   OH238009   3.859   5.244   9.861
 4605TIP3    H138010   3.935   5.191   9.893
 4605TIP3    H238011   3.836   5.299   9.936
 4606TIP3   OH238012   4.809   5.573   9.355
 4606TIP3    H138013   4.814   5.586   9.258
 4606TIP3    H238014   4.798   5.665   9.387
 4607TIP3   OH238015   4.166   5.470   9.524
 4607TIP3    H138016   4.189   5.453   9.618
 4607TIP3    H238017   4.080   5.424   9.516
 4608TIP3   OH238018   5.113   5.524   9.052
 4608TIP3    H138019   5.163   5.445   9.018
 4608TIP3    H238020   5.121   5.513   9.149
 4609TIP3   OH238021   5.072   5.522   9.328
 4609TIP3    H138022   4.978   5.544   9.345
 4609TIP3    H238023   5.083   5.442   9.382
 4610TIP3   OH238024   4.351   3.926   9.914
 4610TIP3    H138025   4.283   3.916   9.843
 4610TIP3    H238026   4.329   4.015   9.943
 4611TIP3   OH238027   5.239   4.777   8.993
 4611TIP3    H138028   5.220   4.785   8.897
 4611TIP3    H238029   5.336   4.793   8.992
 4612TIP3   OH238030   4.795   4.137   8.995
 4612TIP3    H138031   4.753   4.143   9.083
 4612TIP3    H238032   4.732   4.077   8.953
 4613TIP3   OH238033   4.384   4.395   9.568
 4613TIP3    H138034   4.288   4.406   9.551
 4613TIP3    H238035   4.414   4.385   9.473
 4614TIP3   OH238036   4.925   4.491   9.417
 4614TIP3    H138037   4.885   4.563   9.362
 4614TIP3    H238038   4.982   4.451   9.350
 4615TIP3   OH238039   4.990   4.437   9.720
 4615TIP3    H138040   4.970   4.512   9.660
 4615TIP3    H238041   5.008   4.366   9.655
 4616TIP3   OH238042   4.432   4.183   8.931
 4616TIP3    H138043   4.382   4.130   8.998
 4616TIP3    H238044   4.362   4.211   8.869
 4617TIP3   OH238045   3.773   4.144   9.641
 4617TIP3    H138046   3.831   4.152   9.719
 4617TIP3    H238047   3.831   4.174   9.568
 4618TIP3   OH238048   3.886   4.201   9.143
 4618TIP3    H138049   3.953   4.239   9.083
 4618TIP3    H238050   3.827   4.279   9.154
 4619TIP3   OH238051   4.659   4.161   9.627
 4619TIP3    H138052   4.575   4.156   9.676
 4619TIP3    H238053   4.722   4.130   9.695
 4620TIP3   OH238054   4.119   4.316   9.537
 4620TIP3    H138055   4.035   4.334   9.489
 4620TIP3    H238056   4.150   4.235   9.492
 4621TIP3   OH238057   4.438   4.364   9.317
 4621TIP3    H138058   4.532   4.344   9.299
 4621TIP3    H238059   4.408   4.407   9.235
 4622TIP3   OH238060   5.075   4.121   9.922
 4622TIP3    H138061   5.069   4.121  10.019
 4622TIP3    H238062   4.980   4.113   9.900
 4623TIP3   OH238063   4.322   4.472   9.045
 4623TIP3    H138064   4.288   4.404   8.985
 4623TIP3    H238065   4.410   4.485   9.005
 4624TIP3   OH238066   4.727   4.422   9.840
 4624TIP3    H138067   4.805   4.412   9.781
 4624TIP3    H238068   4.762   4.395   9.927
 4625TIP3   OH238069   4.188   4.053   9.485
 4625TIP3    H138070   4.126   3.990   9.528
 4625TIP3    H238071   4.237   3.989   9.433
 4626TIP3   OH238072   4.674   4.913   9.260
 4626TIP3    H138073   4.599   4.866   9.218
 4626TIP3    H238074   4.632   4.938   9.346
 4627TIP3   OH238075   5.046   4.176   9.086
 4627TIP3    H138076   4.960   4.181   9.039
 4627TIP3    H238077   5.060   4.272   9.105
 4628TIP3   OH238078   5.094   4.408   9.205
 4628TIP3    H138079   5.160   4.379   9.270
 4628TIP3    H238080   5.130   4.495   9.182
 4629TIP3   OH238081   4.150   4.855   9.805
 4629TIP3    H138082   4.180   4.865   9.714
 4629TIP3    H238083   4.229   4.820   9.849
 4630TIP3   OH238084   4.868   5.054   9.147
 4630TIP3    H138085   4.824   5.141   9.154
 4630TIP3    H238086   4.797   4.994   9.178
 4631TIP3   OH238087   5.590   4.363   9.205
 4631TIP3    H138088   5.531   4.369   9.127
 4631TIP3    H238089   5.627   4.452   9.206
 4632TIP3   OH238090   5.390   5.292   9.205
 4632TIP3    H138091   5.379   5.224   9.273
 4632TIP3    H238092   5.462   5.256   9.149
 4633TIP3   OH238093   5.147   4.750   9.899
 4633TIP3    H138094   5.049   4.748   9.911
 4633TIP3    H238095   5.160   4.682   9.830
 4634TIP3   OH238096   4.374   5.203   9.596
 4634TIP3    H138097   4.426   5.285   9.594
 4634TIP3    H238098   4.308   5.223   9.528
 4635TIP3   OH238099   4.030   4.698   9.023
 4635TIP3    H138100   4.073   4.757   9.088
 4635TIP3    H238101   3.934   4.708   9.042
 4636TIP3   OH238102   4.529   4.963   9.485
 4636TIP3    H138103   4.486   5.042   9.522
 4636TIP3    H238104   4.484   4.891   9.532
 4637TIP3   OH238105   4.426   5.446   9.444
 4637TIP3    H138106   4.330   5.456   9.457
 4637TIP3    H238107   4.456   5.532   9.481
 4638TIP3   OH238108   5.202   5.085   9.019
 4638TIP3    H138109   5.214   5.055   9.111
 4638TIP3    H238110   5.109   5.063   9.008
 4639TIP3   OH238111   5.640   5.511   9.062
 4639TIP3    H138112   5.710   5.577   9.047
 4639TIP3    H238113   5.570   5.568   9.099
 4640TIP3   OH238114   5.268   4.959   9.261
 4640TIP3    H138115   5.240   4.872   9.296
 4640TIP3    H238116   5.364   4.945   9.250
 4641TIP3   OH238117   4.594   5.230   8.881
 4641TIP3    H138118   4.581   5.166   8.808
 4641TIP3    H238119   4.528   5.198   8.946
 4642TIP3   OH238120   4.466   5.137   9.126
 4642TIP3    H138121   4.539   5.102   9.179
 4642TIP3    H238122   4.473   5.233   9.148
 4643TIP3   OH238123   4.150   4.874   9.185
 4643TIP3    H138124   4.065   4.911   9.215
 4643TIP3    H238125   4.191   4.951   9.143
 4644TIP3   OH238126   4.977   4.097   9.334
 4644TIP3    H138127   5.016   4.130   9.250
 4644TIP3    H238128   5.023   4.150   9.402
 4645TIP3   OH238129   4.756   5.307   9.163
 4645TIP3    H138130   4.668   5.346   9.187
 4645TIP3    H238131   4.811   5.387   9.158
 4646TIP3   OH238132   4.698   4.283   9.390
 4646TIP3    H138133   4.760   4.356   9.410
 4646TIP3    H238134   4.685   4.240   9.478
 4647TIP3   OH238135   4.780   3.953   9.439
 4647TIP3    H138136   4.747   4.022   9.498
 4647TIP3    H238137   4.864   3.996   9.408
 4648TIP3   OH238138   4.499   5.390   9.183
 4648TIP3    H138139   4.511   5.469   9.125
 4648TIP3    H238140   4.462   5.433   9.263
 4649TIP3   OH238141   4.335   4.078   9.160
 4649TIP3    H138142   4.327   4.157   9.216
 4649TIP3    H238143   4.430   4.058   9.172
 4650TIP3   OH238144   5.251   4.549   9.748
 4650TIP3    H138145   5.173   4.502   9.780
 4650TIP3    H238146   5.316   4.519   9.815
 4651TIP3   OH238147   4.189   5.122   9.038
 4651TIP3    H138148   4.264   5.154   9.091
 4651TIP3    H238149   4.235   5.073   8.968
 4652TIP3   OH238150   4.011   4.408   8.982
 4652TIP3    H138151   4.053   4.487   9.021
 4652TIP3    H238152   3.935   4.444   8.935
 4653TIP3   OH238153   5.358   5.489   9.960
 4653TIP3    H138154   5.379   5.569   9.906
 4653TIP3    H238155   5.438   5.477  10.013
 4654TIP3   OH238156   4.118   3.902   9.789
 4654TIP3    H138157   4.099   3.867   9.698
 4654TIP3    H238158   4.099   3.821   9.840
 4655TIP3   OH238159   3.975   5.254   9.449
 4655TIP3    H138160   3.896   5.306   9.470
 4655TIP3    H238161   4.002   5.301   9.368
 4656TIP3   OH238162   4.815   5.406   8.877
 4656TIP3    H138163   4.758   5.328   8.898
 4656TIP3    H238164   4.895   5.363   8.839
 4657TIP3   OH238165   5.256   5.340   8.902
 4657TIP3    H138166   5.274   5.270   8.968
 4657TIP3    H238167   5.335   5.336   8.846
 4658TIP3   OH238168   4.348   4.934   8.876
 4658TIP3    H138169   4.394   4.924   8.961
 4658TIP3    H238170   4.422   4.908   8.815
 4659TIP3   OH238171   4.906   5.070   8.860
 4659TIP3    H138172   4.871   5.057   8.950
 4659TIP3    H238173   4.912   4.975   8.830
 4660TIP3   OH238174   4.465   4.762   9.143
 4660TIP3    H138175   4.400   4.701   9.182
 4660TIP3    H238176   4.506   4.704   9.076
 4661TIP3   OH238177   4.587   4.581   8.939
 4661TIP3    H138178   4.578   4.604   8.845
 4661TIP3    H238179   4.685   4.584   8.949
 4662TIP3   OH238180   5.510   4.796   8.889
 4662TIP3    H138181   5.487   4.766   8.799
 4662TIP3    H238182   5.501   4.895   8.880
 4663TIP3   OH238183   4.548   5.622   9.074
 4663TIP3    H138184   4.644   5.623   9.088
 4663TIP3    H238185   4.542   5.676   8.994
 4664TIP3   OH238186   3.910   5.097   9.023
 4664TIP3    H138187   4.008   5.098   9.017
 4664TIP3    H238188   3.884   5.045   8.943
 4665TIP3   OH238189   3.797   5.608   9.479
 4665TIP3    H138190   3.717   5.557   9.457
 4665TIP3    H238191   3.828   5.558   9.558
 4666TIP3   OH238192   3.888   5.442   9.669
 4666TIP3    H138193   3.855   5.360   9.712
 4666TIP3    H238194   3.937   5.485   9.743
 4667TIP3   OH238195   5.543   4.890   9.247
 4667TIP3    H138196   5.629   4.933   9.269
 4667TIP3    H238197   5.536   4.826   9.321
 4668TIP3   OH238198   5.573   4.716   9.480
 4668TIP3    H138199   5.510   4.653   9.520
 4668TIP3    H238200   5.644   4.719   9.547
 4669TIP3   OH238201   5.607   4.989   9.935
 4669TIP3    H138202   5.685   4.937   9.905
 4669TIP3    H238203   5.598   5.061   9.872
 4670TIP3   OH238204   5.644   4.676   9.090
 4670TIP3    H138205   5.585   4.694   9.013
 4670TIP3    H238206   5.617   4.749   9.148
 4671TIP3   OH238207   5.436   4.390   8.940
 4671TIP3    H138208   5.471   4.455   8.875
 4671TIP3    H238209   5.410   4.319   8.878
 4672TIP3   OH238210   5.409   4.501   9.540
 4672TIP3    H138211   5.354   4.429   9.504
 4672TIP3    H238212   5.358   4.519   9.623
 4673TIP3   OH238213   3.861   4.769   9.912
 4673TIP3    H138214   3.892   4.740   9.824
 4673TIP3    H238215   3.939   4.748   9.968
 4674TIP3   OH238216   5.377   4.123   8.852
 4674TIP3    H138217   5.399   4.104   8.943
 4674TIP3    H238218   5.279   4.112   8.852
 4675TIP3   OH238219   5.290   4.316   9.384
 4675TIP3    H138220   5.326   4.225   9.402
 4675TIP3    H238221   5.368   4.351   9.336
 4676TIP3   OH238222   5.411   4.383   9.882
 4676TIP3    H138223   5.508   4.374   9.890
 4676TIP3    H238224   5.386   4.292   9.910
 4677TIP3   OH238225   5.393   4.055   9.381
 4677TIP3    H138226   5.427   4.010   9.462
 4677TIP3    H238227   5.338   3.985   9.343
 4678TIP3   OH238228   3.947   4.116   9.869
 4678TIP3    H138229   3.990   4.031   9.844
 4678TIP3    H238230   4.021   4.162   9.914
 4679TIP3   OH238231   3.792   4.394   9.974
 4679TIP3    H138232   3.829   4.345   9.898
 4679TIP3    H238233   3.833   4.481   9.961
 4680TIP3   OH238234   5.614   4.007   9.054
 4680TIP3    H138235   5.621   3.947   8.976
 4680TIP3    H238236   5.615   4.092   9.008
 4681TIP3   OH238237   3.802   4.026   9.327
 4681TIP3    H138238   3.713   4.062   9.340
 4681TIP3    H238239   3.838   4.092   9.264
 4682TIP3   OH238240   5.294   5.542   9.557
 4682TIP3    H138241   5.368   5.511   9.502
 4682TIP3    H238242   5.337   5.597   9.624
 4683TIP3   OH238243   4.040   5.538   9.894
 4683TIP3    H138244   4.065   5.547   9.989
 4683TIP3    H238245   4.117   5.487   9.859
 4684TIP3   OH238246   4.228   5.390   9.776
 4684TIP3    H138247   4.224   5.294   9.787
 4684TIP3    H238248   4.315   5.408   9.819
 4685TIP3   OH238249   4.475   5.436   9.888
 4685TIP3    H138250   4.509   5.347   9.866
 4685TIP3    H238251   4.474   5.432   9.984
 4686TIP3   OH238252   4.826   4.032   9.801
 4686TIP3    H138253   4.759   3.962   9.815
 4686TIP3    H238254   4.904   3.974   9.801
 4687TIP3   OH238255   5.384   3.830   9.781
 4687TIP3    H138256   5.438   3.865   9.706
 4687TIP3    H238257   5.296   3.869   9.762
 4688TIP3   OH238258   5.524   3.912   9.576
 4688TIP3    H138259   5.598   3.857   9.542
 4688TIP3    H238260   5.571   3.995   9.602
 4689TIP3   OH238261   4.058   3.821   9.545
 4689TIP3    H138262   3.979   3.812   9.488
 4689TIP3    H238263   4.098   3.731   9.535
 4690TIP3   OH238264   3.966   3.836   9.165
 4690TIP3    H138265   3.990   3.900   9.095
 4690TIP3    H238266   3.903   3.887   9.220
 4691TIP3   OH238267   4.504   3.813   9.568
 4691TIP3    H138268   4.587   3.824   9.520
 4691TIP3    H238269   4.533   3.830   9.659
 4692TIP3   OH238270   5.115   3.865   9.694
 4692TIP3    H138271   5.091   3.893   9.605
 4692TIP3    H238272   5.056   3.789   9.712
 4693TIP3   OH238273   5.212   3.854   9.317
 4693TIP3    H138274   5.143   3.875   9.252
 4693TIP3    H238275   5.180   3.767   9.348
 4694TIP3   OH238276   3.942   5.434   9.248
 4694TIP3    H138277   3.860   5.423   9.195
 4694TIP3    H238278   3.962   5.527   9.226
 4695TIP3   OH238279   4.076   4.035   8.993
 4695TIP3    H138280   4.142   3.981   8.945
 4695TIP3    H238281   4.123   4.052   9.076
 4696TIP3   OH238282   4.625   4.080   9.217
 4696TIP3    H138283   4.655   4.016   9.282
 4696TIP3    H238284   4.657   4.161   9.261
 4697TIP3   OH238285   4.849   5.567   9.086
 4697TIP3    H138286   4.945   5.567   9.067
 4697TIP3    H238287   4.820   5.516   9.007
 4698TIP3   OH238288   5.486   5.474   9.374
 4698TIP3    H138289   5.455   5.406   9.311
 4698TIP3    H238290   5.489   5.551   9.314
 4699TIP3   OH238291   4.066   5.514   8.938
 4699TIP3    H138292   4.046   5.556   9.024
 4699TIP3    H238293   4.147   5.464   8.961
 4700TIP3   OH238294   6.874   4.763   9.542
 4700TIP3    H138295   6.874   4.851   9.583
 4700TIP3    H238296   6.784   4.756   9.507
 4701TIP3   OH238297   6.765   4.683   9.883
 4701TIP3    H138298   6.760   4.636   9.969
 4701TIP3    H238299   6.678   4.664   9.845
 4702TIP3   OH238300   7.025   4.986   9.714
 4702TIP3    H138301   7.012   4.909   9.774
 4702TIP3    H238302   7.083   5.036   9.777
 4703TIP3   OH238303   6.105   5.121   9.887
 4703TIP3    H138304   6.094   5.027   9.861
 4703TIP3    H238305   6.201   5.135   9.871
 4704TIP3   OH238306   5.758   4.433   9.448
 4704TIP3    H138307   5.726   4.522   9.472
 4704TIP3    H238308   5.673   4.389   9.432
 4705TIP3   OH238309   5.817   4.685   9.659
 4705TIP3    H138310   5.863   4.622   9.717
 4705TIP3    H238311   5.870   4.766   9.669
 4706TIP3   OH238312   6.813   5.543   9.767
 4706TIP3    H138313   6.882   5.493   9.717
 4706TIP3    H238314   6.778   5.471   9.821
 4707TIP3   OH238315   6.626   4.940  10.009
 4707TIP3    H138316   6.681   4.889   9.946
 4707TIP3    H238317   6.675   4.926  10.091
 4708TIP3   OH238318   6.895   4.380   9.996
 4708TIP3    H138319   6.909   4.284  10.005
 4708TIP3    H238320   6.925   4.393   9.904
 4709TIP3   OH238321   6.236   4.190   9.704
 4709TIP3    H138322   6.269   4.269   9.658
 4709TIP3    H238323   6.193   4.142   9.631
 4710TIP3   OH238324   6.965   4.198   9.535
 4710TIP3    H138325   7.009   4.152   9.611
 4710TIP3    H238326   7.039   4.256   9.510
 4711TIP3   OH238327   5.868   4.420   9.778
 4711TIP3    H138328   5.930   4.370   9.835
 4711TIP3    H238329   5.885   4.380   9.691
 4712TIP3   OH238330   6.406   4.596   9.715
 4712TIP3    H138331   6.467   4.539   9.765
 4712TIP3    H238332   6.365   4.527   9.659
 4713TIP3   OH238333   6.849   5.014   9.455
 4713TIP3    H138334   6.919   4.965   9.409
 4713TIP3    H238335   6.904   5.062   9.520
 4714TIP3   OH238336   7.135   4.138   9.728
 4714TIP3    H138337   7.080   4.124   9.808
 4714TIP3    H238338   7.226   4.135   9.760
 4715TIP3   OH238339   6.067   4.276   9.890
 4715TIP3    H138340   6.111   4.363   9.893
 4715TIP3    H238341   6.120   4.230   9.821
 4716TIP3   OH238342   5.804   4.990   9.274
 4716TIP3    H138343   5.799   5.050   9.196
 4716TIP3    H238344   5.822   5.055   9.344
 4717TIP3   OH238345   7.193   5.104   9.902
 4717TIP3    H138346   7.159   5.065   9.985
 4717TIP3    H238347   7.201   5.197   9.928
 4718TIP3   OH238348   6.502   3.834   9.796
 4718TIP3    H138349   6.521   3.741   9.816
 4718TIP3    H238350   6.415   3.850   9.838
 4719TIP3   OH238351   6.969   5.378   9.627
 4719TIP3    H138352   7.005   5.293   9.595
 4719TIP3    H238353   7.044   5.439   9.605
 4720TIP3   OH238354   7.098   5.147   9.490
 4720TIP3    H138355   7.126   5.088   9.418
 4720TIP3    H238356   7.122   5.098   9.571
 4721TIP3   OH238357   6.714   4.703   9.285
 4721TIP3    H138358   6.671   4.785   9.256
 4721TIP3    H238359   6.804   4.708   9.244
 4722TIP3   OH238360   6.744   4.585   8.983
 4722TIP3    H138361   6.799   4.626   9.052
 4722TIP3    H238362   6.761   4.492   9.001
 4723TIP3   OH238363   7.089   4.734   9.381
 4723TIP3    H138364   7.015   4.734   9.448
 4723TIP3    H238365   7.153   4.677   9.428
 4724TIP3   OH238366   6.265   4.774   9.565
 4724TIP3    H138367   6.207   4.723   9.505
 4724TIP3    H238368   6.318   4.707   9.613
 4725TIP3   OH238369   6.372   5.146   9.851
 4725TIP3    H138370   6.379   5.119   9.758
 4725TIP3    H238371   6.432   5.085   9.897
 4726TIP3   OH238372   6.242   4.570   9.938
 4726TIP3    H138373   6.287   4.597   9.855
 4726TIP3    H238374   6.254   4.650   9.993
 4727TIP3   OH238375   6.947   4.665   9.167
 4727TIP3    H138376   7.005   4.686   9.244
 4727TIP3    H238377   7.004   4.693   9.092
 4728TIP3   OH238378   6.711   5.263   9.506
 4728TIP3    H138379   6.751   5.284   9.592
 4728TIP3    H238380   6.690   5.353   9.475
 4729TIP3   OH238381   7.323   3.791   9.159
 4729TIP3    H138382   7.228   3.808   9.179
 4729TIP3    H238383   7.362   3.880   9.165
 4730TIP3   OH238384   6.083   4.656   9.369
 4730TIP3    H138385   6.075   4.739   9.318
 4730TIP3    H238386   6.075   4.589   9.300
 4731TIP3   OH238387   7.438   5.270   8.986
 4731TIP3    H138388   7.472   5.362   8.980
 4731TIP3    H238389   7.524   5.226   8.999
 4732TIP3   OH238390   5.725   5.244   9.853
 4732TIP3    H138391   5.808   5.206   9.885
 4732TIP3    H238392   5.682   5.284   9.930
 4733TIP3   OH238393   6.708   5.582   9.367
 4733TIP3    H138394   6.698   5.576   9.268
 4733TIP3    H238395   6.682   5.676   9.381
 4734TIP3   OH238396   6.051   5.463   9.536
 4734TIP3    H138397   6.081   5.448   9.629
 4734TIP3    H238398   5.967   5.413   9.535
 4735TIP3   OH238399   6.996   5.521   9.045
 4735TIP3    H138400   7.042   5.443   9.007
 4735TIP3    H238401   7.004   5.508   9.142
 4736TIP3   OH238402   6.962   5.511   9.321
 4736TIP3    H138403   6.868   5.537   9.335
 4736TIP3    H238404   6.968   5.437   9.380
 4737TIP3   OH238405   6.246   3.911   9.891
 4737TIP3    H138406   6.166   3.904   9.836
 4737TIP3    H238407   6.234   4.002   9.924
 4738TIP3   OH238408   7.114   4.766   8.991
 4738TIP3    H138409   7.090   4.782   8.898
 4738TIP3    H238410   7.209   4.784   8.987
 4739TIP3   OH238411   6.682   4.142   8.990
 4739TIP3    H138412   6.658   4.111   9.079
 4739TIP3    H238413   6.623   4.082   8.941
 4740TIP3   OH238414   6.265   4.424   9.568
 4740TIP3    H138415   6.207   4.498   9.544
 4740TIP3    H238416   6.293   4.392   9.478
 4741TIP3   OH238417   6.813   4.495   9.414
 4741TIP3    H138418   6.770   4.564   9.359
 4741TIP3    H238419   6.876   4.458   9.349
 4742TIP3   OH238420   6.888   4.425   9.714
 4742TIP3    H138421   6.863   4.491   9.646
 4742TIP3    H238422   6.893   4.346   9.657
 4743TIP3   OH238423   6.312   4.150   8.891
 4743TIP3    H138424   6.272   4.110   8.971
 4743TIP3    H238425   6.245   4.215   8.865
 4744TIP3   OH238426   5.659   4.120   9.650
 4744TIP3    H138427   5.718   4.141   9.727
 4744TIP3    H238428   5.723   4.110   9.580
 4745TIP3   OH238429   5.852   4.243   9.198
 4745TIP3    H138430   5.874   4.261   9.103
 4745TIP3    H238431   5.759   4.276   9.199
 4746TIP3   OH238432   6.563   4.177   9.630
 4746TIP3    H138433   6.496   4.185   9.699
 4746TIP3    H238434   6.630   4.123   9.678
 4747TIP3   OH238435   5.970   4.287   9.535
 4747TIP3    H138436   5.913   4.362   9.503
 4747TIP3    H238437   6.060   4.317   9.514
 4748TIP3   OH238438   6.321   4.362   9.314
 4748TIP3    H138439   6.413   4.334   9.299
 4748TIP3    H238440   6.303   4.420   9.238
 4749TIP3   OH238441   6.953   4.114   9.920
 4749TIP3    H138442   6.935   4.088  10.011
 4749TIP3    H238443   6.862   4.113   9.884
 4750TIP3   OH238444   6.210   4.463   9.031
 4750TIP3    H138445   6.185   4.418   8.947
 4750TIP3    H238446   6.299   4.492   9.001
 4751TIP3   OH238447   6.605   4.435   9.835
 4751TIP3    H138448   6.665   4.428   9.759
 4751TIP3    H238449   6.655   4.384   9.901
 4752TIP3   OH238450   6.107   4.036   9.490
 4752TIP3    H138451   6.062   3.961   9.538
 4752TIP3    H238452   6.182   3.989   9.448
 4753TIP3   OH238453   6.534   4.926   9.259
 4753TIP3    H138454   6.470   4.867   9.210
 4753TIP3    H238455   6.483   4.940   9.342
 4754TIP3   OH238456   6.921   4.180   9.091
 4754TIP3    H138457   6.832   4.195   9.051
 4754TIP3    H238458   6.950   4.272   9.109
 4755TIP3   OH238459   7.010   4.401   9.215
 4755TIP3    H138460   7.088   4.389   9.274
 4755TIP3    H238461   7.031   4.481   9.165
 4756TIP3   OH238462   6.043   4.852   9.807
 4756TIP3    H138463   6.101   4.876   9.734
 4756TIP3    H238464   6.105   4.819   9.875
 4757TIP3   OH238465   6.756   5.048   9.164
 4757TIP3    H138466   6.715   5.126   9.122
 4757TIP3    H238467   6.686   4.981   9.157
 4758TIP3   OH238468   7.445   4.376   9.211
 4758TIP3    H138469   7.402   4.362   9.125
 4758TIP3    H238470   7.504   4.452   9.191
 4759TIP3   OH238471   7.307   5.278   9.230
 4759TIP3    H138472   7.258   5.196   9.237
 4759TIP3    H238473   7.353   5.271   9.143
 4760TIP3   OH238474   7.006   4.794   9.896
 4760TIP3    H138475   6.917   4.759   9.873
 4760TIP3    H238476   7.064   4.731   9.848
 4761TIP3   OH238477   6.285   5.214   9.559
 4761TIP3    H138478   6.307   5.297   9.513
 4761TIP3    H238479   6.190   5.212   9.541
 4762TIP3   OH238480   5.924   4.720   9.024
 4762TIP3    H138481   5.965   4.768   9.099
 4762TIP3    H238482   5.828   4.718   9.046
 4763TIP3   OH238483   6.437   4.996   9.499
 4763TIP3    H138484   6.377   5.070   9.523
 4763TIP3    H238485   6.398   4.923   9.552
 4764TIP3   OH238486   6.308   5.468   9.443
 4764TIP3    H138487   6.211   5.479   9.455
 4764TIP3    H238488   6.338   5.548   9.492
 4765TIP3   OH238489   7.090   5.100   9.038
 4765TIP3    H138490   7.118   5.047   9.115
 4765TIP3    H238491   6.996   5.075   9.033
 4766TIP3   OH238492   7.532   5.508   9.036
 4766TIP3    H138493   7.562   5.599   9.020
 4766TIP3    H238494   7.450   5.527   9.084
 4767TIP3   OH238495   7.160   4.954   9.254
 4767TIP3    H138496   7.123   4.866   9.277
 4767TIP3    H238497   7.254   4.928   9.240
 4768TIP3   OH238498   6.506   5.180   8.904
 4768TIP3    H138499   6.479   5.152   8.814
 4768TIP3    H238500   6.424   5.163   8.953
 4769TIP3   OH238501   6.347   5.142   9.127
 4769TIP3    H138502   6.426   5.108   9.171
 4769TIP3    H238503   6.356   5.239   9.140
 4770TIP3   OH238504   6.051   4.883   9.197
 4770TIP3    H138505   5.963   4.908   9.232
 4770TIP3    H238506   6.074   4.960   9.142
 4771TIP3   OH238507   6.853   4.077   9.325
 4771TIP3    H138508   6.895   4.115   9.245
 4771TIP3    H238509   6.897   4.128   9.397
 4772TIP3   OH238510   6.617   5.290   9.207
 4772TIP3    H138511   6.540   5.351   9.212
 4772TIP3    H238512   6.683   5.351   9.168
 4773TIP3   OH238513   6.589   4.262   9.373
 4773TIP3    H138514   6.648   4.339   9.383
 4773TIP3    H238515   6.584   4.226   9.465
 4774TIP3   OH238516   6.661   3.946   9.444
 4774TIP3    H138517   6.630   4.012   9.507
 4774TIP3    H238518   6.734   3.997   9.400
 4775TIP3   OH238519   6.381   5.410   9.173
 4775TIP3    H138520   6.390   5.497   9.128
 4775TIP3    H238521   6.346   5.442   9.258
 4776TIP3   OH238522   6.242   4.075   9.166
 4776TIP3    H138523   6.250   4.161   9.209
 4776TIP3    H238524   6.334   4.043   9.170
 4777TIP3   OH238525   7.093   4.592   9.758
 4777TIP3    H138526   7.016   4.533   9.745
 4777TIP3    H238527   7.152   4.535   9.811
 4778TIP3   OH238528   6.061   5.119   9.045
 4778TIP3    H138529   6.123   5.173   9.098
 4778TIP3    H238530   6.124   5.090   8.976
 4779TIP3   OH238531   5.896   4.391   8.974
 4779TIP3    H138532   5.950   4.467   8.998
 4779TIP3    H238533   5.824   4.434   8.924
 4780TIP3   OH238534   7.268   5.478   9.960
 4780TIP3    H138535   7.250   5.568   9.924
 4780TIP3    H238536   7.353   5.492  10.002
 4781TIP3   OH238537   5.992   3.891   9.792
 4781TIP3    H138538   5.954   3.851   9.711
 4781TIP3    H238539   5.986   3.814   9.852
 4782TIP3   OH238540   5.858   5.248   9.454
 4782TIP3    H138541   5.780   5.306   9.459
 4782TIP3    H238542   5.897   5.288   9.375
 4783TIP3   OH238543   6.704   5.381   8.905
 4783TIP3    H138544   6.638   5.309   8.895
 4783TIP3    H238545   6.773   5.354   8.841
 4784TIP3   OH238546   7.128   5.335   8.897
 4784TIP3    H138547   7.155   5.271   8.964
 4784TIP3    H238548   7.206   5.338   8.838
 4785TIP3   OH238549   6.237   4.943   8.880
 4785TIP3    H138550   6.272   4.921   8.967
 4785TIP3    H238551   6.310   4.917   8.819
 4786TIP3   OH238552   6.783   5.059   8.854
 4786TIP3    H138553   6.704   5.062   8.910
 4786TIP3    H238554   6.785   4.963   8.832
 4787TIP3   OH238555   6.356   4.762   9.136
 4787TIP3    H138556   6.264   4.733   9.141
 4787TIP3    H238557   6.396   4.697   9.073
 4788TIP3   OH238558   6.464   4.584   8.938
 4788TIP3    H138559   6.459   4.630   8.851
 4788TIP3    H238560   6.562   4.574   8.948
 4789TIP3   OH238561   7.376   4.787   8.894
 4789TIP3    H138562   7.350   4.766   8.801
 4789TIP3    H238563   7.371   4.886   8.894
 4790TIP3   OH238564   6.485   5.673   9.179
 4790TIP3    H138565   6.561   5.687   9.122
 4790TIP3    H238566   6.409   5.704   9.122
 4791TIP3   OH238567   5.796   5.088   9.008
 4791TIP3    H138568   5.894   5.094   9.016
 4791TIP3    H238569   5.787   5.038   8.923
 4792TIP3   OH238570   5.692   5.607   9.479
 4792TIP3    H138571   5.612   5.559   9.449
 4792TIP3    H238572   5.712   5.552   9.558
 4793TIP3   OH238573   5.758   5.441   9.673
 4793TIP3    H138574   5.728   5.360   9.719
 4793TIP3    H238575   5.805   5.488   9.745
 4794TIP3   OH238576   7.422   4.880   9.278
 4794TIP3    H138577   7.503   4.926   9.306
 4794TIP3    H238578   7.418   4.813   9.350
 4795TIP3   OH238579   7.460   4.719   9.483
 4795TIP3    H138580   7.375   4.679   9.512
 4795TIP3    H238581   7.513   4.706   9.564
 4796TIP3   OH238582   7.537   4.947   9.950
 4796TIP3    H138583   7.624   4.979   9.920
 4796TIP3    H238584   7.486   5.031   9.946
 4797TIP3   OH238585   7.528   4.695   9.106
 4797TIP3    H138586   7.470   4.712   9.029
 4797TIP3    H238587   7.505   4.771   9.162
 4798TIP3   OH238588   7.321   4.387   8.950
 4798TIP3    H138589   7.348   4.447   8.879
 4798TIP3    H238590   7.297   4.305   8.903
 4799TIP3   OH238591   7.252   4.565   9.552
 4799TIP3    H138592   7.306   4.485   9.563
 4799TIP3    H238593   7.197   4.560   9.633
 4800TIP3   OH238594   5.779   4.786   9.909
 4800TIP3    H138595   5.780   4.735   9.827
 4800TIP3    H238596   5.849   4.746   9.963
 4801TIP3   OH238597   7.259   4.134   8.874
 4801TIP3    H138598   7.253   4.104   8.966
 4801TIP3    H238599   7.170   4.110   8.841
 4802TIP3   OH238600   7.228   4.312   9.368
 4802TIP3    H138601   7.255   4.220   9.386
 4802TIP3    H238602   7.307   4.342   9.318
 4803TIP3   OH238603   7.249   4.397   9.843
 4803TIP3    H138604   7.348   4.400   9.842
 4803TIP3    H238605   7.235   4.311   9.889
 4804TIP3   OH238606   7.255   4.042   9.395
 4804TIP3    H138607   7.268   4.008   9.487
 4804TIP3    H238608   7.197   3.972   9.357
 4805TIP3   OH238609   5.840   4.122   9.862
 4805TIP3    H138610   5.869   4.029   9.858
 4805TIP3    H238611   5.922   4.164   9.896
 4806TIP3   OH238612   5.672   4.395   9.980
 4806TIP3    H138613   5.712   4.350   9.904
 4806TIP3    H238614   5.710   4.484   9.971
 4807TIP3   OH238615   7.494   4.028   9.073
 4807TIP3    H138616   7.526   3.973   9.001
 4807TIP3    H238617   7.523   4.116   9.043
 4808TIP3   OH238618   5.714   4.047   9.334
 4808TIP3    H138619   5.621   4.049   9.360
 4808TIP3    H238620   5.704   4.039   9.237
 4809TIP3   OH238621   7.173   5.547   9.561
 4809TIP3    H138622   7.246   5.516   9.504
 4809TIP3    H238623   7.220   5.600   9.627
 4810TIP3   OH238624   5.914   5.539   9.893
 4810TIP3    H138625   5.938   5.549   9.987
 4810TIP3    H238626   5.990   5.485   9.860
 4811TIP3   OH238627   6.118   5.403   9.786
 4811TIP3    H138628   6.124   5.306   9.792
 4811TIP3    H238629   6.203   5.426   9.828
 4812TIP3   OH238630   6.353   5.447   9.904
 4812TIP3    H138631   6.389   5.359   9.887
 4812TIP3    H238632   6.345   5.449  10.000
 4813TIP3   OH238633   6.725   4.035   9.789
 4813TIP3    H138634   6.665   3.961   9.812
 4813TIP3    H238635   6.803   3.985   9.756
 4814TIP3   OH238636   7.225   3.823   9.829
 4814TIP3    H138637   7.272   3.877   9.761
 4814TIP3    H238638   7.134   3.843   9.804
 4815TIP3   OH238639   7.353   3.937   9.626
 4815TIP3    H138640   7.416   3.874   9.582
 4815TIP3    H238641   7.405   4.020   9.628
 4816TIP3   OH238642   5.941   3.829   9.530
 4816TIP3    H138643   5.859   3.806   9.480
 4816TIP3    H238644   5.989   3.744   9.523
 4817TIP3   OH238645   5.854   3.824   9.160
 4817TIP3    H138646   5.886   3.889   9.094
 4817TIP3    H238647   5.764   3.857   9.175
 4818TIP3   OH238648   6.346   3.814   9.544
 4818TIP3    H138649   6.430   3.825   9.497
 4818TIP3    H238650   6.377   3.812   9.636
 4819TIP3   OH238651   6.930   3.877   9.656
 4819TIP3    H138652   6.935   3.870   9.560
 4819TIP3    H238653   6.904   3.785   9.684
 4820TIP3   OH238654   7.092   3.848   9.316
 4820TIP3    H138655   7.007   3.890   9.301
 4820TIP3    H238656   7.066   3.758   9.344
 4821TIP3   OH238657   5.828   5.427   9.254
 4821TIP3    H138658   5.759   5.417   9.186
 4821TIP3    H238659   5.852   5.520   9.237
 4822TIP3   OH238660   5.950   4.035   8.990
 4822TIP3    H138661   6.014   3.986   8.935
 4822TIP3    H238662   6.005   4.058   9.066
 4823TIP3   OH238663   6.536   4.052   9.202
 4823TIP3    H138664   6.577   3.994   9.269
 4823TIP3    H238665   6.547   4.139   9.247
 4824TIP3   OH238666   6.741   5.566   9.106
 4824TIP3    H138667   6.833   5.564   9.070
 4824TIP3    H238668   6.694   5.521   9.033
 4825TIP3   OH238669   7.362   5.494   9.371
 4825TIP3    H138670   7.346   5.414   9.315
 4825TIP3    H238671   7.356   5.564   9.304
 4826TIP3   OH238672   5.964   5.476   8.944
 4826TIP3    H138673   5.966   5.536   9.020
 4826TIP3    H238674   6.058   5.448   8.941
 4827TIP3   OH238675   7.564   4.471   9.470
 4827TIP3    H138676   7.529   4.556   9.437
 4827TIP3    H238677   7.503   4.407   9.429
 4828TIP3   OH238678   7.546   5.216   9.894
 4828TIP3    H138679   7.642   5.225   9.905
 4828TIP3    H238680   7.510   5.255   9.975
 4829TIP3   OH238681   7.501   4.167   9.598
 4829TIP3    H138682   7.597   4.182   9.618
 4829TIP3    H238683   7.509   4.127   9.508
 4830TIP3   OH238684   7.515   5.632   9.532
 4830TIP3    H138685   7.466   5.578   9.465
 4830TIP3    H238686   7.520   5.566   9.605
 4831TIP3   OH238687   7.545   5.477   9.744
 4831TIP3    H138688   7.494   5.400   9.775
 4831TIP3    H238689   7.637   5.446   9.751
 4832TIP3   OH238690   7.653   4.652   9.929
 4832TIP3    H138691   7.694   4.677   9.843
 4832TIP3    H238692   7.664   4.734   9.981
 4833TIP3   OH238693   7.503   4.431   9.894
 4833TIP3    H138694   7.580   4.374   9.895
 4833TIP3    H238695   7.545   4.514   9.923
 4834TIP3   OH238696   7.517   4.068   9.347
 4834TIP3    H138697   7.420   4.066   9.344
 4834TIP3    H238698   7.539   4.057   9.251
 4835TIP3   OH238699   1.213   6.674   9.541
 4835TIP3    H138700   1.183   6.767   9.553
 4835TIP3    H238701   1.145   6.639   9.481
 4836TIP3   OH238702   1.103   6.574   9.890
 4836TIP3    H138703   1.088   6.527   9.974
 4836TIP3    H238704   1.043   6.528   9.829
 4837TIP3   OH238705   1.417   6.842   9.715
 4837TIP3    H138706   1.404   6.765   9.775
 4837TIP3    H238707   1.455   6.907   9.778
 4838TIP3   OH238708   0.381   6.983   9.876
 4838TIP3    H138709   0.366   6.892   9.838
 4838TIP3    H238710   0.473   6.971   9.906
 4839TIP3   OH238711   0.121   6.290   9.391
 4839TIP3    H138712   0.144   6.374   9.432
 4839TIP3    H238713   0.026   6.287   9.418
 4840TIP3   OH238714   0.129   6.572   9.695
 4840TIP3    H138715   0.159   6.480   9.712
 4840TIP3    H238716   0.210   6.612   9.660
 4841TIP3   OH238717   1.176   7.387   9.777
 4841TIP3    H138718   1.247   7.337   9.729
 4841TIP3    H238719   1.148   7.318   9.840
 4842TIP3   OH238720   0.968   6.855   9.992
 4842TIP3    H138721   1.010   6.789   9.934
 4842TIP3    H238722   1.028   6.852  10.068
 4843TIP3   OH238723   1.225   6.274   9.987
 4843TIP3    H138724   1.253   6.181   9.995
 4843TIP3    H238725   1.239   6.291   9.893
 4844TIP3   OH238726   0.599   6.048   9.718
 4844TIP3    H138727   0.613   6.133   9.670
 4844TIP3    H238728   0.548   6.001   9.650
 4845TIP3   OH238729   1.305   6.097   9.537
 4845TIP3    H138730   1.358   6.059   9.612
 4845TIP3    H238731   1.371   6.160   9.505
 4846TIP3   OH238732   0.230   6.328   9.737
 4846TIP3    H138733   0.294   6.267   9.779
 4846TIP3    H238734   0.242   6.299   9.645
 4847TIP3   OH238735   0.708   6.454   9.709
 4847TIP3    H138736   0.781   6.404   9.750
 4847TIP3    H238737   0.662   6.381   9.663
 4848TIP3   OH238738   1.131   6.920   9.413
 4848TIP3    H138739   1.112   6.923   9.318
 4848TIP3    H238740   1.144   7.013   9.434
 4849TIP3   OH238741   1.485   6.036   9.719
 4849TIP3    H138742   1.425   6.019   9.796
 4849TIP3    H238743   1.569   6.005   9.754
 4850TIP3   OH238744   0.397   6.157   9.879
 4850TIP3    H138745   0.441   6.224   9.932
 4850TIP3    H238746   0.470   6.116   9.828
 4851TIP3   OH238747   0.131   6.863   9.267
 4851TIP3    H138748   0.123   6.917   9.185
 4851TIP3    H238749   0.157   6.929   9.333
 4852TIP3   OH238750   1.499   7.031   9.882
 4852TIP3    H138751   1.473   6.982   9.964
 4852TIP3    H238752   1.552   7.103   9.917
 4853TIP3   OH238753   0.853   5.736   9.847
 4853TIP3    H138754   0.872   5.642   9.843
 4853TIP3    H238755   0.754   5.740   9.860
 4854TIP3   OH238756   1.328   7.257   9.610
 4854TIP3    H138757   1.360   7.165   9.616
 4854TIP3    H238758   1.412   7.300   9.578
 4855TIP3   OH238759   1.474   7.013   9.516
 4855TIP3    H138760   1.451   6.963   9.435
 4855TIP3    H238761   1.458   6.945   9.585
 4856TIP3   OH238762   1.066   6.591   9.291
 4856TIP3    H138763   1.008   6.665   9.264
 4856TIP3    H238764   1.153   6.619   9.254
 4857TIP3   OH238765   1.090   6.476   8.989
 4857TIP3    H138766   1.142   6.508   9.065
 4857TIP3    H238767   1.124   6.385   8.978
 4858TIP3   OH238768   1.448   6.586   9.404
 4858TIP3    H138769   1.374   6.621   9.459
 4858TIP3    H238770   1.511   6.553   9.472
 4859TIP3   OH238771   0.590   6.653   9.582
 4859TIP3    H138772   0.545   6.622   9.501
 4859TIP3    H238773   0.642   6.576   9.613
 4860TIP3   OH238774   0.741   7.012   9.858
 4860TIP3    H138775   0.714   6.967   9.776
 4860TIP3    H238776   0.809   6.953   9.895
 4861TIP3   OH238777   0.560   6.558   9.940
 4861TIP3    H138778   0.605   6.541   9.855
 4861TIP3    H238779   0.630   6.545  10.005
 4862TIP3   OH238780   1.300   6.568   9.168
 4862TIP3    H138781   1.360   6.575   9.246
 4862TIP3    H238782   1.361   6.589   9.092
 4863TIP3   OH238783   1.047   7.294   9.547
 4863TIP3    H138784   1.111   7.225   9.569
 4863TIP3    H238785   1.081   7.364   9.608
 4864TIP3   OH238786   1.688   5.676   9.206
 4864TIP3    H138787   1.600   5.698   9.244
 4864TIP3    H238788   1.717   5.761   9.167
 4865TIP3   OH238789   0.451   6.544   9.350
 4865TIP3    H138790   0.443   6.629   9.301
 4865TIP3    H238791   0.412   6.483   9.287
 4866TIP3   OH238792   1.797   7.118   9.026
 4866TIP3    H138793   1.828   7.212   9.022
 4866TIP3    H238794   1.881   7.067   9.032
 4867TIP3   OH238795   0.134   7.100   9.862
 4867TIP3    H138796   0.217   7.050   9.880
 4867TIP3    H238797   0.158   7.188   9.896
 4868TIP3   OH238798   0.980   7.494   9.328
 4868TIP3    H138799   1.014   7.488   9.236
 4868TIP3    H238800   1.005   7.584   9.353
 4869TIP3   OH238801   0.404   7.342   9.525
 4869TIP3    H138802   0.425   7.332   9.621
 4869TIP3    H238803   0.323   7.289   9.517
 4870TIP3   OH238804   1.336   7.384   9.087
 4870TIP3    H138805   1.408   7.328   9.050
 4870TIP3    H238806   1.343   7.364   9.182
 4871TIP3   OH238807   1.277   7.368   9.342
 4871TIP3    H138808   1.187   7.393   9.364
 4871TIP3    H238809   1.296   7.296   9.404
 4872TIP3   OH238810   0.593   5.780   9.853
 4872TIP3    H138811   0.502   5.791   9.819
 4872TIP3    H238812   0.605   5.868   9.893
 4873TIP3   OH238813   1.468   6.656   8.987
 4873TIP3    H138814   1.452   6.674   8.892
 4873TIP3    H238815   1.564   6.675   8.990
 4874TIP3   OH238816   1.020   6.021   8.992
 4874TIP3    H138817   0.986   6.015   9.082
 4874TIP3    H238818   0.964   5.954   8.950
 4875TIP3   OH238819   0.597   6.262   9.566
 4875TIP3    H138820   0.500   6.250   9.551
 4875TIP3    H238821   0.630   6.265   9.472
 4876TIP3   OH238822   1.148   6.373   9.406
 4876TIP3    H138823   1.116   6.450   9.352
 4876TIP3    H238824   1.208   6.333   9.341
 4877TIP3   OH238825   1.230   6.324   9.712
 4877TIP3    H138826   1.213   6.400   9.653
 4877TIP3    H238827   1.237   6.253   9.647
 4878TIP3   OH238828   0.657   6.063   8.930
 4878TIP3    H138829   0.618   6.009   9.003
 4878TIP3    H238830   0.581   6.079   8.873
 4879TIP3   OH238831   0.080   6.008   9.641
 4879TIP3    H138832   0.115   6.012   9.733
 4879TIP3    H238833   0.132   5.935   9.606
 4880TIP3   OH238834   0.112   6.103   9.160
 4880TIP3    H138835   0.177   6.138   9.095
 4880TIP3    H238836   0.101   6.181   9.217
 4881TIP3   OH238837   0.881   6.052   9.621
 4881TIP3    H138838   0.798   6.046   9.672
 4881TIP3    H238839   0.943   6.009   9.682
 4882TIP3   OH238840   0.337   6.208   9.517
 4882TIP3    H138841   0.267   6.211   9.447
 4882TIP3    H238842   0.349   6.110   9.521
 4883TIP3   OH238843   0.679   6.235   9.310
 4883TIP3    H138844   0.771   6.224   9.282
 4883TIP3    H238845   0.641   6.290   9.240
 4884TIP3   OH238846   1.297   6.017   9.909
 4884TIP3    H138847   1.299   5.985  10.001
 4884TIP3    H238848   1.203   6.001   9.887
 4885TIP3   OH238849   0.570   6.354   9.046
 4885TIP3    H138850   0.529   6.295   8.982
 4885TIP3    H238851   0.653   6.375   8.999
 4886TIP3   OH238852   0.956   6.327   9.840
 4886TIP3    H138853   1.008   6.319   9.758
 4886TIP3    H238854   1.014   6.279   9.901
 4887TIP3   OH238855   0.419   5.957   9.521
 4887TIP3    H138856   0.366   5.876   9.542
 4887TIP3    H238857   0.464   5.923   9.442
 4888TIP3   OH238858   0.900   6.788   9.247
 4888TIP3    H138859   0.823   6.738   9.212
 4888TIP3    H238860   0.867   6.816   9.336
 4889TIP3   OH238861   1.261   6.069   9.094
 4889TIP3    H138862   1.173   6.066   9.051
 4889TIP3    H238863   1.280   6.165   9.096
 4890TIP3   OH238864   1.336   6.299   9.200
 4890TIP3    H138865   1.403   6.264   9.261
 4890TIP3    H238866   1.375   6.382   9.172
 4891TIP3   OH238867   0.416   6.743   9.776
 4891TIP3    H138868   0.473   6.718   9.699
 4891TIP3    H238869   0.461   6.694   9.848
 4892TIP3   OH238870   1.082   6.937   9.136
 4892TIP3    H138871   1.029   7.016   9.156
 4892TIP3    H238872   1.027   6.866   9.177
 4893TIP3   OH238873   1.815   6.263   9.208
 4893TIP3    H138874   1.762   6.258   9.125
 4893TIP3    H238875   1.837   6.357   9.213
 4894TIP3   OH238876   1.628   7.151   9.239
 4894TIP3    H138877   1.628   7.072   9.293
 4894TIP3    H238878   1.683   7.126   9.162
 4895TIP3   OH238879   1.365   6.650   9.895
 4895TIP3    H138880   1.271   6.626   9.881
 4895TIP3    H238881   1.413   6.577   9.851
 4896TIP3   OH238882   0.633   7.056   9.576
 4896TIP3    H138883   0.660   7.147   9.599
 4896TIP3    H238884   0.546   7.068   9.536
 4897TIP3   OH238885   0.235   6.564   9.037
 4897TIP3    H138886   0.285   6.643   9.069
 4897TIP3    H238887   0.147   6.578   9.074
 4898TIP3   OH238888   0.772   6.837   9.470
 4898TIP3    H138889   0.711   6.901   9.512
 4898TIP3    H238890   0.754   6.757   9.522
 4899TIP3   OH238891   0.669   7.313   9.464
 4899TIP3    H138892   0.571   7.318   9.470
 4899TIP3    H238893   0.692   7.398   9.509
 4900TIP3   OH238894   1.433   6.972   9.024
 4900TIP3    H138895   1.445   6.923   9.108
 4900TIP3    H238896   1.339   6.952   9.007
 4901TIP3   OH238897   1.875   7.375   9.035
 4901TIP3    H138898   1.936   7.450   9.041
 4901TIP3    H238899   1.788   7.417   9.057
 4902TIP3   OH238900   1.491   6.832   9.261
 4902TIP3    H138901   1.467   6.745   9.301
 4902TIP3    H238902   1.583   6.817   9.234
 4903TIP3   OH238903   0.846   7.082   8.896
 4903TIP3    H138904   0.831   7.026   8.818
 4903TIP3    H238905   0.769   7.054   8.951
 4904TIP3   OH238906   0.686   7.028   9.128
 4904TIP3    H138907   0.752   6.984   9.183
 4904TIP3    H238908   0.695   7.121   9.158
 4905TIP3   OH238909   0.371   6.755   9.178
 4905TIP3    H138910   0.294   6.788   9.228
 4905TIP3    H238911   0.405   6.835   9.132
 4906TIP3   OH238912   1.236   5.942   9.325
 4906TIP3    H138913   1.260   5.997   9.246
 4906TIP3    H238914   1.260   6.002   9.399
 4907TIP3   OH238915   1.003   7.180   9.221
 4907TIP3    H138916   0.946   7.217   9.151
 4907TIP3    H238917   1.091   7.198   9.185
 4908TIP3   OH238918   0.958   6.154   9.385
 4908TIP3    H138919   1.003   6.240   9.399
 4908TIP3    H238920   0.924   6.130   9.475
 4909TIP3   OH238921   1.009   5.839   9.426
 4909TIP3    H138922   0.982   5.903   9.493
 4909TIP3    H238923   1.086   5.886   9.385
 4910TIP3   OH238924   0.744   7.293   9.188
 4910TIP3    H138925   0.751   7.364   9.118
 4910TIP3    H238926   0.672   7.330   9.241
 4911TIP3   OH238927   0.579   5.956   9.167
 4911TIP3    H138928   0.566   6.038   9.218
 4911TIP3    H238929   0.674   5.940   9.183
 4912TIP3   OH238930   1.475   6.445   9.763
 4912TIP3    H138931   1.398   6.385   9.776
 4912TIP3    H238932   1.541   6.403   9.823
 4913TIP3   OH238933   0.418   7.004   9.031
 4913TIP3    H138934   0.501   7.039   9.070
 4913TIP3    H238935   0.454   6.944   8.963
 4914TIP3   OH238936   0.238   6.279   8.988
 4914TIP3    H138937   0.264   6.370   9.013
 4914TIP3    H238938   0.172   6.298   8.920
 4915TIP3   OH238939   1.614   7.367   9.953
 4915TIP3    H138940   1.631   7.417   9.872
 4915TIP3    H238941   1.700   7.375   9.998
 4916TIP3   OH238942   0.328   5.782   9.813
 4916TIP3    H138943   0.317   5.765   9.717
 4916TIP3    H238944   0.321   5.690   9.846
 4917TIP3   OH238945   0.240   7.113   9.458
 4917TIP3    H138946   0.153   7.140   9.489
 4917TIP3    H238947   0.252   7.170   9.380
 4918TIP3   OH238948   1.050   7.267   8.901
 4918TIP3    H138949   0.992   7.187   8.899
 4918TIP3    H238950   1.127   7.236   8.848
 4919TIP3   OH238951   1.516   7.242   8.945
 4919TIP3    H138952   1.516   7.151   8.980
 4919TIP3    H238953   1.580   7.241   8.872
 4920TIP3   OH238954   0.580   6.818   8.874
 4920TIP3    H138955   0.592   6.760   8.950
 4920TIP3    H238956   0.662   6.799   8.823
 4921TIP3   OH238957   1.145   6.931   8.868
 4921TIP3    H138958   1.085   6.936   8.945
 4921TIP3    H238959   1.140   6.834   8.851
 4922TIP3   OH238960   0.696   6.634   9.136
 4922TIP3    H138961   0.637   6.569   9.177
 4922TIP3    H238962   0.744   6.579   9.071
 4923TIP3   OH238963   0.813   6.468   8.938
 4923TIP3    H138964   0.819   6.507   8.847
 4923TIP3    H238965   0.908   6.462   8.960
 4924TIP3   OH238966   1.731   6.685   8.885
 4924TIP3    H138967   1.711   6.654   8.794
 4924TIP3    H238968   1.729   6.783   8.872
 4925TIP3   OH238969   0.792   7.515   9.043
 4925TIP3    H138970   0.854   7.584   9.069
 4925TIP3    H238971   0.728   7.562   8.988
 4926TIP3   OH238972   0.153   7.014   9.051
 4926TIP3    H138973   0.250   7.024   9.054
 4926TIP3    H238974   0.147   6.946   8.981
 4927TIP3   OH238975   0.032   7.552   9.427
 4927TIP3    H138976  -0.063   7.566   9.446
 4927TIP3    H238977   0.042   7.475   9.484
 4928TIP3   OH238978   0.145   7.304   9.675
 4928TIP3    H138979   0.163   7.211   9.703
 4928TIP3    H238980   0.191   7.352   9.746
 4929TIP3   OH238981   1.778   6.769   9.243
 4929TIP3    H138982   1.865   6.811   9.258
 4929TIP3    H238983   1.774   6.709   9.321
 4930TIP3   OH238984   1.805   6.601   9.476
 4930TIP3    H138985   1.740   6.545   9.523
 4930TIP3    H238986   1.879   6.605   9.541
 4931TIP3   OH238987   1.814   6.877   9.991
 4931TIP3    H138988   1.871   6.809   9.951
 4931TIP3    H238989   1.824   6.951   9.929
 4932TIP3   OH238990   1.870   6.550   9.094
 4932TIP3    H138991   1.811   6.577   9.020
 4932TIP3    H238992   1.858   6.628   9.152
 4933TIP3   OH238993   1.666   6.263   8.948
 4933TIP3    H138994   1.694   6.325   8.880
 4933TIP3    H238995   1.647   6.185   8.895
 4934TIP3   OH238996   1.623   6.411   9.544
 4934TIP3    H138997   1.588   6.335   9.495
 4934TIP3    H238998   1.574   6.408   9.629
 4935TIP3   OH238999   0.164   6.733   9.917
 4935TIP3    H139000   0.182   6.690   9.830
 4935TIP3    H239001   0.213   6.674   9.976
 4936TIP3   OH239002   1.617   6.002   8.842
 4936TIP3    H139003   1.646   5.986   8.934
 4936TIP3    H239004   1.520   5.992   8.848
 4937TIP3   OH239005   1.553   6.211   9.374
 4937TIP3    H139006   1.571   6.116   9.393
 4937TIP3    H239007   1.633   6.228   9.323
 4938TIP3   OH239008   1.638   6.282   9.887
 4938TIP3    H139009   1.734   6.263   9.881
 4938TIP3    H239010   1.610   6.191   9.913
 4939TIP3   OH239011   1.632   5.956   9.388
 4939TIP3    H139012   1.668   5.900   9.461
 4939TIP3    H239013   1.568   5.894   9.350
 4940TIP3   OH239014   0.165   6.006   9.894
 4940TIP3    H139015   0.208   5.919   9.901
 4940TIP3    H239016   0.238   6.063   9.927
 4941TIP3   OH239017   0.111   6.284   9.998
 4941TIP3    H139018   0.143   6.261   9.909
 4941TIP3    H239019   0.070   6.369   9.979
 4942TIP3   OH239020   1.803   5.935   9.057
 4942TIP3    H139021   1.847   5.873   8.996
 4942TIP3    H239022   1.882   5.981   9.094
 4943TIP3   OH239023   0.120   5.900   9.330
 4943TIP3    H139024   0.036   5.906   9.380
 4943TIP3    H239025   0.104   5.965   9.259
 4944TIP3   OH239026   1.528   7.395   9.514
 4944TIP3    H139027   1.610   7.388   9.458
 4944TIP3    H239028   1.553   7.465   9.578
 4945TIP3   OH239029   0.267   7.337   9.936
 4945TIP3    H139030   0.301   7.389  10.013
 4945TIP3    H239031   0.353   7.302   9.901
 4946TIP3   OH239032   0.468   7.258   9.770
 4946TIP3    H139033   0.454   7.162   9.782
 4946TIP3    H239034   0.562   7.267   9.798
 4947TIP3   OH239035   0.708   7.276   9.874
 4947TIP3    H139036   0.726   7.182   9.895
 4947TIP3    H239037   0.736   7.324   9.953
 4948TIP3   OH239038   1.054   5.928   9.795
 4948TIP3    H139039   0.989   5.861   9.826
 4948TIP3    H239040   1.125   5.871   9.764
 4949TIP3   OH239041   1.598   5.715   9.781
 4949TIP3    H139042   1.654   5.759   9.712
 4949TIP3    H239043   1.508   5.748   9.763
 4950TIP3   OH239044   1.760   5.808   9.586
 4950TIP3    H139045   1.825   5.753   9.538
 4950TIP3    H239046   1.815   5.889   9.605
 4951TIP3   OH239047   0.328   5.717   9.559
 4951TIP3    H139048   0.242   5.696   9.514
 4951TIP3    H239049   0.377   5.632   9.552
 4952TIP3   OH239050   0.223   5.709   9.174
 4952TIP3    H139051   0.226   5.756   9.089
 4952TIP3    H239052   0.189   5.779   9.236
 4953TIP3   OH239053   0.728   5.676   9.567
 4953TIP3    H139054   0.812   5.709   9.533
 4953TIP3    H239055   0.737   5.680   9.662
 4954TIP3   OH239056   1.341   5.753   9.696
 4954TIP3    H139057   1.325   5.774   9.604
 4954TIP3    H239058   1.288   5.672   9.713
 4955TIP3   OH239059   1.442   5.758   9.332
 4955TIP3    H139060   1.360   5.811   9.325
 4955TIP3    H239061   1.406   5.667   9.341
 4956TIP3   OH239062   0.175   7.315   9.266
 4956TIP3    H139063   0.083   7.312   9.237
 4956TIP3    H239064   0.204   7.399   9.225
 4957TIP3   OH239065   0.303   5.893   8.990
 4957TIP3    H139066   0.375   5.841   8.949
 4957TIP3    H239067   0.339   5.915   9.078
 4958TIP3   OH239068   0.859   5.957   9.218
 4958TIP3    H139069   0.895   5.895   9.284
 4958TIP3    H239070   0.889   6.040   9.261
 4959TIP3   OH239071   1.082   7.455   9.091
 4959TIP3    H139072   1.176   7.438   9.067
 4959TIP3    H239073   1.038   7.410   9.016
 4960TIP3   OH239074   1.730   7.371   9.341
 4960TIP3    H139075   1.695   7.287   9.302
 4960TIP3    H239076   1.720   7.432   9.265
 4961TIP3   OH239077   0.329   7.368   8.933
 4961TIP3    H139078   0.287   7.428   8.999
 4961TIP3    H239079   0.396   7.325   8.988
 4962TIP3   OH239080   3.101   6.668   9.542
 4962TIP3    H139081   3.094   6.760   9.573
 4962TIP3    H239082   3.017   6.658   9.494
 4963TIP3   OH239083   2.985   6.564   9.884
 4963TIP3    H139084   2.975   6.520   9.970
 4963TIP3    H239085   2.918   6.520   9.831
 4964TIP3   OH239086   3.288   6.844   9.720
 4964TIP3    H139087   3.267   6.774   9.784
 4964TIP3    H239088   3.324   6.913   9.782
 4965TIP3   OH239089   2.314   7.003   9.890
 4965TIP3    H139090   2.277   6.917   9.861
 4965TIP3    H239091   2.409   6.984   9.878
 4966TIP3   OH239092   1.984   6.311   9.487
 4966TIP3    H139093   1.971   6.403   9.514
 4966TIP3    H239094   1.901   6.289   9.446
 4967TIP3   OH239095   2.059   6.564   9.663
 4967TIP3    H139096   2.087   6.484   9.713
 4967TIP3    H239097   2.132   6.625   9.682
 4968TIP3   OH239098   3.052   7.390   9.791
 4968TIP3    H139099   3.122   7.345   9.738
 4968TIP3    H239100   3.012   7.310   9.831
 4969TIP3   OH239101   2.849   6.861   9.996
 4969TIP3    H139102   2.886   6.809   9.924
 4969TIP3    H239103   2.904   6.831  10.069
 4970TIP3   OH239104   3.135   6.264   9.986
 4970TIP3    H139105   3.169   6.173   9.992
 4970TIP3    H239106   3.121   6.272   9.889
 4971TIP3   OH239107   2.480   6.025   9.702
 4971TIP3    H139108   2.494   6.116   9.666
 4971TIP3    H239109   2.411   5.993   9.641
 4972TIP3   OH239110   3.186   6.100   9.550
 4972TIP3    H139111   3.244   6.062   9.620
 4972TIP3    H239112   3.250   6.161   9.510
 4973TIP3   OH239113   2.105   6.293   9.768
 4973TIP3    H139114   2.171   6.234   9.812
 4973TIP3    H239115   2.117   6.263   9.675
 4974TIP3   OH239116   2.605   6.459   9.716
 4974TIP3    H139117   2.678   6.409   9.755
 4974TIP3    H239118   2.557   6.386   9.670
 4975TIP3   OH239119   3.007   6.915   9.423
 4975TIP3    H139120   2.996   6.908   9.327
 4975TIP3    H239121   3.000   7.012   9.436
 4976TIP3   OH239122   3.367   6.043   9.728
 4976TIP3    H139123   3.309   6.015   9.802
 4976TIP3    H239124   3.454   6.017   9.763
 4977TIP3   OH239125   2.310   6.177   9.889
 4977TIP3    H139126   2.345   6.268   9.881
 4977TIP3    H239127   2.353   6.132   9.815
 4978TIP3   OH239128   2.035   6.858   9.268
 4978TIP3    H139129   2.028   6.911   9.185
 4978TIP3    H239130   2.049   6.927   9.335
 4979TIP3   OH239131   3.379   7.020   9.896
 4979TIP3    H139132   3.351   6.979   9.982
 4979TIP3    H239133   3.419   7.102   9.928
 4980TIP3   OH239134   2.735   5.733   9.813
 4980TIP3    H139135   2.761   5.642   9.835
 4980TIP3    H239136   2.655   5.749   9.865
 4981TIP3   OH239137   3.219   7.256   9.643
 4981TIP3    H139138   3.226   7.161   9.619
 4981TIP3    H239139   3.298   7.290   9.594
 4982TIP3   OH239140   3.339   7.018   9.511
 4982TIP3    H139141   3.324   6.962   9.434
 4982TIP3    H239142   3.337   6.953   9.584
 4983TIP3   OH239143   2.947   6.581   9.286
 4983TIP3    H139144   2.895   6.659   9.255
 4983TIP3    H239145   3.036   6.599   9.248
 4984TIP3   OH239146   2.979   6.477   8.985
 4984TIP3    H139147   3.043   6.516   9.049
 4984TIP3    H239148   2.992   6.383   9.001
 4985TIP3   OH239149   3.331   6.591   9.402
 4985TIP3    H139150   3.254   6.620   9.457
 4985TIP3    H239151   3.394   6.561   9.471
 4986TIP3   OH239152   2.467   6.645   9.588
 4986TIP3    H139153   2.426   6.602   9.509
 4986TIP3    H239154   2.530   6.577   9.620
 4987TIP3   OH239155   2.594   7.010   9.856
 4987TIP3    H139156   2.599   7.011   9.759
 4987TIP3    H239157   2.667   6.951   9.882
 4988TIP3   OH239158   2.454   6.469   9.942
 4988TIP3    H139159   2.507   6.472   9.859
 4988TIP3    H239160   2.471   6.558   9.977
 4989TIP3   OH239161   3.185   6.557   9.163
 4989TIP3    H139162   3.242   6.574   9.240
 4989TIP3    H239163   3.243   6.588   9.089
 4990TIP3   OH239164   2.974   7.186   9.467
 4990TIP3    H139165   2.998   7.208   9.557
 4990TIP3    H239166   2.910   7.255   9.445
 4991TIP3   OH239167   3.579   5.670   9.195
 4991TIP3    H139168   3.489   5.686   9.232
 4991TIP3    H239169   3.610   5.761   9.177
 4992TIP3   OH239170   2.323   6.546   9.362
 4992TIP3    H139171   2.311   6.631   9.315
 4992TIP3    H239172   2.293   6.482   9.297
 4993TIP3   OH239173   3.683   7.113   9.029
 4993TIP3    H139174   3.716   7.205   9.024
 4993TIP3    H239175   3.766   7.061   9.031
 4994TIP3   OH239176   1.980   7.084   9.872
 4994TIP3    H139177   2.073   7.059   9.870
 4994TIP3    H239178   1.981   7.171   9.917
 4995TIP3   OH239179   2.940   7.511   9.352
 4995TIP3    H139180   2.947   7.508   9.254
 4995TIP3    H239181   2.899   7.597   9.366
 4996TIP3   OH239182   2.298   7.321   9.511
 4996TIP3    H139183   2.320   7.325   9.607
 4996TIP3    H239184   2.236   7.244   9.510
 4997TIP3   OH239185   3.224   7.386   9.087
 4997TIP3    H139186   3.295   7.327   9.051
 4997TIP3    H239187   3.225   7.363   9.183
 4998TIP3   OH239188   3.176   7.379   9.342
 4998TIP3    H139189   3.086   7.412   9.363
 4998TIP3    H239190   3.185   7.300   9.398
 4999TIP3   OH239191   2.434   5.792   9.944
 4999TIP3    H139192   2.386   5.825   9.864
 4999TIP3    H239193   2.482   5.875   9.970
 5000TIP3   OH239194   3.348   6.655   8.983
 5000TIP3    H139195   3.328   6.669   8.888
 5000TIP3    H239196   3.444   6.673   8.984
 5001TIP3   OH239197   2.910   6.021   9.013
 5001TIP3    H139198   2.865   6.007   9.098
 5001TIP3    H239199   2.860   5.959   8.958
 5002TIP3   OH239200   2.474   6.263   9.587
 5002TIP3    H139201   2.380   6.244   9.566
 5002TIP3    H239202   2.511   6.273   9.496
 5003TIP3   OH239203   3.038   6.366   9.406
 5003TIP3    H139204   3.006   6.446   9.358
 5003TIP3    H239205   3.096   6.328   9.338
 5004TIP3   OH239206   3.108   6.315   9.706
 5004TIP3    H139207   3.094   6.384   9.637
 5004TIP3    H239208   3.117   6.237   9.646
 5005TIP3   OH239209   2.547   6.046   8.914
 5005TIP3    H139210   2.504   6.010   8.996
 5005TIP3    H239211   2.477   6.100   8.874
 5006TIP3   OH239212   1.898   6.034   9.642
 5006TIP3    H139213   1.956   6.034   9.721
 5006TIP3    H239214   1.957   6.064   9.572
 5007TIP3   OH239215   2.009   6.085   9.139
 5007TIP3    H139216   2.073   6.129   9.078
 5007TIP3    H239217   1.947   6.160   9.155
 5008TIP3   OH239218   2.780   6.052   9.638
 5008TIP3    H139219   2.691   6.037   9.672
 5008TIP3    H239220   2.835   5.997   9.699
 5009TIP3   OH239221   2.211   6.195   9.542
 5009TIP3    H139222   2.132   6.233   9.497
 5009TIP3    H239223   2.230   6.116   9.487
 5010TIP3   OH239224   2.559   6.242   9.328
 5010TIP3    H139225   2.649   6.222   9.299
 5010TIP3    H239226   2.523   6.293   9.253
 5011TIP3   OH239227   3.168   5.996   9.924
 5011TIP3    H139228   3.148   5.989  10.020
 5011TIP3    H239229   3.078   5.995   9.887
 5012TIP3   OH239230   2.446   6.343   9.042
 5012TIP3    H139231   2.412   6.293   8.966
 5012TIP3    H239232   2.532   6.370   9.004
 5013TIP3   OH239233   2.843   6.320   9.846
 5013TIP3    H139234   2.895   6.291   9.769
 5013TIP3    H239235   2.883   6.269   9.917
 5014TIP3   OH239236   2.287   5.955   9.486
 5014TIP3    H139237   2.239   5.882   9.533
 5014TIP3    H239238   2.341   5.902   9.426
 5015TIP3   OH239239   2.786   6.793   9.251
 5015TIP3    H139240   2.709   6.748   9.210
 5015TIP3    H239241   2.748   6.815   9.340
 5016TIP3   OH239242   3.161   6.069   9.072
 5016TIP3    H139243   3.063   6.070   9.055
 5016TIP3    H239244   3.178   6.162   9.097
 5017TIP3   OH239245   3.231   6.290   9.197
 5017TIP3    H139246   3.302   6.262   9.257
 5017TIP3    H239247   3.256   6.382   9.177
 5018TIP3   OH239248   2.263   6.744   9.810
 5018TIP3    H139249   2.292   6.724   9.719
 5018TIP3    H239250   2.329   6.698   9.865
 5019TIP3   OH239251   2.982   6.942   9.153
 5019TIP3    H139252   2.926   7.023   9.153
 5019TIP3    H239253   2.916   6.876   9.184
 5020TIP3   OH239254   3.702   6.258   9.200
 5020TIP3    H139255   3.653   6.253   9.115
 5020TIP3    H239256   3.729   6.352   9.203
 5021TIP3   OH239257   3.529   7.142   9.245
 5021TIP3    H139258   3.505   7.061   9.292
 5021TIP3    H239259   3.583   7.108   9.171
 5022TIP3   OH239260   3.249   6.645   9.896
 5022TIP3    H139261   3.155   6.619   9.882
 5022TIP3    H239262   3.299   6.579   9.843
 5023TIP3   OH239263   2.518   7.071   9.572
 5023TIP3    H139264   2.560   7.160   9.573
 5023TIP3    H239265   2.447   7.086   9.508
 5024TIP3   OH239266   2.146   6.595   9.035
 5024TIP3    H139267   2.191   6.652   9.101
 5024TIP3    H239268   2.051   6.605   9.056
 5025TIP3   OH239269   2.640   6.829   9.474
 5025TIP3    H139270   2.605   6.915   9.504
 5025TIP3    H239271   2.603   6.768   9.542
 5026TIP3   OH239272   2.566   7.319   9.446
 5026TIP3    H139273   2.469   7.332   9.457
 5026TIP3    H239274   2.604   7.396   9.495
 5027TIP3   OH239275   3.321   6.969   9.026
 5027TIP3    H139276   3.334   6.920   9.111
 5027TIP3    H239277   3.224   6.963   9.021
 5028TIP3   OH239278   3.758   7.374   9.039
 5028TIP3    H139279   3.822   7.448   9.041
 5028TIP3    H239280   3.675   7.419   9.067
 5029TIP3   OH239281   3.387   6.831   9.257
 5029TIP3    H139282   3.356   6.744   9.290
 5029TIP3    H239283   3.482   6.813   9.244
 5030TIP3   OH239284   2.732   7.073   8.893
 5030TIP3    H139285   2.706   7.019   8.816
 5030TIP3    H239286   2.653   7.064   8.951
 5031TIP3   OH239287   2.577   7.025   9.134
 5031TIP3    H139288   2.656   6.986   9.174
 5031TIP3    H239289   2.590   7.119   9.162
 5032TIP3   OH239290   2.276   6.758   9.194
 5032TIP3    H139291   2.187   6.792   9.217
 5032TIP3    H239292   2.315   6.832   9.144
 5033TIP3   OH239293   3.102   5.974   9.329
 5033TIP3    H139294   3.155   6.007   9.255
 5033TIP3    H239295   3.143   6.017   9.407
 5034TIP3   OH239296   2.845   7.160   9.198
 5034TIP3    H139297   2.757   7.202   9.212
 5034TIP3    H239298   2.904   7.236   9.205
 5035TIP3   OH239299   2.835   6.158   9.392
 5035TIP3    H139300   2.893   6.237   9.404
 5035TIP3    H239301   2.828   6.120   9.483
 5036TIP3   OH239302   2.886   5.851   9.436
 5036TIP3    H139303   2.863   5.908   9.510
 5036TIP3    H239304   2.966   5.899   9.404
 5037TIP3   OH239305   2.607   7.279   9.186
 5037TIP3    H139306   2.608   7.358   9.126
 5037TIP3    H239307   2.582   7.316   9.273
 5038TIP3   OH239308   2.463   5.956   9.159
 5038TIP3    H139309   2.452   6.027   9.225
 5038TIP3    H239310   2.556   5.931   9.173
 5039TIP3   OH239311   3.357   6.437   9.759
 5039TIP3    H139312   3.277   6.385   9.777
 5039TIP3    H239313   3.420   6.391   9.819
 5040TIP3   OH239314   2.293   6.995   9.024
 5040TIP3    H139315   2.354   7.052   9.075
 5040TIP3    H239316   2.360   6.944   8.973
 5041TIP3   OH239317   2.130   6.293   8.967
 5041TIP3    H139318   2.184   6.365   9.003
 5041TIP3    H239319   2.048   6.341   8.945
 5042TIP3   OH239320   3.497   7.376   9.959
 5042TIP3    H139321   3.518   7.423   9.878
 5042TIP3    H239322   3.584   7.367  10.000
 5043TIP3   OH239323   2.212   5.790   9.793
 5043TIP3    H139324   2.208   5.756   9.700
 5043TIP3    H239325   2.201   5.706   9.842
 5044TIP3   OH239326   2.081   7.133   9.438
 5044TIP3    H139327   2.007   7.181   9.478
 5044TIP3    H239328   2.086   7.183   9.354
 5045TIP3   OH239329   2.922   7.272   8.886
 5045TIP3    H139330   2.874   7.189   8.907
 5045TIP3    H239331   3.000   7.238   8.839
 5046TIP3   OH239332   3.387   7.239   8.937
 5046TIP3    H139333   3.401   7.150   8.975
 5046TIP3    H239334   3.459   7.246   8.871
 5047TIP3   OH239335   2.469   6.822   8.880
 5047TIP3    H139336   2.491   6.771   8.959
 5047TIP3    H239337   2.554   6.815   8.830
 5048TIP3   OH239338   3.030   6.938   8.858
 5048TIP3    H139339   2.980   6.939   8.941
 5048TIP3    H239340   3.029   6.842   8.838
 5049TIP3   OH239341   2.583   6.647   9.137
 5049TIP3    H139342   2.513   6.593   9.176
 5049TIP3    H239343   2.624   6.587   9.073
 5050TIP3   OH239344   2.705   6.475   8.934
 5050TIP3    H139345   2.696   6.498   8.839
 5050TIP3    H239346   2.803   6.473   8.942
 5051TIP3   OH239347   3.619   6.689   8.885
 5051TIP3    H139348   3.599   6.659   8.794
 5051TIP3    H239349   3.612   6.787   8.875
 5052TIP3   OH239350   2.669   7.502   9.048
 5052TIP3    H139351   2.749   7.554   9.069
 5052TIP3    H239352   2.620   7.564   8.993
 5053TIP3   OH239353   2.023   6.957   9.022
 5053TIP3    H139354   2.121   6.964   9.013
 5053TIP3    H239355   1.997   6.913   8.938
 5054TIP3   OH239356   1.904   7.522   9.469
 5054TIP3    H139357   1.828   7.477   9.426
 5054TIP3    H239358   1.896   7.481   9.556
 5055TIP3   OH239359   1.980   7.310   9.667
 5055TIP3    H139360   1.948   7.222   9.695
 5055TIP3    H239361   2.027   7.339   9.747
 5056TIP3   OH239362   3.656   6.773   9.251
 5056TIP3    H139363   3.744   6.813   9.268
 5056TIP3    H239364   3.649   6.710   9.327
 5057TIP3   OH239365   3.684   6.609   9.478
 5057TIP3    H139366   3.617   6.551   9.522
 5057TIP3    H239367   3.756   6.608   9.543
 5058TIP3   OH239368   3.698   6.881   9.974
 5058TIP3    H139369   3.770   6.821   9.947
 5058TIP3    H239370   3.708   6.955   9.913
 5059TIP3   OH239371   3.759   6.564   9.095
 5059TIP3    H139372   3.693   6.578   9.024
 5059TIP3    H239373   3.744   6.642   9.152
 5060TIP3   OH239374   3.546   6.270   8.944
 5060TIP3    H139375   3.578   6.315   8.865
 5060TIP3    H239376   3.521   6.185   8.902
 5061TIP3   OH239377   3.505   6.418   9.542
 5061TIP3    H139378   3.477   6.333   9.503
 5061TIP3    H239379   3.457   6.417   9.628
 5062TIP3   OH239380   1.954   6.655   9.898
 5062TIP3    H139381   1.996   6.638   9.811
 5062TIP3    H239382   2.030   6.641   9.958
 5063TIP3   OH239383   3.517   6.010   8.856
 5063TIP3    H139384   3.553   5.983   8.944
 5063TIP3    H239385   3.421   6.005   8.870
 5064TIP3   OH239386   3.434   6.200   9.364
 5064TIP3    H139387   3.445   6.104   9.382
 5064TIP3    H239388   3.519   6.218   9.322
 5065TIP3   OH239389   3.518   6.272   9.881
 5065TIP3    H139390   3.615   6.266   9.876
 5065TIP3    H239391   3.498   6.181   9.916
 5066TIP3   OH239392   3.509   5.941   9.382
 5066TIP3    H139393   3.553   5.898   9.458
 5066TIP3    H239394   3.452   5.868   9.351
 5067TIP3   OH239395   2.064   6.005   9.872
 5067TIP3    H139396   2.117   5.925   9.847
 5067TIP3    H239397   2.128   6.059   9.922
 5068TIP3   OH239398   1.902   6.282   9.973
 5068TIP3    H139399   1.948   6.252   9.893
 5068TIP3    H239400   1.931   6.374   9.976
 5069TIP3   OH239401   3.697   5.926   9.059
 5069TIP3    H139402   3.735   5.873   8.986
 5069TIP3    H239403   3.778   5.947   9.110
 5070TIP3   OH239404   1.926   5.911   9.331
 5070TIP3    H139405   1.840   5.949   9.352
 5070TIP3    H239406   1.959   5.979   9.269
 5071TIP3   OH239407   3.408   7.393   9.511
 5071TIP3    H139408   3.491   7.382   9.459
 5071TIP3    H239409   3.430   7.464   9.573
 5072TIP3   OH239410   2.142   7.327   9.899
 5072TIP3    H139411   2.195   7.381   9.962
 5072TIP3    H239412   2.213   7.289   9.843
 5073TIP3   OH239413   2.353   7.258   9.760
 5073TIP3    H139414   2.363   7.162   9.777
 5073TIP3    H239415   2.433   7.292   9.807
 5074TIP3   OH239416   2.589   7.275   9.868
 5074TIP3    H139417   2.612   7.180   9.878
 5074TIP3    H239418   2.594   7.308   9.959
 5075TIP3   OH239419   2.948   5.913   9.790
 5075TIP3    H139420   2.880   5.847   9.813
 5075TIP3    H239421   3.026   5.855   9.788
 5076TIP3   OH239422   3.489   5.722   9.787
 5076TIP3    H139423   3.540   5.762   9.711
 5076TIP3    H239424   3.398   5.753   9.769
 5077TIP3   OH239425   3.639   5.814   9.588
 5077TIP3    H139426   3.707   5.758   9.547
 5077TIP3    H239427   3.692   5.897   9.604
 5078TIP3   OH239428   2.195   5.706   9.543
 5078TIP3    H139429   2.110   5.697   9.495
 5078TIP3    H239430   2.232   5.616   9.530
 5079TIP3   OH239431   2.059   5.719   9.138
 5079TIP3    H139432   2.088   5.785   9.073
 5079TIP3    H239433   2.008   5.773   9.202
 5080TIP3   OH239434   2.630   5.685   9.560
 5080TIP3    H139435   2.677   5.717   9.482
 5080TIP3    H239436   2.682   5.724   9.632
 5081TIP3   OH239437   3.224   5.751   9.699
 5081TIP3    H139438   3.197   5.774   9.610
 5081TIP3    H239439   3.176   5.668   9.716
 5082TIP3   OH239440   3.349   5.738   9.314
 5082TIP3    H139441   3.288   5.761   9.244
 5082TIP3    H239442   3.311   5.653   9.346
 5083TIP3   OH239443   2.053   7.302   9.239
 5083TIP3    H139444   1.960   7.312   9.211
 5083TIP3    H239445   2.091   7.379   9.192
 5084TIP3   OH239446   2.194   5.908   8.981
 5084TIP3    H139447   2.262   5.856   8.936
 5084TIP3    H239448   2.225   5.903   9.072
 5085TIP3   OH239449   2.740   5.958   9.224
 5085TIP3    H139450   2.775   5.893   9.287
 5085TIP3    H239451   2.771   6.040   9.268
 5086TIP3   OH239452   2.965   7.459   9.090
 5086TIP3    H139453   3.055   7.429   9.064
 5086TIP3    H239454   2.914   7.409   9.024
 5087TIP3   OH239455   3.616   7.373   9.343
 5087TIP3    H139456   3.586   7.287   9.302
 5087TIP3    H239457   3.595   7.436   9.271
 5088TIP3   OH239458   2.253   7.435   8.948
 5088TIP3    H139459   2.182   7.448   9.012
 5088TIP3    H239460   2.296   7.355   8.980
 5089TIP3   OH239461   4.999   6.667   9.540
 5089TIP3    H139462   4.990   6.757   9.576
 5089TIP3    H239463   4.908   6.648   9.512
 5090TIP3   OH239464   4.888   6.562   9.877
 5090TIP3    H139465   4.869   6.521   9.962
 5090TIP3    H239466   4.798   6.595   9.856
 5091TIP3   OH239467   5.179   6.845   9.725
 5091TIP3    H139468   5.156   6.773   9.787
 5091TIP3    H239469   5.216   6.912   9.789
 5092TIP3   OH239470   4.220   7.012   9.891
 5092TIP3    H139471   4.194   6.921   9.860
 5092TIP3    H239472   4.318   7.001   9.893
 5093TIP3   OH239473   3.860   6.311   9.453
 5093TIP3    H139474   3.846   6.400   9.488
 5093TIP3    H239475   3.770   6.282   9.433
 5094TIP3   OH239476   3.935   6.560   9.662
 5094TIP3    H139477   3.976   6.483   9.708
 5094TIP3    H239478   4.005   6.627   9.660
 5095TIP3   OH239479   4.941   7.401   9.782
 5095TIP3    H139480   5.008   7.351   9.731
 5095TIP3    H239481   4.901   7.324   9.828
 5096TIP3   OH239482   4.723   6.906   9.969
 5096TIP3    H139483   4.686   6.817   9.945
 5096TIP3    H239484   4.805   6.880  10.014
 5097TIP3   OH239485   5.029   6.262   9.994
 5097TIP3    H139486   5.040   6.167   9.975
 5097TIP3    H239487   5.014   6.293   9.903
 5098TIP3   OH239488   4.340   6.070   9.703
 5098TIP3    H139489   4.350   6.138   9.632
 5098TIP3    H239490   4.291   6.002   9.653
 5099TIP3   OH239491   5.079   6.085   9.538
 5099TIP3    H139492   5.132   6.051   9.615
 5099TIP3    H239493   5.141   6.152   9.507
 5100TIP3   OH239494   3.995   6.295   9.765
 5100TIP3    H139495   4.058   6.238   9.813
 5100TIP3    H239496   4.002   6.254   9.675
 5101TIP3   OH239497   4.457   6.438   9.697
 5101TIP3    H139498   4.539   6.401   9.737
 5101TIP3    H239499   4.428   6.370   9.634
 5102TIP3   OH239500   4.901   6.919   9.428
 5102TIP3    H139501   4.883   6.914   9.332
 5102TIP3    H239502   4.901   7.016   9.440
 5103TIP3   OH239503   5.261   6.041   9.723
 5103TIP3    H139504   5.207   6.017   9.802
 5103TIP3    H239505   5.349   6.015   9.755
 5104TIP3   OH239506   4.213   6.181   9.918
 5104TIP3    H139507   4.241   6.274   9.906
 5104TIP3    H239508   4.246   6.140   9.835
 5105TIP3   OH239509   3.917   6.858   9.278
 5105TIP3    H139510   3.916   6.919   9.201
 5105TIP3    H239511   3.943   6.917   9.351
 5106TIP3   OH239512   5.272   7.024   9.895
 5106TIP3    H139513   5.253   6.991   9.986
 5106TIP3    H239514   5.323   7.105   9.912
 5107TIP3   OH239515   4.605   5.714   9.819
 5107TIP3    H139516   4.623   5.620   9.832
 5107TIP3    H239517   4.512   5.723   9.851
 5108TIP3   OH239518   5.101   7.257   9.640
 5108TIP3    H139519   5.112   7.163   9.617
 5108TIP3    H239520   5.179   7.294   9.592
 5109TIP3   OH239521   5.219   7.020   9.514
 5109TIP3    H139522   5.207   6.964   9.435
 5109TIP3    H239523   5.213   6.952   9.586
 5110TIP3   OH239524   4.828   6.578   9.281
 5110TIP3    H139525   4.783   6.664   9.268
 5110TIP3    H239526   4.919   6.597   9.248
 5111TIP3   OH239527   4.871   6.476   8.986
 5111TIP3    H139528   4.930   6.510   9.057
 5111TIP3    H239529   4.891   6.380   8.990
 5112TIP3   OH239530   5.226   6.587   9.397
 5112TIP3    H139531   5.152   6.619   9.453
 5112TIP3    H239532   5.285   6.543   9.462
 5113TIP3   OH239533   4.325   6.661   9.599
 5113TIP3    H139534   4.311   6.615   9.515
 5113TIP3    H239535   4.381   6.595   9.648
 5114TIP3   OH239536   4.492   7.013   9.862
 5114TIP3    H139537   4.496   6.973   9.773
 5114TIP3    H239538   4.561   6.959   9.908
 5115TIP3   OH239539   4.338   6.442   9.940
 5115TIP3    H139540   4.390   6.449   9.857
 5115TIP3    H239541   4.367   6.524   9.982
 5116TIP3   OH239542   5.069   6.560   9.173
 5116TIP3    H139543   5.128   6.569   9.251
 5116TIP3    H239544   5.128   6.588   9.098
 5117TIP3   OH239545   4.865   7.208   9.458
 5117TIP3    H139546   4.886   7.224   9.551
 5117TIP3    H239547   4.800   7.278   9.439
 5118TIP3   OH239548   5.466   5.674   9.196
 5118TIP3    H139549   5.370   5.692   9.204
 5118TIP3    H239550   5.503   5.762   9.174
 5119TIP3   OH239551   4.203   6.549   9.361
 5119TIP3    H139552   4.196   6.637   9.318
 5119TIP3    H239553   4.177   6.490   9.289
 5120TIP3   OH239554   5.567   7.110   9.020
 5120TIP3    H139555   5.605   7.201   9.017
 5120TIP3    H239556   5.648   7.057   9.033
 5121TIP3   OH239557   3.867   7.086   9.873
 5121TIP3    H139558   3.960   7.061   9.878
 5121TIP3    H239559   3.863   7.171   9.919
 5122TIP3   OH239560   4.822   7.507   9.346
 5122TIP3    H139561   4.825   7.503   9.248
 5122TIP3    H239562   4.783   7.594   9.361
 5123TIP3   OH239563   4.189   7.319   9.512
 5123TIP3    H139564   4.210   7.329   9.608
 5123TIP3    H239565   4.127   7.243   9.516
 5124TIP3   OH239566   5.111   7.388   9.079
 5124TIP3    H139567   5.178   7.327   9.043
 5124TIP3    H239568   5.113   7.367   9.175
 5125TIP3   OH239569   5.063   7.384   9.338
 5125TIP3    H139570   4.974   7.419   9.359
 5125TIP3    H239571   5.067   7.302   9.390
 5126TIP3   OH239572   4.358   5.842   9.891
 5126TIP3    H139573   4.273   5.845   9.843
 5126TIP3    H239574   4.365   5.932   9.929
 5127TIP3   OH239575   5.230   6.652   8.985
 5127TIP3    H139576   5.217   6.670   8.890
 5127TIP3    H239577   5.325   6.671   8.995
 5128TIP3   OH239578   4.800   6.026   9.001
 5128TIP3    H139579   4.761   6.013   9.088
 5128TIP3    H239580   4.745   5.963   8.952
 5129TIP3   OH239581   4.329   6.263   9.517
 5129TIP3    H139582   4.237   6.243   9.493
 5129TIP3    H239583   4.378   6.255   9.432
 5130TIP3   OH239584   4.910   6.377   9.419
 5130TIP3    H139585   4.880   6.455   9.364
 5130TIP3    H239586   4.975   6.341   9.357
 5131TIP3   OH239587   5.003   6.314   9.716
 5131TIP3    H139588   4.973   6.389   9.661
 5131TIP3    H239589   5.004   6.243   9.648
 5132TIP3   OH239590   4.442   6.053   8.924
 5132TIP3    H139591   4.389   6.012   8.996
 5132TIP3    H239592   4.374   6.097   8.870
 5133TIP3   OH239593   3.783   6.033   9.643
 5133TIP3    H139594   3.846   6.035   9.718
 5133TIP3    H239595   3.839   6.057   9.569
 5134TIP3   OH239596   3.895   6.084   9.148
 5134TIP3    H139597   3.963   6.127   9.093
 5134TIP3    H239598   3.829   6.157   9.153
 5135TIP3   OH239599   4.640   6.035   9.597
 5135TIP3    H139600   4.561   6.043   9.653
 5135TIP3    H239601   4.707   6.011   9.665
 5136TIP3   OH239602   4.037   6.151   9.549
 5136TIP3    H139603   3.987   6.194   9.476
 5136TIP3    H239604   4.084   6.076   9.505
 5137TIP3   OH239605   4.451   6.234   9.288
 5137TIP3    H139606   4.542   6.234   9.254
 5137TIP3    H239607   4.402   6.282   9.218
 5138TIP3   OH239608   5.064   6.010   9.911
 5138TIP3    H139609   5.053   5.965   9.997
 5138TIP3    H239610   4.974   6.002   9.875
 5139TIP3   OH239611   4.333   6.343   9.052
 5139TIP3    H139612   4.301   6.291   8.976
 5139TIP3    H239613   4.414   6.378   9.009
 5140TIP3   OH239614   4.697   6.305   9.813
 5140TIP3    H139615   4.786   6.308   9.773
 5140TIP3    H239616   4.714   6.276   9.903
 5141TIP3   OH239617   4.178   5.946   9.480
 5141TIP3    H139618   4.130   5.873   9.527
 5141TIP3    H239619   4.234   5.896   9.422
 5142TIP3   OH239620   4.673   6.791   9.264
 5142TIP3    H139621   4.596   6.746   9.224
 5142TIP3    H239622   4.631   6.819   9.349
 5143TIP3   OH239623   5.047   6.060   9.096
 5143TIP3    H139624   4.961   6.077   9.052
 5143TIP3    H239625   5.075   6.151   9.118
 5144TIP3   OH239626   5.108   6.292   9.201
 5144TIP3    H139627   5.177   6.261   9.261
 5144TIP3    H239628   5.145   6.377   9.169
 5145TIP3   OH239629   4.157   6.753   9.818
 5145TIP3    H139630   4.194   6.733   9.730
 5145TIP3    H239631   4.229   6.725   9.876
 5146TIP3   OH239632   4.865   6.937   9.158
 5146TIP3    H139633   4.810   7.018   9.159
 5146TIP3    H239634   4.799   6.869   9.187
 5147TIP3   OH239635   5.579   6.265   9.213
 5147TIP3    H139636   5.541   6.261   9.122
 5147TIP3    H239637   5.616   6.356   9.212
 5148TIP3   OH239638   5.419   7.144   9.244
 5148TIP3    H139639   5.386   7.062   9.281
 5148TIP3    H239640   5.469   7.115   9.164
 5149TIP3   OH239641   5.144   6.646   9.902
 5149TIP3    H139642   5.049   6.623   9.887
 5149TIP3    H239643   5.190   6.574   9.852
 5150TIP3   OH239644   4.399   7.079   9.563
 5150TIP3    H139645   4.447   7.164   9.571
 5150TIP3    H239646   4.331   7.102   9.498
 5151TIP3   OH239647   4.032   6.585   9.016
 5151TIP3    H139648   4.075   6.644   9.082
 5151TIP3    H239649   3.937   6.594   9.036
 5152TIP3   OH239650   4.516   6.827   9.470
 5152TIP3    H139651   4.475   6.905   9.513
 5152TIP3    H239652   4.520   6.764   9.544
 5153TIP3   OH239653   4.453   7.333   9.437
 5153TIP3    H139654   4.356   7.337   9.453
 5153TIP3    H239655   4.487   7.410   9.490
 5154TIP3   OH239656   5.206   6.966   9.030
 5154TIP3    H139657   5.223   6.918   9.113
 5154TIP3    H239658   5.110   6.958   9.026
 5155TIP3   OH239659   5.642   7.373   9.036
 5155TIP3    H139660   5.704   7.447   9.040
 5155TIP3    H239661   5.556   7.418   9.057
 5156TIP3   OH239662   5.272   6.826   9.257
 5156TIP3    H139663   5.246   6.741   9.298
 5156TIP3    H239664   5.368   6.811   9.248
 5157TIP3   OH239665   4.609   7.076   8.895
 5157TIP3    H139666   4.582   7.020   8.821
 5157TIP3    H239667   4.539   7.056   8.960
 5158TIP3   OH239668   4.463   7.016   9.135
 5158TIP3    H139669   4.541   6.975   9.175
 5158TIP3    H239670   4.479   7.110   9.160
 5159TIP3   OH239671   4.152   6.756   9.186
 5159TIP3    H139672   4.063   6.786   9.214
 5159TIP3    H239673   4.188   6.834   9.141
 5160TIP3   OH239674   4.992   5.940   9.325
 5160TIP3    H139675   5.019   5.992   9.246
 5160TIP3    H239676   5.033   5.988   9.399
 5161TIP3   OH239677   4.734   7.162   9.191
 5161TIP3    H139678   4.651   7.211   9.210
 5161TIP3    H239679   4.798   7.235   9.193
 5162TIP3   OH239680   4.733   6.154   9.366
 5162TIP3    H139681   4.769   6.243   9.385
 5162TIP3    H239682   4.696   6.125   9.453
 5163TIP3   OH239683   4.777   5.834   9.438
 5163TIP3    H139684   4.749   5.906   9.498
 5163TIP3    H239685   4.855   5.876   9.396
 5164TIP3   OH239686   4.494   7.276   9.181
 5164TIP3    H139687   4.482   7.353   9.121
 5164TIP3    H239688   4.468   7.310   9.270
 5165TIP3   OH239689   4.338   5.966   9.159
 5165TIP3    H139690   4.335   6.050   9.207
 5165TIP3    H239691   4.430   5.937   9.178
 5166TIP3   OH239692   5.248   6.439   9.763
 5166TIP3    H139693   5.167   6.386   9.777
 5166TIP3    H239694   5.314   6.388   9.816
 5167TIP3   OH239695   4.179   6.992   9.032
 5167TIP3    H139696   4.242   7.040   9.089
 5167TIP3    H239697   4.242   6.945   8.974
 5168TIP3   OH239698   4.015   6.291   8.996
 5168TIP3    H139699   4.063   6.375   9.009
 5168TIP3    H239700   3.943   6.314   8.937
 5169TIP3   OH239701   5.384   7.373   9.950
 5169TIP3    H139702   5.405   7.427   9.871
 5169TIP3    H239703   5.467   7.377   9.999
 5170TIP3   OH239704   4.115   5.792   9.800
 5170TIP3    H139705   4.100   5.760   9.709
 5170TIP3    H239706   4.109   5.708   9.850
 5171TIP3   OH239707   3.982   7.129   9.454
 5171TIP3    H139708   3.907   7.172   9.498
 5171TIP3    H239709   3.979   7.170   9.366
 5172TIP3   OH239710   4.808   7.275   8.885
 5172TIP3    H139711   4.760   7.192   8.908
 5172TIP3    H239712   4.886   7.241   8.837
 5173TIP3   OH239713   5.277   7.231   8.941
 5173TIP3    H139714   5.292   7.142   8.977
 5173TIP3    H239715   5.343   7.239   8.869
 5174TIP3   OH239716   4.354   6.826   8.881
 5174TIP3    H139717   4.382   6.788   8.966
 5174TIP3    H239718   4.436   6.811   8.829
 5175TIP3   OH239719   4.913   6.945   8.873
 5175TIP3    H139720   4.864   6.949   8.957
 5175TIP3    H239721   4.908   6.848   8.854
 5176TIP3   OH239722   4.465   6.642   9.133
 5176TIP3    H139723   4.411   6.579   9.183
 5176TIP3    H239724   4.510   6.584   9.067
 5177TIP3   OH239725   4.587   6.472   8.938
 5177TIP3    H139726   4.588   6.500   8.844
 5177TIP3    H239727   4.684   6.466   8.955
 5178TIP3   OH239728   5.512   6.682   8.881
 5178TIP3    H139729   5.486   6.647   8.793
 5178TIP3    H239730   5.498   6.779   8.870
 5179TIP3   OH239731   4.547   7.507   9.048
 5179TIP3    H139732   4.622   7.558   9.079
 5179TIP3    H239733   4.499   7.569   8.992
 5180TIP3   OH239734   3.908   6.957   9.018
 5180TIP3    H139735   4.005   6.970   9.012
 5180TIP3    H239736   3.891   6.908   8.935
 5181TIP3   OH239737   3.789   7.526   9.477
 5181TIP3    H139738   3.714   7.482   9.432
 5181TIP3    H239739   3.784   7.479   9.562
 5182TIP3   OH239740   3.847   7.323   9.681
 5182TIP3    H139741   3.814   7.234   9.704
 5182TIP3    H239742   3.908   7.341   9.755
 5183TIP3   OH239743   5.540   6.775   9.252
 5183TIP3    H139744   5.629   6.814   9.269
 5183TIP3    H239745   5.534   6.711   9.326
 5184TIP3   OH239746   5.569   6.605   9.473
 5184TIP3    H139747   5.503   6.544   9.513
 5184TIP3    H239748   5.635   6.611   9.544
 5185TIP3   OH239749   5.577   6.882   9.970
 5185TIP3    H139750   5.642   6.817   9.937
 5185TIP3    H239751   5.579   6.951   9.903
 5186TIP3   OH239752   5.645   6.562   9.097
 5186TIP3    H139753   5.581   6.579   9.025
 5186TIP3    H239754   5.628   6.639   9.155
 5187TIP3   OH239755   5.462   6.290   8.938
 5187TIP3    H139756   5.471   6.344   8.858
 5187TIP3    H239757   5.434   6.204   8.901
 5188TIP3   OH239758   5.386   6.407   9.531
 5188TIP3    H139759   5.356   6.327   9.483
 5188TIP3    H239760   5.345   6.399   9.621
 5189TIP3   OH239761   3.866   6.670   9.898
 5189TIP3    H139762   3.894   6.630   9.813
 5189TIP3    H239763   3.938   6.645   9.958
 5190TIP3   OH239764   5.385   6.026   8.870
 5190TIP3    H139765   5.430   5.984   8.945
 5190TIP3    H239766   5.297   5.987   8.873
 5191TIP3   OH239767   5.326   6.199   9.368
 5191TIP3    H139768   5.340   6.103   9.387
 5191TIP3    H239769   5.410   6.217   9.322
 5192TIP3   OH239770   5.414   6.271   9.877
 5192TIP3    H139771   5.510   6.249   9.877
 5192TIP3    H239772   5.381   6.188   9.916
 5193TIP3   OH239773   5.415   5.937   9.379
 5193TIP3    H139774   5.444   5.893   9.461
 5193TIP3    H239775   5.355   5.869   9.341
 5194TIP3   OH239776   3.951   6.000   9.878
 5194TIP3    H139777   4.002   5.922   9.847
 5194TIP3    H239778   4.012   6.041   9.942
 5195TIP3   OH239779   3.785   6.288   9.958
 5195TIP3    H139780   3.841   6.246   9.890
 5195TIP3    H239781   3.818   6.378   9.952
 5196TIP3   OH239782   5.571   5.915   9.054
 5196TIP3    H139783   5.619   5.865   8.985
 5196TIP3    H239784   5.638   5.983   9.078
 5197TIP3   OH239785   3.803   5.913   9.331
 5197TIP3    H139786   3.710   5.941   9.338
 5197TIP3    H239787   3.839   5.980   9.271
 5198TIP3   OH239788   5.294   7.396   9.516
 5198TIP3    H139789   5.375   7.386   9.461
 5198TIP3    H239790   5.319   7.464   9.580
 5199TIP3   OH239791   4.026   7.341   9.891
 5199TIP3    H139792   4.068   7.395   9.961
 5199TIP3    H239793   4.106   7.304   9.846
 5200TIP3   OH239794   4.241   7.258   9.765
 5200TIP3    H139795   4.246   7.162   9.786
 5200TIP3    H239796   4.328   7.284   9.802
 5201TIP3   OH239797   4.480   7.276   9.864
 5201TIP3    H139798   4.501   7.180   9.867
 5201TIP3    H239799   4.482   7.302   9.958
 5202TIP3   OH239800   4.833   5.906   9.783
 5202TIP3    H139801   4.761   5.849   9.815
 5202TIP3    H239802   4.905   5.841   9.790
 5203TIP3   OH239803   5.372   5.724   9.791
 5203TIP3    H139804   5.429   5.764   9.721
 5203TIP3    H239805   5.282   5.755   9.767
 5204TIP3   OH239806   5.531   5.805   9.594
 5204TIP3    H139807   5.599   5.754   9.546
 5204TIP3    H239808   5.579   5.890   9.608
 5205TIP3   OH239809   4.064   5.713   9.551
 5205TIP3    H139810   3.979   5.692   9.507
 5205TIP3    H239811   4.109   5.626   9.540
 5206TIP3   OH239812   3.958   5.716   9.154
 5206TIP3    H139813   3.988   5.780   9.086
 5206TIP3    H239814   3.900   5.772   9.208
 5207TIP3   OH239815   4.502   5.684   9.558
 5207TIP3    H139816   4.579   5.714   9.507
 5207TIP3    H239817   4.530   5.708   9.648
 5208TIP3   OH239818   5.121   5.750   9.695
 5208TIP3    H139819   5.084   5.775   9.609
 5208TIP3    H239820   5.072   5.669   9.718
 5209TIP3   OH239821   5.228   5.745   9.314
 5209TIP3    H139822   5.135   5.772   9.299
 5209TIP3    H239823   5.213   5.656   9.352
 5210TIP3   OH239824   3.937   7.302   9.246
 5210TIP3    H139825   3.843   7.311   9.219
 5210TIP3    H239826   3.974   7.376   9.194
 5211TIP3   OH239827   4.086   5.923   9.005
 5211TIP3    H139828   4.155   5.872   8.959
 5211TIP3    H239829   4.133   5.951   9.086
 5212TIP3   OH239830   4.634   5.953   9.209
 5212TIP3    H139831   4.666   5.889   9.274
 5212TIP3    H239832   4.658   6.036   9.256
 5213TIP3   OH239833   4.849   7.462   9.085
 5213TIP3    H139834   4.941   7.436   9.061
 5213TIP3    H239835   4.800   7.412   9.017
 5214TIP3   OH239836   5.503   7.372   9.344
 5214TIP3    H139837   5.472   7.287   9.305
 5214TIP3    H239838   5.482   7.435   9.272
 5215TIP3   OH239839   4.116   7.417   8.942
 5215TIP3    H139840   4.063   7.443   9.020
 5215TIP3    H239841   4.174   7.350   8.981
 5216TIP3   OH239842   6.880   6.659   9.542
 5216TIP3    H139843   6.873   6.754   9.562
 5216TIP3    H239844   6.798   6.642   9.495
 5217TIP3   OH239845   6.747   6.556   9.876
 5217TIP3    H139846   6.750   6.521   9.968
 5217TIP3    H239847   6.684   6.496   9.832
 5218TIP3   OH239848   7.065   6.851   9.718
 5218TIP3    H139849   7.020   6.786   9.777
 5218TIP3    H239850   7.092   6.918   9.783
 5219TIP3   OH239851   6.086   6.997   9.887
 5219TIP3    H139852   6.056   6.907   9.862
 5219TIP3    H239853   6.182   6.983   9.879
 5220TIP3   OH239854   5.759   6.298   9.465
 5220TIP3    H139855   5.749   6.391   9.490
 5220TIP3    H239856   5.670   6.277   9.432
 5221TIP3   OH239857   5.827   6.570   9.666
 5221TIP3    H139858   5.870   6.495   9.712
 5221TIP3    H239859   5.901   6.631   9.648
 5222TIP3   OH239860   6.821   7.392   9.794
 5222TIP3    H139861   6.882   7.339   9.741
 5222TIP3    H239862   6.785   7.320   9.848
 5223TIP3   OH239863   6.621   6.858   9.995
 5223TIP3    H139864   6.657   6.804   9.923
 5223TIP3    H239865   6.679   6.832  10.068
 5224TIP3   OH239866   6.907   6.273   9.993
 5224TIP3    H139867   6.926   6.179  10.009
 5224TIP3    H239868   6.891   6.275   9.897
 5225TIP3   OH239869   6.249   6.054   9.714
 5225TIP3    H139870   6.256   6.134   9.658
 5225TIP3    H239871   6.200   5.996   9.654
 5226TIP3   OH239872   6.969   6.107   9.546
 5226TIP3    H139873   7.022   6.058   9.613
 5226TIP3    H239874   7.041   6.160   9.507
 5227TIP3   OH239875   5.872   6.304   9.766
 5227TIP3    H139876   5.936   6.254   9.820
 5227TIP3    H239877   5.894   6.271   9.676
 5228TIP3   OH239878   6.369   6.455   9.713
 5228TIP3    H139879   6.445   6.401   9.740
 5228TIP3    H239880   6.319   6.390   9.659
 5229TIP3   OH239881   6.791   6.911   9.436
 5229TIP3    H139882   6.761   6.904   9.343
 5229TIP3    H239883   6.779   7.006   9.452
 5230TIP3   OH239884   7.140   6.026   9.725
 5230TIP3    H139885   7.093   6.004   9.809
 5230TIP3    H239886   7.233   6.014   9.748
 5231TIP3   OH239887   6.070   6.165   9.891
 5231TIP3    H139888   6.110   6.253   9.903
 5231TIP3    H239889   6.126   6.126   9.820
 5232TIP3   OH239890   5.801   6.858   9.273
 5232TIP3    H139891   5.803   6.914   9.192
 5232TIP3    H239892   5.821   6.923   9.342
 5233TIP3   OH239893   7.180   7.043   9.896
 5233TIP3    H139894   7.116   7.003   9.959
 5233TIP3    H239895   7.166   7.138   9.914
 5234TIP3   OH239896   6.511   5.728   9.823
 5234TIP3    H139897   6.511   5.631   9.832
 5234TIP3    H239898   6.423   5.755   9.857
 5235TIP3   OH239899   6.966   7.245   9.632
 5235TIP3    H139900   6.995   7.159   9.596
 5235TIP3    H239901   7.045   7.298   9.606
 5236TIP3   OH239902   7.111   7.014   9.506
 5236TIP3    H139903   7.088   6.939   9.449
 5236TIP3    H239904   7.123   6.963   9.589
 5237TIP3   OH239905   6.711   6.572   9.279
 5237TIP3    H139906   6.653   6.651   9.275
 5237TIP3    H239907   6.790   6.606   9.232
 5238TIP3   OH239908   6.765   6.477   8.981
 5238TIP3    H139909   6.832   6.526   9.033
 5238TIP3    H239910   6.761   6.397   9.035
 5239TIP3   OH239911   7.093   6.587   9.383
 5239TIP3    H139912   7.025   6.610   9.450
 5239TIP3    H239913   7.152   6.530   9.438
 5240TIP3   OH239914   6.234   6.649   9.579
 5240TIP3    H139915   6.198   6.607   9.498
 5240TIP3    H239916   6.300   6.583   9.610
 5241TIP3   OH239917   6.362   7.011   9.860
 5241TIP3    H139918   6.358   6.996   9.764
 5241TIP3    H239919   6.438   6.958   9.888
 5242TIP3   OH239920   6.211   6.458   9.930
 5242TIP3    H139921   6.272   6.471   9.853
 5242TIP3    H239922   6.227   6.540   9.980
 5243TIP3   OH239923   6.949   6.551   9.161
 5243TIP3    H139924   6.995   6.564   9.247
 5243TIP3    H239925   7.015   6.592   9.099
 5244TIP3   OH239926   6.740   7.172   9.477
 5244TIP3    H139927   6.782   7.195   9.562
 5244TIP3    H239928   6.687   7.250   9.457
 5245TIP3   OH239929   7.325   5.682   9.168
 5245TIP3    H139930   7.228   5.691   9.177
 5245TIP3    H239931   7.355   5.775   9.165
 5246TIP3   OH239932   6.087   6.550   9.358
 5246TIP3    H139933   6.073   6.636   9.312
 5246TIP3    H239934   6.057   6.488   9.291
 5247TIP3   OH239935   7.463   7.139   8.987
 5247TIP3    H139936   7.486   7.232   9.006
 5247TIP3    H239937   7.552   7.103   8.998
 5248TIP3   OH239938   5.756   7.083   9.870
 5248TIP3    H139939   5.850   7.062   9.878
 5248TIP3    H239940   5.747   7.168   9.917
 5249TIP3   OH239941   6.714   7.503   9.350
 5249TIP3    H139942   6.715   7.496   9.252
 5249TIP3    H239943   6.674   7.590   9.362
 5250TIP3   OH239944   6.070   7.318   9.519
 5250TIP3    H139945   6.097   7.329   9.613
 5250TIP3    H239946   6.004   7.246   9.529
 5251TIP3   OH239947   6.990   7.394   9.079
 5251TIP3    H139948   7.058   7.332   9.041
 5251TIP3    H239949   6.990   7.362   9.172
 5252TIP3   OH239950   6.945   7.368   9.339
 5252TIP3    H139951   6.859   7.411   9.358
 5252TIP3    H239952   6.941   7.287   9.393
 5253TIP3   OH239953   6.245   5.833   9.904
 5253TIP3    H139954   6.174   5.809   9.840
 5253TIP3    H239955   6.206   5.913   9.939
 5254TIP3   OH239956   7.104   6.662   8.988
 5254TIP3    H139957   7.079   6.673   8.894
 5254TIP3    H239958   7.200   6.682   8.983
 5255TIP3   OH239959   6.681   6.043   8.999
 5255TIP3    H139960   6.634   6.028   9.084
 5255TIP3    H239961   6.628   5.982   8.945
 5256TIP3   OH239962   6.250   6.272   9.559
 5256TIP3    H139963   6.153   6.256   9.546
 5256TIP3    H239964   6.283   6.265   9.466
 5257TIP3   OH239965   6.826   6.386   9.419
 5257TIP3    H139966   6.780   6.450   9.358
 5257TIP3    H239967   6.877   6.336   9.353
 5258TIP3   OH239968   6.851   6.315   9.700
 5258TIP3    H139969   6.848   6.380   9.627
 5258TIP3    H239970   6.886   6.238   9.650
 5259TIP3   OH239971   6.322   6.069   8.946
 5259TIP3    H139972   6.274   6.010   9.007
 5259TIP3    H239973   6.252   6.094   8.882
 5260TIP3   OH239974   5.671   6.034   9.634
 5260TIP3    H139975   5.732   6.039   9.710
 5260TIP3    H239976   5.727   6.057   9.559
 5261TIP3   OH239977   5.775   6.086   9.128
 5261TIP3    H139978   5.848   6.116   9.070
 5261TIP3    H239979   5.726   6.170   9.141
 5262TIP3   OH239980   6.549   6.051   9.620
 5262TIP3    H139981   6.468   6.054   9.672
 5262TIP3    H239982   6.607   5.999   9.679
 5263TIP3   OH239983   5.984   6.197   9.551
 5263TIP3    H139984   5.907   6.228   9.497
 5263TIP3    H239985   6.000   6.107   9.516
 5264TIP3   OH239986   6.328   6.238   9.309
 5264TIP3    H139987   6.415   6.239   9.268
 5264TIP3    H239988   6.279   6.295   9.249
 5265TIP3   OH239989   6.957   6.001   9.916
 5265TIP3    H139990   6.941   5.971  10.006
 5265TIP3    H239991   6.866   6.008   9.885
 5266TIP3   OH239992   6.202   6.351   9.054
 5266TIP3    H139993   6.172   6.282   8.992
 5266TIP3    H239994   6.286   6.374   9.011
 5267TIP3   OH239995   6.607   6.308   9.834
 5267TIP3    H139996   6.685   6.285   9.779
 5267TIP3    H239997   6.615   6.250   9.912
 5268TIP3   OH239998   6.074   5.959   9.497
 5268TIP3    H139999   6.017   5.880   9.516
 5268TIP3    H240000   6.126   5.928   9.422
 5269TIP3   OH240001   6.557   6.792   9.251
 5269TIP3    H140002   6.481   6.742   9.214
 5269TIP3    H240003   6.514   6.825   9.334
 5270TIP3   OH240004   6.930   6.060   9.080
 5270TIP3    H140005   6.837   6.077   9.050
 5270TIP3    H240006   6.962   6.149   9.105
 5271TIP3   OH240007   7.028   6.284   9.200
 5271TIP3    H140008   7.105   6.272   9.260
 5271TIP3    H240009   7.042   6.372   9.162
 5272TIP3   OH240010   6.039   6.743   9.809
 5272TIP3    H140011   6.078   6.735   9.720
 5272TIP3    H240012   6.100   6.690   9.862
 5273TIP3   OH240013   6.756   6.933   9.161
 5273TIP3    H140014   6.699   7.014   9.171
 5273TIP3    H240015   6.692   6.862   9.183
 5274TIP3   OH240016   7.439   6.279   9.212
 5274TIP3    H140017   7.412   6.243   9.125
 5274TIP3    H240018   7.460   6.371   9.182
 5275TIP3   OH240019   7.309   7.150   9.239
 5275TIP3    H140020   7.254   7.077   9.273
 5275TIP3    H240021   7.361   7.105   9.170
 5276TIP3   OH240022   6.981   6.678   9.898
 5276TIP3    H140023   6.890   6.642   9.882
 5276TIP3    H240024   7.029   6.617   9.836
 5277TIP3   OH240025   6.281   7.072   9.573
 5277TIP3    H140026   6.332   7.156   9.566
 5277TIP3    H240027   6.206   7.091   9.515
 5278TIP3   OH240028   5.920   6.586   9.036
 5278TIP3    H140029   5.959   6.644   9.104
 5278TIP3    H240030   5.822   6.591   9.049
 5279TIP3   OH240031   6.412   6.836   9.470
 5279TIP3    H140032   6.374   6.916   9.511
 5279TIP3    H240033   6.373   6.766   9.526
 5280TIP3   OH240034   6.336   7.319   9.447
 5280TIP3    H140035   6.240   7.330   9.460
 5280TIP3    H240036   6.371   7.399   9.494
 5281TIP3   OH240037   7.090   6.980   9.047
 5281TIP3    H140038   7.106   6.920   9.124
 5281TIP3    H240039   6.996   6.963   9.031
 5282TIP3   OH240040   7.560   7.377   9.080
 5282TIP3    H140041   7.595   7.452   9.029
 5282TIP3    H240042   7.466   7.402   9.085
 5283TIP3   OH240043   7.181   6.827   9.254
 5283TIP3    H140044   7.149   6.738   9.280
 5283TIP3    H240045   7.277   6.811   9.242
 5284TIP3   OH240046   6.495   7.085   8.884
 5284TIP3    H140047   6.484   7.016   8.818
 5284TIP3    H240048   6.427   7.061   8.951
 5285TIP3   OH240049   6.357   7.026   9.128
 5285TIP3    H140050   6.434   6.983   9.167
 5285TIP3    H240051   6.370   7.118   9.163
 5286TIP3   OH240052   6.047   6.757   9.194
 5286TIP3    H140053   5.960   6.794   9.215
 5286TIP3    H240054   6.092   6.832   9.149
 5287TIP3   OH240055   6.871   5.976   9.330
 5287TIP3    H140056   6.880   6.016   9.241
 5287TIP3    H240057   6.906   6.045   9.390
 5288TIP3   OH240058   6.626   7.159   9.189
 5288TIP3    H140059   6.541   7.208   9.199
 5288TIP3    H240060   6.689   7.231   9.185
 5289TIP3   OH240061   6.648   6.185   9.414
 5289TIP3    H140062   6.698   6.267   9.438
 5289TIP3    H240063   6.633   6.142   9.501
 5290TIP3   OH240064   6.661   5.846   9.429
 5290TIP3    H140065   6.629   5.907   9.498
 5290TIP3    H240066   6.742   5.895   9.398
 5291TIP3   OH240067   6.394   7.282   9.187
 5291TIP3    H140068   6.398   7.361   9.128
 5291TIP3    H240069   6.362   7.316   9.274
 5292TIP3   OH240070   6.191   5.989   9.183
 5292TIP3    H140071   6.229   6.065   9.231
 5292TIP3    H240072   6.268   5.930   9.177
 5293TIP3   OH240073   7.078   6.471   9.755
 5293TIP3    H140074   7.003   6.409   9.749
 5293TIP3    H240075   7.140   6.421   9.812
 5294TIP3   OH240076   6.067   6.989   9.034
 5294TIP3    H140077   6.129   7.043   9.088
 5294TIP3    H240078   6.133   6.941   8.979
 5295TIP3   OH240079   5.900   6.284   8.974
 5295TIP3    H140080   5.940   6.367   9.003
 5295TIP3    H240081   5.830   6.317   8.916
 5296TIP3   OH240082   7.278   7.339   9.958
 5296TIP3    H140083   7.263   7.407   9.889
 5296TIP3    H240084   7.366   7.366   9.988
 5297TIP3   OH240085   6.009   5.787   9.790
 5297TIP3    H140086   5.985   5.748   9.703
 5297TIP3    H240087   5.990   5.712   9.850
 5298TIP3   OH240088   5.859   7.132   9.441
 5298TIP3    H140089   5.782   7.180   9.477
 5298TIP3    H240090   5.865   7.180   9.356
 5299TIP3   OH240091   6.696   7.273   8.893
 5299TIP3    H140092   6.641   7.191   8.901
 5299TIP3    H240093   6.778   7.239   8.850
 5300TIP3   OH240094   7.158   7.234   8.947
 5300TIP3    H140095   7.171   7.146   8.988
 5300TIP3    H240096   7.230   7.240   8.883
 5301TIP3   OH240097   6.234   6.828   8.884
 5301TIP3    H140098   6.237   6.748   8.939
 5301TIP3    H240099   6.323   6.824   8.844
 5302TIP3   OH240100   6.791   6.942   8.876
 5302TIP3    H140101   6.754   6.936   8.966
 5302TIP3    H240102   6.781   6.847   8.851
 5303TIP3   OH240103   6.352   6.632   9.145
 5303TIP3    H140104   6.281   6.575   9.176
 5303TIP3    H240105   6.392   6.578   9.074
 5304TIP3   OH240106   6.481   6.473   8.944
 5304TIP3    H140107   6.469   6.478   8.846
 5304TIP3    H240108   6.579   6.475   8.948
 5305TIP3   OH240109   7.361   6.681   8.897
 5305TIP3    H140110   7.347   6.659   8.802
 5305TIP3    H240111   7.396   6.772   8.891
 5306TIP3   OH240112   6.443   7.503   9.047
 5306TIP3    H140113   6.527   7.546   9.070
 5306TIP3    H240114   6.399   7.567   8.990
 5307TIP3   OH240115   5.794   6.956   9.022
 5307TIP3    H140116   5.892   6.966   9.017
 5307TIP3    H240117   5.775   6.911   8.936
 5308TIP3   OH240118   5.677   7.527   9.474
 5308TIP3    H140119   5.599   7.489   9.431
 5308TIP3    H240120   5.670   7.480   9.559
 5309TIP3   OH240121   5.743   7.320   9.675
 5309TIP3    H140122   5.706   7.233   9.700
 5309TIP3    H240123   5.799   7.340   9.753
 5310TIP3   OH240124   7.454   6.783   9.259
 5310TIP3    H140125   7.533   6.832   9.283
 5310TIP3    H240126   7.448   6.719   9.334
 5311TIP3   OH240127   7.464   6.617   9.464
 5311TIP3    H140128   7.380   6.575   9.490
 5311TIP3    H240129   7.513   6.616   9.548
 5312TIP3   OH240130   7.565   6.818   9.865
 5312TIP3    H140131   7.656   6.788   9.889
 5312TIP3    H240132   7.585   6.912   9.847
 5313TIP3   OH240133   7.489   6.547   9.129
 5313TIP3    H140134   7.446   6.571   9.046
 5313TIP3    H240135   7.496   6.634   9.171
 5314TIP3   OH240136   7.322   6.268   8.945
 5314TIP3    H140137   7.346   6.331   8.876
 5314TIP3    H240138   7.302   6.188   8.892
 5315TIP3   OH240139   7.245   6.438   9.539
 5315TIP3    H140140   7.267   6.345   9.555
 5315TIP3    H240141   7.208   6.463   9.626
 5316TIP3   OH240142   5.738   6.664   9.906
 5316TIP3    H140143   5.773   6.632   9.820
 5316TIP3    H240144   5.815   6.649   9.964
 5317TIP3   OH240145   7.259   6.028   8.847
 5317TIP3    H140146   7.264   5.995   8.938
 5317TIP3    H240147   7.168   5.997   8.822
 5318TIP3   OH240148   7.243   6.191   9.374
 5318TIP3    H140149   7.259   6.096   9.389
 5318TIP3    H240150   7.330   6.218   9.339
 5319TIP3   OH240151   7.254   6.298   9.843
 5319TIP3    H140152   7.352   6.290   9.847
 5319TIP3    H240153   7.225   6.223   9.897
 5320TIP3   OH240154   7.264   5.916   9.389
 5320TIP3    H140155   7.280   5.883   9.480
 5320TIP3    H240156   7.205   5.846   9.350
 5321TIP3   OH240157   5.838   6.001   9.875
 5321TIP3    H140158   5.884   5.920   9.845
 5321TIP3    H240159   5.910   6.051   9.917
 5322TIP3   OH240160   5.680   6.288   9.968
 5322TIP3    H140161   5.726   6.249   9.890
 5322TIP3    H240162   5.710   6.380   9.958
 5323TIP3   OH240163   7.482   5.914   9.073
 5323TIP3    H140164   7.509   5.863   8.995
 5323TIP3    H240165   7.497   6.006   9.045
 5324TIP3   OH240166   5.699   5.919   9.331
 5324TIP3    H140167   5.605   5.937   9.343
 5324TIP3    H240168   5.721   5.980   9.259
 5325TIP3   OH240169   7.169   7.392   9.529
 5325TIP3    H140170   7.235   7.395   9.457
 5325TIP3    H240171   7.207   7.459   9.590
 5326TIP3   OH240172   5.914   7.338   9.896
 5326TIP3    H140173   5.961   7.399   9.956
 5326TIP3    H240174   5.989   7.298   9.846
 5327TIP3   OH240175   6.127   7.260   9.768
 5327TIP3    H140176   6.134   7.163   9.782
 5327TIP3    H240177   6.213   7.289   9.806
 5328TIP3   OH240178   6.363   7.280   9.870
 5328TIP3    H140179   6.379   7.183   9.871
 5328TIP3    H240180   6.367   7.304   9.964
 5329TIP3   OH240181   6.714   5.913   9.779
 5329TIP3    H140182   6.658   5.840   9.808
 5329TIP3    H240183   6.798   5.864   9.769
 5330TIP3   OH240184   7.215   5.709   9.825
 5330TIP3    H140185   7.267   5.763   9.762
 5330TIP3    H240186   7.126   5.733   9.795
 5331TIP3   OH240187   7.361   5.828   9.638
 5331TIP3    H140188   7.427   5.766   9.598
 5331TIP3    H240189   7.410   5.913   9.632
 5332TIP3   OH240190   5.946   5.707   9.541
 5332TIP3    H140191   5.855   5.690   9.508
 5332TIP3    H240192   5.985   5.617   9.533
 5333TIP3   OH240193   5.816   5.714   9.146
 5333TIP3    H140194   5.854   5.781   9.084
 5333TIP3    H240195   5.784   5.771   9.219
 5334TIP3   OH240196   6.385   5.695   9.584
 5334TIP3    H140197   6.443   5.717   9.511
 5334TIP3    H240198   6.435   5.728   9.661
 5335TIP3   OH240199   6.964   5.763   9.683
 5335TIP3    H140200   6.960   5.778   9.589
 5335TIP3    H240201   6.916   5.678   9.696
 5336TIP3   OH240202   7.081   5.746   9.304
 5336TIP3    H140203   7.001   5.800   9.314
 5336TIP3    H240204   7.048   5.656   9.325
 5337TIP3   OH240205   5.818   7.302   9.247
 5337TIP3    H140206   5.726   7.310   9.219
 5337TIP3    H240207   5.858   7.374   9.194
 5338TIP3   OH240208   5.979   5.912   9.008
 5338TIP3    H140209   6.045   5.847   8.974
 5338TIP3    H240210   6.024   5.932   9.092
 5339TIP3   OH240211   6.532   5.973   9.208
 5339TIP3    H140212   6.561   5.900   9.265
 5339TIP3    H240213   6.547   6.050   9.265
 5340TIP3   OH240214   6.726   7.461   9.084
 5340TIP3    H140215   6.815   7.438   9.050
 5340TIP3    H240216   6.673   7.406   9.022
 5341TIP3   OH240217   7.370   7.389   9.347
 5341TIP3    H140218   7.353   7.296   9.318
 5341TIP3    H240219   7.373   7.437   9.262
 5342TIP3   OH240220   6.003   7.425   8.937
 5342TIP3    H140221   5.955   7.444   9.019
 5342TIP3    H240222   6.064   7.355   8.965
 5343TIP3   OH240223   7.558   6.367   9.460
 5343TIP3    H140224   7.523   6.453   9.431
 5343TIP3    H240225   7.517   6.308   9.394
 5344TIP3   OH240226   7.558   7.078   9.920
 5344TIP3    H140227   7.657   7.087   9.911
 5344TIP3    H240228   7.530   7.161   9.874
 5345TIP3   OH240229   7.501   6.056   9.599
 5345TIP3    H140230   7.597   6.068   9.618
 5345TIP3    H240231   7.504   6.020   9.508
 5346TIP3   OH240232   7.487   7.491   9.562
 5346TIP3    H140233   7.444   7.450   9.484
 5346TIP3    H240234   7.437   7.450   9.634
 5347TIP3   OH240235   7.563   7.291   9.762
 5347TIP3    H140236   7.580   7.237   9.683
 5347TIP3    H240237   7.648   7.338   9.761
 5348TIP3   OH240238   7.657   6.531   9.917
 5348TIP3    H140239   7.712   6.564   9.842
 5348TIP3    H240240   7.677   6.597   9.986
 5349TIP3   OH240241   7.505   6.312   9.927
 5349TIP3    H140242   7.579   6.258   9.897
 5349TIP3    H240243   7.549   6.400   9.931
 5350TIP3   OH240244   7.524   5.943   9.356
 5350TIP3    H140245   7.427   5.941   9.344
 5350TIP3    H240246   7.555   5.934   9.264
 5351TIP3   OH240247   0.837   7.517   9.905
 5351TIP3    H140248   0.873   7.454   9.840
 5351TIP3    H240249   0.741   7.515   9.882
 5352TIP3   OH240250   1.678   7.519   9.129
 5352TIP3    H140251   1.601   7.516   9.189
 5352TIP3    H240252   1.688   7.617   9.125
 5353TIP3   OH240253   0.578   7.601   9.893
 5353TIP3    H140254   0.507   7.570   9.952
 5353TIP3    H240255   0.589   7.693   9.927
 5354TIP3   OH240256   0.288   7.594   9.832
 5354TIP3    H140257   0.290   7.583   9.734
 5354TIP3    H240258   0.248   7.512   9.864
 5355TIP3   OH240259   1.624   7.552   9.729
 5355TIP3    H140260   1.631   7.643   9.767
 5355TIP3    H240261   1.526   7.548   9.728
 5356TIP3   OH240262   0.273   7.574   9.546
 5356TIP3    H140263   0.195   7.558   9.489
 5356TIP3    H240264   0.327   7.493   9.533
 5357TIP3   OH240265   0.219   7.551   9.129
 5357TIP3    H140266   0.244   7.634   9.086
 5357TIP3    H240267   0.152   7.584   9.192
 5358TIP3   OH240268   0.748   7.537   9.582
 5358TIP3    H140269   0.781   7.607   9.522
 5358TIP3    H240270   0.716   7.595   9.654
 5359TIP3   OH240271   1.355   7.577   9.680
 5359TIP3    H140272   1.278   7.607   9.631
 5359TIP3    H240273   1.314   7.508   9.736
 5360TIP3   OH240274   1.474   7.580   9.290
 5360TIP3    H140275   1.403   7.568   9.225
 5360TIP3    H240276   1.436   7.534   9.368
 5361TIP3   OH240277   2.708   7.521   9.902
 5361TIP3    H140278   2.740   7.461   9.832
 5361TIP3    H240279   2.611   7.531   9.879
 5362TIP3   OH240280   3.556   7.525   9.128
 5362TIP3    H140281   3.480   7.538   9.190
 5362TIP3    H240282   3.579   7.620   9.118
 5363TIP3   OH240283   2.455   7.597   9.887
 5363TIP3    H140284   2.365   7.574   9.919
 5363TIP3    H240285   2.462   7.690   9.921
 5364TIP3   OH240286   2.155   7.588   9.818
 5364TIP3    H140287   2.155   7.571   9.721
 5364TIP3    H240288   2.118   7.505   9.854
 5365TIP3   OH240289   3.517   7.550   9.725
 5365TIP3    H140290   3.528   7.635   9.772
 5365TIP3    H240291   3.420   7.543   9.732
 5366TIP3   OH240292   2.166   7.549   9.530
 5366TIP3    H140293   2.080   7.535   9.485
 5366TIP3    H240294   2.215   7.467   9.503
 5367TIP3   OH240295   2.072   7.541   9.137
 5367TIP3    H140296   2.117   7.628   9.132
 5367TIP3    H240297   2.007   7.568   9.204
 5368TIP3   OH240298   2.636   7.534   9.578
 5368TIP3    H140299   2.648   7.617   9.529
 5368TIP3    H240300   2.576   7.567   9.646
 5369TIP3   OH240301   3.229   7.580   9.665
 5369TIP3    H140302   3.168   7.566   9.592
 5369TIP3    H240303   3.194   7.517   9.730
 5370TIP3   OH240304   3.353   7.591   9.299
 5370TIP3    H140305   3.301   7.573   9.220
 5370TIP3    H240306   3.313   7.527   9.361
 5371TIP3   OH240307   4.597   7.519   9.904
 5371TIP3    H140308   4.629   7.451   9.842
 5371TIP3    H240309   4.499   7.520   9.887
 5372TIP3   OH240310   5.442   7.524   9.129
 5372TIP3    H140311   5.367   7.532   9.192
 5372TIP3    H240312   5.461   7.620   9.122
 5373TIP3   OH240313   4.339   7.601   9.885
 5373TIP3    H140314   4.254   7.577   9.927
 5373TIP3    H240315   4.353   7.691   9.923
 5374TIP3   OH240316   4.034   7.595   9.810
 5374TIP3    H140317   4.042   7.576   9.714
 5374TIP3    H240318   4.011   7.507   9.844
 5375TIP3   OH240319   5.406   7.550   9.730
 5375TIP3    H140320   5.421   7.637   9.773
 5375TIP3    H240321   5.309   7.551   9.730
 5376TIP3   OH240322   4.057   7.548   9.524
 5376TIP3    H140323   3.969   7.527   9.486
 5376TIP3    H240324   4.109   7.468   9.498
 5377TIP3   OH240325   3.962   7.542   9.135
 5377TIP3    H140326   4.010   7.627   9.127
 5377TIP3    H240327   3.898   7.572   9.202
 5378TIP3   OH240328   4.519   7.544   9.583
 5378TIP3    H140329   4.521   7.632   9.539
 5378TIP3    H240330   4.464   7.569   9.659
 5379TIP3   OH240331   5.129   7.583   9.665
 5379TIP3    H140332   5.077   7.567   9.586
 5379TIP3    H240333   5.084   7.524   9.730
 5380TIP3   OH240334   5.242   7.594   9.295
 5380TIP3    H140335   5.187   7.583   9.217
 5380TIP3    H240336   5.197   7.532   9.357
 5381TIP3   OH240337   6.484   7.522   9.903
 5381TIP3    H140338   6.518   7.472   9.827
 5381TIP3    H240339   6.387   7.528   9.884
 5382TIP3   OH240340   7.311   7.510   9.097
 5382TIP3    H140341   7.239   7.511   9.165
 5382TIP3    H240342   7.322   7.607   9.085
 5383TIP3   OH240343   6.227   7.598   9.892
 5383TIP3    H140344   6.143   7.571   9.933
 5383TIP3    H240345   6.236   7.689   9.929
 5384TIP3   OH240346   5.920   7.596   9.809
 5384TIP3    H140347   5.929   7.579   9.713
 5384TIP3    H240348   5.893   7.509   9.843
 5385TIP3   OH240349   7.265   7.528   9.754
 5385TIP3    H140350   7.284   7.607   9.808
 5385TIP3    H240351   7.171   7.544   9.734
 5386TIP3   OH240352   5.942   7.548   9.525
 5386TIP3    H140353   5.855   7.522   9.487
 5386TIP3    H240354   5.995   7.468   9.505
 5387TIP3   OH240355   5.855   7.539   9.146
 5387TIP3    H140356   5.896   7.627   9.136
 5387TIP3    H240357   5.787   7.565   9.211
 5388TIP3   OH240358   6.395   7.540   9.578
 5388TIP3    H140359   6.421   7.625   9.536
 5388TIP3    H240360   6.330   7.576   9.639
 5389TIP3   OH240361   6.992   7.579   9.669
 5389TIP3    H140362   6.931   7.583   9.595
 5389TIP3    H240363   6.946   7.516   9.728
 5390TIP3   OH240364   7.122   7.568   9.288
 5390TIP3    H140365   7.054   7.591   9.224
 5390TIP3    H240366   7.077   7.490   9.329
 5391TIP3   OH240367   1.205   1.013   0.678
 5391TIP3    H140368   1.187   1.109   0.682
 5391TIP3    H240369   1.136   0.981   0.619
 5392TIP3   OH240370   1.120   0.886   1.014
 5392TIP3    H140371   1.097   0.858   1.105
 5392TIP3    H240372   1.052   0.839   0.961
 5393TIP3   OH240373   0.331   0.910   1.177
 5393TIP3    H140374   0.295   0.838   1.231
 5393TIP3    H240375   0.399   0.943   1.239
 5394TIP3   OH240376   1.420   1.204   0.886
 5394TIP3    H140377   1.397   1.126   0.940
 5394TIP3    H240378   1.454   1.264   0.954
 5395TIP3   OH240379   0.376   1.353   1.001
 5395TIP3    H140380   0.368   1.261   0.967
 5395TIP3    H240381   0.473   1.351   1.010
 5396TIP3   OH240382   0.130   0.658   0.516
 5396TIP3    H140383   0.124   0.739   0.569
 5396TIP3    H240384   0.044   0.615   0.538
 5397TIP3   OH240385   0.118   0.923   0.837
 5397TIP3    H140386   0.162   0.837   0.859
 5397TIP3    H240387   0.178   0.964   0.774
 5398TIP3   OH240388   1.188   1.757   0.882
 5398TIP3    H140389   1.256   1.700   0.838
 5398TIP3    H240390   1.134   1.687   0.920
 5399TIP3   OH240391   0.917   1.190   1.106
 5399TIP3    H140392   0.948   1.133   1.034
 5399TIP3    H240393   1.003   1.217   1.143
 5400TIP3   OH240394   1.784   0.325   1.100
 5400TIP3    H140395   1.791   0.390   1.173
 5400TIP3    H240396   1.851   0.362   1.040
 5401TIP3   OH240397   1.271   0.635   1.138
 5401TIP3    H140398   1.293   0.542   1.156
 5401TIP3    H240399   1.260   0.632   1.041
 5402TIP3   OH240400   0.581   0.424   0.831
 5402TIP3    H140401   0.601   0.497   0.769
 5402TIP3    H240402   0.546   0.359   0.767
 5403TIP3   OH240403   1.322   0.427   0.648
 5403TIP3    H140404   1.369   0.412   0.734
 5403TIP3    H240405   1.380   0.493   0.608
 5404TIP3   OH240406   0.224   0.672   0.899
 5404TIP3    H140407   0.286   0.614   0.946
 5404TIP3    H240408   0.241   0.649   0.806
 5405TIP3   OH240409   0.714   0.836   0.850
 5405TIP3    H140410   0.787   0.786   0.891
 5405TIP3    H240411   0.680   0.765   0.792
 5406TIP3   OH240412   1.814   0.461   1.331
 5406TIP3    H140413   1.771   0.550   1.322
 5406TIP3    H240414   1.811   0.449   1.427
 5407TIP3   OH240415   0.452   0.323   1.238
 5407TIP3    H140416   0.417   0.368   1.159
 5407TIP3    H240417   0.377   0.333   1.300
 5408TIP3   OH240418   1.148   1.275   0.564
 5408TIP3    H140419   1.138   1.268   0.467
 5408TIP3    H240420   1.139   1.371   0.578
 5409TIP3   OH240421   0.726   1.061   1.245
 5409TIP3    H140422   0.662   1.121   1.288
 5409TIP3    H240423   0.785   1.125   1.200
 5410TIP3   OH240424   1.483   0.431   0.871
 5410TIP3    H140425   1.447   0.379   0.945
 5410TIP3    H240426   1.573   0.450   0.901
 5411TIP3   OH240427   0.396   0.503   1.030
 5411TIP3    H140428   0.453   0.570   1.075
 5411TIP3    H240429   0.456   0.472   0.958
 5412TIP3   OH240430   0.581   1.308   1.302
 5412TIP3    H140431   0.559   1.382   1.243
 5412TIP3    H240432   0.492   1.290   1.339
 5413TIP3   OH240433   0.108   1.241   0.396
 5413TIP3    H140434   0.116   1.278   0.305
 5413TIP3    H240435   0.145   1.311   0.454
 5414TIP3   OH240436   1.523   1.423   1.091
 5414TIP3    H140437   1.426   1.435   1.104
 5414TIP3    H240438   1.543   1.510   1.053
 5415TIP3   OH240439   1.545   0.220   1.234
 5415TIP3    H140440   1.469   0.250   1.180
 5415TIP3    H240441   1.613   0.216   1.163
 5416TIP3   OH240442   0.837   0.110   0.919
 5416TIP3    H140443   0.843   0.025   0.968
 5416TIP3    H240444   0.774   0.160   0.976
 5417TIP3   OH240445   1.342   1.581   0.759
 5417TIP3    H140446   1.358   1.503   0.703
 5417TIP3    H240447   1.426   1.630   0.739
 5418TIP3   OH240448   1.443   1.379   0.608
 5418TIP3    H140449   1.442   1.308   0.540
 5418TIP3    H240450   1.443   1.326   0.689
 5419TIP3   OH240451   1.613   1.247   1.478
 5419TIP3    H140452   1.636   1.178   1.412
 5419TIP3    H240453   1.623   1.328   1.423
 5420TIP3   OH240454   1.053   0.940   0.422
 5420TIP3    H140455   1.015   1.029   0.405
 5420TIP3    H240456   1.134   0.941   0.367
 5421TIP3   OH240457   1.107   0.789   0.137
 5421TIP3    H140458   1.189   0.818   0.185
 5421TIP3    H240459   1.128   0.699   0.109
 5422TIP3   OH240460   1.815   0.886   1.235
 5422TIP3    H140461   1.766   0.967   1.255
 5422TIP3    H240462   1.878   0.921   1.169
 5423TIP3   OH240463   1.429   0.907   0.535
 5423TIP3    H140464   1.355   0.947   0.585
 5423TIP3    H240465   1.492   0.886   0.606
 5424TIP3   OH240466   1.416   0.753   1.445
 5424TIP3    H140467   1.407   0.847   1.466
 5424TIP3    H240468   1.346   0.743   1.378
 5425TIP3   OH240469   0.564   1.020   0.719
 5425TIP3    H140470   0.498   0.979   0.658
 5425TIP3    H240471   0.616   0.943   0.751
 5426TIP3   OH240472   0.714   1.328   0.974
 5426TIP3    H140473   0.725   1.328   0.877
 5426TIP3    H240474   0.788   1.275   1.009
 5427TIP3   OH240475   0.603   0.889   1.089
 5427TIP3    H140476   0.649   0.904   1.003
 5427TIP3    H240477   0.643   0.956   1.149
 5428TIP3   OH240478   1.268   1.451   1.160
 5428TIP3    H140479   1.249   1.505   1.238
 5428TIP3    H240480   1.248   1.361   1.193
 5429TIP3   OH240481   0.706   1.334   1.536
 5429TIP3    H140482   0.630   1.379   1.578
 5429TIP3    H240483   0.673   1.322   1.444
 5430TIP3   OH240484   1.286   0.902   0.298
 5430TIP3    H140485   1.347   0.888   0.374
 5430TIP3    H240486   1.350   0.924   0.227
 5431TIP3   OH240487   0.435   0.996   1.412
 5431TIP3    H140488   0.439   1.060   1.486
 5431TIP3    H240489   0.356   0.945   1.438
 5432TIP3   OH240490   1.088   1.594   0.573
 5432TIP3    H140491   1.096   1.585   0.669
 5432TIP3    H240492   1.024   1.667   0.560
 5433TIP3   OH240493   0.521   1.516   1.636
 5433TIP3    H140494   0.515   1.534   1.540
 5433TIP3    H240495   0.426   1.512   1.660
 5434TIP3   OH240496   1.686   0.088   0.297
 5434TIP3    H140497   1.614   0.131   0.344
 5434TIP3    H240498   1.716   0.158   0.235
 5435TIP3   OH240499   0.401   0.909   0.525
 5435TIP3    H140500   0.392   0.985   0.464
 5435TIP3    H240501   0.417   0.834   0.466
 5436TIP3   OH240502   1.794   1.504   0.137
 5436TIP3    H140503   1.823   1.597   0.149
 5436TIP3    H240504   1.877   1.454   0.152
 5437TIP3   OH240505   0.159   1.164   1.389
 5437TIP3    H140506   0.063   1.154   1.375
 5437TIP3    H240507   0.191   1.082   1.346
 5438TIP3   OH240508   0.133   1.473   1.002
 5438TIP3    H140509   0.204   1.404   1.011
 5438TIP3    H240510   0.146   1.519   1.086
 5439TIP3   OH240511   1.872   1.505   1.643
 5439TIP3    H140512   1.856   1.416   1.607
 5439TIP3    H240513   1.781   1.525   1.674
 5440TIP3   OH240514   0.955   1.462   1.512
 5440TIP3    H140515   0.970   1.549   1.555
 5440TIP3    H240516   0.859   1.446   1.528
 5441TIP3   OH240517   0.995   1.828   0.443
 5441TIP3    H140518   1.039   1.845   0.357
 5441TIP3    H240519   1.024   1.906   0.495
 5442TIP3   OH240520   0.408   1.684   0.668
 5442TIP3    H140521   0.427   1.663   0.762
 5442TIP3    H240522   0.312   1.671   0.663
 5443TIP3   OH240523   1.307   1.800   0.203
 5443TIP3    H140524   1.364   1.726   0.169
 5443TIP3    H240525   1.329   1.801   0.297
 5444TIP3   OH240526   1.287   1.745   0.481
 5444TIP3    H140527   1.194   1.718   0.484
 5444TIP3    H240528   1.326   1.669   0.529
 5445TIP3   OH240529   1.551   0.639   1.666
 5445TIP3    H140530   1.516   0.685   1.586
 5445TIP3    H240531   1.549   0.548   1.631
 5446TIP3   OH240532   0.349   1.325   1.450
 5446TIP3    H140533   0.358   1.272   1.532
 5446TIP3    H240534   0.269   1.278   1.414
 5447TIP3   OH240535   0.590   0.205   1.029
 5447TIP3    H140536   0.503   0.226   0.988
 5447TIP3    H240537   0.587   0.263   1.107
 5448TIP3   OH240538   0.999   0.188   1.446
 5448TIP3    H140539   1.042   0.100   1.444
 5448TIP3    H240540   0.911   0.165   1.413
 5449TIP3   OH240541   1.363   0.466   1.477
 5449TIP3    H140542   1.305   0.451   1.556
 5449TIP3    H240543   1.360   0.563   1.475
 5450TIP3   OH240544   1.473   1.001   0.143
 5450TIP3    H140545   1.445   0.961   0.056
 5450TIP3    H240546   1.565   1.026   0.119
 5451TIP3   OH240547   0.987   0.361   0.154
 5451TIP3    H140548   0.953   0.300   0.222
 5451TIP3    H240549   0.961   0.319   0.071
 5452TIP3   OH240550   0.607   0.625   1.162
 5452TIP3    H140551   0.596   0.657   1.254
 5452TIP3    H240552   0.603   0.712   1.116
 5453TIP3   OH240553   0.610   0.642   0.690
 5453TIP3    H140554   0.513   0.626   0.676
 5453TIP3    H240555   0.638   0.618   0.599
 5454TIP3   OH240556   1.149   0.728   0.558
 5454TIP3    H140557   1.107   0.799   0.503
 5454TIP3    H240558   1.220   0.700   0.496
 5455TIP3   OH240559   1.074   0.708   1.736
 5455TIP3    H140560   1.003   0.676   1.677
 5455TIP3    H240561   1.142   0.639   1.730
 5456TIP3   OH240562   1.247   0.638   0.839
 5456TIP3    H140563   1.233   0.718   0.786
 5456TIP3    H240564   1.244   0.570   0.769
 5457TIP3   OH240565   0.320   0.653   1.320
 5457TIP3    H140566   0.394   0.695   1.369
 5457TIP3    H240567   0.333   0.562   1.351
 5458TIP3   OH240568   0.672   0.420   0.043
 5458TIP3    H140569   0.648   0.403   0.135
 5458TIP3    H240570   0.603   0.480   0.013
 5459TIP3   OH240571   0.107   0.444   0.765
 5459TIP3    H140572   0.159   0.415   0.841
 5459TIP3    H240573   0.136   0.384   0.694
 5460TIP3   OH240574   0.128   0.441   0.276
 5460TIP3    H140575   0.205   0.487   0.239
 5460TIP3    H240576   0.066   0.514   0.289
 5461TIP3   OH240577   1.133   0.825   1.281
 5461TIP3    H140578   1.199   0.773   1.229
 5461TIP3    H240579   1.095   0.751   1.335
 5462TIP3   OH240580   0.877   0.393   0.759
 5462TIP3    H140581   0.791   0.368   0.798
 5462TIP3    H240582   0.936   0.376   0.835
 5463TIP3   OH240583   0.358   0.587   0.628
 5463TIP3    H140584   0.282   0.606   0.569
 5463TIP3    H240585   0.380   0.495   0.603
 5464TIP3   OH240586   0.666   0.563   0.437
 5464TIP3    H140587   0.764   0.566   0.435
 5464TIP3    H240588   0.641   0.617   0.359
 5465TIP3   OH240589   1.290   0.313   1.078
 5465TIP3    H140590   1.235   0.327   1.157
 5465TIP3    H240591   1.225   0.276   1.015
 5466TIP3   OH240592   0.574   0.696   0.226
 5466TIP3    H140593   0.492   0.651   0.197
 5466TIP3    H240594   0.621   0.715   0.144
 5467TIP3   OH240595   1.608   1.918   1.725
 5467TIP3    H140596   1.642   1.966   1.647
 5467TIP3    H240597   1.687   1.926   1.782
 5468TIP3   OH240598   0.424   1.145   1.641
 5468TIP3    H140599   0.478   1.150   1.724
 5468TIP3    H240600   0.342   1.108   1.677
 5469TIP3   OH240601   0.947   0.681   0.952
 5469TIP3    H140602   1.007   0.631   0.895
 5469TIP3    H240603   0.947   0.628   1.033
 5470TIP3   OH240604   0.476   0.322   0.608
 5470TIP3    H140605   0.420   0.247   0.640
 5470TIP3    H240606   0.525   0.280   0.537
 5471TIP3   OH240607   0.879   0.478   1.180
 5471TIP3    H140608   0.816   0.550   1.165
 5471TIP3    H240609   0.945   0.522   1.236
 5472TIP3   OH240610   0.904   1.166   0.387
 5472TIP3    H140611   0.828   1.118   0.347
 5472TIP3    H240612   0.866   1.179   0.477
 5473TIP3   OH240613   1.651   1.092   1.273
 5473TIP3    H140614   1.697   1.144   1.202
 5473TIP3    H240615   1.565   1.080   1.229
 5474TIP3   OH240616   1.241   0.430   0.218
 5474TIP3    H140617   1.151   0.452   0.188
 5474TIP3    H240618   1.287   0.516   0.215
 5475TIP3   OH240619   1.000   1.188   1.474
 5475TIP3    H140620   0.961   1.132   1.543
 5475TIP3    H240621   0.971   1.278   1.499
 5476TIP3   OH240622   1.334   0.642   0.362
 5476TIP3    H140623   1.418   0.619   0.407
 5476TIP3    H240624   1.371   0.680   0.281
 5477TIP3   OH240625   0.422   1.103   0.928
 5477TIP3    H140626   0.473   1.081   0.847
 5477TIP3    H240627   0.443   1.027   0.986
 5478TIP3   OH240628   1.121   1.296   0.273
 5478TIP3    H140629   1.079   1.384   0.283
 5478TIP3    H240630   1.045   1.238   0.294
 5479TIP3   OH240631   0.178   0.888   1.432
 5479TIP3    H140632   0.174   0.843   1.517
 5479TIP3    H240633   0.082   0.887   1.410
 5480TIP3   OH240634   0.797   0.926   1.711
 5480TIP3    H140635   0.748   0.847   1.679
 5480TIP3    H240636   0.886   0.890   1.697
 5481TIP3   OH240637   1.298   1.423   1.503
 5481TIP3    H140638   1.214   1.429   1.456
 5481TIP3    H240639   1.270   1.452   1.592
 5482TIP3   OH240640   1.823   0.657   0.379
 5482TIP3    H140641   1.789   0.615   0.297
 5482TIP3    H240642   1.833   0.748   0.347
 5483TIP3   OH240643   1.851   1.206   1.599
 5483TIP3    H140644   1.764   1.220   1.555
 5483TIP3    H240645   1.910   1.202   1.520
 5484TIP3   OH240646   1.680   1.481   0.383
 5484TIP3    H140647   1.595   1.436   0.387
 5484TIP3    H240648   1.704   1.474   0.288
 5485TIP3   OH240649   1.385   0.993   1.052
 5485TIP3    H140650   1.298   0.959   1.023
 5485TIP3    H240651   1.444   0.926   1.016
 5486TIP3   OH240652   0.629   1.425   0.712
 5486TIP3    H140653   0.664   1.510   0.677
 5486TIP3    H240654   0.547   1.417   0.660
 5487TIP3   OH240655   0.235   0.904   0.143
 5487TIP3    H140656   0.290   0.976   0.178
 5487TIP3    H240657   0.152   0.912   0.192
 5488TIP3   OH240658   0.769   1.184   0.631
 5488TIP3    H140659   0.713   1.261   0.650
 5488TIP3    H240660   0.727   1.113   0.684
 5489TIP3   OH240661   0.848   1.610   1.310
 5489TIP3    H140662   0.909   1.677   1.273
 5489TIP3    H240663   0.909   1.559   1.368
 5490TIP3   OH240664   0.670   1.667   0.594
 5490TIP3    H140665   0.578   1.690   0.617
 5490TIP3    H240666   0.714   1.753   0.610
 5491TIP3   OH240667   1.147   1.209   1.242
 5491TIP3    H140668   1.094   1.182   1.321
 5491TIP3    H240669   1.189   1.124   1.222
 5492TIP3   OH240670   1.395   1.303   0.141
 5492TIP3    H140671   1.419   1.219   0.186
 5492TIP3    H240672   1.308   1.314   0.182
 5493TIP3   OH240673   1.467   1.654   1.488
 5493TIP3    H140674   1.384   1.604   1.473
 5493TIP3    H240675   1.474   1.713   1.410
 5494TIP3   OH240676   1.868   1.760   0.191
 5494TIP3    H140677   1.928   1.833   0.166
 5494TIP3    H240678   1.801   1.813   0.242
 5495TIP3   OH240679   0.273   0.411   1.448
 5495TIP3    H140680   0.187   0.456   1.444
 5495TIP3    H240681   0.246   0.319   1.463
 5496TIP3   OH240682   1.485   1.182   0.388
 5496TIP3    H140683   1.460   1.092   0.363
 5496TIP3    H240684   1.581   1.178   0.373
 5497TIP3   OH240685   0.243   1.571   1.254
 5497TIP3    H140686   0.314   1.510   1.275
 5497TIP3    H240687   0.226   1.609   1.342
 5498TIP3   OH240688   0.675   1.361   0.240
 5498TIP3    H140689   0.759   1.323   0.273
 5498TIP3    H240690   0.688   1.456   0.262
 5499TIP3   OH240691   0.354   1.103   0.315
 5499TIP3    H140692   0.267   1.145   0.324
 5499TIP3    H240693   0.409   1.173   0.275
 5500TIP3   OH240694   1.160   0.356   1.312
 5500TIP3    H140695   1.234   0.371   1.372
 5500TIP3    H240696   1.103   0.299   1.369
 5501TIP3   OH240697   1.197   0.294   0.450
 5501TIP3    H140698   1.200   0.350   0.368
 5501TIP3    H240699   1.251   0.348   0.512
 5502TIP3   OH240700   0.989   1.545   0.283
 5502TIP3    H140701   0.900   1.560   0.319
 5502TIP3    H240702   1.026   1.635   0.284
 5503TIP3   OH240703   0.926   0.512   0.497
 5503TIP3    H140704   1.006   0.564   0.512
 5503TIP3    H240705   0.897   0.487   0.587
 5504TIP3   OH240706   1.060   0.598   1.409
 5504TIP3    H140707   0.968   0.612   1.442
 5504TIP3    H240708   1.066   0.501   1.407
 5505TIP3   OH240709   1.009   0.196   0.600
 5505TIP3    H140710   0.996   0.278   0.652
 5505TIP3    H240711   1.085   0.222   0.541
 5506TIP3   OH240712   0.723   1.617   0.315
 5506TIP3    H140713   0.738   1.707   0.279
 5506TIP3    H240714   0.713   1.638   0.411
 5507TIP3   OH240715   0.565   0.341   0.298
 5507TIP3    H140716   0.572   0.412   0.365
 5507TIP3    H240717   0.654   0.303   0.310
 5508TIP3   OH240718   1.609   0.400   1.521
 5508TIP3    H140719   1.511   0.400   1.510
 5508TIP3    H240720   1.636   0.365   1.434
 5509TIP3   OH240721   1.474   0.756   0.934
 5509TIP3    H140722   1.402   0.691   0.930
 5509TIP3    H240723   1.542   0.709   0.985
 5510TIP3   OH240724   0.412   1.374   0.154
 5510TIP3    H140725   0.481   1.398   0.219
 5510TIP3    H240726   0.464   1.311   0.101
 5511TIP3   OH240727   0.312   0.642   0.170
 5511TIP3    H140728   0.303   0.740   0.169
 5511TIP3    H240729   0.256   0.624   0.092
 5512TIP3   OH240730   1.588   1.701   1.086
 5512TIP3    H140731   1.585   1.763   1.010
 5512TIP3    H240732   1.685   1.690   1.088
 5513TIP3   OH240733   0.324   0.186   0.942
 5513TIP3    H140734   0.315   0.173   0.844
 5513TIP3    H240735   0.316   0.092   0.970
 5514TIP3   OH240736   0.209   1.467   0.535
 5514TIP3    H140737   0.129   1.517   0.554
 5514TIP3    H240738   0.260   1.530   0.483
 5515TIP3   OH240739   0.156   1.760   1.690
 5515TIP3    H140740   0.218   1.762   1.765
 5515TIP3    H240741   0.125   1.669   1.702
 5516TIP3   OH240742   0.653   1.635   1.869
 5516TIP3    H140743   0.741   1.605   1.839
 5516TIP3    H240744   0.598   1.612   1.791
 5517TIP3   OH240745   1.012   1.581   9.975
 5517TIP3    H140746   0.943   1.512   9.983
 5517TIP3    H240747   1.088   1.535  10.014
 5518TIP3   OH240748   1.240   1.496   1.757
 5518TIP3    H140749   1.213   1.411   1.798
 5518TIP3    H240750   1.326   1.509   1.803
 5519TIP3   OH240751   1.433   1.567   0.122
 5519TIP3    H140752   1.427   1.469   0.118
 5519TIP3    H240753   1.479   1.595   0.042
 5520TIP3   OH240754   0.198   1.174   1.816
 5520TIP3    H140755   0.212   1.079   1.831
 5520TIP3    H240756   0.106   1.167   1.784
 5521TIP3   OH240757   0.602   1.151   0.053
 5521TIP3    H140758   0.623   1.118   0.142
 5521TIP3    H240759   0.677   1.210   0.036
 5522TIP3   OH240760   0.792   1.192   1.740
 5522TIP3    H140761   0.763   1.238   1.658
 5522TIP3    H240762   0.775   1.097   1.719
 5523TIP3   OH240763   1.357   1.127   1.509
 5523TIP3    H140764   1.441   1.175   1.500
 5523TIP3    H240765   1.302   1.204   1.531
 5524TIP3   OH240766   0.278   0.870   1.770
 5524TIP3    H140767   0.323   0.784   1.769
 5524TIP3    H240768   0.253   0.878   1.865
 5525TIP3   OH240769   0.698   1.019   0.278
 5525TIP3    H140770   0.632   0.967   0.324
 5525TIP3    H240771   0.744   0.952   0.225
 5526TIP3   OH240772   0.562   0.763   1.400
 5526TIP3    H140773   0.543   0.856   1.375
 5526TIP3    H240774   0.658   0.769   1.421
 5527TIP3   OH240775   0.824   0.805   0.091
 5527TIP3    H140776   0.834   0.737   0.021
 5527TIP3    H240777   0.919   0.819   0.115
 5528TIP3   OH240778   1.150   1.032   1.803
 5528TIP3    H140779   1.202   1.002   1.728
 5528TIP3    H240780   1.112   0.949   1.836
 5529TIP3   OH240781   1.703   1.032  10.016
 5529TIP3    H140782   1.756   0.975   9.957
 5529TIP3    H240783   1.750   1.116  10.006
 5530TIP3   OH240784   0.604   0.408   1.595
 5530TIP3    H140785   0.622   0.384   1.502
 5530TIP3    H240786   0.670   0.480   1.606
 5531TIP3   OH240787   0.706   0.354   1.348
 5531TIP3    H140788   0.770   0.392   1.283
 5531TIP3    H240789   0.620   0.385   1.314
 5532TIP3   OH240790   0.847   0.827   1.266
 5532TIP3    H140791   0.926   0.868   1.304
 5532TIP3    H240792   0.791   0.906   1.257
 5533TIP3   OH240793   1.347   0.631   1.847
 5533TIP3    H140794   1.361   0.556   1.906
 5533TIP3    H240795   1.438   0.644   1.812
 5534TIP3   OH240796   1.450   0.953   1.696
 5534TIP3    H140797   1.411   1.002   1.621
 5534TIP3    H240798   1.542   0.938   1.668
 5535TIP3   OH240799   0.483   0.612   1.788
 5535TIP3    H140800   0.426   0.532   1.792
 5535TIP3    H240801   0.518   0.605   1.698
 5536TIP3   OH240802   0.735   0.097   1.376
 5536TIP3    H140803   0.720   0.195   1.381
 5536TIP3    H240804   0.648   0.070   1.344
 5537TIP3   OH240805   0.918   0.479   1.784
 5537TIP3    H140806   0.858   0.522   1.846
 5537TIP3    H240807   0.881   0.510   1.698
 5538TIP3   OH240808   1.199   0.421   1.685
 5538TIP3    H140809   1.104   0.403   1.701
 5538TIP3    H240810   1.241   0.377   1.761
 5539TIP3   OH240811   1.372   0.316   1.866
 5539TIP3    H140812   1.349   0.221   1.858
 5539TIP3    H240813   1.324   0.340   1.949
 5540TIP3   OH240814   0.344   0.385   1.824
 5540TIP3    H140815   0.401   0.364   1.748
 5540TIP3    H240816   0.311   0.296   1.843
 5541TIP3   OH240817   0.822   0.079   1.661
 5541TIP3    H140818   0.788  -0.013   1.660
 5541TIP3    H240819   0.815   0.105   1.567
 5542TIP3   OH240820   0.777   0.167   1.904
 5542TIP3    H140821   0.807   0.128   1.819
 5542TIP3    H240822   0.763   0.259   1.876
 5543TIP3   OH240823   0.754   1.864   0.221
 5543TIP3    H140824   0.851   1.868   0.226
 5543TIP3    H240825   0.736   1.905   0.135
 5544TIP3   OH240826   0.159   1.301   0.140
 5544TIP3    H140827   0.253   1.331   0.141
 5544TIP3    H240828   0.161   1.237   0.067
 5545TIP3   OH240829   0.090   1.823   0.596
 5545TIP3    H140830   0.001   1.860   0.614
 5545TIP3    H240831   0.109   1.775   0.680
 5546TIP3   OH240832   0.178   1.674   0.811
 5546TIP3    H140833   0.185   1.579   0.833
 5546TIP3    H240834   0.197   1.713   0.898
 5547TIP3   OH240835   1.865   1.746   1.090
 5547TIP3    H140836   1.879   1.745   1.186
 5547TIP3    H240837   1.919   1.823   1.068
 5548TIP3   OH240838   1.802   1.703   1.383
 5548TIP3    H140839   1.768   1.624   1.335
 5548TIP3    H240840   1.834   1.660   1.464
 5549TIP3   OH240841   1.644   1.339   1.853
 5549TIP3    H140842   1.554   1.365   1.829
 5549TIP3    H240843   1.686   1.423   1.879
 5550TIP3   OH240844   1.756   1.133   0.386
 5550TIP3    H140845   1.840   1.178   0.411
 5550TIP3    H240846   1.743   1.076   0.463
 5551TIP3   OH240847   1.798   0.943   0.621
 5551TIP3    H140848   1.728   0.877   0.646
 5551TIP3    H240849   1.851   0.942   0.703
 5552TIP3   OH240850   1.775   1.196   1.064
 5552TIP3    H140851   1.848   1.135   1.045
 5552TIP3    H240852   1.807   1.279   1.023
 5553TIP3   OH240853   1.656   1.478   1.329
 5553TIP3    H140854   1.590   1.524   1.384
 5553TIP3    H240855   1.607   1.460   1.246
 5554TIP3   OH240856   1.864   0.937   0.222
 5554TIP3    H140857   1.789   0.954   0.162
 5554TIP3    H240858   1.848   1.006   0.289
 5555TIP3   OH240859   1.763   0.591   0.128
 5555TIP3    H140860   1.711   0.672   0.116
 5555TIP3    H240861   1.706   0.531   0.077
 5556TIP3   OH240862   1.611   0.765   0.682
 5556TIP3    H140863   1.558   0.697   0.636
 5556TIP3    H240864   1.575   0.767   0.773
 5557TIP3   OH240865   0.164   1.072   1.055
 5557TIP3    H140866   0.160   1.011   0.978
 5557TIP3    H240867   0.246   1.042   1.099
 5558TIP3   OH240868   1.719   0.959   1.624
 5558TIP3    H140869   1.764   0.873   1.645
 5558TIP3    H240870   1.791   1.021   1.600
 5559TIP3   OH240871   1.794   0.722   1.732
 5559TIP3    H140872   1.705   0.685   1.711
 5559TIP3    H240873   1.848   0.640   1.724
 5560TIP3   OH240874   1.616   0.348   0.022
 5560TIP3    H140875   1.684   0.318   0.085
 5560TIP3    H240876   1.535   0.302   0.050
 5561TIP3   OH240877   1.558   0.561   0.505
 5561TIP3    H140878   1.583   0.466   0.512
 5561TIP3    H240879   1.646   0.600   0.489
 5562TIP3   OH240880   1.651   0.607   1.076
 5562TIP3    H140881   1.749   0.625   1.076
 5562TIP3    H240882   1.637   0.608   1.173
 5563TIP3   OH240883   1.660   0.688   1.336
 5563TIP3    H140884   1.569   0.714   1.360
 5563TIP3    H240885   1.700   0.770   1.298
 5564TIP3   OH240886   0.118   0.542   1.684
 5564TIP3    H140887   0.205   0.545   1.726
 5564TIP3    H240888   0.084   0.459   1.719
 5565TIP3   OH240889   1.920   0.118   1.871
 5565TIP3    H140890   2.005   0.109   1.825
 5565TIP3    H240891   1.875   0.176   1.806
 5566TIP3   OH240892   1.653   0.307   0.523
 5566TIP3    H140893   1.671   0.264   0.609
 5566TIP3    H240894   1.576   0.254   0.492
 5567TIP3   OH240895   0.145   0.358   1.036
 5567TIP3    H140896   0.187   0.271   1.023
 5567TIP3    H240897   0.224   0.414   1.040
 5568TIP3   OH240898   0.044   0.689   1.120
 5568TIP3    H140899   0.108   0.649   1.058
 5568TIP3    H240900   0.101   0.742   1.177
 5569TIP3   OH240901   1.793   0.313   1.706
 5569TIP3    H140902   1.706   0.359   1.712
 5569TIP3    H240903   1.777   0.255   1.628
 5570TIP3   OH240904   1.832   0.276   0.164
 5570TIP3    H140905   1.877   0.228   0.092
 5570TIP3    H240906   1.862   0.366   0.143
 5571TIP3   OH240907   0.146   0.310   0.522
 5571TIP3    H140908   0.052   0.309   0.492
 5571TIP3    H240909   0.188   0.373   0.460
 5572TIP3   OH240910   1.529   1.747   0.687
 5572TIP3    H140911   1.599   1.737   0.618
 5572TIP3    H240912   1.570   1.808   0.751
 5573TIP3   OH240913   0.121   0.226   1.319
 5573TIP3    H140914   0.039   0.208   1.368
 5573TIP3    H240915   0.083   0.287   1.253
 5574TIP3   OH240916   0.248   1.438   1.734
 5574TIP3    H140917   0.213   1.401   1.652
 5574TIP3    H240918   0.276   1.356   1.779
 5575TIP3   OH240919   0.581   1.611   1.369
 5575TIP3    H140920   0.574   1.698   1.324
 5575TIP3    H240921   0.678   1.597   1.364
 5576TIP3   OH240922   0.979   1.712   1.626
 5576TIP3    H140923   0.981   1.685   1.720
 5576TIP3    H240924   1.072   1.746   1.615
 5577TIP3   OH240925   1.205   1.839   1.597
 5577TIP3    H140926   1.279   1.810   1.541
 5577TIP3    H240927   1.248   1.880   1.673
 5578TIP3   OH240928   1.738   0.162   1.476
 5578TIP3    H140929   1.656   0.174   1.426
 5578TIP3    H240930   1.734   0.065   1.492
 5579TIP3   OH240931   0.328   1.902   1.358
 5579TIP3    H140932   0.246   1.937   1.315
 5579TIP3    H240933   0.292   1.880   1.445
 5580TIP3   OH240934   0.558   1.845   1.241
 5580TIP3    H140935   0.465   1.855   1.274
 5580TIP3    H240936   0.558   1.912   1.171
 5581TIP3   OH240937   1.001   1.807   1.164
 5581TIP3    H140938   1.007   1.868   1.089
 5581TIP3    H240939   1.029   1.866   1.237
 5582TIP3   OH240940   1.217   1.678   1.321
 5582TIP3    H140941   1.147   1.702   1.258
 5582TIP3    H240942   1.289   1.739   1.295
 5583TIP3   OH240943   1.473   1.837   1.280
 5583TIP3    H140944   1.482   1.924   1.239
 5583TIP3    H240945   1.509   1.782   1.206
 5584TIP3   OH240946   0.291   1.751   1.057
 5584TIP3    H140947   0.264   1.690   1.130
 5584TIP3    H240948   0.369   1.703   1.021
 5585TIP3   OH240949   0.470   1.618   0.920
 5585TIP3    H140950   0.440   1.526   0.933
 5585TIP3    H240951   0.562   1.615   0.957
 5586TIP3   OH240952   0.711   1.615   1.039
 5586TIP3    H140953   0.752   1.527   1.032
 5586TIP3    H240954   0.739   1.641   1.129
 5587TIP3   OH240955   1.065   0.269   0.903
 5587TIP3    H140956   1.006   0.191   0.906
 5587TIP3    H240957   1.130   0.239   0.837
 5588TIP3   OH240958   1.537   0.121   0.912
 5588TIP3    H140959   1.606   0.144   0.847
 5588TIP3    H240960   1.457   0.165   0.878
 5589TIP3   OH240961   1.762   0.188   0.743
 5589TIP3    H140962   1.824   0.147   0.680
 5589TIP3    H240963   1.809   0.275   0.757
 5590TIP3   OH240964   0.290   0.158   0.683
 5590TIP3    H140965   0.226   0.204   0.624
 5590TIP3    H240966   0.276   0.064   0.657
 5591TIP3   OH240967   0.162   0.128   0.299
 5591TIP3    H140968   0.239   0.172   0.258
 5591TIP3    H240969   0.118   0.206   0.336
 5592TIP3   OH240970   0.760   0.138   0.652
 5592TIP3    H140971   0.847   0.167   0.620
 5592TIP3    H240972   0.784   0.125   0.745
 5593TIP3   OH240973   1.293   0.154   0.792
 5593TIP3    H140974   1.313   0.143   0.698
 5593TIP3    H240975   1.292   0.062   0.826
 5594TIP3   OH240976   1.436   0.186   0.427
 5594TIP3    H140977   1.349   0.221   0.401
 5594TIP3    H240978   1.429   0.093   0.400
 5595TIP3   OH240979   0.210   1.712   0.313
 5595TIP3    H140980   0.119   1.708   0.345
 5595TIP3    H240981   0.217   1.808   0.294
 5596TIP3   OH240982   0.358   0.230   0.148
 5596TIP3    H140983   0.386   0.213   0.058
 5596TIP3    H240984   0.440   0.261   0.192
 5597TIP3   OH240985   0.824   0.295   0.354
 5597TIP3    H140986   0.858   0.240   0.426
 5597TIP3    H240987   0.872   0.379   0.368
 5598TIP3   OH240988   1.050   1.791   0.177
 5598TIP3    H140989   1.147   1.808   0.171
 5598TIP3    H240990   1.039   1.739   0.096
 5599TIP3   OH240991   1.709   1.714   0.506
 5599TIP3    H140992   1.699   1.625   0.465
 5599TIP3    H240993   1.697   1.773   0.428
 5600TIP3   OH240994   0.255   0.137   1.624
 5600TIP3    H140995   0.235   0.043   1.620
 5600TIP3    H240996   0.350   0.134   1.650
 5601TIP3   OH240997   0.501   0.138   1.808
 5601TIP3    H140998   0.591   0.151   1.840
 5601TIP3    H240999   0.503   0.042   1.784
 5602TIP3   OH241000   0.464   1.828   0.126
 5602TIP3    H141001   0.396   1.789   0.182
 5602TIP3    H241002   0.547   1.785   0.157
 5603TIP3   OH241003   1.290   0.061   1.827
 5603TIP3    H141004   1.264  -0.031   1.846
 5603TIP3    H241005   1.372   0.043   1.777
 5604TIP3   OH241006   1.620   1.594   1.686
 5604TIP3    H141007   1.540   1.587   1.628
 5604TIP3    H241008   1.630   1.690   1.687
 5605TIP3   OH241009   3.103   1.010   0.683
 5605TIP3    H141010   3.091   1.101   0.716
 5605TIP3    H241011   3.034   1.007   0.615
 5606TIP3   OH241012   2.978   0.899   1.035
 5606TIP3    H141013   2.976   0.841   1.115
 5606TIP3    H241014   2.922   0.845   0.975
 5607TIP3   OH241015   2.204   0.902   1.162
 5607TIP3    H141016   2.194   0.827   1.223
 5607TIP3    H241017   2.279   0.948   1.203
 5608TIP3   OH241018   3.305   1.198   0.876
 5608TIP3    H141019   3.303   1.121   0.935
 5608TIP3    H241020   3.327   1.268   0.939
 5609TIP3   OH241021   2.309   1.360   1.000
 5609TIP3    H141022   2.270   1.272   0.979
 5609TIP3    H241023   2.403   1.335   0.987
 5610TIP3   OH241024   1.973   0.658   0.600
 5610TIP3    H141025   1.923   0.739   0.610
 5610TIP3    H241026   1.921   0.619   0.528
 5611TIP3   OH241027   2.006   0.934   0.810
 5611TIP3    H141028   2.062   0.855   0.831
 5611TIP3    H241029   2.067   0.988   0.758
 5612TIP3   OH241030   3.069   1.750   0.887
 5612TIP3    H141031   3.138   1.694   0.844
 5612TIP3    H241032   3.019   1.679   0.930
 5613TIP3   OH241033   2.804   1.175   1.113
 5613TIP3    H141034   2.831   1.117   1.040
 5613TIP3    H241035   2.892   1.204   1.145
 5614TIP3   OH241036   3.667   0.310   1.109
 5614TIP3    H141037   3.676   0.383   1.176
 5614TIP3    H241038   3.740   0.335   1.049
 5615TIP3   OH241039   3.173   0.629   1.131
 5615TIP3    H141040   3.189   0.534   1.141
 5615TIP3    H241041   3.129   0.632   1.044
 5616TIP3   OH241042   2.460   0.418   0.793
 5616TIP3    H141043   2.470   0.501   0.741
 5616TIP3    H241044   2.409   0.362   0.729
 5617TIP3   OH241045   3.221   0.425   0.654
 5617TIP3    H141046   3.259   0.411   0.745
 5617TIP3    H241047   3.284   0.491   0.619
 5618TIP3   OH241048   2.113   0.693   0.912
 5618TIP3    H141049   2.188   0.657   0.961
 5618TIP3    H241050   2.115   0.643   0.830
 5619TIP3   OH241051   2.594   0.819   0.851
 5619TIP3    H141052   2.677   0.777   0.881
 5619TIP3    H241053   2.569   0.759   0.778
 5620TIP3   OH241054   3.698   0.459   1.333
 5620TIP3    H141055   3.661   0.551   1.335
 5620TIP3    H241056   3.710   0.441   1.427
 5621TIP3   OH241057   2.352   0.331   1.231
 5621TIP3    H141058   2.322   0.387   1.156
 5621TIP3    H241059   2.274   0.332   1.291
 5622TIP3   OH241060   3.033   1.262   0.576
 5622TIP3    H141061   3.021   1.264   0.479
 5622TIP3    H241062   3.005   1.352   0.601
 5623TIP3   OH241063   2.572   1.086   1.215
 5623TIP3    H141064   2.519   1.162   1.248
 5623TIP3    H241065   2.646   1.132   1.170
 5624TIP3   OH241066   3.379   0.419   0.865
 5624TIP3    H141067   3.356   0.367   0.942
 5624TIP3    H241068   3.475   0.424   0.875
 5625TIP3   OH241069   2.325   0.513   1.015
 5625TIP3    H141070   2.391   0.578   1.051
 5625TIP3    H241071   2.369   0.486   0.931
 5626TIP3   OH241072   2.438   1.292   1.314
 5626TIP3    H141073   2.429   1.373   1.262
 5626TIP3    H241074   2.349   1.290   1.358
 5627TIP3   OH241075   2.018   1.227   0.409
 5627TIP3    H141076   2.021   1.286   0.330
 5627TIP3    H241077   2.037   1.292   0.479
 5628TIP3   OH241078   3.400   1.433   1.076
 5628TIP3    H141079   3.308   1.453   1.103
 5628TIP3    H241080   3.421   1.516   1.029
 5629TIP3   OH241081   3.417   0.226   1.224
 5629TIP3    H141082   3.350   0.250   1.157
 5629TIP3    H241083   3.498   0.223   1.172
 5630TIP3   OH241084   2.722   0.115   0.917
 5630TIP3    H141085   2.731   0.027   0.961
 5630TIP3    H241086   2.667   0.162   0.984
 5631TIP3   OH241087   3.238   1.589   0.758
 5631TIP3    H141088   3.253   1.507   0.707
 5631TIP3    H241089   3.318   1.640   0.726
 5632TIP3   OH241090   3.333   1.373   0.607
 5632TIP3    H141091   3.321   1.300   0.542
 5632TIP3    H241092   3.329   1.320   0.688
 5633TIP3   OH241093   3.500   1.262   1.469
 5633TIP3    H141094   3.516   1.187   1.407
 5633TIP3    H241095   3.519   1.336   1.408
 5634TIP3   OH241096   2.957   0.943   0.438
 5634TIP3    H141097   2.912   1.025   0.412
 5634TIP3    H241098   3.037   0.940   0.381
 5635TIP3   OH241099   3.010   0.789   0.132
 5635TIP3    H141100   3.087   0.827   0.181
 5635TIP3    H241101   3.044   0.701   0.108
 5636TIP3   OH241102   3.697   0.891   1.255
 5636TIP3    H141103   3.635   0.967   1.256
 5636TIP3    H241104   3.763   0.924   1.192
 5637TIP3   OH241105   3.316   0.920   0.541
 5637TIP3    H141106   3.244   0.949   0.603
 5637TIP3    H241107   3.384   0.885   0.602
 5638TIP3   OH241108   3.279   0.741   1.442
 5638TIP3    H141109   3.282   0.834   1.469
 5638TIP3    H241110   3.216   0.745   1.369
 5639TIP3   OH241111   2.461   1.014   0.717
 5639TIP3    H141112   2.431   0.992   0.626
 5639TIP3    H241113   2.514   0.936   0.741
 5640TIP3   OH241114   2.593   1.328   0.981
 5640TIP3    H141115   2.609   1.316   0.886
 5640TIP3    H241116   2.670   1.284   1.023
 5641TIP3   OH241117   2.473   0.881   1.092
 5641TIP3    H141118   2.509   0.880   1.000
 5641TIP3    H241119   2.523   0.955   1.133
 5642TIP3   OH241120   3.149   1.457   1.158
 5642TIP3    H141121   3.123   1.510   1.234
 5642TIP3    H241122   3.131   1.366   1.191
 5643TIP3   OH241123   2.602   1.329   1.526
 5643TIP3    H141124   2.532   1.374   1.578
 5643TIP3    H241125   2.556   1.315   1.440
 5644TIP3   OH241126   3.191   0.889   0.309
 5644TIP3    H141127   3.242   0.897   0.394
 5644TIP3    H241128   3.251   0.940   0.248
 5645TIP3   OH241129   2.304   0.948   1.432
 5645TIP3    H141130   2.323   1.039   1.461
 5645TIP3    H241131   2.226   0.927   1.487
 5646TIP3   OH241132   2.959   1.544   0.584
 5646TIP3    H141133   2.990   1.583   0.666
 5646TIP3    H241134   2.914   1.617   0.538
 5647TIP3   OH241135   2.426   1.500   1.633
 5647TIP3    H141136   2.413   1.541   1.545
 5647TIP3    H241137   2.332   1.480   1.655
 5648TIP3   OH241138   3.581   0.098   0.302
 5648TIP3    H141139   3.506   0.139   0.348
 5648TIP3    H241140   3.600   0.166   0.236
 5649TIP3   OH241141   2.352   0.921   0.484
 5649TIP3    H141142   2.312   0.992   0.430
 5649TIP3    H241143   2.306   0.842   0.452
 5650TIP3   OH241144   3.679   1.500   0.131
 5650TIP3    H141145   3.707   1.592   0.152
 5650TIP3    H241146   3.759   1.447   0.151
 5651TIP3   OH241147   1.995   1.174   1.373
 5651TIP3    H141148   1.966   1.179   1.281
 5651TIP3    H241149   2.026   1.081   1.375
 5652TIP3   OH241150   1.952   1.433   1.045
 5652TIP3    H141151   2.047   1.418   1.039
 5652TIP3    H241152   1.949   1.519   1.090
 5653TIP3   OH241153   3.731   1.515   1.627
 5653TIP3    H141154   3.727   1.418   1.613
 5653TIP3    H241155   3.642   1.533   1.664
 5654TIP3   OH241156   2.849   1.443   1.515
 5654TIP3    H141157   2.857   1.525   1.568
 5654TIP3    H241158   2.754   1.419   1.519
 5655TIP3   OH241159   2.907   1.822   0.460
 5655TIP3    H141160   2.917   1.844   0.365
 5655TIP3    H241161   2.910   1.911   0.502
 5656TIP3   OH241162   2.281   1.694   0.674
 5656TIP3    H141163   2.309   1.665   0.764
 5656TIP3    H241164   2.190   1.659   0.671
 5657TIP3   OH241165   3.185   1.798   0.205
 5657TIP3    H141166   3.232   1.721   0.165
 5657TIP3    H241167   3.222   1.801   0.294
 5658TIP3   OH241168   3.170   1.747   0.489
 5658TIP3    H141169   3.074   1.760   0.501
 5658TIP3    H241170   3.179   1.651   0.505
 5659TIP3   OH241171   3.445   0.628   1.653
 5659TIP3    H141172   3.394   0.665   1.579
 5659TIP3    H241173   3.457   0.536   1.624
 5660TIP3   OH241174   2.213   1.295   1.454
 5660TIP3    H141175   2.209   1.260   1.546
 5660TIP3    H241176   2.125   1.268   1.420
 5661TIP3   OH241177   2.506   0.214   1.051
 5661TIP3    H141178   2.432   0.241   0.993
 5661TIP3    H241179   2.483   0.266   1.131
 5662TIP3   OH241180   2.870   0.185   1.442
 5662TIP3    H141181   2.924   0.104   1.442
 5662TIP3    H241182   2.801   0.155   1.380
 5663TIP3   OH241183   3.244   0.468   1.440
 5663TIP3    H141184   3.189   0.452   1.521
 5663TIP3    H241185   3.272   0.560   1.454
 5664TIP3   OH241186   3.355   0.996   0.136
 5664TIP3    H141187   3.311   1.008   0.048
 5664TIP3    H241188   3.446   1.020   0.108
 5665TIP3   OH241189   2.869   0.369   0.126
 5665TIP3    H141190   2.838   0.322   0.205
 5665TIP3    H241191   2.829   0.319   0.054
 5666TIP3   OH241192   2.487   0.641   1.186
 5666TIP3    H141193   2.406   0.632   1.240
 5666TIP3    H241194   2.482   0.737   1.163
 5667TIP3   OH241195   2.479   0.650   0.662
 5667TIP3    H141196   2.382   0.639   0.652
 5667TIP3    H241197   2.513   0.636   0.570
 5668TIP3   OH241198   3.062   0.702   0.549
 5668TIP3    H141199   3.014   0.782   0.517
 5668TIP3    H241200   3.110   0.678   0.468
 5669TIP3   OH241201   2.916   0.739   1.671
 5669TIP3    H141202   2.876   0.654   1.700
 5669TIP3    H241203   2.997   0.737   1.725
 5670TIP3   OH241204   3.133   0.631   0.848
 5670TIP3    H141205   3.140   0.710   0.791
 5670TIP3    H241206   3.138   0.562   0.779
 5671TIP3   OH241207   2.214   0.646   1.311
 5671TIP3    H141208   2.269   0.687   1.380
 5671TIP3    H241209   2.196   0.558   1.348
 5672TIP3   OH241210   2.541   0.418   0.033
 5672TIP3    H141211   2.510   0.414   0.125
 5672TIP3    H241212   2.464   0.454  -0.014
 5673TIP3   OH241213   1.924   0.406   0.747
 5673TIP3    H141214   1.994   0.399   0.814
 5673TIP3    H241215   1.961   0.357   0.672
 5674TIP3   OH241216   2.018   0.448   0.325
 5674TIP3    H141217   2.069   0.486   0.251
 5674TIP3    H241218   1.961   0.523   0.346
 5675TIP3   OH241219   3.020   0.789   1.276
 5675TIP3    H141220   3.083   0.729   1.230
 5675TIP3    H241221   2.970   0.727   1.335
 5676TIP3   OH241222   2.749   0.405   0.773
 5676TIP3    H141223   2.656   0.374   0.782
 5676TIP3    H241224   2.785   0.373   0.858
 5677TIP3   OH241225   2.216   0.569   0.657
 5677TIP3    H141226   2.125   0.591   0.628
 5677TIP3    H241227   2.232   0.482   0.615
 5678TIP3   OH241228   2.582   0.595   0.423
 5678TIP3    H141229   2.679   0.594   0.422
 5678TIP3    H241230   2.553   0.643   0.342
 5679TIP3   OH241231   3.190   0.304   1.077
 5679TIP3    H141232   3.127   0.319   1.151
 5679TIP3    H241233   3.128   0.270   1.011
 5680TIP3   OH241234   2.455   0.713   0.205
 5680TIP3    H141235   2.402   0.650   0.157
 5680TIP3    H241236   2.523   0.736   0.139
 5681TIP3   OH241237   3.478   1.900   1.742
 5681TIP3    H141238   3.513   1.952   1.668
 5681TIP3    H241239   3.554   1.902   1.803
 5682TIP3   OH241240   2.244   1.145   1.688
 5682TIP3    H141241   2.326   1.155   1.740
 5682TIP3    H241242   2.178   1.117   1.753
 5683TIP3   OH241243   2.859   0.687   0.939
 5683TIP3    H141244   2.925   0.646   0.880
 5683TIP3    H241245   2.843   0.615   1.000
 5684TIP3   OH241246   2.321   0.310   0.595
 5684TIP3    H141247   2.264   0.242   0.637
 5684TIP3    H241248   2.376   0.254   0.539
 5685TIP3   OH241249   2.715   0.503   1.194
 5685TIP3    H141250   2.640   0.568   1.195
 5685TIP3    H241251   2.786   0.554   1.235
 5686TIP3   OH241252   2.781   1.154   0.390
 5686TIP3    H141253   2.710   1.093   0.361
 5686TIP3    H241254   2.749   1.174   0.481
 5687TIP3   OH241255   3.526   1.097   1.265
 5687TIP3    H141256   3.568   1.155   1.196
 5687TIP3    H241257   3.438   1.083   1.223
 5688TIP3   OH241258   3.113   0.403   0.224
 5688TIP3    H141259   3.025   0.432   0.192
 5688TIP3    H241260   3.162   0.489   0.235
 5689TIP3   OH241261   2.881   1.173   1.479
 5689TIP3    H141262   2.885   1.132   1.565
 5689TIP3    H241263   2.871   1.268   1.501
 5690TIP3   OH241264   3.246   0.609   0.323
 5690TIP3    H141265   3.313   0.595   0.393
 5690TIP3    H241266   3.274   0.695   0.289
 5691TIP3   OH241267   2.292   1.104   0.929
 5691TIP3    H141268   2.351   1.082   0.854
 5691TIP3    H241269   2.303   1.027   0.987
 5692TIP3   OH241270   3.004   1.285   0.295
 5692TIP3    H141271   2.961   1.373   0.303
 5692TIP3    H241272   2.927   1.225   0.304
 5693TIP3   OH241273   2.004   0.895   1.466
 5693TIP3    H141274   1.994   0.849   1.551
 5693TIP3    H241275   1.941   0.848   1.408
 5694TIP3   OH241276   2.675   0.875   1.677
 5694TIP3    H141277   2.626   0.826   1.609
 5694TIP3    H241278   2.766   0.837   1.668
 5695TIP3   OH241279   3.175   1.412   1.511
 5695TIP3    H141280   3.086   1.411   1.475
 5695TIP3    H241281   3.159   1.453   1.599
 5696TIP3   OH241282   3.725   0.650   0.350
 5696TIP3    H141283   3.659   0.625   0.281
 5696TIP3    H241284   3.732   0.745   0.329
 5697TIP3   OH241285   3.741   1.236   1.609
 5697TIP3    H141286   3.649   1.240   1.576
 5697TIP3    H241287   3.791   1.218   1.527
 5698TIP3   OH241288   3.568   1.467   0.378
 5698TIP3    H141289   3.486   1.416   0.384
 5698TIP3    H241290   3.585   1.471   0.282
 5699TIP3   OH241291   3.280   1.001   1.067
 5699TIP3    H141292   3.186   0.987   1.045
 5699TIP3    H241293   3.320   0.926   1.022
 5700TIP3   OH241294   2.517   1.430   0.699
 5700TIP3    H141295   2.543   1.521   0.673
 5700TIP3    H241296   2.427   1.429   0.665
 5701TIP3   OH241297   2.121   0.918   0.104
 5701TIP3    H141298   2.181   0.969   0.162
 5701TIP3    H241299   2.039   0.922   0.156
 5702TIP3   OH241300   2.665   1.188   0.639
 5702TIP3    H141301   2.613   1.270   0.648
 5702TIP3    H241302   2.614   1.124   0.692
 5703TIP3   OH241303   2.723   1.600   1.311
 5703TIP3    H141304   2.780   1.669   1.271
 5703TIP3    H241305   2.784   1.561   1.376
 5704TIP3   OH241306   2.552   1.678   0.590
 5704TIP3    H141307   2.458   1.696   0.608
 5704TIP3    H241308   2.592   1.764   0.619
 5705TIP3   OH241309   3.036   1.203   1.245
 5705TIP3    H141310   2.978   1.176   1.320
 5705TIP3    H241311   3.079   1.118   1.224
 5706TIP3   OH241312   3.305   1.315   0.146
 5706TIP3    H141313   3.318   1.265   0.230
 5706TIP3    H241314   3.209   1.304   0.143
 5707TIP3   OH241315   3.345   1.663   1.488
 5707TIP3    H141316   3.263   1.612   1.468
 5707TIP3    H241317   3.356   1.721   1.409
 5708TIP3   OH241318   3.756   1.745   0.192
 5708TIP3    H141319   3.814   1.812   0.152
 5708TIP3    H241320   3.686   1.804   0.230
 5709TIP3   OH241321   2.157   0.364   1.412
 5709TIP3    H141322   2.069   0.401   1.399
 5709TIP3    H241323   2.137   0.272   1.436
 5710TIP3   OH241324   3.379   1.177   0.366
 5710TIP3    H141325   3.369   1.080   0.369
 5710TIP3    H241326   3.477   1.182   0.360
 5711TIP3   OH241327   2.131   1.569   1.273
 5711TIP3    H141328   2.182   1.488   1.275
 5711TIP3    H241329   2.173   1.619   1.344
 5712TIP3   OH241330   2.571   1.366   0.261
 5712TIP3    H141331   2.655   1.331   0.295
 5712TIP3    H241332   2.579   1.462   0.285
 5713TIP3   OH241333   2.232   1.094   0.292
 5713TIP3    H141334   2.157   1.136   0.340
 5713TIP3    H241335   2.279   1.172   0.255
 5714TIP3   OH241336   3.037   0.367   1.297
 5714TIP3    H141337   3.119   0.389   1.348
 5714TIP3    H241338   2.987   0.310   1.360
 5715TIP3   OH241339   3.098   0.289   0.466
 5715TIP3    H141340   3.102   0.350   0.389
 5715TIP3    H241341   3.153   0.336   0.533
 5716TIP3   OH241342   2.878   1.530   0.282
 5716TIP3    H141343   2.793   1.546   0.325
 5716TIP3    H241344   2.907   1.622   0.262
 5717TIP3   OH241345   2.849   0.518   0.513
 5717TIP3    H141346   2.934   0.564   0.527
 5717TIP3    H241347   2.820   0.502   0.606
 5718TIP3   OH241348   2.891   0.611   1.429
 5718TIP3    H141349   2.909   0.651   1.517
 5718TIP3    H241350   2.936   0.524   1.429
 5719TIP3   OH241351   2.889   0.203   0.597
 5719TIP3    H141352   2.865   0.274   0.659
 5719TIP3    H241353   2.970   0.240   0.554
 5720TIP3   OH241354   2.608   1.624   0.322
 5720TIP3    H141355   2.630   1.710   0.279
 5720TIP3    H241356   2.587   1.654   0.413
 5721TIP3   OH241357   2.475   0.389   0.290
 5721TIP3    H141358   2.488   0.452   0.364
 5721TIP3    H241359   2.556   0.336   0.303
 5722TIP3   OH241360   3.489   0.392   1.508
 5722TIP3    H141361   3.392   0.385   1.496
 5722TIP3    H241362   3.519   0.388   1.415
 5723TIP3   OH241363   3.358   0.759   0.928
 5723TIP3    H141364   3.292   0.688   0.944
 5723TIP3    H241365   3.435   0.717   0.974
 5724TIP3   OH241366   2.312   1.332   0.194
 5724TIP3    H141367   2.403   1.352   0.224
 5724TIP3    H241368   2.328   1.323   0.098
 5725TIP3   OH241369   2.123   0.641   0.143
 5725TIP3    H141370   2.144   0.736   0.137
 5725TIP3    H241371   2.051   0.632   0.077
 5726TIP3   OH241372   3.471   1.713   1.084
 5726TIP3    H141373   3.469   1.781   1.012
 5726TIP3    H241374   3.567   1.699   1.087
 5727TIP3   OH241375   2.203   0.173   0.953
 5727TIP3    H141376   2.181   0.164   0.857
 5727TIP3    H241377   2.194   0.077   0.975
 5728TIP3   OH241378   2.072   1.487   0.585
 5728TIP3    H141379   1.994   1.545   0.584
 5728TIP3    H241380   2.114   1.520   0.504
 5729TIP3   OH241381   2.017   1.766   1.713
 5729TIP3    H141382   2.093   1.752   1.773
 5729TIP3    H241383   1.988   1.674   1.696
 5730TIP3   OH241384   2.515   1.659   1.864
 5730TIP3    H141385   2.594   1.619   1.904
 5730TIP3    H241386   2.503   1.606   1.784
 5731TIP3   OH241387   2.902   1.574  -0.011
 5731TIP3    H141388   2.842   1.507   0.026
 5731TIP3    H241389   2.984   1.550   0.033
 5732TIP3   OH241390   3.127   1.508   1.756
 5732TIP3    H141391   3.089   1.421   1.787
 5732TIP3    H241392   3.200   1.516   1.818
 5733TIP3   OH241393   3.291   1.572   0.092
 5733TIP3    H141394   3.321   1.480   0.109
 5733TIP3    H241395   3.358   1.610   0.032
 5734TIP3   OH241396   1.992   1.146   1.817
 5734TIP3    H141397   1.983   1.050   1.802
 5734TIP3    H241398   1.955   1.184   1.734
 5735TIP3   OH241399   2.514   1.103   0.074
 5735TIP3    H141400   2.512   1.096   0.172
 5735TIP3    H241401   2.587   1.166   0.068
 5736TIP3   OH241402   2.676   1.141   1.715
 5736TIP3    H141403   2.663   1.188   1.630
 5736TIP3    H241404   2.664   1.046   1.694
 5737TIP3   OH241405   3.263   1.112   1.493
 5737TIP3    H141406   3.339   1.173   1.503
 5737TIP3    H241407   3.192   1.179   1.489
 5738TIP3   OH241408   2.117   0.856   1.753
 5738TIP3    H141409   2.194   0.799   1.749
 5738TIP3    H241410   2.133   0.908   1.834
 5739TIP3   OH241411   2.591   0.978   0.295
 5739TIP3    H141412   2.512   0.933   0.330
 5739TIP3    H241413   2.621   0.917   0.225
 5740TIP3   OH241414   2.476   0.753   1.430
 5740TIP3    H141415   2.412   0.826   1.440
 5740TIP3    H241416   2.553   0.801   1.394
 5741TIP3   OH241417   2.711   0.806   0.098
 5741TIP3    H141418   2.740   0.801   0.006
 5741TIP3    H241419   2.798   0.805   0.143
 5742TIP3   OH241420   3.041   1.038   1.822
 5742TIP3    H141421   3.112   1.001   1.767
 5742TIP3    H241422   3.007   0.959   1.867
 5743TIP3   OH241423   3.587   1.017  10.009
 5743TIP3    H141424   3.661   0.975   9.961
 5743TIP3    H241425   3.622   1.107  10.008
 5744TIP3   OH241426   2.562   0.534   1.569
 5744TIP3    H141427   2.590   0.470   1.500
 5744TIP3    H241428   2.568   0.617   1.517
 5745TIP3   OH241429   2.586   0.353   1.371
 5745TIP3    H141430   2.640   0.389   1.297
 5745TIP3    H241431   2.495   0.362   1.335
 5746TIP3   OH241432   2.708   0.900   1.363
 5746TIP3    H141433   2.801   0.910   1.339
 5746TIP3    H241434   2.666   0.974   1.315
 5747TIP3   OH241435   3.168   0.656   1.847
 5747TIP3    H141436   3.200   0.564   1.846
 5747TIP3    H241437   3.250   0.704   1.868
 5748TIP3   OH241438   3.321   0.940   1.702
 5748TIP3    H141439   3.314   1.001   1.626
 5748TIP3    H241440   3.414   0.911   1.693
 5749TIP3   OH241441   2.381   0.605   1.768
 5749TIP3    H141442   2.297   0.553   1.759
 5749TIP3    H241443   2.431   0.571   1.690
 5750TIP3   OH241444   2.639   0.097   1.331
 5750TIP3    H141445   2.623   0.192   1.353
 5750TIP3    H241446   2.548   0.067   1.319
 5751TIP3   OH241447   2.792   0.506   1.754
 5751TIP3    H141448   2.724   0.479   1.819
 5751TIP3    H241449   2.742   0.494   1.672
 5752TIP3   OH241450   3.107   0.413   1.661
 5752TIP3    H141451   3.018   0.387   1.691
 5752TIP3    H241452   3.164   0.356   1.718
 5753TIP3   OH241453   3.264   0.301   1.850
 5753TIP3    H141454   3.276   0.207   1.878
 5753TIP3    H241455   3.217   0.338   1.928
 5754TIP3   OH241456   2.176   0.428   1.798
 5754TIP3    H141457   2.186   0.350   1.741
 5754TIP3    H241458   2.188   0.390   1.889
 5755TIP3   OH241459   2.636   0.082   1.627
 5755TIP3    H141460   2.612  -0.012   1.620
 5755TIP3    H241461   2.694   0.097   1.550
 5756TIP3   OH241462   2.691   0.125   1.904
 5756TIP3    H141463   2.699   0.090   1.813
 5756TIP3    H241464   2.687   0.220   1.889
 5757TIP3   OH241465   2.644   1.862   0.206
 5757TIP3    H141466   2.741   1.858   0.203
 5757TIP3    H241467   2.622   1.882   0.114
 5758TIP3   OH241468   2.039   1.352   0.164
 5758TIP3    H141469   2.137   1.342   0.167
 5758TIP3    H241470   2.014   1.301   0.086
 5759TIP3   OH241471   1.909   1.838   0.628
 5759TIP3    H141472   1.829   1.789   0.594
 5759TIP3    H241473   1.937   1.779   0.701
 5760TIP3   OH241474   2.003   1.666   0.819
 5760TIP3    H141475   1.944   1.594   0.848
 5760TIP3    H241476   2.055   1.684   0.900
 5761TIP3   OH241477   3.754   1.751   1.073
 5761TIP3    H141478   3.768   1.754   1.169
 5761TIP3    H241479   3.801   1.831   1.045
 5762TIP3   OH241480   3.683   1.707   1.382
 5762TIP3    H141481   3.647   1.628   1.335
 5762TIP3    H241482   3.719   1.665   1.462
 5763TIP3   OH241483   3.564   1.299   1.890
 5763TIP3    H141484   3.473   1.294   1.928
 5763TIP3    H241485   3.571   1.390   1.862
 5764TIP3   OH241486   3.644   1.136   0.379
 5764TIP3    H141487   3.727   1.181   0.407
 5764TIP3    H241488   3.623   1.088   0.461
 5765TIP3   OH241489   3.697   0.945   0.628
 5765TIP3    H141490   3.619   0.889   0.653
 5765TIP3    H241491   3.743   0.955   0.713
 5766TIP3   OH241492   3.673   1.197   1.066
 5766TIP3    H141493   3.740   1.125   1.060
 5766TIP3    H241494   3.720   1.272   1.025
 5767TIP3   OH241495   3.541   1.482   1.317
 5767TIP3    H141496   3.476   1.526   1.373
 5767TIP3    H241497   3.489   1.463   1.235
 5768TIP3   OH241498   3.749   0.917   0.219
 5768TIP3    H141499   3.668   0.925   0.165
 5768TIP3    H241500   3.740   0.998   0.273
 5769TIP3   OH241501   3.531   0.637   0.162
 5769TIP3    H141502   3.511   0.709   0.101
 5769TIP3    H241503   3.555   0.568   0.098
 5770TIP3   OH241504   3.500   0.780   0.685
 5770TIP3    H141505   3.474   0.691   0.656
 5770TIP3    H241506   3.467   0.783   0.777
 5771TIP3   OH241507   1.984   1.003   1.074
 5771TIP3    H141508   1.975   0.971   0.981
 5771TIP3    H241509   2.074   0.967   1.092
 5772TIP3   OH241510   3.607   0.973   1.631
 5772TIP3    H141511   3.647   0.886   1.657
 5772TIP3    H241512   3.688   1.019   1.601
 5773TIP3   OH241513   3.687   0.734   1.716
 5773TIP3    H141514   3.610   0.682   1.685
 5773TIP3    H241515   3.765   0.679   1.690
 5774TIP3   OH241516   3.499   0.379   0.011
 5774TIP3    H141517   3.570   0.338   0.063
 5774TIP3    H241518   3.423   0.323   0.032
 5775TIP3   OH241519   3.448   0.561   0.511
 5775TIP3    H141520   3.474   0.467   0.528
 5775TIP3    H241521   3.531   0.595   0.477
 5776TIP3   OH241522   3.531   0.610   1.064
 5776TIP3    H141523   3.627   0.635   1.069
 5776TIP3    H241524   3.514   0.575   1.152
 5777TIP3   OH241525   3.549   0.682   1.336
 5777TIP3    H141526   3.454   0.703   1.333
 5777TIP3    H241527   3.591   0.764   1.298
 5778TIP3   OH241528   1.960   0.526   1.657
 5778TIP3    H141529   2.045   0.512   1.704
 5778TIP3    H241530   1.911   0.444   1.680
 5779TIP3   OH241531   3.808   0.078   1.871
 5779TIP3    H141532   3.883   0.080   1.808
 5779TIP3    H241533   3.762   0.156   1.835
 5780TIP3   OH241534   3.533   0.312   0.534
 5780TIP3    H141535   3.560   0.258   0.612
 5780TIP3    H241536   3.463   0.254   0.495
 5781TIP3   OH241537   2.064   0.397   0.990
 5781TIP3    H141538   2.101   0.307   0.997
 5781TIP3    H241539   2.144   0.449   1.007
 5782TIP3   OH241540   1.911   0.667   1.078
 5782TIP3    H141541   1.971   0.633   1.009
 5782TIP3    H241542   1.971   0.731   1.117
 5783TIP3   OH241543   3.696   0.318   1.697
 5783TIP3    H141544   3.607   0.360   1.708
 5783TIP3    H241545   3.670   0.252   1.629
 5784TIP3   OH241546   3.720   0.291   0.158
 5784TIP3    H141547   3.764   0.242   0.087
 5784TIP3    H241548   3.785   0.363   0.172
 5785TIP3   OH241549   1.941   0.245   0.530
 5785TIP3    H141550   1.849   0.260   0.505
 5785TIP3    H241551   1.984   0.298   0.460
 5786TIP3   OH241552   3.427   1.755   0.695
 5786TIP3    H141553   3.492   1.749   0.621
 5786TIP3    H241554   3.467   1.820   0.755
 5787TIP3   OH241555   1.951   0.181   1.296
 5787TIP3    H141556   1.882   0.189   1.364
 5787TIP3    H241557   1.918   0.248   1.232
 5788TIP3   OH241558   2.165   1.454   1.708
 5788TIP3    H141559   2.079   1.482   1.674
 5788TIP3    H241560   2.142   1.414   1.792
 5789TIP3   OH241561   2.453   1.596   1.375
 5789TIP3    H141562   2.455   1.688   1.340
 5789TIP3    H241563   2.549   1.577   1.372
 5790TIP3   OH241564   2.864   1.709   1.618
 5790TIP3    H141565   2.854   1.688   1.713
 5790TIP3    H241566   2.959   1.724   1.610
 5791TIP3   OH241567   3.117   1.893   1.570
 5791TIP3    H141568   3.171   1.823   1.532
 5791TIP3    H241569   3.144   1.892   1.664
 5792TIP3   OH241570   3.629   0.161   1.475
 5792TIP3    H141571   3.545   0.190   1.438
 5792TIP3    H241572   3.613   0.065   1.476
 5793TIP3   OH241573   2.198   1.897   1.339
 5793TIP3    H141574   2.123   1.955   1.310
 5793TIP3    H241575   2.179   1.890   1.433
 5794TIP3   OH241576   2.433   1.839   1.246
 5794TIP3    H141577   2.343   1.858   1.281
 5794TIP3    H241578   2.429   1.894   1.165
 5795TIP3   OH241579   2.884   1.793   1.181
 5795TIP3    H141580   2.837   1.839   1.111
 5795TIP3    H241581   2.916   1.868   1.236
 5796TIP3   OH241582   3.106   1.690   1.325
 5796TIP3    H141583   3.045   1.716   1.253
 5796TIP3    H241584   3.186   1.737   1.294
 5797TIP3   OH241585   3.357   1.845   1.284
 5797TIP3    H141586   3.376   1.932   1.246
 5797TIP3    H241587   3.401   1.790   1.215
 5798TIP3   OH241588   2.154   1.728   1.040
 5798TIP3    H141589   2.132   1.667   1.112
 5798TIP3    H241590   2.240   1.691   1.009
 5799TIP3   OH241591   2.363   1.622   0.916
 5799TIP3    H141592   2.351   1.528   0.943
 5799TIP3    H241593   2.452   1.639   0.955
 5800TIP3   OH241594   2.597   1.625   1.036
 5800TIP3    H141595   2.627   1.534   1.022
 5800TIP3    H241596   2.609   1.634   1.132
 5801TIP3   OH241597   2.945   0.283   0.919
 5801TIP3    H141598   2.894   0.199   0.927
 5801TIP3    H241599   3.001   0.263   0.842
 5802TIP3   OH241600   3.434   0.115   0.914
 5802TIP3    H141601   3.500   0.140   0.847
 5802TIP3    H241602   3.350   0.144   0.872
 5803TIP3   OH241603   3.656   0.193   0.743
 5803TIP3    H141604   3.715   0.147   0.679
 5803TIP3    H241605   3.708   0.276   0.757
 5804TIP3   OH241606   2.158   0.139   0.695
 5804TIP3    H141607   2.099   0.157   0.618
 5804TIP3    H241608   2.168   0.041   0.689
 5805TIP3   OH241609   2.096   0.133   0.337
 5805TIP3    H141610   2.128   0.170   0.252
 5805TIP3    H241611   2.004   0.164   0.334
 5806TIP3   OH241612   2.642   0.123   0.662
 5806TIP3    H141613   2.725   0.159   0.624
 5806TIP3    H241614   2.666   0.129   0.757
 5807TIP3   OH241615   3.181   0.155   0.796
 5807TIP3    H141616   3.202   0.143   0.702
 5807TIP3    H241617   3.169   0.063   0.827
 5808TIP3   OH241618   3.340   0.187   0.408
 5808TIP3    H141619   3.248   0.220   0.397
 5808TIP3    H241620   3.328   0.093   0.387
 5809TIP3   OH241621   2.056   1.665   0.375
 5809TIP3    H141622   1.967   1.665   0.334
 5809TIP3    H241623   2.081   1.757   0.358
 5810TIP3   OH241624   2.231   0.214   0.113
 5810TIP3    H141625   2.295   0.150   0.080
 5810TIP3    H241626   2.289   0.268   0.168
 5811TIP3   OH241627   2.727   0.313   0.362
 5811TIP3    H141628   2.771   0.248   0.419
 5811TIP3    H241629   2.755   0.395   0.408
 5812TIP3   OH241630   2.926   1.784   0.177
 5812TIP3    H141631   3.024   1.804   0.179
 5812TIP3    H241632   2.923   1.740   0.090
 5813TIP3   OH241633   3.592   1.706   0.500
 5813TIP3    H141634   3.583   1.617   0.457
 5813TIP3    H241635   3.573   1.766   0.426
 5814TIP3   OH241636   2.115   0.123   1.693
 5814TIP3    H141637   2.106   0.037   1.650
 5814TIP3    H241638   2.209   0.118   1.720
 5815TIP3   OH241639   2.364   0.116   1.792
 5815TIP3    H141640   2.451   0.146   1.760
 5815TIP3    H241641   2.369   0.022   1.761
 5816TIP3   OH241642   2.261   1.790   0.129
 5816TIP3    H141643   2.198   1.810   0.200
 5816TIP3    H241644   2.302   1.708   0.159
 5817TIP3   OH241645   3.275   0.045   1.887
 5817TIP3    H141646   3.215  -0.030   1.905
 5817TIP3    H241647   3.338  -0.002   1.827
 5818TIP3   OH241648   3.501   1.622   1.698
 5818TIP3    H141649   3.433   1.616   1.625
 5818TIP3    H241650   3.503   1.719   1.707
 5819TIP3   OH241651   4.984   1.010   0.689
 5819TIP3    H141652   4.982   1.104   0.714
 5819TIP3    H241653   4.925   1.013   0.612
 5820TIP3   OH241654   4.866   0.890   1.034
 5820TIP3    H141655   4.846   0.836   1.114
 5820TIP3    H241656   4.809   0.845   0.967
 5821TIP3   OH241657   4.078   0.889   1.128
 5821TIP3    H141658   4.081   0.810   1.184
 5821TIP3    H241659   4.120   0.953   1.189
 5822TIP3   OH241660   5.194   1.199   0.881
 5822TIP3    H141661   5.180   1.123   0.941
 5822TIP3    H241662   5.212   1.269   0.945
 5823TIP3   OH241663   4.201   1.357   1.012
 5823TIP3    H141664   4.167   1.266   0.994
 5823TIP3    H241665   4.295   1.338   0.994
 5824TIP3   OH241666   3.848   0.677   0.591
 5824TIP3    H141667   3.818   0.763   0.622
 5824TIP3    H241668   3.804   0.671   0.504
 5825TIP3   OH241669   3.894   0.927   0.828
 5825TIP3    H141670   3.942   0.844   0.851
 5825TIP3    H241671   3.957   0.975   0.772
 5826TIP3   OH241672   4.969   1.755   0.897
 5826TIP3    H141673   5.035   1.699   0.849
 5826TIP3    H241674   4.917   1.683   0.937
 5827TIP3   OH241675   4.700   1.183   1.095
 5827TIP3    H141676   4.732   1.111   1.039
 5827TIP3    H241677   4.783   1.202   1.145
 5828TIP3   OH241678   5.558   0.296   1.120
 5828TIP3    H141679   5.560   0.378   1.174
 5828TIP3    H241680   5.623   0.319   1.050
 5829TIP3   OH241681   5.061   0.627   1.138
 5829TIP3    H141682   5.076   0.532   1.154
 5829TIP3    H241683   5.012   0.627   1.054
 5830TIP3   OH241684   4.338   0.417   0.791
 5830TIP3    H141685   4.355   0.495   0.735
 5830TIP3    H241686   4.294   0.357   0.726
 5831TIP3   OH241687   5.103   0.425   0.652
 5831TIP3    H141688   5.145   0.407   0.739
 5831TIP3    H241689   5.167   0.489   0.618
 5832TIP3   OH241690   3.994   0.673   0.904
 5832TIP3    H141691   4.068   0.637   0.956
 5832TIP3    H241692   4.008   0.632   0.817
 5833TIP3   OH241693   4.485   0.828   0.850
 5833TIP3    H141694   4.566   0.779   0.876
 5833TIP3    H241695   4.454   0.770   0.778
 5834TIP3   OH241696   5.589   0.465   1.341
 5834TIP3    H141697   5.542   0.550   1.326
 5834TIP3    H241698   5.578   0.454   1.437
 5835TIP3   OH241699   4.227   0.320   1.226
 5835TIP3    H141700   4.196   0.382   1.155
 5835TIP3    H241701   4.157   0.329   1.293
 5836TIP3   OH241702   4.926   1.260   0.576
 5836TIP3    H141703   4.909   1.261   0.479
 5836TIP3    H241704   4.910   1.354   0.597
 5837TIP3   OH241705   4.466   1.075   1.213
 5837TIP3    H141706   4.405   1.144   1.248
 5837TIP3    H241707   4.531   1.130   1.163
 5838TIP3   OH241708   5.274   0.431   0.849
 5838TIP3    H141709   5.246   0.387   0.932
 5838TIP3    H241710   5.367   0.447   0.869
 5839TIP3   OH241711   4.207   0.515   1.021
 5839TIP3    H141712   4.263   0.590   1.054
 5839TIP3    H241713   4.257   0.487   0.941
 5840TIP3   OH241714   4.333   1.288   1.313
 5840TIP3    H141715   4.313   1.376   1.278
 5840TIP3    H241716   4.250   1.268   1.360
 5841TIP3   OH241717   3.905   1.229   0.403
 5841TIP3    H141718   3.907   1.286   0.322
 5841TIP3    H241719   3.917   1.294   0.474
 5842TIP3   OH241720   5.281   1.413   1.080
 5842TIP3    H141721   5.191   1.438   1.106
 5842TIP3    H241722   5.308   1.497   1.038
 5843TIP3   OH241723   5.312   0.219   1.222
 5843TIP3    H141724   5.245   0.240   1.154
 5843TIP3    H241725   5.394   0.229   1.168
 5844TIP3   OH241726   4.625   0.102   0.921
 5844TIP3    H141727   4.625   0.014   0.965
 5844TIP3    H241728   4.568   0.152   0.984
 5845TIP3   OH241729   5.128   1.583   0.768
 5845TIP3    H141730   5.138   1.504   0.713
 5845TIP3    H241731   5.203   1.637   0.732
 5846TIP3   OH241732   5.227   1.369   0.607
 5846TIP3    H141733   5.210   1.298   0.541
 5846TIP3    H241734   5.214   1.320   0.690
 5847TIP3   OH241735   5.387   1.249   1.461
 5847TIP3    H141736   5.407   1.181   1.392
 5847TIP3    H241737   5.398   1.329   1.407
 5848TIP3   OH241738   4.849   0.953   0.435
 5848TIP3    H141739   4.801   1.034   0.408
 5848TIP3    H241740   4.922   0.948   0.369
 5849TIP3   OH241741   4.897   0.786   0.135
 5849TIP3    H141742   4.976   0.821   0.182
 5849TIP3    H241743   4.933   0.700   0.104
 5850TIP3   OH241744   5.591   0.889   1.248
 5850TIP3    H141745   5.529   0.964   1.258
 5850TIP3    H241746   5.650   0.926   1.179
 5851TIP3   OH241747   5.201   0.923   0.543
 5851TIP3    H141748   5.128   0.947   0.605
 5851TIP3    H241749   5.268   0.886   0.605
 5852TIP3   OH241750   5.195   0.754   1.456
 5852TIP3    H141751   5.186   0.848   1.480
 5852TIP3    H241752   5.132   0.751   1.382
 5853TIP3   OH241753   4.327   1.018   0.723
 5853TIP3    H141754   4.293   0.991   0.635
 5853TIP3    H241755   4.392   0.948   0.742
 5854TIP3   OH241756   4.485   1.339   0.977
 5854TIP3    H141757   4.497   1.313   0.885
 5854TIP3    H241758   4.562   1.297   1.021
 5855TIP3   OH241759   4.362   0.868   1.091
 5855TIP3    H141760   4.402   0.876   1.001
 5855TIP3    H241761   4.405   0.943   1.138
 5856TIP3   OH241762   5.028   1.453   1.163
 5856TIP3    H141763   5.018   1.500   1.248
 5856TIP3    H241764   5.011   1.361   1.193
 5857TIP3   OH241765   4.476   1.321   1.545
 5857TIP3    H141766   4.403   1.374   1.585
 5857TIP3    H241767   4.442   1.310   1.453
 5858TIP3   OH241768   5.084   0.879   0.305
 5858TIP3    H141769   5.128   0.893   0.393
 5858TIP3    H241770   5.143   0.934   0.248
 5859TIP3   OH241771   4.146   0.989   1.377
 5859TIP3    H141772   4.187   1.051   1.439
 5859TIP3    H241773   4.125   0.916   1.440
 5860TIP3   OH241774   4.840   1.536   0.583
 5860TIP3    H141775   4.847   1.566   0.674
 5860TIP3    H241776   4.792   1.608   0.538
 5861TIP3   OH241777   4.299   1.493   1.628
 5861TIP3    H141778   4.293   1.528   1.536
 5861TIP3    H241779   4.206   1.491   1.655
 5862TIP3   OH241780   5.465   0.099   0.294
 5862TIP3    H141781   5.393   0.146   0.341
 5862TIP3    H241782   5.489   0.165   0.227
 5863TIP3   OH241783   4.238   0.919   0.489
 5863TIP3    H141784   4.193   0.987   0.436
 5863TIP3    H241785   4.197   0.837   0.459
 5864TIP3   OH241786   5.563   1.500   0.134
 5864TIP3    H141787   5.585   1.595   0.149
 5864TIP3    H241788   5.646   1.454   0.154
 5865TIP3   OH241789   3.862   1.188   1.367
 5865TIP3    H141790   3.803   1.172   1.291
 5865TIP3    H241791   3.887   1.095   1.388
 5866TIP3   OH241792   3.850   1.430   1.039
 5866TIP3    H141793   3.943   1.406   1.051
 5866TIP3    H241794   3.843   1.508   1.095
 5867TIP3   OH241795   5.676   1.498   1.618
 5867TIP3    H141796   5.625   1.415   1.610
 5867TIP3    H241797   5.602   1.564   1.627
 5868TIP3   OH241798   4.731   1.437   1.515
 5868TIP3    H141799   4.753   1.518   1.564
 5868TIP3    H241800   4.643   1.411   1.549
 5869TIP3   OH241801   4.768   1.824   0.458
 5869TIP3    H141802   4.802   1.839   0.368
 5869TIP3    H241803   4.792   1.909   0.501
 5870TIP3   OH241804   4.168   1.696   0.665
 5870TIP3    H141805   4.193   1.666   0.756
 5870TIP3    H241806   4.079   1.658   0.659
 5871TIP3   OH241807   5.068   1.805   0.211
 5871TIP3    H141808   5.117   1.728   0.174
 5871TIP3    H241809   5.107   1.814   0.298
 5872TIP3   OH241810   5.058   1.744   0.489
 5872TIP3    H141811   4.963   1.739   0.503
 5872TIP3    H241812   5.089   1.663   0.534
 5873TIP3   OH241813   5.333   0.631   1.670
 5873TIP3    H141814   5.292   0.676   1.593
 5873TIP3    H241815   5.343   0.540   1.635
 5874TIP3   OH241816   4.098   1.294   1.448
 5874TIP3    H141817   4.098   1.255   1.538
 5874TIP3    H241818   4.011   1.261   1.416
 5875TIP3   OH241819   4.383   0.213   1.030
 5875TIP3    H141820   4.300   0.231   0.981
 5875TIP3    H241821   4.366   0.265   1.110
 5876TIP3   OH241822   4.764   0.177   1.450
 5876TIP3    H141823   4.816   0.096   1.439
 5876TIP3    H241824   4.686   0.151   1.397
 5877TIP3   OH241825   5.122   0.489   1.465
 5877TIP3    H141826   5.061   0.467   1.539
 5877TIP3    H241827   5.144   0.582   1.483
 5878TIP3   OH241828   5.239   0.998   0.137
 5878TIP3    H141829   5.199   1.004   0.047
 5878TIP3    H241830   5.331   1.020   0.111
 5879TIP3   OH241831   4.755   0.370   0.126
 5879TIP3    H141832   4.733   0.322   0.208
 5879TIP3    H241833   4.707   0.320   0.059
 5880TIP3   OH241834   4.362   0.634   1.212
 5880TIP3    H141835   4.271   0.629   1.249
 5880TIP3    H241836   4.366   0.728   1.181
 5881TIP3   OH241837   4.361   0.651   0.655
 5881TIP3    H141838   4.264   0.639   0.647
 5881TIP3    H241839   4.394   0.632   0.564
 5882TIP3   OH241840   4.949   0.706   0.553
 5882TIP3    H141841   4.900   0.784   0.519
 5882TIP3    H241842   5.001   0.685   0.474
 5883TIP3   OH241843   4.801   0.733   1.675
 5883TIP3    H141844   4.755   0.651   1.704
 5883TIP3    H241845   4.873   0.740   1.740
 5884TIP3   OH241846   5.005   0.632   0.847
 5884TIP3    H141847   5.017   0.713   0.794
 5884TIP3    H241848   5.017   0.566   0.777
 5885TIP3   OH241849   4.106   0.633   1.305
 5885TIP3    H141850   4.117   0.684   1.388
 5885TIP3    H241851   4.071   0.552   1.348
 5886TIP3   OH241852   4.429   0.417   0.030
 5886TIP3    H141853   4.395   0.400   0.121
 5886TIP3    H241854   4.352   0.460  -0.011
 5887TIP3   OH241855   3.814   0.413   0.750
 5887TIP3    H141856   3.883   0.388   0.814
 5887TIP3    H241857   3.853   0.393   0.663
 5888TIP3   OH241858   3.906   0.445   0.323
 5888TIP3    H141859   3.980   0.487   0.275
 5888TIP3    H241860   3.848   0.523   0.336
 5889TIP3   OH241861   4.909   0.792   1.282
 5889TIP3    H141862   4.973   0.734   1.236
 5889TIP3    H241863   4.856   0.727   1.335
 5890TIP3   OH241864   4.636   0.404   0.772
 5890TIP3    H141865   4.545   0.371   0.782
 5890TIP3    H241866   4.677   0.372   0.855
 5891TIP3   OH241867   4.096   0.576   0.648
 5891TIP3    H141868   4.005   0.596   0.617
 5891TIP3    H241869   4.115   0.487   0.613
 5892TIP3   OH241870   4.466   0.577   0.423
 5892TIP3    H141871   4.563   0.583   0.432
 5892TIP3    H241872   4.443   0.640   0.350
 5893TIP3   OH241873   5.081   0.314   1.083
 5893TIP3    H141874   5.013   0.316   1.153
 5893TIP3    H241875   5.031   0.278   1.009
 5894TIP3   OH241876   4.349   0.711   0.215
 5894TIP3    H141877   4.283   0.653   0.173
 5894TIP3    H241878   4.412   0.725   0.143
 5895TIP3   OH241879   5.354   1.902   1.735
 5895TIP3    H141880   5.394   1.953   1.663
 5895TIP3    H241881   5.434   1.881   1.787
 5896TIP3   OH241882   4.118   1.132   1.676
 5896TIP3    H141883   4.196   1.157   1.728
 5896TIP3    H241884   4.058   1.094   1.743
 5897TIP3   OH241885   4.737   0.683   0.938
 5897TIP3    H141886   4.811   0.645   0.887
 5897TIP3    H241887   4.725   0.615   1.005
 5898TIP3   OH241888   4.210   0.307   0.585
 5898TIP3    H141889   4.159   0.237   0.633
 5898TIP3    H241890   4.273   0.251   0.538
 5899TIP3   OH241891   4.594   0.485   1.179
 5899TIP3    H141892   4.528   0.557   1.179
 5899TIP3    H241893   4.667   0.530   1.225
 5900TIP3   OH241894   4.666   1.154   0.387
 5900TIP3    H141895   4.597   1.091   0.357
 5900TIP3    H241896   4.632   1.172   0.478
 5901TIP3   OH241897   5.420   1.095   1.252
 5901TIP3    H141898   5.463   1.146   1.179
 5901TIP3    H241899   5.337   1.071   1.207
 5902TIP3   OH241900   5.000   0.409   0.222
 5902TIP3    H141901   4.914   0.439   0.186
 5902TIP3    H241902   5.050   0.494   0.235
 5903TIP3   OH241903   4.795   1.174   1.520
 5903TIP3    H141904   4.757   1.159   1.608
 5903TIP3    H241905   4.781   1.270   1.511
 5904TIP3   OH241906   5.137   0.607   0.319
 5904TIP3    H141907   5.205   0.592   0.387
 5904TIP3    H241908   5.158   0.698   0.292
 5905TIP3   OH241909   4.186   1.098   0.935
 5905TIP3    H141910   4.230   1.075   0.850
 5905TIP3    H241911   4.196   1.016   0.987
 5906TIP3   OH241912   4.871   1.296   0.313
 5906TIP3    H141913   4.832   1.386   0.326
 5906TIP3    H241914   4.791   1.239   0.322
 5907TIP3   OH241915   3.844   0.938   1.505
 5907TIP3    H141916   3.893   0.863   1.546
 5907TIP3    H241917   3.785   0.894   1.442
 5908TIP3   OH241918   4.554   0.873   1.662
 5908TIP3    H141919   4.496   0.812   1.611
 5908TIP3    H241920   4.636   0.820   1.666
 5909TIP3   OH241921   5.069   1.400   1.492
 5909TIP3    H141922   4.978   1.428   1.505
 5909TIP3    H241923   5.116   1.424   1.575
 5910TIP3   OH241924   5.606   0.646   0.353
 5910TIP3    H141925   5.538   0.623   0.285
 5910TIP3    H241926   5.617   0.740   0.331
 5911TIP3   OH241927   5.611   1.214   1.604
 5911TIP3    H141928   5.522   1.228   1.565
 5911TIP3    H241929   5.665   1.216   1.522
 5912TIP3   OH241930   5.451   1.470   0.378
 5912TIP3    H141931   5.363   1.429   0.380
 5912TIP3    H241932   5.472   1.476   0.282
 5913TIP3   OH241933   5.161   0.990   1.064
 5913TIP3    H141934   5.069   0.973   1.040
 5913TIP3    H241935   5.207   0.920   1.016
 5914TIP3   OH241936   4.409   1.408   0.704
 5914TIP3    H141937   4.454   1.490   0.678
 5914TIP3    H241938   4.319   1.425   0.672
 5915TIP3   OH241939   4.004   0.909   0.110
 5915TIP3    H141940   4.055   0.966   0.171
 5915TIP3    H241941   3.914   0.917   0.149
 5916TIP3   OH241942   4.544   1.180   0.630
 5916TIP3    H141943   4.494   1.264   0.640
 5916TIP3    H241944   4.503   1.125   0.698
 5917TIP3   OH241945   4.602   1.604   1.336
 5917TIP3    H141946   4.662   1.668   1.294
 5917TIP3    H241947   4.662   1.557   1.397
 5918TIP3   OH241948   4.450   1.667   0.611
 5918TIP3    H141949   4.354   1.677   0.623
 5918TIP3    H241950   4.478   1.760   0.627
 5919TIP3   OH241951   4.915   1.195   1.254
 5919TIP3    H141952   4.874   1.172   1.340
 5919TIP3    H241953   4.957   1.111   1.229
 5920TIP3   OH241954   5.194   1.312   0.141
 5920TIP3    H141955   5.220   1.269   0.226
 5920TIP3    H241956   5.099   1.296   0.148
 5921TIP3   OH241957   5.230   1.689   1.498
 5921TIP3    H141958   5.164   1.618   1.488
 5921TIP3    H241959   5.239   1.726   1.407
 5922TIP3   OH241960   5.637   1.753   0.188
 5922TIP3    H141961   5.706   1.816   0.159
 5922TIP3    H241962   5.578   1.815   0.239
 5923TIP3   OH241963   4.056   0.401   1.451
 5923TIP3    H141964   3.997   0.461   1.502
 5923TIP3    H241965   4.016   0.315   1.464
 5924TIP3   OH241966   5.266   1.173   0.370
 5924TIP3    H141967   5.252   1.077   0.369
 5924TIP3    H241968   5.363   1.174   0.372
 5925TIP3   OH241969   4.012   1.561   1.272
 5925TIP3    H141970   4.069   1.483   1.277
 5925TIP3    H241971   4.053   1.616   1.340
 5926TIP3   OH241972   4.450   1.362   0.247
 5926TIP3    H141973   4.531   1.325   0.287
 5926TIP3    H241974   4.461   1.457   0.274
 5927TIP3   OH241975   4.113   1.088   0.296
 5927TIP3    H141976   4.038   1.136   0.339
 5927TIP3    H241977   4.164   1.163   0.259
 5928TIP3   OH241978   4.921   0.359   1.327
 5928TIP3    H141979   4.996   0.368   1.389
 5928TIP3    H241980   4.862   0.301   1.381
 5929TIP3   OH241981   4.988   0.291   0.462
 5929TIP3    H141982   4.988   0.356   0.388
 5929TIP3    H241983   5.041   0.335   0.532
 5930TIP3   OH241984   4.753   1.548   0.293
 5930TIP3    H141985   4.671   1.573   0.338
 5930TIP3    H241986   4.786   1.636   0.267
 5931TIP3   OH241987   4.733   0.511   0.513
 5931TIP3    H141988   4.816   0.559   0.525
 5931TIP3    H241989   4.705   0.493   0.605
 5932TIP3   OH241990   4.784   0.616   1.438
 5932TIP3    H141991   4.802   0.665   1.522
 5932TIP3    H241992   4.804   0.524   1.458
 5933TIP3   OH241993   4.776   0.210   0.594
 5933TIP3    H141994   4.758   0.276   0.663
 5933TIP3    H241995   4.858   0.246   0.552
 5934TIP3   OH241996   4.488   1.625   0.334
 5934TIP3    H141997   4.513   1.712   0.293
 5934TIP3    H241998   4.458   1.655   0.422
 5935TIP3   OH241999   4.350   0.382   0.284
 5935TIP3    H142000   4.368   0.445   0.357
 5935TIP3    H242001   4.427   0.324   0.298
 5936TIP3   OH242002   5.366   0.395   1.515
 5936TIP3    H142003   5.270   0.416   1.507
 5936TIP3    H242004   5.386   0.368   1.424
 5937TIP3   OH242005   5.243   0.739   0.934
 5937TIP3    H142006   5.180   0.668   0.953
 5937TIP3    H242007   5.321   0.703   0.981
 5938TIP3   OH242008   4.193   1.330   0.188
 5938TIP3    H142009   4.286   1.351   0.214
 5938TIP3    H242010   4.208   1.312   0.093
 5939TIP3   OH242011   4.027   0.636   0.147
 5939TIP3    H142012   4.038   0.733   0.141
 5939TIP3    H242013   3.956   0.619   0.084
 5940TIP3   OH242014   5.343   1.690   1.064
 5940TIP3    H142015   5.332   1.754   0.991
 5940TIP3    H242016   5.440   1.694   1.071
 5941TIP3   OH242017   4.107   0.167   0.968
 5941TIP3    H142018   4.088   0.147   0.874
 5941TIP3    H242019   4.090   0.077   1.002
 5942TIP3   OH242020   3.958   1.473   0.574
 5942TIP3    H142021   3.889   1.538   0.594
 5942TIP3    H242022   4.002   1.519   0.500
 5943TIP3   OH242023   3.903   1.751   1.700
 5943TIP3    H142024   3.983   1.738   1.753
 5943TIP3    H242025   3.873   1.659   1.685
 5944TIP3   OH242026   4.783   1.568  -0.011
 5944TIP3    H142027   4.714   1.506   0.015
 5944TIP3    H242028   4.859   1.532   0.036
 5945TIP3   OH242029   5.000   1.521   1.762
 5945TIP3    H142030   4.969   1.429   1.779
 5945TIP3    H242031   5.098   1.507   1.768
 5946TIP3   OH242032   5.187   1.576   0.108
 5946TIP3    H142033   5.213   1.482   0.107
 5946TIP3    H242034   5.238   1.619   0.036
 5947TIP3   OH242035   3.860   1.146   1.833
 5947TIP3    H142036   3.852   1.049   1.822
 5947TIP3    H242037   3.819   1.180   1.750
 5948TIP3   OH242038   4.382   1.115   0.048
 5948TIP3    H142039   4.360   1.099   0.141
 5948TIP3    H242040   4.456   1.177   0.060
 5949TIP3   OH242041   4.562   1.137   1.715
 5949TIP3    H142042   4.538   1.198   1.641
 5949TIP3    H242043   4.555   1.047   1.673
 5950TIP3   OH242044   5.141   1.119   1.499
 5950TIP3    H142045   5.227   1.166   1.504
 5950TIP3    H242046   5.081   1.196   1.498
 5951TIP3   OH242047   3.966   0.880   1.820
 5951TIP3    H142048   4.013   0.848   1.739
 5951TIP3    H242049   4.035   0.883   1.887
 5952TIP3   OH242050   4.478   0.980   0.291
 5952TIP3    H142051   4.402   0.941   0.338
 5952TIP3    H242052   4.502   0.911   0.226
 5953TIP3   OH242053   4.420   0.744   1.478
 5953TIP3    H142054   4.326   0.768   1.489
 5953TIP3    H242055   4.449   0.789   1.396
 5954TIP3   OH242056   4.595   0.808   0.094
 5954TIP3    H142057   4.622   0.773   0.008
 5954TIP3    H242058   4.682   0.805   0.141
 5955TIP3   OH242059   4.922   1.033   1.829
 5955TIP3    H142060   4.989   1.000   1.767
 5955TIP3    H242061   4.914   0.960   1.894
 5956TIP3   OH242062   5.471   1.008   9.997
 5956TIP3    H142063   5.542   0.959   9.951
 5956TIP3    H242064   5.513   1.096   9.990
 5957TIP3   OH242065   4.449   0.500   1.576
 5957TIP3    H142066   4.457   0.434   1.503
 5957TIP3    H242067   4.468   0.584   1.527
 5958TIP3   OH242068   4.457   0.342   1.360
 5958TIP3    H142069   4.509   0.378   1.286
 5958TIP3    H242070   4.365   0.360   1.331
 5959TIP3   OH242071   4.624   0.881   1.317
 5959TIP3    H142072   4.711   0.915   1.338
 5959TIP3    H242073   4.571   0.961   1.299
 5960TIP3   OH242074   5.046   0.638   1.844
 5960TIP3    H142075   5.080   0.546   1.848
 5960TIP3    H242076   5.106   0.676   1.776
 5961TIP3   OH242077   5.210   0.946   1.698
 5961TIP3    H142078   5.173   1.006   1.629
 5961TIP3    H242079   5.305   0.960   1.685
 5962TIP3   OH242080   4.277   0.597   1.778
 5962TIP3    H142081   4.187   0.604   1.738
 5962TIP3    H242082   4.329   0.580   1.697
 5963TIP3   OH242083   4.520   0.092   1.343
 5963TIP3    H142084   4.503   0.189   1.355
 5963TIP3    H242085   4.429   0.065   1.322
 5964TIP3   OH242086   4.659   0.521   1.757
 5964TIP3    H142087   4.628   0.500   1.847
 5964TIP3    H242088   4.581   0.495   1.704
 5965TIP3   OH242089   4.955   0.416   1.662
 5965TIP3    H142090   4.861   0.412   1.686
 5965TIP3    H242091   4.995   0.358   1.729
 5966TIP3   OH242092   5.127   0.324   1.874
 5966TIP3    H142093   5.108   0.227   1.872
 5966TIP3    H242094   5.100   0.347   1.966
 5967TIP3   OH242095   4.057   0.406   1.803
 5967TIP3    H142096   4.116   0.353   1.749
 5967TIP3    H242097   4.047   0.356   1.885
 5968TIP3   OH242098   4.529   0.089   1.622
 5968TIP3    H142099   4.570   0.003   1.642
 5968TIP3    H242100   4.538   0.093   1.525
 5969TIP3   OH242101   4.601   0.163   1.879
 5969TIP3    H142102   4.579   0.139   1.787
 5969TIP3    H242103   4.550   0.245   1.892
 5970TIP3   OH242104   4.542   1.849   0.196
 5970TIP3    H142105   4.639   1.832   0.200
 5970TIP3    H242106   4.533   1.870   0.102
 5971TIP3   OH242107   3.923   1.345   0.161
 5971TIP3    H142108   4.021   1.341   0.165
 5971TIP3    H242109   3.900   1.296   0.080
 5972TIP3   OH242110   3.781   1.839   0.633
 5972TIP3    H142111   3.709   1.783   0.595
 5972TIP3    H242112   3.813   1.780   0.705
 5973TIP3   OH242113   3.887   1.670   0.819
 5973TIP3    H142114   3.813   1.612   0.844
 5973TIP3    H242115   3.933   1.679   0.905
 5974TIP3   OH242116   5.613   1.746   1.080
 5974TIP3    H142117   5.641   1.742   1.173
 5974TIP3    H242118   5.691   1.785   1.038
 5975TIP3   OH242119   5.574   1.720   1.369
 5975TIP3    H142120   5.532   1.636   1.340
 5975TIP3    H242121   5.600   1.695   1.459
 5976TIP3   OH242122   5.541   1.122   0.397
 5976TIP3    H142123   5.624   1.170   0.417
 5976TIP3    H242124   5.535   1.067   0.478
 5977TIP3   OH242125   5.573   0.958   0.634
 5977TIP3    H142126   5.497   0.898   0.649
 5977TIP3    H242127   5.609   0.965   0.724
 5978TIP3   OH242128   5.563   1.209   1.066
 5978TIP3    H142129   5.629   1.137   1.057
 5978TIP3    H242130   5.604   1.283   1.018
 5979TIP3   OH242131   5.436   1.484   1.311
 5979TIP3    H142132   5.370   1.517   1.374
 5979TIP3    H242133   5.380   1.451   1.238
 5980TIP3   OH242134   5.640   0.922   0.217
 5980TIP3    H142135   5.562   0.948   0.165
 5980TIP3    H242136   5.637   0.993   0.284
 5981TIP3   OH242137   5.420   0.638   0.156
 5981TIP3    H142138   5.401   0.706   0.090
 5981TIP3    H242139   5.431   0.562   0.097
 5982TIP3   OH242140   5.381   0.786   0.697
 5982TIP3    H142141   5.360   0.697   0.666
 5982TIP3    H242142   5.346   0.784   0.788
 5983TIP3   OH242143   3.859   1.012   1.087
 5983TIP3    H142144   3.861   0.985   0.993
 5983TIP3    H242145   3.949   0.980   1.114
 5984TIP3   OH242146   5.490   0.962   1.610
 5984TIP3    H142147   5.532   0.894   1.667
 5984TIP3    H242148   5.548   1.040   1.620
 5985TIP3   OH242149   5.571   0.742   1.740
 5985TIP3    H142150   5.487   0.708   1.701
 5985TIP3    H242151   5.638   0.681   1.703
 5986TIP3   OH242152   5.382   0.381   0.010
 5986TIP3    H142153   5.457   0.341   0.059
 5986TIP3    H242154   5.311   0.317   0.029
 5987TIP3   OH242155   5.337   0.565   0.503
 5987TIP3    H142156   5.360   0.473   0.529
 5987TIP3    H242157   5.421   0.590   0.460
 5988TIP3   OH242158   5.429   0.598   1.078
 5988TIP3    H142159   5.526   0.622   1.082
 5988TIP3    H242160   5.405   0.605   1.172
 5989TIP3   OH242161   5.430   0.684   1.326
 5989TIP3    H142162   5.343   0.702   1.364
 5989TIP3    H242163   5.463   0.774   1.302
 5990TIP3   OH242164   3.855   0.531   1.649
 5990TIP3    H142165   3.933   0.512   1.706
 5990TIP3    H242166   3.801   0.452   1.669
 5991TIP3   OH242167   5.682   0.099   1.850
 5991TIP3    H142168   5.769   0.096   1.803
 5991TIP3    H242169   5.646   0.174   1.799
 5992TIP3   OH242170   5.411   0.311   0.551
 5992TIP3    H142171   5.445   0.252   0.622
 5992TIP3    H242172   5.346   0.253   0.507
 5993TIP3   OH242173   3.951   0.373   0.997
 5993TIP3    H142174   3.990   0.284   1.009
 5993TIP3    H242175   4.034   0.424   0.997
 5994TIP3   OH242176   3.790   0.670   1.071
 5994TIP3    H142177   3.848   0.660   0.992
 5994TIP3    H242178   3.856   0.703   1.133
 5995TIP3   OH242179   5.589   0.330   1.700
 5995TIP3    H142180   5.499   0.359   1.723
 5995TIP3    H242181   5.570   0.273   1.622
 5996TIP3   OH242182   5.602   0.293   0.155
 5996TIP3    H142183   5.649   0.250   0.081
 5996TIP3    H242184   5.663   0.366   0.176
 5997TIP3   OH242185   3.806   0.265   0.507
 5997TIP3    H142186   3.716   0.299   0.490
 5997TIP3    H242187   3.854   0.312   0.436
 5998TIP3   OH242188   5.292   1.763   0.672
 5998TIP3    H142189   5.366   1.749   0.609
 5998TIP3    H242190   5.334   1.816   0.742
 5999TIP3   OH242191   3.844   0.177   1.294
 5999TIP3    H142192   3.781   0.186   1.368
 5999TIP3    H242193   3.807   0.246   1.236
 6000TIP3   OH242194   4.042   1.439   1.739
 6000TIP3    H142195   4.000   1.439   1.652
 6000TIP3    H242196   3.971   1.401   1.793
 6001TIP3   OH242197   4.341   1.593   1.369
 6001TIP3    H142198   4.342   1.686   1.340
 6001TIP3    H242199   4.438   1.578   1.368
 6002TIP3   OH242200   4.753   1.701   1.629
 6002TIP3    H142201   4.770   1.683   1.723
 6002TIP3    H242202   4.840   1.739   1.602
 6003TIP3   OH242203   4.979   1.858   1.568
 6003TIP3    H142204   5.053   1.806   1.530
 6003TIP3    H242205   5.020   1.889   1.652
 6004TIP3   OH242206   5.523   0.162   1.475
 6004TIP3    H142207   5.438   0.192   1.440
 6004TIP3    H242208   5.505   0.066   1.481
 6005TIP3   OH242209   4.075   1.893   1.343
 6005TIP3    H142210   4.005   1.948   1.302
 6005TIP3    H242211   4.062   1.913   1.437
 6006TIP3   OH242212   4.322   1.848   1.239
 6006TIP3    H142213   4.232   1.860   1.277
 6006TIP3    H242214   4.316   1.908   1.162
 6007TIP3   OH242215   4.768   1.810   1.173
 6007TIP3    H142216   4.737   1.879   1.113
 6007TIP3    H242217   4.808   1.867   1.242
 6008TIP3   OH242218   4.987   1.688   1.314
 6008TIP3    H142219   4.934   1.715   1.236
 6008TIP3    H242220   5.068   1.739   1.296
 6009TIP3   OH242221   5.271   1.834   1.276
 6009TIP3    H142222   5.287   1.928   1.256
 6009TIP3    H242223   5.298   1.792   1.192
 6010TIP3   OH242224   4.039   1.735   1.044
 6010TIP3    H142225   4.009   1.670   1.110
 6010TIP3    H242226   4.124   1.694   1.015
 6011TIP3   OH242227   4.239   1.613   0.911
 6011TIP3    H142228   4.239   1.520   0.945
 6011TIP3    H242229   4.327   1.643   0.943
 6012TIP3   OH242230   4.477   1.636   1.016
 6012TIP3    H142231   4.510   1.546   0.998
 6012TIP3    H242232   4.485   1.637   1.113
 6013TIP3   OH242233   4.836   0.272   0.898
 6013TIP3    H142234   4.777   0.194   0.907
 6013TIP3    H242235   4.900   0.238   0.833
 6014TIP3   OH242236   5.319   0.125   0.912
 6014TIP3    H142237   5.386   0.142   0.843
 6014TIP3    H242238   5.235   0.152   0.870
 6015TIP3   OH242239   5.551   0.184   0.743
 6015TIP3    H142240   5.608   0.150   0.672
 6015TIP3    H242241   5.597   0.269   0.764
 6016TIP3   OH242242   4.064   0.129   0.702
 6016TIP3    H142243   4.002   0.160   0.633
 6016TIP3    H242244   4.061   0.031   0.686
 6017TIP3   OH242245   3.971   0.128   0.327
 6017TIP3    H142246   4.004   0.167   0.244
 6017TIP3    H242247   3.878   0.157   0.325
 6018TIP3   OH242248   4.529   0.121   0.668
 6018TIP3    H142249   4.606   0.164   0.626
 6018TIP3    H242250   4.558   0.122   0.762
 6019TIP3   OH242251   5.067   0.153   0.796
 6019TIP3    H142252   5.093   0.142   0.704
 6019TIP3    H242253   5.056   0.060   0.824
 6020TIP3   OH242254   5.227   0.184   0.409
 6020TIP3    H142255   5.135   0.217   0.401
 6020TIP3    H242256   5.217   0.089   0.391
 6021TIP3   OH242257   3.957   1.675   0.384
 6021TIP3    H142258   3.870   1.650   0.347
 6021TIP3    H242259   3.961   1.766   0.349
 6022TIP3   OH242260   4.098   0.216   0.110
 6022TIP3    H142261   4.181   0.167   0.101
 6022TIP3    H242262   4.129   0.302   0.141
 6023TIP3   OH242263   4.613   0.300   0.361
 6023TIP3    H142264   4.664   0.240   0.417
 6023TIP3    H242265   4.632   0.383   0.407
 6024TIP3   OH242266   4.810   1.783   0.173
 6024TIP3    H142267   4.906   1.808   0.182
 6024TIP3    H242268   4.816   1.734   0.089
 6025TIP3   OH242269   5.474   1.711   0.492
 6025TIP3    H142270   5.472   1.620   0.454
 6025TIP3    H242271   5.445   1.765   0.416
 6026TIP3   OH242272   4.011   0.100   1.695
 6026TIP3    H142273   4.014   0.003   1.683
 6026TIP3    H242274   4.095   0.116   1.743
 6027TIP3   OH242275   4.265   0.123   1.814
 6027TIP3    H142276   4.343   0.164   1.774
 6027TIP3    H242277   4.273   0.030   1.781
 6028TIP3   OH242278   4.125   1.768   0.125
 6028TIP3    H142279   4.082   1.797   0.207
 6028TIP3    H242280   4.183   1.698   0.154
 6029TIP3   OH242281   5.069   0.070   1.834
 6029TIP3    H142282   5.029  -0.016   1.856
 6029TIP3    H242283   5.138   0.040   1.772
 6030TIP3   OH242284   5.470   1.664   1.656
 6030TIP3    H142285   5.418   1.586   1.686
 6030TIP3    H242286   5.394   1.720   1.631
 6031TIP3   OH242287   6.868   0.996   0.689
 6031TIP3    H142288   6.861   1.087   0.725
 6031TIP3    H242289   6.798   1.000   0.621
 6032TIP3   OH242290   6.737   0.895   1.026
 6032TIP3    H142291   6.753   0.840   1.106
 6032TIP3    H242292   6.682   0.838   0.968
 6033TIP3   OH242293   5.969   0.910   1.168
 6033TIP3    H142294   5.956   0.834   1.228
 6033TIP3    H242295   6.040   0.957   1.214
 6034TIP3   OH242296   7.107   1.214   0.890
 6034TIP3    H142297   7.115   1.139   0.950
 6034TIP3    H242298   7.100   1.288   0.952
 6035TIP3   OH242299   6.069   1.361   0.990
 6035TIP3    H142300   6.035   1.270   0.979
 6035TIP3    H242301   6.164   1.338   0.983
 6036TIP3   OH242302   5.746   0.684   0.579
 6036TIP3    H142303   5.697   0.756   0.621
 6036TIP3    H242304   5.694   0.673   0.498
 6037TIP3   OH242305   5.788   0.937   0.816
 6037TIP3    H142306   5.833   0.850   0.832
 6037TIP3    H242307   5.847   0.981   0.754
 6038TIP3   OH242308   6.833   1.749   0.867
 6038TIP3    H142309   6.901   1.699   0.814
 6038TIP3    H242310   6.801   1.674   0.919
 6039TIP3   OH242311   6.565   1.211   1.116
 6039TIP3    H142312   6.585   1.143   1.049
 6039TIP3    H242313   6.653   1.219   1.160
 6040TIP3   OH242314   7.440   0.356   1.096
 6040TIP3    H142315   7.459   0.426   1.163
 6040TIP3    H242316   7.491   0.389   1.021
 6041TIP3   OH242317   6.920   0.612   1.127
 6041TIP3    H142318   6.973   0.530   1.128
 6041TIP3    H242319   6.899   0.616   1.032
 6042TIP3   OH242320   6.229   0.417   0.794
 6042TIP3    H142321   6.238   0.499   0.739
 6042TIP3    H242322   6.183   0.358   0.730
 6043TIP3   OH242323   6.996   0.441   0.653
 6043TIP3    H142324   7.043   0.420   0.738
 6043TIP3    H242325   7.058   0.502   0.611
 6044TIP3   OH242326   5.879   0.686   0.910
 6044TIP3    H142327   5.952   0.656   0.966
 6044TIP3    H242328   5.895   0.637   0.828
 6045TIP3   OH242329   6.372   0.821   0.852
 6045TIP3    H142330   6.451   0.772   0.882
 6045TIP3    H242331   6.344   0.766   0.776
 6046TIP3   OH242332   7.497   0.468   1.339
 6046TIP3    H142333   7.429   0.539   1.349
 6046TIP3    H242334   7.505   0.440   1.431
 6047TIP3   OH242335   6.126   0.333   1.218
 6047TIP3    H142336   6.089   0.392   1.149
 6047TIP3    H242337   6.054   0.330   1.285
 6048TIP3   OH242338   6.800   1.251   0.577
 6048TIP3    H142339   6.801   1.255   0.480
 6048TIP3    H242340   6.770   1.342   0.598
 6049TIP3   OH242341   6.346   1.089   1.205
 6049TIP3    H142342   6.290   1.166   1.234
 6049TIP3    H242343   6.422   1.137   1.165
 6050TIP3   OH242344   7.151   0.397   0.865
 6050TIP3    H142345   7.102   0.353   0.936
 6050TIP3    H242346   7.243   0.389   0.896
 6051TIP3   OH242347   6.088   0.517   1.012
 6051TIP3    H142348   6.148   0.582   1.054
 6051TIP3    H242349   6.139   0.490   0.933
 6052TIP3   OH242350   6.210   1.294   1.305
 6052TIP3    H142351   6.203   1.380   1.261
 6052TIP3    H242352   6.124   1.290   1.353
 6053TIP3   OH242353   5.794   1.220   0.410
 6053TIP3    H142354   5.781   1.275   0.330
 6053TIP3    H242355   5.798   1.288   0.480
 6054TIP3   OH242356   7.152   1.424   1.077
 6054TIP3    H142357   7.061   1.439   1.110
 6054TIP3    H242358   7.172   1.513   1.045
 6055TIP3   OH242359   7.217   0.208   1.248
 6055TIP3    H142360   7.155   0.239   1.179
 6055TIP3    H242361   7.287   0.177   1.189
 6056TIP3   OH242362   6.509   0.107   0.922
 6056TIP3    H142363   6.508   0.018   0.961
 6056TIP3    H242364   6.454   0.155   0.987
 6057TIP3   OH242365   6.981   1.584   0.734
 6057TIP3    H142366   7.002   1.498   0.690
 6057TIP3    H242367   7.069   1.629   0.726
 6058TIP3   OH242368   7.078   1.374   0.604
 6058TIP3    H142369   7.076   1.299   0.542
 6058TIP3    H242370   7.123   1.336   0.681
 6059TIP3   OH242371   7.247   1.236   1.473
 6059TIP3    H142372   7.256   1.169   1.400
 6059TIP3    H242373   7.261   1.318   1.423
 6060TIP3   OH242374   6.720   0.943   0.430
 6060TIP3    H142375   6.675   1.029   0.417
 6060TIP3    H242376   6.795   0.948   0.369
 6061TIP3   OH242377   6.775   0.791   0.126
 6061TIP3    H142378   6.854   0.827   0.172
 6061TIP3    H242379   6.805   0.700   0.104
 6062TIP3   OH242380   7.419   0.881   1.244
 6062TIP3    H142381   7.357   0.957   1.236
 6062TIP3    H242382   7.487   0.903   1.175
 6063TIP3   OH242383   7.078   0.937   0.532
 6063TIP3    H142384   7.007   0.964   0.596
 6063TIP3    H242385   7.139   0.888   0.592
 6064TIP3   OH242386   7.055   0.783   1.450
 6064TIP3    H142387   7.027   0.873   1.478
 6064TIP3    H242388   7.003   0.778   1.369
 6065TIP3   OH242389   6.236   1.021   0.722
 6065TIP3    H142390   6.193   0.999   0.635
 6065TIP3    H242391   6.286   0.940   0.741
 6066TIP3   OH242392   6.365   1.341   0.985
 6066TIP3    H142393   6.379   1.325   0.891
 6066TIP3    H242394   6.444   1.299   1.027
 6067TIP3   OH242395   6.245   0.881   1.090
 6067TIP3    H142396   6.283   0.880   0.999
 6067TIP3    H242397   6.292   0.958   1.130
 6068TIP3   OH242398   6.908   1.463   1.155
 6068TIP3    H142399   6.899   1.540   1.214
 6068TIP3    H242400   6.869   1.393   1.211
 6069TIP3   OH242401   6.380   1.327   1.505
 6069TIP3    H142402   6.309   1.376   1.552
 6069TIP3    H242403   6.331   1.299   1.424
 6070TIP3   OH242404   6.959   0.885   0.292
 6070TIP3    H142405   6.996   0.892   0.382
 6070TIP3    H242406   7.018   0.947   0.243
 6071TIP3   OH242407   6.067   0.935   1.443
 6071TIP3    H142408   6.092   1.016   1.487
 6071TIP3    H242409   5.991   0.906   1.498
 6072TIP3   OH242410   6.728   1.533   0.581
 6072TIP3    H142411   6.771   1.567   0.661
 6072TIP3    H242412   6.688   1.612   0.543
 6073TIP3   OH242413   6.198   1.490   1.627
 6073TIP3    H142414   6.184   1.528   1.537
 6073TIP3    H242415   6.105   1.465   1.649
 6074TIP3   OH242416   7.300   0.131   0.234
 6074TIP3    H142417   7.258   0.151   0.319
 6074TIP3    H242418   7.355   0.210   0.222
 6075TIP3   OH242419   6.098   0.930   0.499
 6075TIP3    H142420   6.069   0.995   0.432
 6075TIP3    H242421   6.063   0.847   0.463
 6076TIP3   OH242422   7.460   1.509   0.160
 6076TIP3    H142423   7.502   1.597   0.166
 6076TIP3    H242424   7.535   1.448   0.173
 6077TIP3   OH242425   5.762   1.171   1.388
 6077TIP3    H142426   5.724   1.159   1.300
 6077TIP3    H242427   5.788   1.078   1.410
 6078TIP3   OH242428   5.739   1.438   1.001
 6078TIP3    H142429   5.833   1.420   1.018
 6078TIP3    H242430   5.719   1.503   1.069
 6079TIP3   OH242431   7.537   1.515   1.612
 6079TIP3    H142432   7.545   1.421   1.594
 6079TIP3    H242433   7.447   1.517   1.650
 6080TIP3   OH242434   6.627   1.441   1.518
 6080TIP3    H142435   6.632   1.514   1.582
 6080TIP3    H242436   6.532   1.415   1.517
 6081TIP3   OH242437   6.683   1.822   0.458
 6081TIP3    H142438   6.697   1.861   0.369
 6081TIP3    H242439   6.675   1.904   0.511
 6082TIP3   OH242440   6.044   1.694   0.677
 6082TIP3    H142441   6.076   1.666   0.766
 6082TIP3    H242442   5.955   1.652   0.675
 6083TIP3   OH242443   6.972   1.806   0.175
 6083TIP3    H142444   6.996   1.711   0.158
 6083TIP3    H242445   6.976   1.809   0.272
 6084TIP3   OH242446   6.946   1.739   0.456
 6084TIP3    H142447   6.850   1.745   0.477
 6084TIP3    H242448   6.978   1.674   0.521
 6085TIP3   OH242449   7.210   0.653   1.659
 6085TIP3    H142450   7.174   0.688   1.575
 6085TIP3    H242451   7.280   0.593   1.629
 6086TIP3   OH242452   5.987   1.290   1.453
 6086TIP3    H142453   5.982   1.258   1.547
 6086TIP3    H242454   5.899   1.264   1.422
 6087TIP3   OH242455   6.275   0.212   1.039
 6087TIP3    H142456   6.198   0.235   0.983
 6087TIP3    H242457   6.255   0.268   1.117
 6088TIP3   OH242458   6.652   0.161   1.465
 6088TIP3    H142459   6.712   0.085   1.451
 6088TIP3    H242460   6.595   0.149   1.386
 6089TIP3   OH242461   7.017   0.487   1.447
 6089TIP3    H142462   6.964   0.461   1.525
 6089TIP3    H242463   7.039   0.579   1.469
 6090TIP3   OH242464   7.114   1.018   0.122
 6090TIP3    H142465   7.068   1.025   0.035
 6090TIP3    H242466   7.206   1.017   0.086
 6091TIP3   OH242467   6.649   0.368   0.139
 6091TIP3    H142468   6.606   0.328   0.218
 6091TIP3    H242469   6.604   0.327   0.065
 6092TIP3   OH242470   6.250   0.641   1.187
 6092TIP3    H142471   6.170   0.641   1.242
 6092TIP3    H242472   6.252   0.736   1.158
 6093TIP3   OH242473   6.244   0.647   0.658
 6093TIP3    H142474   6.148   0.630   0.650
 6093TIP3    H242475   6.278   0.628   0.568
 6094TIP3   OH242476   6.832   0.707   0.542
 6094TIP3    H142477   6.791   0.788   0.505
 6094TIP3    H242478   6.889   0.678   0.468
 6095TIP3   OH242479   6.694   0.741   1.673
 6095TIP3    H142480   6.647   0.658   1.698
 6095TIP3    H242481   6.771   0.734   1.733
 6096TIP3   OH242482   6.914   0.654   0.829
 6096TIP3    H142483   6.889   0.740   0.788
 6096TIP3    H242484   6.915   0.598   0.749
 6097TIP3   OH242485   5.989   0.646   1.309
 6097TIP3    H142486   6.043   0.686   1.379
 6097TIP3    H242487   5.960   0.562   1.348
 6098TIP3   OH242488   6.321   0.416   0.039
 6098TIP3    H142489   6.282   0.403   0.127
 6098TIP3    H242490   6.249   0.464  -0.008
 6099TIP3   OH242491   5.699   0.412   0.749
 6099TIP3    H142492   5.775   0.389   0.805
 6099TIP3    H242493   5.726   0.380   0.661
 6100TIP3   OH242494   5.793   0.444   0.314
 6100TIP3    H142495   5.870   0.488   0.274
 6100TIP3    H242496   5.734   0.520   0.331
 6101TIP3   OH242497   6.814   0.802   1.274
 6101TIP3    H142498   6.869   0.739   1.220
 6101TIP3    H242499   6.756   0.737   1.320
 6102TIP3   OH242500   6.519   0.395   0.770
 6102TIP3    H142501   6.426   0.367   0.775
 6102TIP3    H242502   6.549   0.376   0.861
 6103TIP3   OH242503   5.979   0.573   0.659
 6103TIP3    H142504   5.892   0.599   0.621
 6103TIP3    H242505   5.995   0.485   0.621
 6104TIP3   OH242506   6.345   0.579   0.425
 6104TIP3    H142507   6.442   0.585   0.436
 6104TIP3    H242508   6.322   0.639   0.349
 6105TIP3   OH242509   6.972   0.307   1.080
 6105TIP3    H142510   6.910   0.321   1.154
 6105TIP3    H242511   6.909   0.268   1.017
 6106TIP3   OH242512   6.226   0.713   0.227
 6106TIP3    H142513   6.141   0.683   0.191
 6106TIP3    H242514   6.283   0.720   0.148
 6107TIP3   OH242515   7.245   1.859   1.750
 6107TIP3    H142516   7.285   1.906   1.673
 6107TIP3    H242517   7.312   1.877   1.819
 6108TIP3   OH242518   5.999   1.147   1.693
 6108TIP3    H142519   6.076   1.164   1.751
 6108TIP3    H242520   5.936   1.109   1.755
 6109TIP3   OH242521   6.636   0.668   0.932
 6109TIP3    H142522   6.705   0.618   0.886
 6109TIP3    H242523   6.618   0.608   1.004
 6110TIP3   OH242524   6.095   0.306   0.595
 6110TIP3    H142525   6.045   0.235   0.641
 6110TIP3    H242526   6.140   0.258   0.523
 6111TIP3   OH242527   6.481   0.505   1.186
 6111TIP3    H142528   6.403   0.565   1.195
 6111TIP3    H242529   6.551   0.556   1.228
 6112TIP3   OH242530   6.542   1.159   0.385
 6112TIP3    H142531   6.473   1.095   0.355
 6112TIP3    H242532   6.507   1.175   0.476
 6113TIP3   OH242533   7.256   1.093   1.257
 6113TIP3    H142534   7.310   1.140   1.190
 6113TIP3    H242535   7.172   1.077   1.210
 6114TIP3   OH242536   6.897   0.402   0.238
 6114TIP3    H142537   6.813   0.433   0.197
 6114TIP3    H242538   6.945   0.486   0.251
 6115TIP3   OH242539   6.648   1.167   1.484
 6115TIP3    H142540   6.643   1.135   1.575
 6115TIP3    H242541   6.642   1.263   1.500
 6116TIP3   OH242542   7.011   0.620   0.342
 6116TIP3    H142543   7.097   0.606   0.388
 6116TIP3    H242544   7.024   0.708   0.302
 6117TIP3   OH242545   6.075   1.089   0.951
 6117TIP3    H142546   6.140   1.075   0.880
 6117TIP3    H242547   6.081   1.008   1.004
 6118TIP3   OH242548   6.768   1.285   0.283
 6118TIP3    H142549   6.729   1.375   0.291
 6118TIP3    H242550   6.687   1.231   0.293
 6119TIP3   OH242551   5.767   0.897   1.468
 6119TIP3    H142552   5.743   0.842   1.546
 6119TIP3    H242553   5.706   0.863   1.400
 6120TIP3   OH242554   6.452   0.877   1.665
 6120TIP3    H142555   6.409   0.823   1.597
 6120TIP3    H242556   6.544   0.842   1.663
 6121TIP3   OH242557   6.946   1.405   1.505
 6121TIP3    H142558   6.857   1.419   1.468
 6121TIP3    H242559   6.934   1.450   1.591
 6122TIP3   OH242560   7.470   0.643   0.345
 6122TIP3    H142561   7.421   0.611   0.266
 6122TIP3    H242562   7.483   0.735   0.316
 6123TIP3   OH242563   7.487   1.196   1.585
 6123TIP3    H142564   7.403   1.229   1.547
 6123TIP3    H242565   7.540   1.183   1.504
 6124TIP3   OH242566   7.326   1.472   0.400
 6124TIP3    H142567   7.240   1.431   0.386
 6124TIP3    H242568   7.366   1.470   0.312
 6125TIP3   OH242569   7.062   1.003   1.074
 6125TIP3    H142570   6.968   1.005   1.051
 6125TIP3    H242571   7.091   0.923   1.023
 6126TIP3   OH242572   6.282   1.422   0.697
 6126TIP3    H142573   6.312   1.511   0.667
 6126TIP3    H242574   6.187   1.430   0.682
 6127TIP3   OH242575   5.895   0.897   0.107
 6127TIP3    H142576   5.946   0.961   0.161
 6127TIP3    H242577   5.805   0.907   0.145
 6128TIP3   OH242578   6.436   1.195   0.643
 6128TIP3    H142579   6.378   1.275   0.654
 6128TIP3    H242580   6.387   1.128   0.696
 6129TIP3   OH242581   6.485   1.604   1.323
 6129TIP3    H142582   6.547   1.674   1.293
 6129TIP3    H242583   6.544   1.556   1.386
 6130TIP3   OH242584   6.309   1.673   0.588
 6130TIP3    H142585   6.216   1.696   0.609
 6130TIP3    H242586   6.354   1.756   0.616
 6131TIP3   OH242587   6.797   1.194   1.253
 6131TIP3    H142588   6.746   1.166   1.332
 6131TIP3    H242589   6.846   1.113   1.235
 6132TIP3   OH242590   7.065   1.329   0.147
 6132TIP3    H142591   7.103   1.294   0.230
 6132TIP3    H242592   6.979   1.284   0.151
 6133TIP3   OH242593   7.108   1.650   1.486
 6133TIP3    H142594   7.022   1.607   1.474
 6133TIP3    H242595   7.117   1.706   1.406
 6134TIP3   OH242596   7.546   1.763   0.152
 6134TIP3    H142597   7.618   1.827   0.156
 6134TIP3    H242598   7.474   1.808   0.202
 6135TIP3   OH242599   5.942   0.365   1.409
 6135TIP3    H142600   5.851   0.390   1.387
 6135TIP3    H242601   5.930   0.282   1.457
 6136TIP3   OH242602   7.162   1.178   0.367
 6136TIP3    H142603   7.133   1.087   0.380
 6136TIP3    H242604   7.259   1.166   0.367
 6137TIP3   OH242605   5.896   1.570   1.259
 6137TIP3    H142606   5.960   1.499   1.268
 6137TIP3    H242607   5.901   1.610   1.347
 6138TIP3   OH242608   6.334   1.365   0.254
 6138TIP3    H142609   6.418   1.334   0.290
 6138TIP3    H242610   6.341   1.461   0.277
 6139TIP3   OH242611   5.996   1.093   0.274
 6139TIP3    H142612   5.924   1.141   0.322
 6139TIP3    H242613   6.051   1.168   0.245
 6140TIP3   OH242614   6.778   0.357   1.333
 6140TIP3    H142615   6.863   0.375   1.376
 6140TIP3    H242616   6.735   0.297   1.398
 6141TIP3   OH242617   6.853   0.295   0.477
 6141TIP3    H142618   6.859   0.348   0.394
 6141TIP3    H242619   6.915   0.343   0.536
 6142TIP3   OH242620   6.643   1.536   0.276
 6142TIP3    H142621   6.576   1.548   0.345
 6142TIP3    H242622   6.670   1.628   0.265
 6143TIP3   OH242623   6.606   0.533   0.525
 6143TIP3    H142624   6.694   0.575   0.529
 6143TIP3    H242625   6.588   0.508   0.618
 6144TIP3   OH242626   6.673   0.632   1.426
 6144TIP3    H142627   6.694   0.664   1.517
 6144TIP3    H242628   6.707   0.541   1.420
 6145TIP3   OH242629   6.644   0.202   0.597
 6145TIP3    H142630   6.632   0.273   0.662
 6145TIP3    H242631   6.730   0.229   0.556
 6146TIP3   OH242632   6.370   1.621   0.327
 6146TIP3    H142633   6.399   1.706   0.286
 6146TIP3    H242634   6.341   1.650   0.416
 6147TIP3   OH242635   6.216   0.381   0.295
 6147TIP3    H142636   6.233   0.448   0.365
 6147TIP3    H242637   6.297   0.329   0.308
 6148TIP3   OH242638   7.261   0.398   1.501
 6148TIP3    H142639   7.171   0.436   1.498
 6148TIP3    H242640   7.260   0.349   1.417
 6149TIP3   OH242641   7.127   0.778   0.931
 6149TIP3    H142642   7.048   0.727   0.907
 6149TIP3    H242643   7.179   0.707   0.976
 6150TIP3   OH242644   6.072   1.339   0.193
 6150TIP3    H142645   6.164   1.357   0.226
 6150TIP3    H242646   6.091   1.329   0.098
 6151TIP3   OH242647   5.912   0.631   0.152
 6151TIP3    H142648   5.926   0.728   0.142
 6151TIP3    H242649   5.844   0.616   0.084
 6152TIP3   OH242650   7.259   1.687   1.078
 6152TIP3    H142651   7.238   1.761   1.015
 6152TIP3    H242652   7.355   1.698   1.087
 6153TIP3   OH242653   5.994   0.163   0.966
 6153TIP3    H142654   5.969   0.144   0.873
 6153TIP3    H242655   5.978   0.073   1.000
 6154TIP3   OH242656   5.847   1.490   0.588
 6154TIP3    H142657   5.768   1.546   0.591
 6154TIP3    H242658   5.884   1.523   0.504
 6155TIP3   OH242659   5.802   1.768   1.686
 6155TIP3    H142660   5.896   1.752   1.704
 6155TIP3    H242661   5.766   1.677   1.685
 6156TIP3   OH242662   6.268   1.651   1.850
 6156TIP3    H142663   6.353   1.618   1.883
 6156TIP3    H242664   6.265   1.609   1.762
 6157TIP3   OH242665   6.685   1.583  -0.012
 6157TIP3    H142666   6.602   1.542   0.013
 6157TIP3    H242667   6.747   1.529   0.040
 6158TIP3   OH242668   6.895   1.524   1.752
 6158TIP3    H142669   6.860   1.436   1.783
 6158TIP3    H242670   6.983   1.522   1.794
 6159TIP3   OH242671   7.054   1.581   0.057
 6159TIP3    H142672   7.057   1.488   0.089
 6159TIP3    H242673   7.144   1.595   0.022
 6160TIP3   OH242674   5.756   1.118   1.815
 6160TIP3    H142675   5.739   1.024   1.794
 6160TIP3    H242676   5.719   1.164   1.736
 6161TIP3   OH242677   6.278   1.102   0.054
 6161TIP3    H142678   6.251   1.089   0.146
 6161TIP3    H242679   6.352   1.164   0.067
 6162TIP3   OH242680   6.441   1.144   1.699
 6162TIP3    H142681   6.427   1.195   1.616
 6162TIP3    H242682   6.427   1.050   1.671
 6163TIP3   OH242683   7.011   1.112   1.509
 6163TIP3    H142684   7.102   1.149   1.519
 6163TIP3    H242685   6.962   1.196   1.510
 6164TIP3   OH242686   5.921   0.847   1.763
 6164TIP3    H142687   5.977   0.769   1.775
 6164TIP3    H242688   5.955   0.907   1.833
 6165TIP3   OH242689   6.357   0.972   0.287
 6165TIP3    H142690   6.281   0.925   0.325
 6165TIP3    H242691   6.392   0.905   0.224
 6166TIP3   OH242692   6.248   0.749   1.435
 6166TIP3    H142693   6.186   0.823   1.451
 6166TIP3    H242694   6.318   0.799   1.389
 6167TIP3   OH242695   6.486   0.800   0.095
 6167TIP3    H142696   6.509   0.771   0.005
 6167TIP3    H242697   6.574   0.801   0.137
 6168TIP3   OH242698   6.794   1.051   1.820
 6168TIP3    H142699   6.876   1.009   1.787
 6168TIP3    H242700   6.746   0.973   1.852
 6169TIP3   OH242701   7.345   0.994   9.990
 6169TIP3    H142702   7.387   0.914   9.953
 6169TIP3    H242703   7.419   1.059   9.978
 6170TIP3   OH242704   6.340   0.529   1.563
 6170TIP3    H142705   6.349   0.464   1.490
 6170TIP3    H242706   6.332   0.612   1.510
 6171TIP3   OH242707   6.357   0.345   1.357
 6171TIP3    H142708   6.416   0.391   1.293
 6171TIP3    H242709   6.271   0.357   1.312
 6172TIP3   OH242710   6.473   0.889   1.351
 6172TIP3    H142711   6.569   0.902   1.343
 6172TIP3    H242712   6.437   0.968   1.305
 6173TIP3   OH242713   6.947   0.634   1.835
 6173TIP3    H142714   6.966   0.540   1.825
 6173TIP3    H242715   7.025   0.674   1.792
 6174TIP3   OH242716   7.075   0.964   1.728
 6174TIP3    H142717   7.049   1.010   1.645
 6174TIP3    H242718   7.167   0.937   1.705
 6175TIP3   OH242719   6.161   0.607   1.780
 6175TIP3    H142720   6.088   0.542   1.767
 6175TIP3    H242721   6.221   0.582   1.707
 6176TIP3   OH242722   6.444   0.098   1.307
 6176TIP3    H142723   6.423   0.190   1.337
 6176TIP3    H242724   6.352   0.068   1.303
 6177TIP3   OH242725   6.568   0.508   1.738
 6177TIP3    H142726   6.523   0.486   1.822
 6177TIP3    H242727   6.495   0.490   1.676
 6178TIP3   OH242728   6.852   0.416   1.655
 6178TIP3    H142729   6.756   0.412   1.674
 6178TIP3    H242730   6.887   0.355   1.724
 6179TIP3   OH242731   7.006   0.317   1.872
 6179TIP3    H142732   6.992   0.219   1.873
 6179TIP3    H242733   6.972   0.341   1.961
 6180TIP3   OH242734   5.957   0.430   1.791
 6180TIP3    H142735   5.943   0.357   1.729
 6180TIP3    H242736   5.937   0.386   1.877
 6181TIP3   OH242737   6.413   0.091   1.615
 6181TIP3    H142738   6.410  -0.006   1.632
 6181TIP3    H242739   6.490   0.103   1.557
 6182TIP3   OH242740   6.499   0.188   1.869
 6182TIP3    H142741   6.478   0.154   1.780
 6182TIP3    H242742   6.435   0.261   1.878
 6183TIP3   OH242743   6.412   1.858   0.210
 6183TIP3    H142744   6.509   1.869   0.213
 6183TIP3    H242745   6.387   1.915   0.136
 6184TIP3   OH242746   5.800   1.341   0.161
 6184TIP3    H142747   5.898   1.340   0.173
 6184TIP3    H242748   5.789   1.288   0.080
 6185TIP3   OH242749   5.671   1.839   0.621
 6185TIP3    H142750   5.596   1.786   0.587
 6185TIP3    H242751   5.703   1.784   0.695
 6186TIP3   OH242752   5.758   1.672   0.820
 6186TIP3    H142753   5.698   1.601   0.850
 6186TIP3    H242754   5.820   1.677   0.896
 6187TIP3   OH242755   7.559   1.728   1.130
 6187TIP3    H142756   7.554   1.739   1.226
 6187TIP3    H242757   7.559   1.821   1.104
 6188TIP3   OH242758   7.458   1.710   1.419
 6188TIP3    H142759   7.411   1.634   1.378
 6188TIP3    H242760   7.500   1.666   1.495
 6189TIP3   OH242761   7.319   1.270   1.899
 6189TIP3    H142762   7.230   1.284   1.938
 6189TIP3    H242763   7.356   1.360   1.904
 6190TIP3   OH242764   7.441   1.117   0.396
 6190TIP3    H142765   7.525   1.163   0.407
 6190TIP3    H242766   7.446   1.048   0.465
 6191TIP3   OH242767   7.468   0.921   0.601
 6191TIP3    H142768   7.374   0.895   0.607
 6191TIP3    H242769   7.497   0.905   0.692
 6192TIP3   OH242770   7.454   1.195   1.113
 6192TIP3    H142771   7.537   1.163   1.072
 6192TIP3    H242772   7.460   1.289   1.087
 6193TIP3   OH242773   7.313   1.482   1.330
 6193TIP3    H142774   7.235   1.524   1.369
 6193TIP3    H242775   7.285   1.468   1.237
 6194TIP3   OH242776   7.499   0.927   0.205
 6194TIP3    H142777   7.426   0.951   0.146
 6194TIP3    H242778   7.497   1.005   0.264
 6195TIP3   OH242779   7.345   0.635   0.120
 6195TIP3    H142780   7.288   0.679   0.054
 6195TIP3    H242781   7.338   0.542   0.091
 6196TIP3   OH242782   7.249   0.791   0.679
 6196TIP3    H142783   7.260   0.697   0.656
 6196TIP3    H242784   7.228   0.789   0.775
 6197TIP3   OH242785   5.752   1.017   1.077
 6197TIP3    H142786   5.763   0.990   0.983
 6197TIP3    H242787   5.842   0.997   1.112
 6198TIP3   OH242788   7.340   0.969   1.643
 6198TIP3    H142789   7.407   0.901   1.618
 6198TIP3    H242790   7.388   1.052   1.621
 6199TIP3   OH242791   7.488   0.757   1.637
 6199TIP3    H142792   7.409   0.750   1.696
 6199TIP3    H242793   7.531   0.672   1.658
 6200TIP3   OH242794   7.248   0.385   0.012
 6200TIP3    H142795   7.323   0.337   0.051
 6200TIP3    H242796   7.177   0.321   0.029
 6201TIP3   OH242797   7.253   0.558   0.478
 6201TIP3    H142798   7.283   0.471   0.511
 6201TIP3    H242799   7.337   0.588   0.436
 6202TIP3   OH242800   7.249   0.586   1.064
 6202TIP3    H142801   7.341   0.582   1.029
 6202TIP3    H242802   7.266   0.578   1.160
 6203TIP3   OH242803   7.302   0.656   1.326
 6203TIP3    H142804   7.209   0.684   1.331
 6203TIP3    H242805   7.347   0.741   1.305
 6204TIP3   OH242806   5.742   0.540   1.637
 6204TIP3    H142807   5.820   0.529   1.693
 6204TIP3    H242808   5.691   0.459   1.661
 6205TIP3   OH242809   7.579   0.069   1.869
 6205TIP3    H142810   7.666   0.079   1.827
 6205TIP3    H242811   7.526   0.128   1.811
 6206TIP3   OH242812   7.297   0.299   0.534
 6206TIP3    H142813   7.311   0.240   0.612
 6206TIP3    H242814   7.208   0.267   0.504
 6207TIP3   OH242815   5.836   0.374   1.004
 6207TIP3    H142816   5.879   0.288   1.018
 6207TIP3    H242817   5.914   0.432   1.000
 6208TIP3   OH242818   5.684   0.662   1.081
 6208TIP3    H142819   5.745   0.636   1.009
 6208TIP3    H242820   5.743   0.717   1.134
 6209TIP3   OH242821   7.465   0.254   1.712
 6209TIP3    H142822   7.388   0.309   1.741
 6209TIP3    H242823   7.438   0.233   1.620
 6210TIP3   OH242824   7.491   0.310   0.156
 6210TIP3    H142825   7.510   0.233   0.102
 6210TIP3    H242826   7.569   0.366   0.141
 6211TIP3   OH242827   5.689   0.274   0.512
 6211TIP3    H142828   5.597   0.299   0.492
 6211TIP3    H242829   5.734   0.316   0.436
 6212TIP3   OH242830   7.181   1.748   0.682
 6212TIP3    H142831   7.238   1.734   0.603
 6212TIP3    H242832   7.243   1.791   0.741
 6213TIP3   OH242833   5.735   0.170   1.297
 6213TIP3    H142834   5.673   0.183   1.371
 6213TIP3    H242835   5.693   0.226   1.228
 6214TIP3   OH242836   5.941   1.446   1.710
 6214TIP3    H142837   5.851   1.464   1.675
 6214TIP3    H242838   5.926   1.412   1.799
 6215TIP3   OH242839   6.220   1.602   1.376
 6215TIP3    H142840   6.219   1.693   1.340
 6215TIP3    H242841   6.315   1.581   1.367
 6216TIP3   OH242842   6.631   1.709   1.626
 6216TIP3    H142843   6.641   1.687   1.720
 6216TIP3    H242844   6.721   1.743   1.606
 6217TIP3   OH242845   6.857   1.856   1.592
 6217TIP3    H142846   6.938   1.823   1.552
 6217TIP3    H242847   6.889   1.893   1.678
 6218TIP3   OH242848   7.375   0.143   1.493
 6218TIP3    H142849   7.288   0.167   1.459
 6218TIP3    H242850   7.365   0.046   1.499
 6219TIP3   OH242851   5.950   1.881   1.354
 6219TIP3    H142852   5.890   1.950   1.319
 6219TIP3    H242853   5.937   1.892   1.449
 6220TIP3   OH242854   6.190   1.845   1.242
 6220TIP3    H142855   6.096   1.861   1.268
 6220TIP3    H242856   6.200   1.906   1.167
 6221TIP3   OH242857   6.679   1.810   1.171
 6221TIP3    H142858   6.614   1.852   1.113
 6221TIP3    H242859   6.690   1.880   1.239
 6222TIP3   OH242860   6.869   1.676   1.317
 6222TIP3    H142861   6.802   1.713   1.256
 6222TIP3    H242862   6.943   1.739   1.304
 6223TIP3   OH242863   7.127   1.808   1.275
 6223TIP3    H142864   7.147   1.900   1.255
 6223TIP3    H242865   7.172   1.765   1.198
 6224TIP3   OH242866   5.916   1.726   1.040
 6224TIP3    H142867   5.901   1.669   1.119
 6224TIP3    H242868   6.008   1.698   1.015
 6225TIP3   OH242869   6.138   1.631   0.926
 6225TIP3    H142870   6.127   1.535   0.943
 6225TIP3    H242871   6.227   1.643   0.965
 6226TIP3   OH242872   6.372   1.630   1.052
 6226TIP3    H142873   6.407   1.540   1.040
 6226TIP3    H242874   6.379   1.641   1.149
 6227TIP3   OH242875   6.714   0.297   0.935
 6227TIP3    H142876   6.664   0.213   0.938
 6227TIP3    H242877   6.777   0.275   0.863
 6228TIP3   OH242878   7.193   0.116   0.927
 6228TIP3    H142879   7.243   0.133   0.845
 6228TIP3    H242880   7.111   0.075   0.894
 6229TIP3   OH242881   7.374   0.114   0.716
 6229TIP3    H142882   7.446   0.057   0.686
 6229TIP3    H242883   7.421   0.180   0.772
 6230TIP3   OH242884   5.942   0.127   0.701
 6230TIP3    H142885   5.890   0.145   0.621
 6230TIP3    H242886   5.949   0.029   0.694
 6231TIP3   OH242887   5.865   0.127   0.346
 6231TIP3    H142888   5.889   0.168   0.260
 6231TIP3    H242889   5.769   0.142   0.348
 6232TIP3   OH242890   6.404   0.126   0.672
 6232TIP3    H142891   6.484   0.159   0.627
 6232TIP3    H242892   6.433   0.138   0.765
 6233TIP3   OH242893   6.927   0.166   0.780
 6233TIP3    H142894   6.983   0.180   0.701
 6233TIP3    H242895   6.935   0.070   0.794
 6234TIP3   OH242896   7.087   0.183   0.419
 6234TIP3    H142897   6.994   0.210   0.408
 6234TIP3    H242898   7.086   0.093   0.383
 6235TIP3   OH242899   5.819   1.661   0.373
 6235TIP3    H142900   5.732   1.661   0.327
 6235TIP3    H242901   5.838   1.755   0.365
 6236TIP3   OH242902   5.984   0.205   0.118
 6236TIP3    H142903   6.065   0.157   0.097
 6236TIP3    H242904   6.018   0.290   0.149
 6237TIP3   OH242905   6.499   0.315   0.376
 6237TIP3    H142906   6.541   0.248   0.431
 6237TIP3    H242907   6.530   0.394   0.425
 6238TIP3   OH242908   6.703   1.798   0.172
 6238TIP3    H142909   6.800   1.810   0.160
 6238TIP3    H242910   6.683   1.740   0.096
 6239TIP3   OH242911   7.356   1.727   0.489
 6239TIP3    H142912   7.343   1.637   0.452
 6239TIP3    H242913   7.361   1.784   0.409
 6240TIP3   OH242914   5.895   0.124   1.692
 6240TIP3    H142915   5.903   0.038   1.649
 6240TIP3    H242916   5.982   0.131   1.737
 6241TIP3   OH242917   6.131   0.108   1.816
 6241TIP3    H142918   6.221   0.145   1.818
 6241TIP3    H242919   6.152   0.020   1.774
 6242TIP3   OH242920   6.035   1.790   0.130
 6242TIP3    H142921   5.971   1.812   0.199
 6242TIP3    H242922   6.067   1.702   0.154
 6243TIP3   OH242923   6.969   0.063   1.820
 6243TIP3    H142924   6.948  -0.033   1.829
 6243TIP3    H242925   7.048   0.058   1.766
 6244TIP3   OH242926   7.286   1.574   1.664
 6244TIP3    H142927   7.221   1.585   1.592
 6244TIP3    H242928   7.291   1.667   1.694
 6245TIP3   OH242929   7.564   0.664   0.591
 6245TIP3    H142930   7.559   0.761   0.589
 6245TIP3    H242931   7.528   0.644   0.502
 6246TIP3   OH242932   7.581   1.134   1.349
 6246TIP3    H142933   7.532   1.127   1.263
 6246TIP3    H242934   7.598   1.039   1.370
 6247TIP3   OH242935   7.548   1.429   1.031
 6247TIP3    H142936   7.642   1.426   1.000
 6247TIP3    H242937   7.551   1.502   1.094
 6248TIP3   OH242938   7.534   0.345   0.759
 6248TIP3    H142939   7.620   0.388   0.781
 6248TIP3    H242940   7.536   0.357   0.662
 6249TIP3   OH242941   7.599   0.893   1.442
 6249TIP3    H142942   7.577   0.840   1.522
 6249TIP3    H242943   7.525   0.865   1.383
 6250TIP3   OH242944   7.626   1.069   1.779
 6250TIP3    H142945   7.569   1.041   1.853
 6250TIP3    H242946   7.562   1.113   1.719
 6251TIP3   OH242947   7.514   1.853   0.663
 6251TIP3    H142948   7.456   1.805   0.599
 6251TIP3    H242949   7.536   1.776   0.721
 6252TIP3   OH242950   7.560   1.631   0.816
 6252TIP3    H142951   7.526   1.541   0.829
 6252TIP3    H242952   7.601   1.645   0.903
 6253TIP3   OH242953   7.614   0.962   1.088
 6253TIP3    H142954   7.620   0.948   0.993
 6253TIP3    H242955   7.703   1.000   1.103
 6254TIP3   OH242956   7.532   0.506   1.668
 6254TIP3    H142957   7.625   0.535   1.678
 6254TIP3    H242958   7.532   0.410   1.681
 6255TIP3   OH242959   7.503   0.626   1.002
 6255TIP3    H142960   7.598   0.609   0.990
 6255TIP3    H242961   7.514   0.690   1.075
 6256TIP3   OH242962   7.558   0.317   0.475
 6256TIP3    H142963   7.461   0.309   0.485
 6256TIP3    H242964   7.566   0.318   0.378
 6257TIP3   OH242965   7.527   0.188   1.283
 6257TIP3    H142966   7.469   0.192   1.363
 6257TIP3    H242967   7.489   0.258   1.225
 6258TIP3   OH242968   1.235   2.898   0.695
 6258TIP3    H142969   1.231   2.990   0.728
 6258TIP3    H242970   1.162   2.899   0.630
 6259TIP3   OH242971   1.103   2.765   1.019
 6259TIP3    H142972   1.084   2.709   1.097
 6259TIP3    H242973   1.040   2.732   0.951
 6260TIP3   OH242974   0.342   2.777   1.162
 6260TIP3    H142975   0.338   2.694   1.211
 6260TIP3    H242976   0.397   2.830   1.222
 6261TIP3   OH242977   1.411   3.091   0.888
 6261TIP3    H142978   1.397   3.017   0.950
 6261TIP3    H242979   1.437   3.162   0.948
 6262TIP3   OH242980   0.364   3.227   0.999
 6262TIP3    H142981   0.343   3.132   0.980
 6262TIP3    H242982   0.460   3.219   1.005
 6263TIP3   OH242983   0.151   2.579   0.560
 6263TIP3    H142984   0.122   2.635   0.633
 6263TIP3    H242985   0.067   2.529   0.547
 6264TIP3   OH242986   0.117   2.788   0.821
 6264TIP3    H142987   0.169   2.711   0.853
 6264TIP3    H242988   0.183   2.833   0.766
 6265TIP3   OH242989   1.196   3.651   0.911
 6265TIP3    H142990   1.255   3.590   0.860
 6265TIP3    H242991   1.135   3.586   0.947
 6266TIP3   OH242992   0.920   3.021   1.111
 6266TIP3    H142993   0.957   3.000   1.025
 6266TIP3    H242994   0.998   3.062   1.155
 6267TIP3   OH242995   1.780   2.189   1.129
 6267TIP3    H142996   1.795   2.248   1.206
 6267TIP3    H242997   1.858   2.210   1.075
 6268TIP3   OH242998   1.292   2.487   1.129
 6268TIP3    H142999   1.297   2.391   1.144
 6268TIP3    H243000   1.269   2.484   1.034
 6269TIP3   OH243001   0.586   2.285   0.815
 6269TIP3    H143002   0.604   2.364   0.759
 6269TIP3    H243003   0.543   2.228   0.749
 6270TIP3   OH243004   1.324   2.309   0.669
 6270TIP3    H143005   1.371   2.280   0.751
 6270TIP3    H243006   1.389   2.369   0.631
 6271TIP3   OH243007   0.281   2.569   0.880
 6271TIP3    H143008   0.330   2.506   0.937
 6271TIP3    H243009   0.288   2.521   0.795
 6272TIP3   OH243010   0.666   2.696   0.844
 6272TIP3    H143011   0.755   2.667   0.870
 6272TIP3    H243012   0.644   2.624   0.780
 6273TIP3   OH243013   1.803   2.339   1.351
 6273TIP3    H143014   1.763   2.423   1.316
 6273TIP3    H243015   1.835   2.372   1.436
 6274TIP3   OH243016   0.463   2.193   1.227
 6274TIP3    H143017   0.441   2.244   1.147
 6274TIP3    H243018   0.401   2.235   1.292
 6275TIP3   OH243019   1.154   3.157   0.573
 6275TIP3    H143020   1.144   3.149   0.476
 6275TIP3    H243021   1.119   3.248   0.587
 6276TIP3   OH243022   0.693   2.967   1.244
 6276TIP3    H143023   0.637   3.044   1.267
 6276TIP3    H243024   0.767   3.009   1.195
 6277TIP3   OH243025   1.498   2.274   0.872
 6277TIP3    H143026   1.494   2.193   0.923
 6277TIP3    H243027   1.581   2.314   0.904
 6278TIP3   OH243028   0.418   2.386   1.025
 6278TIP3    H143029   0.477   2.451   1.070
 6278TIP3    H243030   0.476   2.356   0.951
 6279TIP3   OH243031   0.561   3.195   1.316
 6279TIP3    H143032   0.537   3.277   1.271
 6279TIP3    H243033   0.476   3.173   1.361
 6280TIP3   OH243034   0.104   3.120   0.405
 6280TIP3    H143035   0.116   3.160   0.316
 6280TIP3    H243036   0.144   3.185   0.466
 6281TIP3   OH243037   1.514   3.297   1.075
 6281TIP3    H143038   1.421   3.313   1.101
 6281TIP3    H243039   1.535   3.386   1.042
 6282TIP3   OH243040   1.501   2.152   1.206
 6282TIP3    H143041   1.428   2.187   1.151
 6282TIP3    H243042   1.579   2.171   1.151
 6283TIP3   OH243043   0.826   1.943   0.946
 6283TIP3    H143044   0.795   1.854   0.967
 6283TIP3    H243045   0.754   1.997   0.987
 6284TIP3   OH243046   1.342   3.480   0.760
 6284TIP3    H143047   1.355   3.397   0.711
 6284TIP3    H243048   1.425   3.526   0.732
 6285TIP3   OH243049   1.451   3.265   0.607
 6285TIP3    H143050   1.443   3.193   0.542
 6285TIP3    H243051   1.441   3.213   0.688
 6286TIP3   OH243052   1.609   3.126   1.458
 6286TIP3    H143053   1.631   3.057   1.391
 6286TIP3    H243054   1.616   3.206   1.402
 6287TIP3   OH243055   1.085   2.853   0.434
 6287TIP3    H143056   1.026   2.928   0.409
 6287TIP3    H243057   1.162   2.867   0.376
 6288TIP3   OH243058   1.112   2.684   0.145
 6288TIP3    H143059   1.180   2.728   0.202
 6288TIP3    H243060   1.160   2.600   0.129
 6289TIP3   OH243061   1.815   2.776   1.249
 6289TIP3    H143062   1.744   2.843   1.252
 6289TIP3    H243063   1.875   2.818   1.184
 6290TIP3   OH243064   1.437   2.807   0.533
 6290TIP3    H143065   1.370   2.849   0.593
 6290TIP3    H243066   1.502   2.773   0.599
 6291TIP3   OH243067   1.446   2.650   1.445
 6291TIP3    H143068   1.435   2.741   1.480
 6291TIP3    H243069   1.385   2.652   1.369
 6292TIP3   OH243070   0.567   2.915   0.725
 6292TIP3    H143071   0.521   2.879   0.646
 6292TIP3    H243072   0.592   2.833   0.773
 6293TIP3   OH243073   0.714   3.212   0.978
 6293TIP3    H143074   0.729   3.208   0.882
 6293TIP3    H243075   0.787   3.159   1.013
 6294TIP3   OH243076   0.643   2.748   1.104
 6294TIP3    H143077   0.657   2.760   1.007
 6294TIP3    H243078   0.651   2.837   1.143
 6295TIP3   OH243079   1.260   3.337   1.154
 6295TIP3    H143080   1.241   3.404   1.222
 6295TIP3    H243081   1.208   3.262   1.188
 6296TIP3   OH243082   0.709   3.225   1.539
 6296TIP3    H143083   0.630   3.265   1.581
 6296TIP3    H243084   0.676   3.212   1.447
 6297TIP3   OH243085   1.307   2.779   0.301
 6297TIP3    H143086   1.354   2.783   0.388
 6297TIP3    H243087   1.372   2.826   0.243
 6298TIP3   OH243088   0.455   2.835   1.439
 6298TIP3    H143089   0.448   2.919   1.490
 6298TIP3    H243090   0.364   2.804   1.439
 6299TIP3   OH243091   1.069   3.425   0.582
 6299TIP3    H143092   1.102   3.460   0.665
 6299TIP3    H243093   1.020   3.498   0.542
 6300TIP3   OH243094   0.523   3.398   1.628
 6300TIP3    H143095   0.510   3.418   1.533
 6300TIP3    H243096   0.429   3.385   1.655
 6301TIP3   OH243097   1.707   1.919   0.319
 6301TIP3    H143098   1.609   1.914   0.333
 6301TIP3    H243099   1.715   2.011   0.289
 6302TIP3   OH243100   0.436   2.778   0.504
 6302TIP3    H143101   0.414   2.843   0.434
 6302TIP3    H243102   0.423   2.693   0.461
 6303TIP3   OH243103   1.793   3.389   0.140
 6303TIP3    H143104   1.824   3.482   0.147
 6303TIP3    H243105   1.877   3.340   0.154
 6304TIP3   OH243106   0.176   3.012   1.378
 6304TIP3    H143107   0.082   3.016   1.349
 6304TIP3    H243108   0.185   2.920   1.408
 6305TIP3   OH243109   0.132   3.355   1.005
 6305TIP3    H143110   0.206   3.289   1.012
 6305TIP3    H243111   0.145   3.404   1.088
 6306TIP3   OH243112   1.887   3.384   1.634
 6306TIP3    H143113   1.874   3.290   1.613
 6306TIP3    H243114   1.798   3.404   1.670
 6307TIP3   OH243115   0.956   3.327   1.515
 6307TIP3    H143116   0.970   3.406   1.571
 6307TIP3    H243117   0.862   3.302   1.532
 6308TIP3   OH243118   1.004   3.703   0.457
 6308TIP3    H143119   1.030   3.722   0.365
 6308TIP3    H243120   1.021   3.789   0.501
 6309TIP3   OH243121   0.406   3.564   0.666
 6309TIP3    H143122   0.431   3.551   0.761
 6309TIP3    H243123   0.309   3.565   0.676
 6310TIP3   OH243124   1.305   3.689   0.200
 6310TIP3    H143125   1.356   3.615   0.160
 6310TIP3    H243126   1.337   3.688   0.290
 6311TIP3   OH243127   1.287   3.635   0.489
 6311TIP3    H143128   1.190   3.630   0.496
 6311TIP3    H243129   1.314   3.547   0.520
 6312TIP3   OH243130   1.559   2.514   1.674
 6312TIP3    H143131   1.528   2.565   1.596
 6312TIP3    H243132   1.577   2.428   1.631
 6313TIP3   OH243133   0.317   3.227   1.446
 6313TIP3    H143134   0.329   3.197   1.538
 6313TIP3    H243135   0.259   3.154   1.414
 6314TIP3   OH243136   0.602   2.051   1.046
 6314TIP3    H143137   0.517   2.056   0.997
 6314TIP3    H243138   0.574   2.089   1.131
 6315TIP3   OH243139   1.059   1.973   1.371
 6315TIP3    H143140   1.090   1.928   1.452
 6315TIP3    H243141   0.961   1.970   1.380
 6316TIP3   OH243142   1.348   2.404   1.488
 6316TIP3    H143143   1.312   2.379   1.576
 6316TIP3    H243144   1.378   2.496   1.499
 6317TIP3   OH243145   1.471   2.890   0.139
 6317TIP3    H143146   1.435   2.893   0.047
 6317TIP3    H243147   1.565   2.908   0.116
 6318TIP3   OH243148   1.032   2.257   0.147
 6318TIP3    H143149   0.984   2.221   0.226
 6318TIP3    H243150   0.979   2.218   0.078
 6319TIP3   OH243151   0.591   2.506   1.196
 6319TIP3    H143152   0.507   2.518   1.245
 6319TIP3    H243153   0.610   2.598   1.165
 6320TIP3   OH243154   0.611   2.503   0.664
 6320TIP3    H143155   0.512   2.505   0.653
 6320TIP3    H243156   0.640   2.485   0.573
 6321TIP3   OH243157   1.160   2.617   0.570
 6321TIP3    H143158   1.126   2.694   0.518
 6321TIP3    H243159   1.221   2.577   0.505
 6322TIP3   OH243160   1.019   2.622   1.700
 6322TIP3    H143161   0.981   2.539   1.740
 6322TIP3    H243162   1.106   2.621   1.743
 6323TIP3   OH243163   1.251   2.537   0.835
 6323TIP3    H143164   1.233   2.622   0.789
 6323TIP3    H243165   1.258   2.479   0.756
 6324TIP3   OH243166   0.350   2.515   1.320
 6324TIP3    H143167   0.323   2.559   1.401
 6324TIP3    H243168   0.322   2.423   1.338
 6325TIP3   OH243169   0.661   2.221   0.043
 6325TIP3    H143170   0.646   2.241   0.136
 6325TIP3    H243171   0.601   2.280  -0.005
 6326TIP3   OH243172   0.129   2.302   0.736
 6326TIP3    H143173   0.162   2.250   0.813
 6326TIP3    H243174   0.132   2.240   0.662
 6327TIP3   OH243175   0.114   2.325   0.272
 6327TIP3    H143176   0.187   2.367   0.224
 6327TIP3    H243177   0.059   2.402   0.289
 6328TIP3   OH243178   1.127   2.635   1.276
 6328TIP3    H143179   1.202   2.595   1.228
 6328TIP3    H243180   1.097   2.561   1.332
 6329TIP3   OH243181   0.872   2.273   0.768
 6329TIP3    H143182   0.782   2.286   0.802
 6329TIP3    H243183   0.918   2.235   0.844
 6330TIP3   OH243184   0.355   2.446   0.649
 6330TIP3    H143185   0.274   2.472   0.597
 6330TIP3    H243186   0.349   2.347   0.642
 6331TIP3   OH243187   0.689   2.431   0.404
 6331TIP3    H143188   0.780   2.462   0.420
 6331TIP3    H243189   0.651   2.503   0.349
 6332TIP3   OH243190   1.276   2.214   1.090
 6332TIP3    H143191   1.216   2.201   1.166
 6332TIP3    H243192   1.237   2.158   1.021
 6333TIP3   OH243193   0.596   2.594   0.209
 6333TIP3    H143194   0.520   2.556   0.160
 6333TIP3    H243195   0.663   2.607   0.139
 6334TIP3   OH243196   1.578   3.789   1.739
 6334TIP3    H143197   1.603   3.839   1.660
 6334TIP3    H243198   1.661   3.796   1.788
 6335TIP3   OH243199   0.422   3.038   1.639
 6335TIP3    H143200   0.484   3.045   1.714
 6335TIP3    H243201   0.343   3.000   1.682
 6336TIP3   OH243202   0.941   2.549   0.924
 6336TIP3    H143203   1.029   2.537   0.884
 6336TIP3    H243204   0.928   2.462   0.964
 6337TIP3   OH243205   0.408   2.188   0.613
 6337TIP3    H143206   0.354   2.111   0.642
 6337TIP3    H243207   0.415   2.172   0.518
 6338TIP3   OH243208   0.824   2.379   1.187
 6338TIP3    H143209   0.742   2.432   1.180
 6338TIP3    H243210   0.885   2.441   1.228
 6339TIP3   OH243211   0.901   3.043   0.385
 6339TIP3    H143212   0.825   2.996   0.343
 6339TIP3    H243213   0.863   3.055   0.475
 6340TIP3   OH243214   1.625   2.968   1.253
 6340TIP3    H143215   1.679   3.023   1.190
 6340TIP3    H243216   1.546   2.954   1.198
 6341TIP3   OH243217   1.284   2.310   0.195
 6341TIP3    H143218   1.186   2.304   0.184
 6341TIP3    H243219   1.296   2.399   0.234
 6342TIP3   OH243220   1.007   3.056   1.506
 6342TIP3    H143221   0.965   3.047   1.592
 6342TIP3    H243222   1.002   3.153   1.494
 6343TIP3   OH243223   1.342   2.515   0.352
 6343TIP3    H143224   1.422   2.489   0.402
 6343TIP3    H243225   1.370   2.601   0.315
 6344TIP3   OH243226   0.416   2.974   0.941
 6344TIP3    H143227   0.457   2.968   0.853
 6344TIP3    H243228   0.448   2.893   0.985
 6345TIP3   OH243229   1.125   3.176   0.295
 6345TIP3    H143230   1.082   3.264   0.300
 6345TIP3    H243231   1.048   3.117   0.309
 6346TIP3   OH243232   0.190   2.742   1.448
 6346TIP3    H143233   0.184   2.741   1.545
 6346TIP3    H243234   0.094   2.739   1.427
 6347TIP3   OH243235   0.800   2.771   1.666
 6347TIP3    H143236   0.732   2.705   1.645
 6347TIP3    H243237   0.869   2.719   1.711
 6348TIP3   OH243238   1.299   3.294   1.523
 6348TIP3    H143239   1.218   3.302   1.473
 6348TIP3    H243240   1.271   3.334   1.609
 6349TIP3   OH243241   1.844   2.515   0.343
 6349TIP3    H143242   1.771   2.493   0.281
 6349TIP3    H243243   1.842   2.613   0.334
 6350TIP3   OH243244   1.853   3.091   1.591
 6350TIP3    H143245   1.766   3.113   1.551
 6350TIP3    H243246   1.912   3.089   1.512
 6351TIP3   OH243247   1.689   3.358   0.391
 6351TIP3    H143248   1.603   3.313   0.389
 6351TIP3    H243249   1.712   3.363   0.295
 6352TIP3   OH243250   1.378   2.883   1.063
 6352TIP3    H143251   1.287   2.859   1.039
 6352TIP3    H243252   1.425   2.807   1.023
 6353TIP3   OH243253   0.619   3.306   0.701
 6353TIP3    H143254   0.649   3.391   0.663
 6353TIP3    H243255   0.526   3.304   0.675
 6354TIP3   OH243256   0.243   2.764   0.157
 6354TIP3    H143257   0.296   2.836   0.195
 6354TIP3    H243258   0.153   2.788   0.181
 6355TIP3   OH243259   0.767   3.081   0.635
 6355TIP3    H143260   0.711   3.161   0.642
 6355TIP3    H243261   0.713   3.014   0.681
 6356TIP3   OH243262   0.845   3.477   1.309
 6356TIP3    H143263   0.899   3.552   1.275
 6356TIP3    H243264   0.905   3.437   1.375
 6357TIP3   OH243265   0.672   3.556   0.599
 6357TIP3    H143266   0.576   3.559   0.617
 6357TIP3    H243267   0.698   3.648   0.616
 6358TIP3   OH243268   1.135   3.103   1.246
 6358TIP3    H143269   1.108   3.061   1.330
 6358TIP3    H243270   1.204   3.043   1.212
 6359TIP3   OH243271   1.433   3.194   0.148
 6359TIP3    H143272   1.439   3.149   0.235
 6359TIP3    H243273   1.337   3.190   0.139
 6360TIP3   OH243274   1.473   3.539   1.477
 6360TIP3    H143275   1.387   3.494   1.479
 6360TIP3    H243276   1.469   3.597   1.398
 6361TIP3   OH243277   1.871   3.646   0.185
 6361TIP3    H143278   1.937   3.714   0.161
 6361TIP3    H243279   1.808   3.703   0.237
 6362TIP3   OH243280   0.285   2.282   1.423
 6362TIP3    H143281   0.257   2.330   1.504
 6362TIP3    H243282   0.276   2.190   1.450
 6363TIP3   OH243283   1.501   3.062   0.379
 6363TIP3    H143284   1.493   2.966   0.367
 6363TIP3    H243285   1.596   3.073   0.363
 6364TIP3   OH243286   0.249   3.467   1.241
 6364TIP3    H143287   0.311   3.394   1.257
 6364TIP3    H243288   0.223   3.488   1.331
 6365TIP3   OH243289   0.676   3.249   0.240
 6365TIP3    H143290   0.758   3.212   0.277
 6365TIP3    H243291   0.684   3.343   0.269
 6366TIP3   OH243292   0.354   2.978   0.303
 6366TIP3    H143293   0.275   3.023   0.338
 6366TIP3    H243294   0.402   3.051   0.261
 6367TIP3   OH243295   1.146   2.244   1.348
 6367TIP3    H143296   1.229   2.261   1.396
 6367TIP3    H243297   1.120   2.154   1.376
 6368TIP3   OH243298   1.235   2.171   0.457
 6368TIP3    H143299   1.258   2.235   0.387
 6368TIP3    H243300   1.282   2.210   0.535
 6369TIP3   OH243301   0.991   3.424   0.277
 6369TIP3    H143302   0.905   3.448   0.316
 6369TIP3    H243303   1.033   3.511   0.267
 6370TIP3   OH243304   0.958   2.392   0.540
 6370TIP3    H143305   1.016   2.468   0.558
 6370TIP3    H243306   0.922   2.370   0.628
 6371TIP3   OH243307   1.031   2.458   1.458
 6371TIP3    H143308   1.060   2.429   1.547
 6371TIP3    H243309   1.067   2.381   1.406
 6372TIP3   OH243310   1.017   2.065   0.582
 6372TIP3    H143311   0.977   2.145   0.622
 6372TIP3    H243312   1.099   2.106   0.543
 6373TIP3   OH243313   0.719   3.505   0.316
 6373TIP3    H143314   0.733   3.594   0.276
 6373TIP3    H243315   0.699   3.531   0.408
 6374TIP3   OH243316   0.565   2.192   0.323
 6374TIP3    H143317   0.584   2.277   0.368
 6374TIP3    H243318   0.647   2.143   0.343
 6375TIP3   OH243319   1.597   2.285   1.534
 6375TIP3    H143320   1.503   2.287   1.507
 6375TIP3    H243321   1.640   2.282   1.446
 6376TIP3   OH243322   1.482   2.641   0.929
 6376TIP3    H143323   1.403   2.585   0.914
 6376TIP3    H243324   1.543   2.579   0.974
 6377TIP3   OH243325   0.418   3.235   0.157
 6377TIP3    H143326   0.499   3.262   0.204
 6377TIP3    H243327   0.458   3.169   0.097
 6378TIP3   OH243328   0.322   2.498   0.149
 6378TIP3    H143329   0.313   2.592   0.176
 6378TIP3    H243330   0.247   2.498   0.085
 6379TIP3   OH243331   1.575   3.588   1.079
 6379TIP3    H143332   1.579   3.644   1.000
 6379TIP3    H243333   1.671   3.582   1.099
 6380TIP3   OH243334   0.340   1.994   0.976
 6380TIP3    H143335   0.332   1.972   0.880
 6380TIP3    H243336   0.313   1.907   1.015
 6381TIP3   OH243337   0.213   3.343   0.532
 6381TIP3    H143338   0.134   3.391   0.559
 6381TIP3    H243339   0.265   3.412   0.489
 6382TIP3   OH243340   0.168   3.661   1.705
 6382TIP3    H143341   0.229   3.664   1.782
 6382TIP3    H243342   0.134   3.572   1.719
 6383TIP3   OH243343   0.626   3.571   1.837
 6383TIP3    H143344   0.706   3.527   1.869
 6383TIP3    H243345   0.602   3.518   1.759
 6384TIP3   OH243346   1.013   3.466  -0.017
 6384TIP3    H143347   0.952   3.404   0.024
 6384TIP3    H243348   1.096   3.441   0.026
 6385TIP3   OH243349   1.240   3.408   1.754
 6385TIP3    H143350   1.205   3.321   1.785
 6385TIP3    H243351   1.327   3.409   1.800
 6386TIP3   OH243352   1.416   3.456   0.105
 6386TIP3    H143353   1.442   3.363   0.118
 6386TIP3    H243354   1.477   3.491   0.038
 6387TIP3   OH243355   0.204   3.052   1.850
 6387TIP3    H143356   0.247   2.970   1.879
 6387TIP3    H243357   0.119   3.016   1.812
 6388TIP3   OH243358   0.612   3.015   0.083
 6388TIP3    H143359   0.622   2.977   0.173
 6388TIP3    H243360   0.700   3.052   0.071
 6389TIP3   OH243361   0.792   3.045   1.726
 6389TIP3    H143362   0.778   3.096   1.642
 6389TIP3    H243363   0.796   2.951   1.699
 6390TIP3   OH243364   1.363   3.003   1.505
 6390TIP3    H143365   1.449   3.049   1.500
 6390TIP3    H243366   1.310   3.081   1.530
 6391TIP3   OH243367   0.239   2.737   1.772
 6391TIP3    H143368   0.314   2.676   1.779
 6391TIP3    H243369   0.219   2.755   1.867
 6392TIP3   OH243370   0.705   2.879   0.289
 6392TIP3    H143371   0.642   2.821   0.335
 6392TIP3    H243372   0.747   2.816   0.226
 6393TIP3   OH243373   0.640   2.646   1.455
 6393TIP3    H143374   0.564   2.696   1.492
 6393TIP3    H243375   0.645   2.693   1.371
 6394TIP3   OH243376   0.837   2.695   0.084
 6394TIP3    H143377   0.855   2.667  -0.007
 6394TIP3    H243378   0.928   2.692   0.122
 6395TIP3   OH243379   1.142   2.923   1.798
 6395TIP3    H143380   1.211   2.871   1.751
 6395TIP3    H243381   1.105   2.857   1.858
 6396TIP3   OH243382   1.708   2.907  10.018
 6396TIP3    H143383   1.768   2.870   9.952
 6396TIP3    H243384   1.743   2.998  10.021
 6397TIP3   OH243385   0.687   2.407   1.550
 6397TIP3    H143386   0.695   2.336   1.482
 6397TIP3    H243387   0.675   2.488   1.495
 6398TIP3   OH243388   0.705   2.210   1.363
 6398TIP3    H143389   0.736   2.251   1.279
 6398TIP3    H243390   0.609   2.197   1.347
 6399TIP3   OH243391   0.867   2.788   1.327
 6399TIP3    H143392   0.932   2.833   1.272
 6399TIP3    H243393   0.791   2.849   1.314
 6400TIP3   OH243394   1.314   2.515   1.870
 6400TIP3    H143395   1.325   2.419   1.876
 6400TIP3    H243396   1.400   2.543   1.832
 6401TIP3   OH243397   1.428   2.839   1.698
 6401TIP3    H143398   1.398   2.895   1.623
 6401TIP3    H243399   1.523   2.835   1.678
 6402TIP3   OH243400   0.452   2.528   1.707
 6402TIP3    H143401   0.410   2.443   1.727
 6402TIP3    H243402   0.529   2.496   1.657
 6403TIP3   OH243403   0.784   1.954   1.389
 6403TIP3    H143404   0.760   2.049   1.381
 6403TIP3    H243405   0.720   1.913   1.328
 6404TIP3   OH243406   0.887   2.399   1.773
 6404TIP3    H143407   0.835   2.358   1.845
 6404TIP3    H243408   0.829   2.378   1.697
 6405TIP3   OH243409   1.166   2.315   1.675
 6405TIP3    H143410   1.086   2.277   1.714
 6405TIP3    H243411   1.233   2.267   1.729
 6406TIP3   OH243412   1.318   2.169   1.845
 6406TIP3    H143413   1.322   2.072   1.852
 6406TIP3    H243414   1.308   2.197   1.939
 6407TIP3   OH243415   0.300   2.282   1.783
 6407TIP3    H143416   0.328   2.196   1.747
 6407TIP3    H243417   0.269   2.256   1.873
 6408TIP3   OH243418   0.783   1.898   1.681
 6408TIP3    H143419   0.867   1.849   1.676
 6408TIP3    H243420   0.766   1.908   1.586
 6409TIP3   OH243421   0.813   2.088   1.880
 6409TIP3    H143422   0.799   2.008   1.824
 6409TIP3    H243423   0.741   2.150   1.853
 6410TIP3   OH243424   0.766   3.745   0.212
 6410TIP3    H143425   0.862   3.752   0.220
 6410TIP3    H243426   0.748   3.783   0.125
 6411TIP3   OH243427   0.160   3.178   0.139
 6411TIP3    H143428   0.253   3.210   0.141
 6411TIP3    H243429   0.166   3.105   0.076
 6412TIP3   OH243430   0.092   3.714   0.597
 6412TIP3    H143431   0.002   3.747   0.616
 6412TIP3    H243432   0.111   3.664   0.679
 6413TIP3   OH243433   0.175   3.561   0.817
 6413TIP3    H143434   0.172   3.467   0.841
 6413TIP3    H243435   0.205   3.601   0.900
 6414TIP3   OH243436   1.855   3.620   1.089
 6414TIP3    H143437   1.881   3.636   1.181
 6414TIP3    H243438   1.914   3.680   1.042
 6415TIP3   OH243439   1.794   3.588   1.384
 6415TIP3    H143440   1.753   3.512   1.336
 6415TIP3    H243441   1.820   3.542   1.466
 6416TIP3   OH243442   1.670   3.163   1.872
 6416TIP3    H143443   1.574   3.169   1.889
 6416TIP3    H243444   1.704   3.241   1.922
 6417TIP3   OH243445   1.767   3.017   0.381
 6417TIP3    H143446   1.855   3.053   0.406
 6417TIP3    H243447   1.741   2.969   0.461
 6418TIP3   OH243448   1.824   2.822   0.619
 6418TIP3    H143449   1.737   2.782   0.644
 6418TIP3    H243450   1.869   2.825   0.706
 6419TIP3   OH243451   1.784   3.096   1.083
 6419TIP3    H143452   1.850   3.028   1.060
 6419TIP3    H243453   1.821   3.175   1.041
 6420TIP3   OH243454   1.653   3.367   1.317
 6420TIP3    H143455   1.586   3.408   1.375
 6420TIP3    H243456   1.601   3.344   1.237
 6421TIP3   OH243457   1.871   2.801   0.232
 6421TIP3    H143458   1.805   2.825   0.164
 6421TIP3    H243459   1.862   2.877   0.292
 6422TIP3   OH243460   1.632   2.492   0.159
 6422TIP3    H143461   1.614   2.560   0.092
 6422TIP3    H243462   1.673   2.425   0.102
 6423TIP3   OH243463   1.608   2.678   0.694
 6423TIP3    H143464   1.596   2.585   0.671
 6423TIP3    H243465   1.579   2.677   0.787
 6424TIP3   OH243466   0.155   2.950   1.034
 6424TIP3    H143467   0.156   2.891   0.955
 6424TIP3    H243468   0.241   2.925   1.075
 6425TIP3   OH243469   1.715   2.862   1.632
 6425TIP3    H143470   1.759   2.775   1.644
 6425TIP3    H243471   1.786   2.926   1.608
 6426TIP3   OH243472   1.818   2.615   1.662
 6426TIP3    H143473   1.732   2.586   1.699
 6426TIP3    H243474   1.878   2.539   1.679
 6427TIP3   OH243475   1.612   2.263  -0.010
 6427TIP3    H143476   1.668   2.221   0.057
 6427TIP3    H243477   1.524   2.239   0.019
 6428TIP3   OH243478   1.554   2.429   0.502
 6428TIP3    H143479   1.576   2.336   0.525
 6428TIP3    H243480   1.641   2.454   0.467
 6429TIP3   OH243481   1.656   2.466   1.053
 6429TIP3    H143482   1.753   2.484   1.059
 6429TIP3    H243483   1.629   2.479   1.145
 6430TIP3   OH243484   1.661   2.554   1.313
 6430TIP3    H143485   1.586   2.587   1.365
 6430TIP3    H243486   1.710   2.637   1.289
 6431TIP3   OH243487   0.120   2.378   1.610
 6431TIP3    H143488   0.192   2.400   1.672
 6431TIP3    H243489   0.121   2.280   1.614
 6432TIP3   OH243490   1.863   1.958   1.831
 6432TIP3    H143491   1.914   1.896   1.775
 6432TIP3    H243492   1.859   2.039   1.774
 6433TIP3   OH243493   1.644   2.175   0.534
 6433TIP3    H143494   1.682   2.128   0.612
 6433TIP3    H243495   1.594   2.102   0.492
 6434TIP3   OH243496   0.189   2.221   0.998
 6434TIP3    H143497   0.244   2.140   1.010
 6434TIP3    H243498   0.251   2.293   1.017
 6435TIP3   OH243499   0.091   2.527   1.078
 6435TIP3    H143500   0.161   2.527   1.011
 6435TIP3    H243501   0.107   2.609   1.126
 6436TIP3   OH243502   1.784   2.161   1.680
 6436TIP3    H143503   1.714   2.225   1.657
 6436TIP3    H243504   1.791   2.119   1.592
 6437TIP3   OH243505   1.823   2.180   0.173
 6437TIP3    H143506   1.867   2.133   0.101
 6437TIP3    H243507   1.895   2.241   0.200
 6438TIP3   OH243508   0.101   2.162   0.477
 6438TIP3    H143509   0.004   2.166   0.478
 6438TIP3    H243510   0.114   2.208   0.391
 6439TIP3   OH243511   1.531   3.637   0.679
 6439TIP3    H143512   1.604   3.618   0.617
 6439TIP3    H243513   1.570   3.698   0.744
 6440TIP3   OH243514   0.074   1.984   1.310
 6440TIP3    H143515  -0.007   2.007   1.358
 6440TIP3    H243516   0.062   2.031   1.227
 6441TIP3   OH243517   0.270   3.340   1.713
 6441TIP3    H143518   0.185   3.329   1.668
 6441TIP3    H243519   0.264   3.286   1.793
 6442TIP3   OH243520   0.574   3.483   1.366
 6442TIP3    H143521   0.574   3.573   1.326
 6442TIP3    H243522   0.669   3.464   1.369
 6443TIP3   OH243523   0.979   3.592   1.621
 6443TIP3    H143524   0.986   3.567   1.716
 6443TIP3    H243525   1.065   3.638   1.608
 6444TIP3   OH243526   1.196   3.747   1.583
 6444TIP3    H143527   1.272   3.705   1.540
 6444TIP3    H243528   1.236   3.783   1.666
 6445TIP3   OH243529   1.724   1.962   1.470
 6445TIP3    H143530   1.640   1.987   1.428
 6445TIP3    H243531   1.736   1.872   1.433
 6446TIP3   OH243532   0.327   3.799   1.348
 6446TIP3    H143533   0.239   3.829   1.316
 6446TIP3    H243534   0.306   3.780   1.441
 6447TIP3   OH243535   0.563   3.729   1.242
 6447TIP3    H143536   0.469   3.746   1.269
 6447TIP3    H243537   0.567   3.791   1.167
 6448TIP3   OH243538   1.002   3.689   1.182
 6448TIP3    H143539   0.974   3.751   1.114
 6448TIP3    H243540   1.041   3.753   1.246
 6449TIP3   OH243541   1.226   3.563   1.310
 6449TIP3    H143542   1.160   3.599   1.247
 6449TIP3    H243543   1.301   3.621   1.287
 6450TIP3   OH243544   1.473   3.732   1.275
 6450TIP3    H143545   1.488   3.822   1.239
 6450TIP3    H243546   1.516   3.680   1.203
 6451TIP3   OH243547   0.290   3.649   1.047
 6451TIP3    H143548   0.265   3.598   1.128
 6451TIP3    H243549   0.373   3.603   1.020
 6452TIP3   OH243550   0.483   3.516   0.923
 6452TIP3    H143551   0.462   3.422   0.934
 6452TIP3    H243552   0.571   3.518   0.965
 6453TIP3   OH243553   0.713   3.491   1.070
 6453TIP3    H143554   0.752   3.404   1.053
 6453TIP3    H243555   0.731   3.495   1.167
 6454TIP3   OH243556   1.045   2.080   0.915
 6454TIP3    H143557   0.964   2.025   0.930
 6454TIP3    H243558   1.074   2.045   0.830
 6455TIP3   OH243559   1.592   1.892   0.898
 6455TIP3    H143560   1.656   1.954   0.854
 6455TIP3    H243561   1.506   1.927   0.864
 6456TIP3   OH243562   1.755   2.033   0.740
 6456TIP3    H143563   1.818   1.975   0.691
 6456TIP3    H243564   1.813   2.110   0.762
 6457TIP3   OH243565   0.331   1.946   0.696
 6457TIP3    H143566   0.247   1.933   0.646
 6457TIP3    H243567   0.377   1.862   0.676
 6458TIP3   OH243568   0.138   1.974   0.234
 6458TIP3    H143569   0.205   2.032   0.190
 6458TIP3    H243570   0.141   2.006   0.325
 6459TIP3   OH243571   0.745   1.903   0.685
 6459TIP3    H143572   0.811   1.948   0.632
 6459TIP3    H243573   0.774   1.923   0.776
 6460TIP3   OH243574   1.346   1.953   0.803
 6460TIP3    H143575   1.294   1.963   0.723
 6460TIP3    H243576   1.293   1.885   0.851
 6461TIP3   OH243577   1.469   1.947   0.417
 6461TIP3    H143578   1.392   2.003   0.404
 6461TIP3    H243579   1.431   1.877   0.473
 6462TIP3   OH243580   0.200   3.601   0.313
 6462TIP3    H143581   0.108   3.582   0.339
 6462TIP3    H243582   0.198   3.698   0.323
 6463TIP3   OH243583   0.362   2.098   0.138
 6463TIP3    H143584   0.422   2.032   0.098
 6463TIP3    H243585   0.424   2.138   0.201
 6464TIP3   OH243586   0.886   2.159   0.352
 6464TIP3    H143587   0.918   2.097   0.420
 6464TIP3    H243588   0.887   2.244   0.402
 6465TIP3   OH243589   1.046   3.672   0.178
 6465TIP3    H143590   1.143   3.692   0.176
 6465TIP3    H243591   1.038   3.631   0.091
 6466TIP3   OH243592   1.712   3.600   0.500
 6466TIP3    H143593   1.698   3.510   0.464
 6466TIP3    H243594   1.686   3.656   0.424
 6467TIP3   OH243595   0.248   2.023   1.649
 6467TIP3    H143596   0.204   1.935   1.651
 6467TIP3    H243597   0.332   2.005   1.694
 6468TIP3   OH243598   0.486   1.975   1.821
 6468TIP3    H143599   0.578   1.956   1.792
 6468TIP3    H243600   0.460   1.889   1.859
 6469TIP3   OH243601   0.461   3.694   0.139
 6469TIP3    H143602   0.390   3.658   0.195
 6469TIP3    H243603   0.530   3.627   0.147
 6470TIP3   OH243604   1.367   1.896   1.831
 6470TIP3    H143605   1.391   1.803   1.846
 6470TIP3    H243606   1.448   1.923   1.781
 6471TIP3   OH243607   1.651   3.495   1.666
 6471TIP3    H143608   1.578   3.495   1.600
 6471TIP3    H243609   1.635   3.579   1.711
 6472TIP3   OH243610   3.115   2.901   0.697
 6472TIP3    H143611   3.111   2.990   0.738
 6472TIP3    H243612   3.040   2.908   0.636
 6473TIP3   OH243613   3.001   2.775   1.012
 6473TIP3    H143614   3.000   2.739   1.104
 6473TIP3    H243615   2.930   2.725   0.968
 6474TIP3   OH243616   2.180   2.771   1.171
 6474TIP3    H143617   2.189   2.707   1.243
 6474TIP3    H243618   2.266   2.815   1.173
 6475TIP3   OH243619   3.301   3.087   0.878
 6475TIP3    H143620   3.283   3.013   0.939
 6475TIP3    H243621   3.334   3.154   0.940
 6476TIP3   OH243622   2.314   3.242   1.010
 6476TIP3    H143623   2.278   3.152   0.995
 6476TIP3    H243624   2.407   3.223   0.989
 6477TIP3   OH243625   1.971   2.572   0.582
 6477TIP3    H143626   1.936   2.662   0.598
 6477TIP3    H243627   1.946   2.560   0.488
 6478TIP3   OH243628   2.024   2.809   0.834
 6478TIP3    H143629   2.067   2.721   0.843
 6478TIP3    H243630   2.085   2.860   0.779
 6479TIP3   OH243631   3.066   3.640   0.868
 6479TIP3    H143632   3.137   3.581   0.832
 6479TIP3    H243633   3.019   3.573   0.919
 6480TIP3   OH243634   2.804   3.046   1.113
 6480TIP3    H143635   2.833   3.008   1.029
 6480TIP3    H243636   2.892   3.074   1.148
 6481TIP3   OH243637   3.658   2.188   1.119
 6481TIP3    H143638   3.660   2.243   1.200
 6481TIP3    H243639   3.740   2.219   1.077
 6482TIP3   OH243640   3.156   2.495   1.139
 6482TIP3    H143641   3.183   2.402   1.128
 6482TIP3    H243642   3.121   2.510   1.049
 6483TIP3   OH243643   2.452   2.269   0.798
 6483TIP3    H143644   2.465   2.351   0.745
 6483TIP3    H243645   2.403   2.217   0.731
 6484TIP3   OH243646   3.205   2.306   0.664
 6484TIP3    H143647   3.250   2.272   0.745
 6484TIP3    H243648   3.269   2.372   0.634
 6485TIP3   OH243649   2.092   2.554   0.894
 6485TIP3    H143650   2.152   2.505   0.952
 6485TIP3    H243651   2.123   2.522   0.807
 6486TIP3   OH243652   2.595   2.698   0.851
 6486TIP3    H143653   2.686   2.666   0.860
 6486TIP3    H243654   2.550   2.617   0.818
 6487TIP3   OH243655   3.678   2.336   1.341
 6487TIP3    H143656   3.644   2.426   1.318
 6487TIP3    H243657   3.711   2.356   1.430
 6488TIP3   OH243658   2.363   2.200   1.218
 6488TIP3    H143659   2.311   2.240   1.145
 6488TIP3    H243660   2.298   2.209   1.290
 6489TIP3   OH243661   3.040   3.156   0.576
 6489TIP3    H143662   3.031   3.145   0.480
 6489TIP3    H243663   3.020   3.252   0.586
 6490TIP3   OH243664   2.559   2.970   1.214
 6490TIP3    H143665   2.507   3.048   1.243
 6490TIP3    H243666   2.635   3.013   1.167
 6491TIP3   OH243667   3.379   2.261   0.866
 6491TIP3    H143668   3.390   2.179   0.915
 6491TIP3    H243669   3.466   2.300   0.877
 6492TIP3   OH243670   2.301   2.386   1.007
 6492TIP3    H143671   2.358   2.452   1.050
 6492TIP3    H243672   2.360   2.354   0.934
 6493TIP3   OH243673   2.440   3.190   1.316
 6493TIP3    H143674   2.430   3.269   1.261
 6493TIP3    H243675   2.350   3.186   1.356
 6494TIP3   OH243676   2.026   3.115   0.399
 6494TIP3    H143677   2.033   3.177   0.322
 6494TIP3    H243678   2.038   3.176   0.474
 6495TIP3   OH243679   3.400   3.296   1.087
 6495TIP3    H143680   3.306   3.318   1.105
 6495TIP3    H243681   3.426   3.380   1.046
 6496TIP3   OH243682   3.385   2.154   1.206
 6496TIP3    H143683   3.317   2.195   1.149
 6496TIP3    H243684   3.464   2.169   1.150
 6497TIP3   OH243685   2.709   1.946   0.965
 6497TIP3    H143686   2.682   1.853   0.956
 6497TIP3    H243687   2.620   1.986   0.984
 6498TIP3   OH243688   3.240   3.471   0.763
 6498TIP3    H143689   3.255   3.390   0.709
 6498TIP3    H243690   3.316   3.526   0.731
 6499TIP3   OH243691   3.347   3.255   0.607
 6499TIP3    H143692   3.340   3.186   0.537
 6499TIP3    H243693   3.341   3.199   0.686
 6500TIP3   OH243694   3.495   3.135   1.463
 6500TIP3    H143695   3.512   3.066   1.394
 6500TIP3    H243696   3.508   3.215   1.409
 6501TIP3   OH243697   2.950   2.822   0.428
 6501TIP3    H143698   2.902   2.904   0.403
 6501TIP3    H243699   3.035   2.829   0.378
 6502TIP3   OH243700   3.011   2.689   0.138
 6502TIP3    H143701   3.085   2.728   0.191
 6502TIP3    H243702   3.047   2.598   0.126
 6503TIP3   OH243703   3.698   2.774   1.242
 6503TIP3    H143704   3.637   2.849   1.255
 6503TIP3    H243705   3.763   2.816   1.183
 6504TIP3   OH243706   3.322   2.815   0.543
 6504TIP3    H143707   3.254   2.853   0.604
 6504TIP3    H243708   3.385   2.774   0.606
 6505TIP3   OH243709   3.327   2.667   1.436
 6505TIP3    H143710   3.300   2.752   1.474
 6505TIP3    H243711   3.267   2.666   1.360
 6506TIP3   OH243712   2.456   2.891   0.723
 6506TIP3    H143713   2.435   2.868   0.629
 6506TIP3    H243714   2.511   2.815   0.750
 6507TIP3   OH243715   2.599   3.217   0.984
 6507TIP3    H143716   2.610   3.198   0.889
 6507TIP3    H243717   2.674   3.170   1.026
 6508TIP3   OH243718   2.469   2.761   1.084
 6508TIP3    H143719   2.509   2.754   0.994
 6508TIP3    H243720   2.517   2.838   1.123
 6509TIP3   OH243721   3.147   3.340   1.156
 6509TIP3    H143722   3.122   3.394   1.232
 6509TIP3    H243723   3.127   3.250   1.188
 6510TIP3   OH243724   2.605   3.222   1.534
 6510TIP3    H143725   2.532   3.266   1.583
 6510TIP3    H243726   2.559   3.209   1.448
 6511TIP3   OH243727   3.191   2.790   0.311
 6511TIP3    H143728   3.237   2.792   0.398
 6511TIP3    H243729   3.256   2.836   0.252
 6512TIP3   OH243730   2.296   2.808   1.470
 6512TIP3    H143731   2.301   2.904   1.481
 6512TIP3    H243732   2.205   2.793   1.501
 6513TIP3   OH243733   2.958   3.421   0.582
 6513TIP3    H143734   2.964   3.446   0.675
 6513TIP3    H243735   2.908   3.494   0.543
 6514TIP3   OH243736   2.422   3.393   1.625
 6514TIP3    H143737   2.407   3.434   1.536
 6514TIP3    H243738   2.330   3.375   1.651
 6515TIP3   OH243739   3.557   1.885   0.288
 6515TIP3    H143740   3.468   1.895   0.329
 6515TIP3    H243741   3.568   1.975   0.253
 6516TIP3   OH243742   2.355   2.776   0.489
 6516TIP3    H143743   2.311   2.849   0.441
 6516TIP3    H243744   2.319   2.698   0.446
 6517TIP3   OH243745   3.679   3.390   0.133
 6517TIP3    H143746   3.705   3.483   0.145
 6517TIP3    H243747   3.762   3.343   0.152
 6518TIP3   OH243748   1.991   3.062   1.370
 6518TIP3    H143749   1.946   3.072   1.284
 6518TIP3    H243750   2.020   2.968   1.364
 6519TIP3   OH243751   1.953   3.317   1.023
 6519TIP3    H143752   2.050   3.311   1.018
 6519TIP3    H243753   1.943   3.398   1.075
 6520TIP3   OH243754   3.766   3.374   1.612
 6520TIP3    H143755   3.751   3.281   1.589
 6520TIP3    H243756   3.684   3.390   1.665
 6521TIP3   OH243757   2.856   3.330   1.514
 6521TIP3    H143758   2.863   3.419   1.554
 6521TIP3    H243759   2.765   3.301   1.535
 6522TIP3   OH243760   2.897   3.699   0.456
 6522TIP3    H143761   2.913   3.720   0.362
 6522TIP3    H243762   2.909   3.787   0.498
 6523TIP3   OH243763   2.281   3.577   0.670
 6523TIP3    H143764   2.307   3.554   0.762
 6523TIP3    H243765   2.191   3.541   0.667
 6524TIP3   OH243766   3.193   3.681   0.219
 6524TIP3    H143767   3.245   3.612   0.172
 6524TIP3    H243768   3.208   3.651   0.312
 6525TIP3   OH243769   3.171   3.630   0.488
 6525TIP3    H143770   3.074   3.637   0.500
 6525TIP3    H243771   3.189   3.541   0.521
 6526TIP3   OH243772   3.415   2.505   1.688
 6526TIP3    H143773   3.443   2.573   1.625
 6526TIP3    H243774   3.460   2.426   1.654
 6527TIP3   OH243775   2.210   3.180   1.455
 6527TIP3    H143776   2.207   3.147   1.547
 6527TIP3    H243777   2.122   3.149   1.422
 6528TIP3   OH243778   2.470   2.031   1.035
 6528TIP3    H143779   2.378   2.026   1.004
 6528TIP3    H243780   2.458   2.090   1.112
 6529TIP3   OH243781   2.953   1.979   1.359
 6529TIP3    H143782   2.979   1.913   1.426
 6529TIP3    H243783   2.856   1.982   1.373
 6530TIP3   OH243784   3.234   2.412   1.497
 6530TIP3    H143785   3.221   2.419   1.594
 6530TIP3    H243786   3.276   2.500   1.479
 6531TIP3   OH243787   3.355   2.885   0.136
 6531TIP3    H143788   3.318   2.894   0.045
 6531TIP3    H243789   3.448   2.906   0.117
 6532TIP3   OH243790   2.918   2.261   0.134
 6532TIP3    H143791   2.868   2.240   0.216
 6532TIP3    H243792   2.849   2.238   0.070
 6533TIP3   OH243793   2.490   2.516   1.191
 6533TIP3    H143794   2.403   2.510   1.236
 6533TIP3    H243795   2.480   2.604   1.149
 6534TIP3   OH243796   2.472   2.491   0.659
 6534TIP3    H143797   2.377   2.508   0.641
 6534TIP3    H243798   2.512   2.494   0.569
 6535TIP3   OH243799   3.052   2.619   0.574
 6535TIP3    H143800   3.008   2.690   0.522
 6535TIP3    H243801   3.106   2.579   0.504
 6536TIP3   OH243802   2.915   2.611   1.680
 6536TIP3    H143803   2.876   2.530   1.720
 6536TIP3    H243804   2.987   2.629   1.744
 6537TIP3   OH243805   3.123   2.538   0.843
 6537TIP3    H143806   3.124   2.625   0.798
 6537TIP3    H243807   3.124   2.481   0.764
 6538TIP3   OH243808   2.251   2.516   1.305
 6538TIP3    H143809   2.242   2.560   1.392
 6538TIP3    H243810   2.208   2.429   1.322
 6539TIP3   OH243811   2.582   2.279   0.059
 6539TIP3    H143812   2.535   2.243   0.137
 6539TIP3    H243813   2.510   2.307   0.001
 6540TIP3   OH243814   1.915   2.247   0.763
 6540TIP3    H143815   1.987   2.251   0.828
 6540TIP3    H243816   1.962   2.243   0.678
 6541TIP3   OH243817   2.033   2.316   0.288
 6541TIP3    H143818   2.114   2.360   0.253
 6541TIP3    H243819   1.976   2.395   0.293
 6542TIP3   OH243820   3.037   2.697   1.262
 6542TIP3    H143821   3.093   2.628   1.222
 6542TIP3    H243822   2.981   2.644   1.322
 6543TIP3   OH243823   2.759   2.280   0.774
 6543TIP3    H143824   2.664   2.275   0.792
 6543TIP3    H243825   2.800   2.230   0.846
 6544TIP3   OH243826   2.195   2.442   0.669
 6544TIP3    H143827   2.117   2.470   0.616
 6544TIP3    H243828   2.223   2.358   0.630
 6545TIP3   OH243829   2.597   2.455   0.419
 6545TIP3    H143830   2.693   2.467   0.421
 6545TIP3    H243831   2.563   2.517   0.351
 6546TIP3   OH243832   3.152   2.222   1.074
 6546TIP3    H143833   3.063   2.202   1.105
 6546TIP3    H243834   3.152   2.171   0.991
 6547TIP3   OH243835   2.434   2.579   0.225
 6547TIP3    H143836   2.351   2.554   0.182
 6547TIP3    H243837   2.495   2.571   0.150
 6548TIP3   OH243838   3.475   3.791   1.742
 6548TIP3    H143839   3.499   3.827   1.654
 6548TIP3    H243840   3.557   3.812   1.789
 6549TIP3   OH243841   2.227   3.036   1.692
 6549TIP3    H143842   2.304   3.038   1.751
 6549TIP3    H243843   2.151   3.020   1.753
 6550TIP3   OH243844   2.844   2.551   0.955
 6550TIP3    H143845   2.917   2.544   0.891
 6550TIP3    H243846   2.822   2.457   0.968
 6551TIP3   OH243847   2.299   2.166   0.595
 6551TIP3    H143848   2.238   2.102   0.638
 6551TIP3    H243849   2.343   2.105   0.533
 6552TIP3   OH243850   2.713   2.369   1.206
 6552TIP3    H143851   2.633   2.423   1.188
 6552TIP3    H243852   2.781   2.435   1.200
 6553TIP3   OH243853   2.782   3.040   0.389
 6553TIP3    H143854   2.709   2.986   0.351
 6553TIP3    H243855   2.745   3.057   0.478
 6554TIP3   OH243856   3.513   2.969   1.254
 6554TIP3    H143857   3.565   3.028   1.194
 6554TIP3    H243858   3.435   2.952   1.199
 6555TIP3   OH243859   3.169   2.310   0.203
 6555TIP3    H143860   3.073   2.306   0.189
 6555TIP3    H243861   3.181   2.402   0.234
 6556TIP3   OH243862   2.898   3.057   1.506
 6556TIP3    H143863   2.871   3.051   1.599
 6556TIP3    H243864   2.879   3.151   1.491
 6557TIP3   OH243865   3.226   2.525   0.353
 6557TIP3    H143866   3.306   2.497   0.401
 6557TIP3    H243867   3.252   2.612   0.317
 6558TIP3   OH243868   2.300   2.972   0.941
 6558TIP3    H143869   2.341   2.953   0.854
 6558TIP3    H243870   2.322   2.894   0.993
 6559TIP3   OH243871   2.998   3.181   0.306
 6559TIP3    H143872   2.961   3.271   0.316
 6559TIP3    H243873   2.919   3.125   0.323
 6560TIP3   OH243874   2.006   2.788   1.441
 6560TIP3    H143875   1.972   2.746   1.522
 6560TIP3    H243876   1.940   2.757   1.374
 6561TIP3   OH243877   2.680   2.771   1.647
 6561TIP3    H143878   2.607   2.708   1.634
 6561TIP3    H243879   2.760   2.716   1.660
 6562TIP3   OH243880   3.176   3.292   1.515
 6562TIP3    H143881   3.096   3.315   1.466
 6562TIP3    H243882   3.152   3.332   1.602
 6563TIP3   OH243883   3.726   2.514   0.353
 6563TIP3    H143884   3.654   2.490   0.290
 6563TIP3    H243885   3.731   2.610   0.333
 6564TIP3   OH243886   3.737   3.090   1.586
 6564TIP3    H143887   3.647   3.109   1.552
 6564TIP3    H243888   3.791   3.093   1.504
 6565TIP3   OH243889   3.569   3.357   0.377
 6565TIP3    H143890   3.484   3.313   0.382
 6565TIP3    H243891   3.589   3.357   0.281
 6566TIP3   OH243892   3.271   2.875   1.062
 6566TIP3    H143893   3.178   2.850   1.045
 6566TIP3    H243894   3.316   2.806   1.010
 6567TIP3   OH243895   2.513   3.308   0.705
 6567TIP3    H143896   2.535   3.400   0.678
 6567TIP3    H243897   2.421   3.305   0.675
 6568TIP3   OH243898   2.126   2.770   0.114
 6568TIP3    H143899   2.180   2.825   0.174
 6568TIP3    H243900   2.038   2.780   0.155
 6569TIP3   OH243901   2.656   3.068   0.636
 6569TIP3    H143902   2.611   3.154   0.648
 6569TIP3    H243903   2.608   3.011   0.699
 6570TIP3   OH243904   2.716   3.482   1.326
 6570TIP3    H143905   2.776   3.547   1.284
 6570TIP3    H243906   2.778   3.430   1.382
 6571TIP3   OH243907   2.543   3.552   0.590
 6571TIP3    H143908   2.449   3.572   0.612
 6571TIP3    H243909   2.584   3.637   0.618
 6572TIP3   OH243910   3.028   3.093   1.249
 6572TIP3    H143911   2.991   3.068   1.337
 6572TIP3    H243912   3.077   3.012   1.226
 6573TIP3   OH243913   3.313   3.198   0.152
 6573TIP3    H143914   3.309   3.156   0.240
 6573TIP3    H243915   3.219   3.193   0.129
 6574TIP3   OH243916   3.365   3.545   1.486
 6574TIP3    H143917   3.276   3.507   1.491
 6574TIP3    H243918   3.360   3.605   1.408
 6575TIP3   OH243919   3.755   3.639   0.191
 6575TIP3    H143920   3.820   3.705   0.159
 6575TIP3    H243921   3.694   3.700   0.239
 6576TIP3   OH243922   2.180   2.267   1.425
 6576TIP3    H143923   2.116   2.323   1.473
 6576TIP3    H243924   2.185   2.192   1.486
 6577TIP3   OH243925   3.379   3.079   0.387
 6577TIP3    H143926   3.365   2.984   0.378
 6577TIP3    H243927   3.474   3.083   0.364
 6578TIP3   OH243928   2.122   3.454   1.263
 6578TIP3    H143929   2.189   3.385   1.271
 6578TIP3    H243930   2.129   3.497   1.349
 6579TIP3   OH243931   2.564   3.245   0.252
 6579TIP3    H143932   2.645   3.212   0.292
 6579TIP3    H243933   2.572   3.342   0.271
 6580TIP3   OH243934   2.233   2.965   0.300
 6580TIP3    H143935   2.154   3.010   0.337
 6580TIP3    H243936   2.283   3.041   0.263
 6581TIP3   OH243937   3.039   2.249   1.364
 6581TIP3    H143938   3.123   2.291   1.337
 6581TIP3    H243939   3.024   2.178   1.300
 6582TIP3   OH243940   3.120   2.160   0.454
 6582TIP3    H143941   3.139   2.223   0.383
 6582TIP3    H243942   3.165   2.203   0.530
 6583TIP3   OH243943   2.877   3.422   0.281
 6583TIP3    H143944   2.797   3.430   0.335
 6583TIP3    H243945   2.889   3.516   0.254
 6584TIP3   OH243946   2.849   2.388   0.543
 6584TIP3    H143947   2.894   2.472   0.560
 6584TIP3    H243948   2.811   2.362   0.630
 6585TIP3   OH243949   2.931   2.498   1.415
 6585TIP3    H143950   2.982   2.515   1.497
 6585TIP3    H243951   2.967   2.409   1.393
 6586TIP3   OH243952   2.902   2.066   0.590
 6586TIP3    H143953   2.866   2.143   0.636
 6586TIP3    H243954   2.982   2.107   0.549
 6587TIP3   OH243955   2.603   3.499   0.325
 6587TIP3    H143956   2.624   3.585   0.283
 6587TIP3    H243957   2.576   3.526   0.416
 6588TIP3   OH243958   2.467   2.195   0.307
 6588TIP3    H143959   2.460   2.277   0.358
 6588TIP3    H243960   2.560   2.173   0.326
 6589TIP3   OH243961   3.477   2.280   1.528
 6589TIP3    H143962   3.388   2.308   1.499
 6589TIP3    H243963   3.526   2.270   1.443
 6590TIP3   OH243964   3.363   2.639   0.925
 6590TIP3    H143965   3.286   2.579   0.917
 6590TIP3    H243966   3.427   2.585   0.976
 6591TIP3   OH243967   2.308   3.210   0.190
 6591TIP3    H143968   2.398   3.232   0.221
 6591TIP3    H243969   2.323   3.207   0.094
 6592TIP3   OH243970   2.143   2.505   0.130
 6592TIP3    H143971   2.147   2.603   0.130
 6592TIP3    H243972   2.073   2.487   0.065
 6593TIP3   OH243973   3.468   3.574   1.077
 6593TIP3    H143974   3.465   3.633   0.998
 6593TIP3    H243975   3.566   3.575   1.088
 6594TIP3   OH243976   2.213   1.983   0.984
 6594TIP3    H143977   2.210   1.972   0.886
 6594TIP3    H243978   2.186   1.892   1.012
 6595TIP3   OH243979   2.079   3.370   0.585
 6595TIP3    H143980   2.000   3.426   0.588
 6595TIP3    H243981   2.117   3.404   0.503
 6596TIP3   OH243982   2.016   3.649   1.703
 6596TIP3    H143983   2.077   3.636   1.779
 6596TIP3    H243984   1.980   3.559   1.692
 6597TIP3   OH243985   2.503   3.540   1.856
 6597TIP3    H143986   2.587   3.498   1.882
 6597TIP3    H243987   2.486   3.499   1.770
 6598TIP3   OH243988   2.897   3.458  -0.020
 6598TIP3    H143989   2.831   3.394   0.011
 6598TIP3    H243990   2.974   3.426   0.029
 6599TIP3   OH243991   3.131   3.407   1.753
 6599TIP3    H143992   3.093   3.320   1.782
 6599TIP3    H243993   3.217   3.407   1.798
 6600TIP3   OH243994   3.321   3.460   0.124
 6600TIP3    H143995   3.342   3.365   0.121
 6600TIP3    H243996   3.366   3.496   0.046
 6601TIP3   OH243997   1.982   3.035   1.821
 6601TIP3    H143998   1.944   2.946   1.830
 6601TIP3    H243999   1.939   3.064   1.737
 6602TIP3   OH244000   2.501   2.973   0.060
 6602TIP3    H144001   2.509   2.937   0.151
 6602TIP3    H244002   2.575   3.036   0.065
 6603TIP3   OH244003   2.687   3.035   1.730
 6603TIP3    H144004   2.670   3.088   1.650
 6603TIP3    H244005   2.699   2.943   1.696
 6604TIP3   OH244006   3.246   3.019   1.514
 6604TIP3    H144007   3.331   3.070   1.517
 6604TIP3    H244008   3.184   3.094   1.518
 6605TIP3   OH244009   2.125   2.724   1.790
 6605TIP3    H144010   2.202   2.664   1.793
 6605TIP3    H244011   2.142   2.783   1.866
 6606TIP3   OH244012   2.590   2.866   0.287
 6606TIP3    H144013   2.518   2.811   0.326
 6606TIP3    H244014   2.627   2.805   0.220
 6607TIP3   OH244015   2.501   2.655   1.456
 6607TIP3    H144016   2.420   2.705   1.479
 6607TIP3    H244017   2.521   2.701   1.373
 6608TIP3   OH244018   2.721   2.693   0.089
 6608TIP3    H144019   2.737   2.657   0.001
 6608TIP3    H244020   2.811   2.688   0.129
 6609TIP3   OH244021   3.033   2.886   1.813
 6609TIP3    H144022   3.116   2.856   1.773
 6609TIP3    H244023   3.015   2.814   1.877
 6610TIP3   OH244024   3.596   2.886  10.014
 6610TIP3    H144025   3.638   2.852   9.934
 6610TIP3    H244026   3.628   2.979  10.006
 6611TIP3   OH244027   2.559   2.391   1.546
 6611TIP3    H144028   2.576   2.311   1.490
 6611TIP3    H244029   2.463   2.399   1.534
 6612TIP3   OH244030   2.593   2.195   1.361
 6612TIP3    H144031   2.638   2.246   1.289
 6612TIP3    H244032   2.501   2.194   1.326
 6613TIP3   OH244033   2.729   2.775   1.331
 6613TIP3    H144034   2.806   2.831   1.311
 6613TIP3    H244035   2.660   2.844   1.325
 6614TIP3   OH244036   3.154   2.537   1.856
 6614TIP3    H144037   3.184   2.445   1.851
 6614TIP3    H244038   3.239   2.584   1.849
 6615TIP3   OH244039   3.330   2.843   1.702
 6615TIP3    H144040   3.292   2.898   1.630
 6615TIP3    H244041   3.425   2.841   1.678
 6616TIP3   OH244042   2.391   2.488   1.784
 6616TIP3    H144043   2.307   2.437   1.777
 6616TIP3    H244044   2.448   2.442   1.720
 6617TIP3   OH244045   2.680   1.943   1.363
 6617TIP3    H144046   2.644   2.033   1.369
 6617TIP3    H244047   2.606   1.897   1.321
 6618TIP3   OH244048   2.783   2.388   1.753
 6618TIP3    H144049   2.755   2.364   1.843
 6618TIP3    H244050   2.711   2.350   1.701
 6619TIP3   OH244051   3.036   2.301   1.678
 6619TIP3    H144052   2.948   2.331   1.709
 6619TIP3    H244053   3.073   2.261   1.760
 6620TIP3   OH244054   3.202   2.156   1.814
 6620TIP3    H144055   3.219   2.063   1.840
 6620TIP3    H244056   3.188   2.197   1.903
 6621TIP3   OH244057   2.196   2.299   1.779
 6621TIP3    H144058   2.188   2.210   1.737
 6621TIP3    H244059   2.200   2.277   1.875
 6622TIP3   OH244060   2.659   1.920   1.654
 6622TIP3    H144061   2.725   1.850   1.667
 6622TIP3    H244062   2.657   1.923   1.556
 6623TIP3   OH244063   2.701   2.051   1.888
 6623TIP3    H144064   2.675   2.007   1.803
 6623TIP3    H244065   2.638   2.127   1.886
 6624TIP3   OH244066   2.641   3.736   0.211
 6624TIP3    H144067   2.738   3.736   0.216
 6624TIP3    H244068   2.623   3.777   0.125
 6625TIP3   OH244069   2.036   3.243   0.155
 6625TIP3    H144070   2.133   3.225   0.161
 6625TIP3    H244071   2.007   3.187   0.081
 6626TIP3   OH244072   1.914   3.722   0.624
 6626TIP3    H144073   1.835   3.675   0.589
 6626TIP3    H244074   1.940   3.662   0.698
 6627TIP3   OH244075   1.993   3.553   0.819
 6627TIP3    H144076   1.938   3.476   0.844
 6627TIP3    H244077   2.050   3.566   0.897
 6628TIP3   OH244078   3.733   3.625   1.087
 6628TIP3    H144079   3.766   3.634   1.178
 6628TIP3    H244080   3.808   3.661   1.038
 6629TIP3   OH244081   3.687   3.584   1.394
 6629TIP3    H144082   3.645   3.514   1.339
 6629TIP3    H244083   3.708   3.531   1.473
 6630TIP3   OH244084   3.537   3.171   1.880
 6630TIP3    H144085   3.454   3.175   1.933
 6630TIP3    H244086   3.587   3.243   1.924
 6631TIP3   OH244087   3.642   3.011   0.380
 6631TIP3    H144088   3.729   3.047   0.408
 6631TIP3    H244089   3.620   2.952   0.455
 6632TIP3   OH244090   3.695   2.826   0.621
 6632TIP3    H144091   3.611   2.778   0.638
 6632TIP3    H244092   3.727   2.843   0.711
 6633TIP3   OH244093   3.667   3.101   1.083
 6633TIP3    H144094   3.729   3.031   1.054
 6633TIP3    H244095   3.703   3.179   1.038
 6634TIP3   OH244096   3.544   3.366   1.319
 6634TIP3    H144097   3.474   3.408   1.373
 6634TIP3    H244098   3.493   3.339   1.239
 6635TIP3   OH244099   3.754   2.801   0.224
 6635TIP3    H144100   3.684   2.820   0.158
 6635TIP3    H244101   3.744   2.878   0.282
 6636TIP3   OH244102   3.531   2.471   0.162
 6636TIP3    H144103   3.497   2.525   0.088
 6636TIP3    H244104   3.598   2.420   0.113
 6637TIP3   OH244105   3.495   2.669   0.692
 6637TIP3    H144106   3.472   2.578   0.667
 6637TIP3    H244107   3.461   2.670   0.784
 6638TIP3   OH244108   1.977   2.902   1.081
 6638TIP3    H144109   1.985   2.870   0.988
 6638TIP3    H244110   2.061   2.864   1.116
 6639TIP3   OH244111   3.605   2.857   1.633
 6639TIP3    H144112   3.642   2.766   1.631
 6639TIP3    H244113   3.679   2.919   1.612
 6640TIP3   OH244114   3.675   2.585   1.627
 6640TIP3    H144115   3.639   2.559   1.715
 6640TIP3    H244116   3.752   2.524   1.626
 6641TIP3   OH244117   3.507   2.248  -0.021
 6641TIP3    H144118   3.562   2.217   0.054
 6641TIP3    H244119   3.418   2.242   0.017
 6642TIP3   OH244120   3.436   2.435   0.508
 6642TIP3    H144121   3.458   2.341   0.523
 6642TIP3    H244122   3.522   2.464   0.473
 6643TIP3   OH244123   3.545   2.482   1.055
 6643TIP3    H144124   3.642   2.496   1.072
 6643TIP3    H244125   3.516   2.486   1.148
 6644TIP3   OH244126   3.548   2.560   1.314
 6644TIP3    H144127   3.469   2.590   1.364
 6644TIP3    H244128   3.594   2.647   1.298
 6645TIP3   OH244129   1.971   2.388   1.668
 6645TIP3    H144130   2.054   2.387   1.720
 6645TIP3    H244131   1.922   2.314   1.708
 6646TIP3   OH244132   3.740   1.900   1.870
 6646TIP3    H144133   3.787   1.837   1.810
 6646TIP3    H244134   3.744   1.979   1.813
 6647TIP3   OH244135   3.527   2.186   0.516
 6647TIP3    H144136   3.565   2.150   0.597
 6647TIP3    H244137   3.474   2.110   0.484
 6648TIP3   OH244138   2.074   2.220   1.034
 6648TIP3    H144139   2.113   2.131   1.030
 6648TIP3    H244140   2.147   2.279   1.007
 6649TIP3   OH244141   1.917   2.535   1.092
 6649TIP3    H144142   1.969   2.506   1.015
 6649TIP3    H244143   1.966   2.615   1.115
 6650TIP3   OH244144   3.723   2.143   1.732
 6650TIP3    H144145   3.651   2.181   1.787
 6650TIP3    H244146   3.680   2.128   1.646
 6651TIP3   OH244147   3.714   2.184   0.164
 6651TIP3    H144148   3.760   2.146   0.088
 6651TIP3    H244149   3.785   2.239   0.203
 6652TIP3   OH244150   1.935   2.149   0.482
 6652TIP3    H144151   1.845   2.182   0.495
 6652TIP3    H244152   1.960   2.192   0.398
 6653TIP3   OH244153   3.415   3.648   0.687
 6653TIP3    H144154   3.488   3.633   0.623
 6653TIP3    H244155   3.449   3.715   0.748
 6654TIP3   OH244156   1.946   2.007   1.310
 6654TIP3    H144157   1.876   1.979   1.372
 6654TIP3    H244158   1.902   2.081   1.264
 6655TIP3   OH244159   2.168   3.329   1.711
 6655TIP3    H144160   2.085   3.369   1.678
 6655TIP3    H244161   2.147   3.298   1.799
 6656TIP3   OH244162   2.450   3.479   1.367
 6656TIP3    H144163   2.455   3.570   1.333
 6656TIP3    H244164   2.545   3.458   1.372
 6657TIP3   OH244165   2.862   3.601   1.632
 6657TIP3    H144166   2.882   3.571   1.722
 6657TIP3    H244167   2.952   3.634   1.607
 6658TIP3   OH244168   3.098   3.719   1.583
 6658TIP3    H144169   3.155   3.713   1.504
 6658TIP3    H244170   3.138   3.789   1.637
 6659TIP3   OH244171   3.618   1.960   1.496
 6659TIP3    H144172   3.545   1.996   1.444
 6659TIP3    H244173   3.634   1.873   1.454
 6660TIP3   OH244174   2.183   3.773   1.342
 6660TIP3    H144175   2.106   3.824   1.309
 6660TIP3    H244176   2.176   3.792   1.437
 6661TIP3   OH244177   2.424   3.726   1.247
 6661TIP3    H144178   2.332   3.743   1.279
 6661TIP3    H244179   2.428   3.788   1.172
 6662TIP3   OH244180   2.891   3.690   1.176
 6662TIP3    H144181   2.851   3.747   1.109
 6662TIP3    H244182   2.918   3.756   1.243
 6663TIP3   OH244183   3.110   3.573   1.323
 6663TIP3    H144184   3.046   3.610   1.259
 6663TIP3    H244185   3.191   3.614   1.288
 6664TIP3   OH244186   3.371   3.714   1.282
 6664TIP3    H144187   3.382   3.800   1.236
 6664TIP3    H244188   3.405   3.656   1.209
 6665TIP3   OH244189   2.145   3.613   1.042
 6665TIP3    H144190   2.118   3.561   1.122
 6665TIP3    H244191   2.235   3.576   1.024
 6666TIP3   OH244192   2.364   3.511   0.917
 6666TIP3    H144193   2.355   3.415   0.939
 6666TIP3    H244194   2.452   3.530   0.958
 6667TIP3   OH244195   2.599   3.518   1.041
 6667TIP3    H144196   2.626   3.428   1.016
 6667TIP3    H244197   2.613   3.515   1.138
 6668TIP3   OH244198   2.951   2.098   0.922
 6668TIP3    H144199   2.881   2.057   0.975
 6668TIP3    H244200   2.964   2.031   0.854
 6669TIP3   OH244201   3.468   1.911   0.903
 6669TIP3    H144202   3.532   1.967   0.854
 6669TIP3    H244203   3.382   1.940   0.866
 6670TIP3   OH244204   3.640   2.047   0.737
 6670TIP3    H144205   3.698   1.980   0.692
 6670TIP3    H244206   3.704   2.121   0.749
 6671TIP3   OH244207   2.193   1.943   0.703
 6671TIP3    H144208   2.109   1.932   0.656
 6671TIP3    H244209   2.232   1.853   0.692
 6672TIP3   OH244210   2.064   1.940   0.272
 6672TIP3    H144211   2.120   2.008   0.227
 6672TIP3    H244212   2.017   1.993   0.338
 6673TIP3   OH244213   2.628   1.909   0.689
 6673TIP3    H144214   2.713   1.939   0.655
 6673TIP3    H244215   2.608   1.974   0.757
 6674TIP3   OH244216   3.218   1.953   0.796
 6674TIP3    H144217   3.175   1.961   0.711
 6674TIP3    H244218   3.167   1.880   0.840
 6675TIP3   OH244219   3.346   1.949   0.425
 6675TIP3    H144220   3.272   2.009   0.410
 6675TIP3    H244221   3.305   1.875   0.475
 6676TIP3   OH244222   2.062   3.549   0.376
 6676TIP3    H144223   1.971   3.549   0.340
 6676TIP3    H244224   2.085   3.643   0.364
 6677TIP3   OH244225   2.224   2.091   0.120
 6677TIP3    H144226   2.293   2.023   0.125
 6677TIP3    H244227   2.265   2.166   0.166
 6678TIP3   OH244228   2.768   2.194   0.359
 6678TIP3    H144229   2.806   2.131   0.422
 6678TIP3    H244230   2.778   2.277   0.411
 6679TIP3   OH244231   2.930   3.670   0.182
 6679TIP3    H144232   3.026   3.694   0.189
 6679TIP3    H244233   2.932   3.626   0.095
 6680TIP3   OH244234   3.593   3.596   0.503
 6680TIP3    H144235   3.590   3.507   0.459
 6680TIP3    H244236   3.579   3.655   0.427
 6681TIP3   OH244237   2.165   2.038   1.655
 6681TIP3    H144238   2.119   1.952   1.657
 6681TIP3    H244239   2.245   2.019   1.710
 6682TIP3   OH244240   2.360   1.961   1.831
 6682TIP3    H144241   2.451   1.934   1.812
 6682TIP3    H244242   2.324   1.880   1.873
 6683TIP3   OH244243   2.259   3.672   0.128
 6683TIP3    H144244   2.200   3.699   0.201
 6683TIP3    H244245   2.308   3.597   0.163
 6684TIP3   OH244246   3.216   1.892   1.838
 6684TIP3    H144247   3.186   1.835   1.912
 6684TIP3    H244248   3.305   1.857   1.818
 6685TIP3   OH244249   3.547   3.518   1.670
 6685TIP3    H144250   3.489   3.520   1.591
 6685TIP3    H244251   3.513   3.596   1.717
 6686TIP3   OH244252   4.997   2.900   0.681
 6686TIP3    H144253   4.987   2.987   0.725
 6686TIP3    H244254   4.923   2.903   0.618
 6687TIP3   OH244255   4.884   2.773   1.021
 6687TIP3    H144256   4.883   2.739   1.113
 6687TIP3    H244257   4.814   2.719   0.980
 6688TIP3   OH244258   4.067   2.759   1.161
 6688TIP3    H144259   4.068   2.687   1.227
 6688TIP3    H244260   4.149   2.806   1.181
 6689TIP3   OH244261   5.190   3.098   0.887
 6689TIP3    H144262   5.172   3.022   0.945
 6689TIP3    H244263   5.210   3.167   0.953
 6690TIP3   OH244264   4.186   3.243   1.015
 6690TIP3    H144265   4.146   3.156   0.993
 6690TIP3    H244266   4.278   3.220   0.994
 6691TIP3   OH244267   3.864   2.575   0.590
 6691TIP3    H144268   3.824   2.662   0.608
 6691TIP3    H244269   3.821   2.552   0.505
 6692TIP3   OH244270   3.909   2.814   0.838
 6692TIP3    H144271   3.956   2.726   0.839
 6692TIP3    H244272   3.970   2.873   0.793
 6693TIP3   OH244273   4.946   3.647   0.869
 6693TIP3    H144274   5.017   3.588   0.832
 6693TIP3    H244275   4.894   3.579   0.915
 6694TIP3   OH244276   4.681   3.049   1.117
 6694TIP3    H144277   4.712   3.001   1.040
 6694TIP3    H244278   4.768   3.081   1.151
 6695TIP3   OH244279   5.557   2.199   1.116
 6695TIP3    H144280   5.563   2.257   1.195
 6695TIP3    H244281   5.641   2.223   1.072
 6696TIP3   OH244282   5.060   2.501   1.126
 6696TIP3    H144283   5.078   2.407   1.141
 6696TIP3    H244284   5.034   2.497   1.032
 6697TIP3   OH244285   4.320   2.280   0.802
 6697TIP3    H144286   4.334   2.358   0.744
 6697TIP3    H244287   4.304   2.209   0.736
 6698TIP3   OH244288   5.095   2.310   0.679
 6698TIP3    H144289   5.145   2.273   0.757
 6698TIP3    H244290   5.161   2.371   0.643
 6699TIP3   OH244291   3.983   2.553   0.893
 6699TIP3    H144292   4.045   2.535   0.966
 6699TIP3    H244293   4.007   2.484   0.829
 6700TIP3   OH244294   4.497   2.706   0.852
 6700TIP3    H144295   4.588   2.680   0.878
 6700TIP3    H244296   4.462   2.618   0.828
 6701TIP3   OH244297   5.577   2.345   1.352
 6701TIP3    H144298   5.536   2.430   1.324
 6701TIP3    H244299   5.580   2.360   1.448
 6702TIP3   OH244300   4.223   2.185   1.234
 6702TIP3    H144301   4.197   2.242   1.161
 6702TIP3    H244302   4.164   2.216   1.305
 6703TIP3   OH244303   4.915   3.163   0.565
 6703TIP3    H144304   4.900   3.168   0.469
 6703TIP3    H244305   4.899   3.256   0.591
 6704TIP3   OH244306   4.445   2.961   1.207
 6704TIP3    H144307   4.395   3.038   1.241
 6704TIP3    H244308   4.524   3.005   1.167
 6705TIP3   OH244309   5.271   2.259   0.879
 6705TIP3    H144310   5.280   2.175   0.925
 6705TIP3    H244311   5.358   2.298   0.894
 6706TIP3   OH244312   4.189   2.391   1.022
 6706TIP3    H144313   4.261   2.443   1.065
 6706TIP3    H244314   4.236   2.357   0.943
 6707TIP3   OH244315   4.327   3.184   1.316
 6707TIP3    H144316   4.312   3.260   1.258
 6707TIP3    H244317   4.237   3.177   1.359
 6708TIP3   OH244318   3.901   3.110   0.411
 6708TIP3    H144319   3.899   3.164   0.329
 6708TIP3    H244320   3.908   3.179   0.480
 6709TIP3   OH244321   5.286   3.298   1.083
 6709TIP3    H144322   5.195   3.324   1.109
 6709TIP3    H244323   5.313   3.381   1.041
 6710TIP3   OH244324   5.279   2.127   1.210
 6710TIP3    H144325   5.202   2.138   1.150
 6710TIP3    H244326   5.350   2.158   1.151
 6711TIP3   OH244327   4.585   1.942   0.947
 6711TIP3    H144328   4.557   1.852   0.971
 6711TIP3    H244329   4.501   1.990   0.972
 6712TIP3   OH244330   5.120   3.474   0.759
 6712TIP3    H144331   5.137   3.386   0.720
 6712TIP3    H244332   5.200   3.523   0.728
 6713TIP3   OH244333   5.219   3.260   0.614
 6713TIP3    H144334   5.205   3.198   0.540
 6713TIP3    H244335   5.213   3.198   0.690
 6714TIP3   OH244336   5.376   3.125   1.470
 6714TIP3    H144337   5.402   3.057   1.403
 6714TIP3    H244338   5.388   3.205   1.414
 6715TIP3   OH244339   4.844   2.840   0.426
 6715TIP3    H144340   4.790   2.922   0.417
 6715TIP3    H244341   4.918   2.852   0.363
 6716TIP3   OH244342   4.901   2.643   0.141
 6716TIP3    H144343   4.962   2.700   0.192
 6716TIP3    H244344   4.960   2.570   0.114
 6717TIP3   OH244345   5.581   2.770   1.245
 6717TIP3    H144346   5.525   2.849   1.255
 6717TIP3    H244347   5.644   2.804   1.178
 6718TIP3   OH244348   5.204   2.807   0.539
 6718TIP3    H144349   5.134   2.845   0.596
 6718TIP3    H244350   5.269   2.773   0.605
 6719TIP3   OH244351   5.180   2.674   1.434
 6719TIP3    H144352   5.176   2.767   1.463
 6719TIP3    H244353   5.121   2.677   1.357
 6720TIP3   OH244354   4.346   2.889   0.725
 6720TIP3    H144355   4.320   2.862   0.634
 6720TIP3    H244356   4.410   2.818   0.750
 6721TIP3   OH244357   4.480   3.215   0.977
 6721TIP3    H144358   4.495   3.201   0.882
 6721TIP3    H244359   4.557   3.172   1.019
 6722TIP3   OH244360   4.362   2.747   1.080
 6722TIP3    H144361   4.409   2.753   0.994
 6722TIP3    H244362   4.403   2.822   1.130
 6723TIP3   OH244363   5.035   3.343   1.151
 6723TIP3    H144364   5.005   3.396   1.227
 6723TIP3    H244365   5.016   3.252   1.180
 6724TIP3   OH244366   4.480   3.217   1.535
 6724TIP3    H144367   4.415   3.272   1.583
 6724TIP3    H244368   4.436   3.210   1.447
 6725TIP3   OH244369   5.081   2.769   0.304
 6725TIP3    H144370   5.125   2.781   0.392
 6725TIP3    H244371   5.144   2.816   0.244
 6726TIP3   OH244372   4.193   2.813   1.446
 6726TIP3    H144373   4.206   2.902   1.479
 6726TIP3    H244374   4.106   2.791   1.485
 6727TIP3   OH244375   4.840   3.439   0.579
 6727TIP3    H144376   4.867   3.467   0.668
 6727TIP3    H244377   4.799   3.519   0.541
 6728TIP3   OH244378   4.313   3.404   1.628
 6728TIP3    H144379   4.297   3.437   1.537
 6728TIP3    H244380   4.221   3.378   1.651
 6729TIP3   OH244381   5.478   1.923   0.308
 6729TIP3    H144382   5.384   1.923   0.335
 6729TIP3    H244383   5.490   2.017   0.289
 6730TIP3   OH244384   4.247   2.781   0.483
 6730TIP3    H144385   4.210   2.861   0.442
 6730TIP3    H244386   4.206   2.710   0.430
 6731TIP3   OH244387   5.561   3.396   0.145
 6731TIP3    H144388   5.594   3.488   0.152
 6731TIP3    H244389   5.642   3.343   0.150
 6732TIP3   OH244390   3.877   3.055   1.372
 6732TIP3    H144391   3.843   3.048   1.281
 6732TIP3    H244392   3.906   2.962   1.385
 6733TIP3   OH244393   3.843   3.319   1.017
 6733TIP3    H144394   3.937   3.314   1.044
 6733TIP3    H244395   3.811   3.392   1.072
 6734TIP3   OH244396   5.654   3.391   1.620
 6734TIP3    H144397   5.645   3.297   1.598
 6734TIP3    H244398   5.567   3.409   1.661
 6735TIP3   OH244399   4.732   3.327   1.510
 6735TIP3    H144400   4.745   3.410   1.557
 6735TIP3    H244401   4.637   3.304   1.527
 6736TIP3   OH244402   4.785   3.700   0.450
 6736TIP3    H144403   4.810   3.721   0.358
 6736TIP3    H244404   4.797   3.788   0.493
 6737TIP3   OH244405   4.165   3.581   0.674
 6737TIP3    H144406   4.192   3.555   0.765
 6737TIP3    H244407   4.075   3.544   0.672
 6738TIP3   OH244408   5.086   3.677   0.208
 6738TIP3    H144409   5.142   3.607   0.166
 6738TIP3    H244410   5.107   3.660   0.302
 6739TIP3   OH244411   5.059   3.634   0.485
 6739TIP3    H144412   4.962   3.640   0.493
 6739TIP3    H244413   5.074   3.543   0.515
 6740TIP3   OH244414   5.334   2.519   1.665
 6740TIP3    H144415   5.282   2.550   1.589
 6740TIP3    H244416   5.357   2.428   1.637
 6741TIP3   OH244417   4.097   3.171   1.450
 6741TIP3    H144418   4.098   3.134   1.542
 6741TIP3    H244419   4.009   3.142   1.420
 6742TIP3   OH244420   4.357   2.049   1.038
 6742TIP3    H144421   4.267   2.040   1.001
 6742TIP3    H244422   4.334   2.094   1.121
 6743TIP3   OH244423   4.840   1.987   1.360
 6743TIP3    H144424   4.879   1.935   1.433
 6743TIP3    H244425   4.744   1.981   1.382
 6744TIP3   OH244426   5.125   2.402   1.490
 6744TIP3    H144427   5.057   2.376   1.558
 6744TIP3    H244428   5.089   2.487   1.459
 6745TIP3   OH244429   5.241   2.890   0.141
 6745TIP3    H144430   5.200   2.896   0.050
 6745TIP3    H244431   5.335   2.908   0.119
 6746TIP3   OH244432   4.806   2.247   0.152
 6746TIP3    H144433   4.760   2.206   0.229
 6746TIP3    H244434   4.733   2.243   0.089
 6747TIP3   OH244435   4.367   2.504   1.182
 6747TIP3    H144436   4.289   2.506   1.241
 6747TIP3    H244437   4.369   2.600   1.158
 6748TIP3   OH244438   4.338   2.530   0.679
 6748TIP3    H144439   4.330   2.626   0.665
 6748TIP3    H244440   4.391   2.504   0.600
 6749TIP3   OH244441   4.925   2.620   0.556
 6749TIP3    H144442   4.896   2.701   0.506
 6749TIP3    H244443   4.989   2.583   0.492
 6750TIP3   OH244444   4.801   2.625   1.683
 6750TIP3    H144445   4.758   2.539   1.703
 6750TIP3    H244446   4.878   2.620   1.743
 6751TIP3   OH244447   5.026   2.543   0.838
 6751TIP3    H144448   5.011   2.628   0.794
 6751TIP3    H244449   5.020   2.484   0.760
 6752TIP3   OH244450   4.125   2.518   1.317
 6752TIP3    H144451   4.151   2.549   1.405
 6752TIP3    H244452   4.086   2.431   1.337
 6753TIP3   OH244453   4.468   2.262   0.025
 6753TIP3    H144454   4.421   2.261   0.110
 6753TIP3    H244455   4.418   2.324  -0.029
 6754TIP3   OH244456   3.803   2.269   0.758
 6754TIP3    H144457   3.855   2.257   0.840
 6754TIP3    H244458   3.811   2.366   0.748
 6755TIP3   OH244459   3.928   2.311   0.288
 6755TIP3    H144460   4.006   2.355   0.249
 6755TIP3    H244461   3.873   2.390   0.299
 6756TIP3   OH244462   4.929   2.685   1.269
 6756TIP3    H144463   4.981   2.618   1.220
 6756TIP3    H244464   4.868   2.628   1.323
 6757TIP3   OH244465   4.646   2.284   0.779
 6757TIP3    H144466   4.565   2.300   0.830
 6757TIP3    H244467   4.704   2.236   0.841
 6758TIP3   OH244468   4.058   2.379   0.642
 6758TIP3    H144469   4.007   2.458   0.614
 6758TIP3    H244470   4.149   2.412   0.652
 6759TIP3   OH244471   4.443   2.444   0.439
 6759TIP3    H144472   4.540   2.444   0.439
 6759TIP3    H244473   4.420   2.502   0.362
 6760TIP3   OH244474   5.060   2.203   1.082
 6760TIP3    H144475   4.988   2.209   1.146
 6760TIP3    H244476   5.019   2.159   1.005
 6761TIP3   OH244477   4.335   2.574   0.219
 6761TIP3    H144478   4.245   2.565   0.183
 6761TIP3    H244479   4.390   2.564   0.139
 6762TIP3   OH244480   5.369   3.772   1.741
 6762TIP3    H144481   5.411   3.801   1.657
 6762TIP3    H244482   5.437   3.800   1.803
 6763TIP3   OH244483   4.117   3.036   1.683
 6763TIP3    H144484   4.196   3.042   1.740
 6763TIP3    H244485   4.048   3.007   1.745
 6764TIP3   OH244486   4.726   2.558   0.943
 6764TIP3    H144487   4.806   2.528   0.897
 6764TIP3    H244488   4.702   2.481   0.996
 6765TIP3   OH244489   4.256   2.102   0.610
 6765TIP3    H144490   4.283   2.010   0.626
 6765TIP3    H244491   4.314   2.120   0.533
 6766TIP3   OH244492   4.599   2.376   1.194
 6766TIP3    H144493   4.520   2.433   1.197
 6766TIP3    H244494   4.664   2.431   1.240
 6767TIP3   OH244495   4.669   3.055   0.391
 6767TIP3    H144496   4.603   2.994   0.351
 6767TIP3    H244497   4.629   3.066   0.480
 6768TIP3   OH244498   5.404   2.978   1.258
 6768TIP3    H144499   5.453   3.031   1.191
 6768TIP3    H244500   5.317   2.971   1.215
 6769TIP3   OH244501   5.059   2.319   0.192
 6769TIP3    H144502   4.961   2.316   0.190
 6769TIP3    H244503   5.077   2.406   0.235
 6770TIP3   OH244504   4.765   3.057   1.483
 6770TIP3    H144505   4.769   3.029   1.575
 6770TIP3    H244506   4.757   3.154   1.494
 6771TIP3   OH244507   5.105   2.513   0.365
 6771TIP3    H144508   5.192   2.486   0.399
 6771TIP3    H244509   5.122   2.604   0.333
 6772TIP3   OH244510   4.182   2.978   0.936
 6772TIP3    H144511   4.235   2.963   0.854
 6772TIP3    H244512   4.206   2.902   0.990
 6773TIP3   OH244513   4.889   3.181   0.284
 6773TIP3    H144514   4.854   3.272   0.293
 6773TIP3    H244515   4.808   3.128   0.303
 6774TIP3   OH244516   3.900   2.775   1.458
 6774TIP3    H144517   3.878   2.741   1.547
 6774TIP3    H244518   3.831   2.734   1.404
 6775TIP3   OH244519   4.556   2.760   1.673
 6775TIP3    H144520   4.514   2.706   1.604
 6775TIP3    H244521   4.647   2.723   1.672
 6776TIP3   OH244522   5.065   3.296   1.508
 6776TIP3    H144523   4.981   3.318   1.465
 6776TIP3    H244524   5.046   3.332   1.597
 6777TIP3   OH244525   5.622   2.513   0.327
 6777TIP3    H144526   5.544   2.497   0.269
 6777TIP3    H244527   5.620   2.611   0.328
 6778TIP3   OH244528   5.623   3.101   1.593
 6778TIP3    H144529   5.532   3.110   1.557
 6778TIP3    H244530   5.678   3.096   1.511
 6779TIP3   OH244531   5.454   3.354   0.388
 6779TIP3    H144532   5.363   3.322   0.387
 6779TIP3    H244533   5.476   3.368   0.294
 6780TIP3   OH244534   5.155   2.874   1.065
 6780TIP3    H144535   5.064   2.847   1.040
 6780TIP3    H244536   5.206   2.802   1.023
 6781TIP3   OH244537   4.399   3.309   0.700
 6781TIP3    H144538   4.429   3.397   0.668
 6781TIP3    H244539   4.307   3.312   0.668
 6782TIP3   OH244540   4.011   2.765   0.117
 6782TIP3    H144541   4.064   2.832   0.163
 6782TIP3    H244542   3.923   2.775   0.158
 6783TIP3   OH244543   4.542   3.076   0.641
 6783TIP3    H144544   4.495   3.161   0.651
 6783TIP3    H244545   4.490   3.015   0.697
 6784TIP3   OH244546   4.606   3.490   1.313
 6784TIP3    H144547   4.669   3.553   1.274
 6784TIP3    H244548   4.664   3.441   1.375
 6785TIP3   OH244549   4.428   3.558   0.599
 6785TIP3    H144550   4.333   3.576   0.617
 6785TIP3    H244551   4.469   3.644   0.623
 6786TIP3   OH244552   4.913   3.084   1.243
 6786TIP3    H144553   4.869   3.058   1.327
 6786TIP3    H244554   4.961   3.002   1.223
 6787TIP3   OH244555   5.173   3.188   0.120
 6787TIP3    H144556   5.207   3.164   0.209
 6787TIP3    H244557   5.080   3.171   0.141
 6788TIP3   OH244558   5.246   3.532   1.466
 6788TIP3    H144559   5.153   3.503   1.456
 6788TIP3    H244560   5.255   3.599   1.393
 6789TIP3   OH244561   5.646   3.643   0.187
 6789TIP3    H144562   5.710   3.715   0.169
 6789TIP3    H244563   5.580   3.696   0.239
 6790TIP3   OH244564   4.064   2.271   1.447
 6790TIP3    H144565   4.023   2.325   1.517
 6790TIP3    H244566   4.033   2.182   1.472
 6791TIP3   OH244567   5.263   3.090   0.355
 6791TIP3    H144568   5.238   2.997   0.341
 6791TIP3    H244569   5.360   3.079   0.365
 6792TIP3   OH244570   4.009   3.457   1.259
 6792TIP3    H144571   4.077   3.389   1.267
 6792TIP3    H244572   4.010   3.495   1.347
 6793TIP3   OH244573   4.443   3.250   0.253
 6793TIP3    H144574   4.531   3.218   0.281
 6793TIP3    H244575   4.450   3.345   0.279
 6794TIP3   OH244576   4.119   2.967   0.296
 6794TIP3    H144577   4.047   3.017   0.338
 6794TIP3    H244578   4.170   3.041   0.257
 6795TIP3   OH244579   4.898   2.265   1.351
 6795TIP3    H144580   4.988   2.277   1.384
 6795TIP3    H244581   4.880   2.171   1.372
 6796TIP3   OH244582   5.046   2.149   0.468
 6796TIP3    H144583   5.049   2.214   0.395
 6796TIP3    H244584   5.060   2.204   0.549
 6797TIP3   OH244585   4.756   3.430   0.282
 6797TIP3    H144586   4.685   3.449   0.346
 6797TIP3    H244587   4.778   3.521   0.254
 6798TIP3   OH244588   4.723   2.388   0.539
 6798TIP3    H144589   4.783   2.464   0.547
 6798TIP3    H244590   4.698   2.368   0.631
 6799TIP3   OH244591   4.795   2.515   1.425
 6799TIP3    H144592   4.797   2.545   1.518
 6799TIP3    H244593   4.825   2.422   1.428
 6800TIP3   OH244594   4.783   2.068   0.587
 6800TIP3    H144595   4.740   2.142   0.633
 6800TIP3    H244596   4.868   2.109   0.558
 6801TIP3   OH244597   4.478   3.510   0.334
 6801TIP3    H144598   4.509   3.594   0.292
 6801TIP3    H244599   4.456   3.542   0.424
 6802TIP3   OH244600   4.346   2.206   0.320
 6802TIP3    H144601   4.368   2.289   0.366
 6802TIP3    H244602   4.434   2.166   0.309
 6803TIP3   OH244603   5.378   2.287   1.536
 6803TIP3    H144604   5.282   2.308   1.524
 6803TIP3    H244605   5.409   2.286   1.444
 6804TIP3   OH244606   5.264   2.642   0.927
 6804TIP3    H144607   5.187   2.583   0.914
 6804TIP3    H244608   5.330   2.584   0.971
 6805TIP3   OH244609   4.187   3.216   0.197
 6805TIP3    H144610   4.277   3.239   0.231
 6805TIP3    H244611   4.206   3.206   0.102
 6806TIP3   OH244612   4.049   2.501   0.158
 6806TIP3    H144613   4.043   2.599   0.155
 6806TIP3    H244614   3.985   2.476   0.089
 6807TIP3   OH244615   5.365   3.573   1.075
 6807TIP3    H144616   5.360   3.643   1.006
 6807TIP3    H244617   5.463   3.578   1.090
 6808TIP3   OH244618   4.105   1.986   0.984
 6808TIP3    H144619   4.083   1.964   0.891
 6808TIP3    H244620   4.081   1.901   1.028
 6809TIP3   OH244621   3.954   3.367   0.589
 6809TIP3    H144622   3.879   3.427   0.588
 6809TIP3    H244623   3.999   3.400   0.510
 6810TIP3   OH244624   3.911   3.650   1.712
 6810TIP3    H144625   3.990   3.634   1.767
 6810TIP3    H244626   3.884   3.559   1.688
 6811TIP3   OH244627   4.393   3.540   1.858
 6811TIP3    H144628   4.478   3.498   1.881
 6811TIP3    H244629   4.378   3.506   1.767
 6812TIP3   OH244630   4.796   3.446  -0.017
 6812TIP3    H144631   4.724   3.387   0.008
 6812TIP3    H244632   4.864   3.412   0.044
 6813TIP3   OH244633   5.008   3.401   1.748
 6813TIP3    H144634   4.979   3.312   1.783
 6813TIP3    H244635   5.095   3.406   1.792
 6814TIP3   OH244636   5.218   3.456   0.116
 6814TIP3    H144637   5.219   3.360   0.100
 6814TIP3    H244638   5.264   3.495   0.038
 6815TIP3   OH244639   3.880   3.038   1.809
 6815TIP3    H144640   3.853   2.946   1.823
 6815TIP3    H244641   3.825   3.060   1.729
 6816TIP3   OH244642   4.358   3.010   0.038
 6816TIP3    H144643   4.362   2.977   0.129
 6816TIP3    H244644   4.419   3.085   0.046
 6817TIP3   OH244645   4.567   3.033   1.705
 6817TIP3    H144646   4.546   3.090   1.627
 6817TIP3    H244647   4.558   2.942   1.670
 6818TIP3   OH244648   5.137   3.003   1.503
 6818TIP3    H144649   5.226   3.046   1.508
 6818TIP3    H244650   5.085   3.084   1.515
 6819TIP3   OH244651   3.983   2.729   1.766
 6819TIP3    H144652   4.055   2.667   1.748
 6819TIP3    H244653   4.025   2.786   1.833
 6820TIP3   OH244654   4.492   2.881   0.281
 6820TIP3    H144655   4.439   2.819   0.335
 6820TIP3    H244656   4.535   2.817   0.219
 6821TIP3   OH244657   4.378   2.628   1.461
 6821TIP3    H144658   4.311   2.698   1.469
 6821TIP3    H244659   4.447   2.673   1.410
 6822TIP3   OH244660   4.605   2.694   0.085
 6822TIP3    H144661   4.612   2.678  -0.010
 6822TIP3    H244662   4.696   2.675   0.115
 6823TIP3   OH244663   4.923   2.923   1.813
 6823TIP3    H144664   4.977   2.868   1.754
 6823TIP3    H244665   4.860   2.858   1.848
 6824TIP3   OH244666   5.481   2.893  10.033
 6824TIP3    H144667   5.495   2.854   9.946
 6824TIP3    H244668   5.511   2.986  10.019
 6825TIP3   OH244669   4.443   2.388   1.566
 6825TIP3    H144670   4.453   2.317   1.498
 6825TIP3    H244671   4.418   2.466   1.512
 6826TIP3   OH244672   4.471   2.203   1.355
 6826TIP3    H144673   4.517   2.250   1.283
 6826TIP3    H244674   4.378   2.197   1.324
 6827TIP3   OH244675   4.596   2.786   1.357
 6827TIP3    H144676   4.685   2.823   1.341
 6827TIP3    H244677   4.539   2.856   1.320
 6828TIP3   OH244678   5.048   2.534   1.869
 6828TIP3    H144679   5.073   2.443   1.852
 6828TIP3    H244680   5.132   2.580   1.852
 6829TIP3   OH244681   5.206   2.848   1.708
 6829TIP3    H144682   5.170   2.901   1.633
 6829TIP3    H244683   5.299   2.837   1.681
 6830TIP3   OH244684   4.245   2.509   1.757
 6830TIP3    H144685   4.181   2.437   1.774
 6830TIP3    H244686   4.315   2.460   1.710
 6831TIP3   OH244687   4.571   1.958   1.375
 6831TIP3    H144688   4.532   2.048   1.368
 6831TIP3    H244689   4.504   1.906   1.329
 6832TIP3   OH244690   4.670   2.398   1.744
 6832TIP3    H144691   4.643   2.368   1.833
 6832TIP3    H244692   4.591   2.378   1.688
 6833TIP3   OH244693   4.943   2.324   1.667
 6833TIP3    H144694   4.849   2.320   1.693
 6833TIP3    H244695   4.987   2.266   1.733
 6834TIP3   OH244696   5.079   2.163   1.833
 6834TIP3    H144697   5.081   2.064   1.835
 6834TIP3    H244698   5.071   2.187   1.927
 6835TIP3   OH244699   4.077   2.281   1.787
 6835TIP3    H144700   4.061   2.202   1.731
 6835TIP3    H244701   4.042   2.253   1.873
 6836TIP3   OH244702   4.557   1.923   1.659
 6836TIP3    H144703   4.617   1.847   1.654
 6836TIP3    H244704   4.562   1.953   1.566
 6837TIP3   OH244705   4.565   2.026   1.905
 6837TIP3    H144706   4.570   1.976   1.820
 6837TIP3    H244707   4.526   2.108   1.875
 6838TIP3   OH244708   4.532   3.740   0.205
 6838TIP3    H144709   4.629   3.742   0.203
 6838TIP3    H244710   4.507   3.797   0.131
 6839TIP3   OH244711   3.919   3.227   0.161
 6839TIP3    H144712   4.017   3.221   0.171
 6839TIP3    H244713   3.905   3.165   0.088
 6840TIP3   OH244714   3.799   3.722   0.618
 6840TIP3    H144715   3.718   3.677   0.586
 6840TIP3    H244716   3.821   3.666   0.695
 6841TIP3   OH244717   3.872   3.555   0.823
 6841TIP3    H144718   3.826   3.473   0.848
 6841TIP3    H244719   3.935   3.568   0.898
 6842TIP3   OH244720   5.628   3.640   1.084
 6842TIP3    H144721   5.646   3.650   1.179
 6842TIP3    H244722   5.716   3.658   1.047
 6843TIP3   OH244723   5.561   3.605   1.374
 6843TIP3    H144724   5.531   3.517   1.342
 6843TIP3    H244725   5.605   3.578   1.457
 6844TIP3   OH244726   5.438   3.147   1.885
 6844TIP3    H144727   5.346   3.160   1.911
 6844TIP3    H244728   5.473   3.239   1.890
 6845TIP3   OH244729   5.525   3.013   0.398
 6845TIP3    H144730   5.613   3.053   0.418
 6845TIP3    H244731   5.512   2.953   0.473
 6846TIP3   OH244732   5.586   2.816   0.619
 6846TIP3    H144733   5.503   2.768   0.636
 6846TIP3    H244734   5.627   2.815   0.708
 6847TIP3   OH244735   5.553   3.088   1.073
 6847TIP3    H144736   5.623   3.020   1.060
 6847TIP3    H244737   5.596   3.169   1.038
 6848TIP3   OH244738   5.429   3.363   1.322
 6848TIP3    H144739   5.361   3.415   1.370
 6848TIP3    H244740   5.383   3.337   1.239
 6849TIP3   OH244741   5.641   2.799   0.233
 6849TIP3    H144742   5.569   2.822   0.171
 6849TIP3    H244743   5.637   2.875   0.294
 6850TIP3   OH244744   5.413   2.497   0.145
 6850TIP3    H144745   5.383   2.546   0.066
 6850TIP3    H244746   5.454   2.422   0.100
 6851TIP3   OH244747   5.381   2.669   0.689
 6851TIP3    H144748   5.360   2.577   0.666
 6851TIP3    H244749   5.355   2.673   0.784
 6852TIP3   OH244750   3.868   2.910   1.087
 6852TIP3    H144751   3.869   2.879   0.994
 6852TIP3    H244752   3.953   2.869   1.113
 6853TIP3   OH244753   5.484   2.860   1.625
 6853TIP3    H144754   5.521   2.769   1.622
 6853TIP3    H244755   5.558   2.914   1.593
 6854TIP3   OH244756   5.584   2.608   1.641
 6854TIP3    H144757   5.491   2.584   1.664
 6854TIP3    H244758   5.633   2.527   1.666
 6855TIP3   OH244759   5.393   2.255  -0.012
 6855TIP3    H144760   5.450   2.214   0.056
 6855TIP3    H244761   5.305   2.248   0.027
 6856TIP3   OH244762   5.322   2.423   0.507
 6856TIP3    H144763   5.344   2.330   0.529
 6856TIP3    H244764   5.408   2.450   0.471
 6857TIP3   OH244765   5.438   2.476   1.057
 6857TIP3    H144766   5.536   2.489   1.067
 6857TIP3    H244767   5.413   2.479   1.150
 6858TIP3   OH244768   5.422   2.555   1.314
 6858TIP3    H144769   5.329   2.585   1.324
 6858TIP3    H244770   5.468   2.639   1.293
 6859TIP3   OH244771   3.852   2.375   1.657
 6859TIP3    H144772   3.933   2.380   1.711
 6859TIP3    H244773   3.800   2.308   1.706
 6860TIP3   OH244774   5.630   1.910   1.861
 6860TIP3    H144775   5.667   1.859   1.786
 6860TIP3    H244776   5.611   1.994   1.814
 6861TIP3   OH244777   5.418   2.173   0.539
 6861TIP3    H144778   5.460   2.123   0.613
 6861TIP3    H244779   5.365   2.103   0.499
 6862TIP3   OH244780   3.967   2.232   0.971
 6862TIP3    H144781   4.005   2.144   0.989
 6862TIP3    H244782   4.044   2.289   0.989
 6863TIP3   OH244783   3.804   2.533   1.083
 6863TIP3    H144784   3.863   2.514   1.007
 6863TIP3    H244785   3.843   2.617   1.114
 6864TIP3   OH244786   5.544   2.130   1.721
 6864TIP3    H144787   5.472   2.195   1.710
 6864TIP3    H244788   5.560   2.113   1.626
 6865TIP3   OH244789   5.590   2.178   0.178
 6865TIP3    H144790   5.639   2.126   0.113
 6865TIP3    H244791   5.660   2.242   0.205
 6866TIP3   OH244792   3.824   2.150   0.478
 6866TIP3    H144793   3.731   2.174   0.492
 6866TIP3    H244794   3.840   2.198   0.395
 6867TIP3   OH244795   5.299   3.650   0.682
 6867TIP3    H144796   5.371   3.632   0.619
 6867TIP3    H244797   5.342   3.702   0.753
 6868TIP3   OH244798   3.823   2.012   1.308
 6868TIP3    H144799   3.766   1.983   1.382
 6868TIP3    H244800   3.767   2.078   1.264
 6869TIP3   OH244801   4.064   3.328   1.703
 6869TIP3    H144802   3.977   3.351   1.665
 6869TIP3    H244803   4.045   3.257   1.766
 6870TIP3   OH244804   4.343   3.487   1.373
 6870TIP3    H144805   4.340   3.576   1.333
 6870TIP3    H244806   4.440   3.470   1.369
 6871TIP3   OH244807   4.751   3.605   1.615
 6871TIP3    H144808   4.765   3.573   1.706
 6871TIP3    H244809   4.843   3.630   1.590
 6872TIP3   OH244810   4.982   3.741   1.561
 6872TIP3    H144811   5.064   3.709   1.523
 6872TIP3    H244812   5.011   3.780   1.647
 6873TIP3   OH244813   5.499   1.954   1.497
 6873TIP3    H144814   5.439   1.999   1.437
 6873TIP3    H244815   5.495   1.863   1.462
 6874TIP3   OH244816   4.073   3.778   1.348
 6874TIP3    H144817   4.005   3.841   1.315
 6874TIP3    H244818   4.067   3.791   1.443
 6875TIP3   OH244819   4.306   3.723   1.245
 6875TIP3    H144820   4.216   3.750   1.276
 6875TIP3    H244821   4.317   3.781   1.168
 6876TIP3   OH244822   4.782   3.697   1.168
 6876TIP3    H144823   4.724   3.756   1.117
 6876TIP3    H244824   4.810   3.759   1.239
 6877TIP3   OH244825   4.994   3.563   1.313
 6877TIP3    H144826   4.931   3.602   1.249
 6877TIP3    H244827   5.072   3.616   1.288
 6878TIP3   OH244828   5.266   3.718   1.277
 6878TIP3    H144829   5.278   3.809   1.244
 6878TIP3    H244830   5.305   3.668   1.201
 6879TIP3   OH244831   4.027   3.611   1.039
 6879TIP3    H144832   4.007   3.556   1.119
 6879TIP3    H244833   4.118   3.580   1.017
 6880TIP3   OH244834   4.248   3.512   0.919
 6880TIP3    H144835   4.235   3.418   0.941
 6880TIP3    H244836   4.337   3.527   0.958
 6881TIP3   OH244837   4.480   3.510   1.053
 6881TIP3    H144838   4.508   3.418   1.040
 6881TIP3    H244839   4.499   3.521   1.148
 6882TIP3   OH244840   4.832   2.098   0.920
 6882TIP3    H144841   4.755   2.068   0.970
 6882TIP3    H244842   4.845   2.023   0.861
 6883TIP3   OH244843   5.361   1.901   0.896
 6883TIP3    H144844   5.428   1.958   0.853
 6883TIP3    H244845   5.278   1.938   0.858
 6884TIP3   OH244846   5.530   2.034   0.743
 6884TIP3    H144847   5.595   1.979   0.693
 6884TIP3    H244848   5.585   2.114   0.762
 6885TIP3   OH244849   4.033   1.931   0.720
 6885TIP3    H144850   3.955   1.901   0.669
 6885TIP3    H244851   4.098   1.862   0.693
 6886TIP3   OH244852   3.945   1.923   0.283
 6886TIP3    H144853   3.999   1.986   0.229
 6886TIP3    H244854   3.889   1.981   0.336
 6887TIP3   OH244855   4.488   1.927   0.666
 6887TIP3    H144856   4.571   1.918   0.617
 6887TIP3    H244857   4.520   1.938   0.757
 6888TIP3   OH244858   5.110   1.963   0.795
 6888TIP3    H144859   5.064   1.977   0.711
 6888TIP3    H244860   5.059   1.891   0.839
 6889TIP3   OH244861   5.244   1.943   0.423
 6889TIP3    H144862   5.171   2.008   0.426
 6889TIP3    H244863   5.207   1.873   0.481
 6890TIP3   OH244864   3.937   3.545   0.380
 6890TIP3    H144865   3.849   3.547   0.339
 6890TIP3    H244866   3.959   3.639   0.370
 6891TIP3   OH244867   4.104   2.062   0.135
 6891TIP3    H144868   4.182   2.008   0.113
 6891TIP3    H244869   4.143   2.146   0.164
 6892TIP3   OH244870   4.649   2.155   0.352
 6892TIP3    H144871   4.695   2.097   0.415
 6892TIP3    H244872   4.651   2.239   0.402
 6893TIP3   OH244873   4.824   3.672   0.181
 6893TIP3    H144874   4.921   3.690   0.182
 6893TIP3    H244875   4.818   3.633   0.092
 6894TIP3   OH244876   5.480   3.594   0.498
 6894TIP3    H144877   5.474   3.505   0.454
 6894TIP3    H244878   5.453   3.656   0.428
 6895TIP3   OH244879   4.037   2.031   1.644
 6895TIP3    H144880   3.993   1.945   1.643
 6895TIP3    H244881   4.117   2.016   1.698
 6896TIP3   OH244882   4.252   1.972   1.821
 6896TIP3    H144883   4.346   1.952   1.809
 6896TIP3    H244884   4.215   1.885   1.851
 6897TIP3   OH244885   4.154   3.683   0.126
 6897TIP3    H144886   4.091   3.709   0.195
 6897TIP3    H244887   4.182   3.595   0.153
 6898TIP3   OH244888   5.098   1.895   1.815
 6898TIP3    H144889   5.098   1.863   1.908
 6898TIP3    H244890   5.191   1.873   1.788
 6899TIP3   OH244891   5.418   3.508   1.669
 6899TIP3    H144892   5.351   3.503   1.598
 6899TIP3    H244893   5.402   3.598   1.704
 6900TIP3   OH244894   6.880   2.892   0.693
 6900TIP3    H144895   6.876   2.979   0.737
 6900TIP3    H244896   6.805   2.902   0.631
 6901TIP3   OH244897   6.736   2.790   1.020
 6901TIP3    H144898   6.757   2.742   1.103
 6901TIP3    H244899   6.669   2.733   0.977
 6902TIP3   OH244900   5.960   2.772   1.170
 6902TIP3    H144901   5.970   2.696   1.230
 6902TIP3    H244902   6.038   2.824   1.192
 6903TIP3   OH244903   7.129   3.112   0.893
 6903TIP3    H144904   7.114   3.034   0.949
 6903TIP3    H244905   7.121   3.184   0.958
 6904TIP3   OH244906   6.068   3.246   0.995
 6904TIP3    H144907   6.035   3.154   0.986
 6904TIP3    H244908   6.163   3.224   0.991
 6905TIP3   OH244909   5.742   2.569   0.573
 6905TIP3    H144910   5.707   2.658   0.589
 6905TIP3    H244911   5.709   2.550   0.483
 6906TIP3   OH244912   5.785   2.812   0.831
 6906TIP3    H144913   5.836   2.728   0.846
 6906TIP3    H244914   5.849   2.869   0.785
 6907TIP3   OH244915   6.820   3.628   0.896
 6907TIP3    H144916   6.883   3.571   0.847
 6907TIP3    H244917   6.766   3.560   0.937
 6908TIP3   OH244918   6.575   3.050   1.118
 6908TIP3    H144919   6.595   2.997   1.041
 6908TIP3    H244920   6.665   3.078   1.145
 6909TIP3   OH244921   7.457   2.234   1.108
 6909TIP3    H144922   7.455   2.291   1.186
 6909TIP3    H244923   7.527   2.275   1.055
 6910TIP3   OH244924   6.925   2.499   1.143
 6910TIP3    H144925   6.965   2.412   1.159
 6910TIP3    H244926   6.900   2.492   1.049
 6911TIP3   OH244927   6.217   2.278   0.795
 6911TIP3    H144928   6.231   2.361   0.744
 6911TIP3    H244929   6.174   2.224   0.726
 6912TIP3   OH244930   7.005   2.304   0.657
 6912TIP3    H144931   7.056   2.296   0.741
 6912TIP3    H244932   7.044   2.380   0.614
 6913TIP3   OH244933   5.877   2.567   0.886
 6913TIP3    H144934   5.938   2.520   0.945
 6913TIP3    H244935   5.900   2.524   0.801
 6914TIP3   OH244936   6.376   2.696   0.849
 6914TIP3    H144937   6.451   2.646   0.888
 6914TIP3    H244938   6.329   2.625   0.802
 6915TIP3   OH244939   7.443   2.313   1.392
 6915TIP3    H144940   7.400   2.393   1.354
 6915TIP3    H244941   7.517   2.353   1.440
 6916TIP3   OH244942   6.125   2.198   1.225
 6916TIP3    H144943   6.086   2.246   1.150
 6916TIP3    H244944   6.060   2.223   1.295
 6917TIP3   OH244945   6.799   3.147   0.582
 6917TIP3    H144946   6.790   3.146   0.484
 6917TIP3    H244947   6.768   3.238   0.599
 6918TIP3   OH244948   6.335   2.966   1.206
 6918TIP3    H144949   6.280   3.043   1.236
 6918TIP3    H244950   6.411   3.014   1.165
 6919TIP3   OH244951   7.135   2.267   0.885
 6919TIP3    H144952   7.115   2.193   0.945
 6919TIP3    H244953   7.231   2.264   0.877
 6920TIP3   OH244954   6.075   2.393   1.019
 6920TIP3    H144955   6.140   2.452   1.066
 6920TIP3    H244956   6.128   2.366   0.941
 6921TIP3   OH244957   6.210   3.186   1.306
 6921TIP3    H144958   6.204   3.279   1.277
 6921TIP3    H244959   6.119   3.180   1.345
 6922TIP3   OH244960   5.790   3.109   0.411
 6922TIP3    H144961   5.790   3.171   0.335
 6922TIP3    H244962   5.802   3.171   0.485
 6923TIP3   OH244963   7.155   3.315   1.080
 6923TIP3    H144964   7.063   3.330   1.110
 6923TIP3    H244965   7.174   3.404   1.046
 6924TIP3   OH244966   7.188   2.173   1.200
 6924TIP3    H144967   7.111   2.216   1.156
 6924TIP3    H244968   7.263   2.205   1.147
 6925TIP3   OH244969   6.471   1.935   0.951
 6925TIP3    H144970   6.449   1.841   0.959
 6925TIP3    H244971   6.383   1.974   0.977
 6926TIP3   OH244972   6.980   3.465   0.750
 6926TIP3    H144973   6.996   3.380   0.703
 6926TIP3    H244974   7.070   3.503   0.738
 6927TIP3   OH244975   7.094   3.265   0.605
 6927TIP3    H144976   7.083   3.198   0.536
 6927TIP3    H244977   7.131   3.213   0.679
 6928TIP3   OH244978   7.253   3.121   1.462
 6928TIP3    H144979   7.246   3.057   1.387
 6928TIP3    H244980   7.269   3.203   1.413
 6929TIP3   OH244981   6.724   2.830   0.422
 6929TIP3    H144982   6.678   2.917   0.416
 6929TIP3    H244983   6.801   2.842   0.365
 6930TIP3   OH244984   6.769   2.694   0.127
 6930TIP3    H144985   6.844   2.718   0.188
 6930TIP3    H244986   6.795   2.604   0.102
 6931TIP3   OH244987   7.416   2.754   1.256
 6931TIP3    H144988   7.358   2.831   1.239
 6931TIP3    H244989   7.487   2.770   1.190
 6932TIP3   OH244990   7.085   2.832   0.534
 6932TIP3    H144991   7.012   2.865   0.592
 6932TIP3    H244992   7.145   2.795   0.603
 6933TIP3   OH244993   7.060   2.658   1.442
 6933TIP3    H144994   7.042   2.748   1.475
 6933TIP3    H244995   6.994   2.659   1.369
 6934TIP3   OH244996   6.227   2.888   0.720
 6934TIP3    H144997   6.196   2.861   0.630
 6934TIP3    H244998   6.290   2.816   0.739
 6935TIP3   OH244999   6.359   3.226   0.974
 6935TIP3    H145000   6.370   3.210   0.879
 6935TIP3    H245001   6.439   3.185   1.014
 6936TIP3   OH245002   6.254   2.748   1.086
 6936TIP3    H145003   6.288   2.751   0.994
 6936TIP3    H245004   6.298   2.827   1.127
 6937TIP3   OH245005   6.906   3.343   1.158
 6937TIP3    H145006   6.889   3.396   1.237
 6937TIP3    H245007   6.884   3.252   1.189
 6938TIP3   OH245008   6.372   3.216   1.528
 6938TIP3    H145009   6.305   3.272   1.575
 6938TIP3    H245010   6.325   3.206   1.442
 6939TIP3   OH245011   6.959   2.767   0.297
 6939TIP3    H145012   7.003   2.776   0.385
 6939TIP3    H245013   7.014   2.831   0.243
 6940TIP3   OH245014   6.062   2.807   1.461
 6940TIP3    H145015   6.085   2.894   1.496
 6940TIP3    H245016   5.976   2.794   1.504
 6941TIP3   OH245017   6.730   3.424   0.576
 6941TIP3    H145018   6.773   3.445   0.660
 6941TIP3    H245019   6.675   3.502   0.559
 6942TIP3   OH245020   6.205   3.390   1.636
 6942TIP3    H145021   6.171   3.468   1.586
 6942TIP3    H245022   6.118   3.353   1.662
 6943TIP3   OH245023   7.332   1.890   0.271
 6943TIP3    H145024   7.237   1.907   0.294
 6943TIP3    H245025   7.370   1.978   0.287
 6944TIP3   OH245026   6.128   2.781   0.478
 6944TIP3    H145027   6.080   2.853   0.432
 6944TIP3    H245028   6.085   2.702   0.445
 6945TIP3   OH245029   7.475   3.375   0.154
 6945TIP3    H145030   7.485   3.473   0.158
 6945TIP3    H245031   7.566   3.345   0.166
 6946TIP3   OH245032   5.754   3.054   1.370
 6946TIP3    H145033   5.698   3.046   1.292
 6946TIP3    H245034   5.797   2.966   1.373
 6947TIP3   OH245035   5.733   3.307   1.031
 6947TIP3    H145036   5.828   3.293   1.023
 6947TIP3    H245037   5.731   3.384   1.089
 6948TIP3   OH245038   7.529   3.396   1.614
 6948TIP3    H145039   7.521   3.303   1.591
 6948TIP3    H245040   7.451   3.405   1.674
 6949TIP3   OH245041   6.628   3.325   1.501
 6949TIP3    H145042   6.644   3.393   1.568
 6949TIP3    H245043   6.533   3.300   1.515
 6950TIP3   OH245044   6.675   3.701   0.455
 6950TIP3    H145045   6.688   3.720   0.361
 6950TIP3    H245046   6.681   3.791   0.493
 6951TIP3   OH245047   6.048   3.567   0.683
 6951TIP3    H145048   6.076   3.551   0.777
 6951TIP3    H245049   5.960   3.526   0.682
 6952TIP3   OH245050   6.961   3.684   0.189
 6952TIP3    H145051   7.003   3.600   0.156
 6952TIP3    H245052   6.979   3.681   0.285
 6953TIP3   OH245053   6.942   3.627   0.468
 6953TIP3    H145054   6.846   3.628   0.488
 6953TIP3    H245055   6.973   3.553   0.522
 6954TIP3   OH245056   7.212   2.556   1.659
 6954TIP3    H145057   7.162   2.590   1.581
 6954TIP3    H245058   7.225   2.464   1.632
 6955TIP3   OH245059   5.976   3.176   1.434
 6955TIP3    H145060   5.975   3.162   1.531
 6955TIP3    H245061   5.886   3.148   1.410
 6956TIP3   OH245062   6.249   2.040   1.043
 6956TIP3    H145063   6.162   2.036   1.002
 6956TIP3    H245064   6.228   2.093   1.123
 6957TIP3   OH245065   6.720   1.981   1.390
 6957TIP3    H145066   6.757   1.940   1.471
 6957TIP3    H245067   6.623   1.975   1.404
 6958TIP3   OH245068   7.010   2.365   1.464
 6958TIP3    H145069   6.955   2.331   1.538
 6958TIP3    H245070   6.998   2.461   1.473
 6959TIP3   OH245071   7.104   2.901   0.129
 6959TIP3    H145072   7.062   2.914   0.041
 6959TIP3    H245073   7.197   2.902   0.103
 6960TIP3   OH245074   6.679   2.265   0.129
 6960TIP3    H145075   6.631   2.227   0.207
 6960TIP3    H245076   6.621   2.235   0.058
 6961TIP3   OH245077   6.259   2.505   1.185
 6961TIP3    H145078   6.182   2.512   1.245
 6961TIP3    H245079   6.261   2.597   1.150
 6962TIP3   OH245080   6.234   2.510   0.671
 6962TIP3    H145081   6.138   2.507   0.649
 6962TIP3    H245082   6.275   2.493   0.582
 6963TIP3   OH245083   6.819   2.616   0.567
 6963TIP3    H145084   6.780   2.692   0.518
 6963TIP3    H245085   6.874   2.576   0.497
 6964TIP3   OH245086   6.675   2.611   1.675
 6964TIP3    H145087   6.633   2.527   1.705
 6964TIP3    H245088   6.742   2.624   1.744
 6965TIP3   OH245089   6.897   2.562   0.850
 6965TIP3    H145090   6.883   2.643   0.797
 6965TIP3    H245091   6.897   2.498   0.778
 6966TIP3   OH245092   6.020   2.528   1.306
 6966TIP3    H145093   6.040   2.578   1.386
 6966TIP3    H245094   5.994   2.441   1.343
 6967TIP3   OH245095   6.339   2.297   0.053
 6967TIP3    H145096   6.301   2.246   0.127
 6967TIP3    H245097   6.269   2.298  -0.014
 6968TIP3   OH245098   5.691   2.247   0.766
 6968TIP3    H145099   5.759   2.247   0.835
 6968TIP3    H245100   5.742   2.245   0.684
 6969TIP3   OH245101   5.802   2.317   0.285
 6969TIP3    H145102   5.883   2.360   0.253
 6969TIP3    H245103   5.743   2.395   0.288
 6970TIP3   OH245104   6.819   2.700   1.281
 6970TIP3    H145105   6.869   2.633   1.228
 6970TIP3    H245106   6.758   2.643   1.331
 6971TIP3   OH245107   6.509   2.293   0.774
 6971TIP3    H145108   6.415   2.282   0.799
 6971TIP3    H245109   6.557   2.231   0.833
 6972TIP3   OH245110   5.962   2.435   0.666
 6972TIP3    H145111   5.886   2.462   0.609
 6972TIP3    H245112   5.991   2.349   0.629
 6973TIP3   OH245113   6.332   2.451   0.429
 6973TIP3    H145114   6.427   2.469   0.426
 6973TIP3    H245115   6.295   2.519   0.368
 6974TIP3   OH245116   6.937   2.210   1.092
 6974TIP3    H145117   6.868   2.198   1.161
 6974TIP3    H245118   6.894   2.179   1.011
 6975TIP3   OH245119   6.207   2.580   0.205
 6975TIP3    H145120   6.121   2.555   0.167
 6975TIP3    H245121   6.269   2.530   0.148
 6976TIP3   OH245122   7.257   3.757   1.746
 6976TIP3    H145123   7.301   3.787   1.664
 6976TIP3    H245124   7.330   3.761   1.809
 6977TIP3   OH245125   5.999   3.046   1.697
 6977TIP3    H145126   6.063   3.083   1.760
 6977TIP3    H245127   5.922   3.027   1.755
 6978TIP3   OH245128   6.613   2.559   0.946
 6978TIP3    H145129   6.691   2.534   0.893
 6978TIP3    H245130   6.594   2.476   0.992
 6979TIP3   OH245131   6.069   2.164   0.596
 6979TIP3    H145132   6.007   2.100   0.638
 6979TIP3    H245133   6.115   2.102   0.538
 6980TIP3   OH245134   6.497   2.385   1.192
 6980TIP3    H145135   6.415   2.440   1.195
 6980TIP3    H245136   6.559   2.437   1.244
 6981TIP3   OH245137   6.544   3.047   0.392
 6981TIP3    H145138   6.473   2.990   0.356
 6981TIP3    H245139   6.508   3.060   0.483
 6982TIP3   OH245140   7.266   2.984   1.231
 6982TIP3    H145141   7.325   3.020   1.162
 6982TIP3    H245142   7.185   2.962   1.179
 6983TIP3   OH245143   6.933   2.318   0.176
 6983TIP3    H145144   6.837   2.309   0.187
 6983TIP3    H245145   6.951   2.393   0.237
 6984TIP3   OH245146   6.690   3.059   1.513
 6984TIP3    H145147   6.629   3.034   1.585
 6984TIP3    H245148   6.677   3.155   1.511
 6985TIP3   OH245149   6.999   2.508   0.350
 6985TIP3    H145150   7.088   2.495   0.388
 6985TIP3    H245151   7.004   2.599   0.316
 6986TIP3   OH245152   6.067   2.981   0.930
 6986TIP3    H145153   6.122   2.961   0.851
 6986TIP3    H245154   6.079   2.902   0.984
 6987TIP3   OH245155   6.756   3.186   0.314
 6987TIP3    H145156   6.712   3.273   0.314
 6987TIP3    H245157   6.678   3.127   0.323
 6988TIP3   OH245158   5.759   2.796   1.478
 6988TIP3    H145159   5.741   2.740   1.557
 6988TIP3    H245160   5.703   2.752   1.411
 6989TIP3   OH245161   6.451   2.761   1.660
 6989TIP3    H145162   6.407   2.713   1.589
 6989TIP3    H245163   6.540   2.719   1.661
 6990TIP3   OH245164   6.956   3.297   1.506
 6990TIP3    H145165   6.873   3.283   1.458
 6990TIP3    H245166   6.921   3.326   1.592
 6991TIP3   OH245167   7.491   2.495   0.341
 6991TIP3    H145168   7.425   2.465   0.275
 6991TIP3    H245169   7.496   2.588   0.313
 6992TIP3   OH245170   7.484   3.085   1.592
 6992TIP3    H145171   7.396   3.112   1.560
 6992TIP3    H245172   7.537   3.079   1.509
 6993TIP3   OH245173   7.335   3.357   0.383
 6993TIP3    H145174   7.247   3.319   0.372
 6993TIP3    H245175   7.379   3.341   0.297
 6994TIP3   OH245176   7.055   2.896   1.064
 6994TIP3    H145177   6.963   2.892   1.036
 6994TIP3    H245178   7.089   2.819   1.013
 6995TIP3   OH245179   6.284   3.306   0.715
 6995TIP3    H145180   6.309   3.400   0.702
 6995TIP3    H245181   6.196   3.305   0.674
 6996TIP3   OH245182   5.892   2.767   0.109
 6996TIP3    H145183   5.949   2.825   0.162
 6996TIP3    H245184   5.805   2.773   0.156
 6997TIP3   OH245185   6.435   3.076   0.650
 6997TIP3    H145186   6.378   3.156   0.657
 6997TIP3    H245187   6.385   3.010   0.701
 6998TIP3   OH245188   6.486   3.489   1.324
 6998TIP3    H145189   6.541   3.557   1.283
 6998TIP3    H245190   6.547   3.448   1.388
 6999TIP3   OH245191   6.308   3.559   0.588
 6999TIP3    H145192   6.214   3.570   0.613
 6999TIP3    H245193   6.341   3.649   0.606
 7000TIP3   OH245194   6.804   3.083   1.252
 7000TIP3    H145195   6.757   3.059   1.336
 7000TIP3    H245196   6.849   2.999   1.231
 7001TIP3   OH245197   7.069   3.210   0.152
 7001TIP3    H145198   7.107   3.160   0.227
 7001TIP3    H245199   6.979   3.177   0.156
 7002TIP3   OH245200   7.108   3.543   1.495
 7002TIP3    H145201   7.030   3.484   1.490
 7002TIP3    H245202   7.106   3.593   1.410
 7003TIP3   OH245203   7.537   3.643   0.151
 7003TIP3    H145204   7.604   3.714   0.152
 7003TIP3    H245205   7.459   3.691   0.187
 7004TIP3   OH245206   5.948   2.282   1.410
 7004TIP3    H145207   5.866   2.335   1.417
 7004TIP3    H245208   5.920   2.199   1.452
 7005TIP3   OH245209   7.157   3.071   0.366
 7005TIP3    H145210   7.126   2.983   0.393
 7005TIP3    H245211   7.254   3.059   0.371
 7006TIP3   OH245212   5.889   3.460   1.269
 7006TIP3    H145213   5.959   3.393   1.270
 7006TIP3    H245214   5.909   3.503   1.355
 7007TIP3   OH245215   6.333   3.249   0.256
 7007TIP3    H145216   6.416   3.214   0.290
 7007TIP3    H245217   6.340   3.344   0.285
 7008TIP3   OH245218   6.004   2.970   0.304
 7008TIP3    H145219   5.915   3.004   0.326
 7008TIP3    H245220   6.046   3.052   0.272
 7009TIP3   OH245221   6.793   2.249   1.355
 7009TIP3    H145222   6.886   2.261   1.380
 7009TIP3    H245223   6.775   2.156   1.381
 7010TIP3   OH245224   6.870   2.192   0.464
 7010TIP3    H145225   6.894   2.252   0.393
 7010TIP3    H245226   6.932   2.219   0.536
 7011TIP3   OH245227   6.632   3.427   0.262
 7011TIP3    H145228   6.561   3.434   0.328
 7011TIP3    H245229   6.670   3.516   0.264
 7012TIP3   OH245230   6.636   2.392   0.551
 7012TIP3    H145231   6.673   2.480   0.567
 7012TIP3    H245232   6.594   2.367   0.636
 7013TIP3   OH245233   6.682   2.502   1.425
 7013TIP3    H145234   6.686   2.537   1.517
 7013TIP3    H245235   6.723   2.413   1.432
 7014TIP3   OH245236   6.661   2.068   0.583
 7014TIP3    H145237   6.626   2.135   0.644
 7014TIP3    H245238   6.746   2.112   0.555
 7015TIP3   OH245239   6.371   3.500   0.334
 7015TIP3    H145240   6.396   3.582   0.285
 7015TIP3    H245241   6.344   3.536   0.421
 7016TIP3   OH245242   6.243   2.197   0.302
 7016TIP3    H145243   6.237   2.276   0.358
 7016TIP3    H245244   6.332   2.168   0.325
 7017TIP3   OH245245   7.236   2.276   1.565
 7017TIP3    H145246   7.153   2.292   1.513
 7017TIP3    H245247   7.305   2.290   1.497
 7018TIP3   OH245248   7.129   2.684   0.916
 7018TIP3    H145249   7.048   2.630   0.908
 7018TIP3    H245250   7.181   2.620   0.972
 7019TIP3   OH245251   6.078   3.206   0.196
 7019TIP3    H145252   6.164   3.225   0.242
 7019TIP3    H245253   6.115   3.180   0.110
 7020TIP3   OH245254   5.925   2.504   0.133
 7020TIP3    H145255   5.918   2.601   0.136
 7020TIP3    H245256   5.854   2.480   0.070
 7021TIP3   OH245257   7.271   3.580   1.083
 7021TIP3    H145258   7.253   3.652   1.019
 7021TIP3    H245259   7.367   3.584   1.094
 7022TIP3   OH245260   5.985   1.984   0.985
 7022TIP3    H145261   5.986   1.973   0.887
 7022TIP3    H245262   5.957   1.895   1.012
 7023TIP3   OH245263   5.844   3.368   0.591
 7023TIP3    H145264   5.768   3.429   0.591
 7023TIP3    H245265   5.885   3.398   0.509
 7024TIP3   OH245266   5.770   3.658   1.705
 7024TIP3    H145267   5.863   3.654   1.675
 7024TIP3    H245268   5.745   3.564   1.690
 7025TIP3   OH245269   6.269   3.535   1.864
 7025TIP3    H145270   6.352   3.486   1.872
 7025TIP3    H245271   6.234   3.494   1.782
 7026TIP3   OH245272   6.683   3.457  -0.024
 7026TIP3    H145273   6.628   3.401   0.032
 7026TIP3    H245274   6.770   3.441   0.017
 7027TIP3   OH245275   6.895   3.411   1.751
 7027TIP3    H145276   6.866   3.320   1.777
 7027TIP3    H245277   6.985   3.411   1.790
 7028TIP3   OH245278   7.046   3.460   0.067
 7028TIP3    H145279   7.068   3.370   0.100
 7028TIP3    H245280   7.129   3.494   0.025
 7029TIP3   OH245281   5.758   3.024   1.819
 7029TIP3    H145282   5.723   2.934   1.823
 7029TIP3    H245283   5.715   3.056   1.736
 7030TIP3   OH245284   6.247   3.027   0.041
 7030TIP3    H145285   6.219   2.986   0.124
 7030TIP3    H245286   6.340   3.044   0.062
 7031TIP3   OH245287   6.462   3.029   1.698
 7031TIP3    H145288   6.421   3.082   1.625
 7031TIP3    H245289   6.450   2.934   1.670
 7032TIP3   OH245290   7.031   2.988   1.503
 7032TIP3    H145291   7.119   3.031   1.515
 7032TIP3    H245292   6.975   3.065   1.519
 7033TIP3   OH245293   5.848   2.728   1.784
 7033TIP3    H145294   5.929   2.679   1.802
 7033TIP3    H245295   5.805   2.735   1.871
 7034TIP3   OH245296   6.352   2.868   0.291
 7034TIP3    H145297   6.288   2.809   0.337
 7034TIP3    H245298   6.393   2.807   0.227
 7035TIP3   OH245299   6.267   2.643   1.430
 7035TIP3    H145300   6.198   2.711   1.446
 7035TIP3    H245301   6.337   2.695   1.386
 7036TIP3   OH245302   6.493   2.699   0.087
 7036TIP3    H145303   6.515   2.670  -0.004
 7036TIP3    H245304   6.583   2.694   0.129
 7037TIP3   OH245305   6.778   2.910   1.845
 7037TIP3    H145306   6.858   2.884   1.797
 7037TIP3    H245307   6.762   2.828   1.897
 7038TIP3   OH245308   7.345   2.880  10.004
 7038TIP3    H145309   7.404   2.807   9.981
 7038TIP3    H245310   7.399   2.953   9.967
 7039TIP3   OH245311   6.319   2.419   1.560
 7039TIP3    H145312   6.337   2.350   1.494
 7039TIP3    H245313   6.310   2.499   1.502
 7040TIP3   OH245314   6.364   2.209   1.356
 7040TIP3    H145315   6.416   2.260   1.290
 7040TIP3    H245316   6.274   2.209   1.315
 7041TIP3   OH245317   6.482   2.796   1.352
 7041TIP3    H145318   6.571   2.827   1.330
 7041TIP3    H245319   6.428   2.865   1.308
 7042TIP3   OH245320   6.986   2.519   1.833
 7042TIP3    H145321   7.009   2.430   1.803
 7042TIP3    H245322   7.070   2.564   1.811
 7043TIP3   OH245323   7.060   2.836   1.719
 7043TIP3    H145324   7.021   2.874   1.637
 7043TIP3    H245325   7.153   2.821   1.690
 7044TIP3   OH245326   6.167   2.475   1.777
 7044TIP3    H145327   6.083   2.428   1.759
 7044TIP3    H245328   6.224   2.450   1.701
 7045TIP3   OH245329   6.448   1.952   1.365
 7045TIP3    H145330   6.423   2.047   1.372
 7045TIP3    H245331   6.370   1.918   1.319
 7046TIP3   OH245332   6.559   2.381   1.755
 7046TIP3    H145333   6.512   2.367   1.839
 7046TIP3    H245334   6.486   2.372   1.692
 7047TIP3   OH245335   6.835   2.283   1.680
 7047TIP3    H145336   6.742   2.303   1.699
 7047TIP3    H245337   6.867   2.254   1.768
 7048TIP3   OH245338   7.007   2.180   1.864
 7048TIP3    H145339   6.991   2.083   1.859
 7048TIP3    H245340   6.987   2.201   1.958
 7049TIP3   OH245341   5.951   2.297   1.784
 7049TIP3    H145342   5.944   2.216   1.729
 7049TIP3    H245343   5.944   2.258   1.874
 7050TIP3   OH245344   6.405   1.873   1.645
 7050TIP3    H145345   6.476   1.808   1.662
 7050TIP3    H245346   6.412   1.881   1.548
 7051TIP3   OH245347   6.473   2.025   1.894
 7051TIP3    H145348   6.453   1.982   1.808
 7051TIP3    H245349   6.446   2.116   1.874
 7052TIP3   OH245350   6.407   3.722   0.195
 7052TIP3    H145351   6.503   3.731   0.207
 7052TIP3    H245352   6.385   3.792   0.133
 7053TIP3   OH245353   5.811   3.229   0.154
 7053TIP3    H145354   5.908   3.218   0.172
 7053TIP3    H245355   5.795   3.163   0.085
 7054TIP3   OH245356   5.673   3.722   0.626
 7054TIP3    H145357   5.595   3.670   0.595
 7054TIP3    H245358   5.706   3.664   0.698
 7055TIP3   OH245359   5.761   3.555   0.811
 7055TIP3    H145360   5.696   3.491   0.843
 7055TIP3    H245361   5.820   3.565   0.889
 7056TIP3   OH245362   7.562   3.596   1.113
 7056TIP3    H145363   7.571   3.604   1.210
 7056TIP3    H245364   7.558   3.690   1.089
 7057TIP3   OH245365   7.471   3.576   1.402
 7057TIP3    H145366   7.417   3.510   1.353
 7057TIP3    H245367   7.496   3.520   1.479
 7058TIP3   OH245368   7.318   3.171   1.888
 7058TIP3    H145369   7.231   3.179   1.932
 7058TIP3    H245370   7.360   3.254   1.914
 7059TIP3   OH245371   7.440   2.998   0.386
 7059TIP3    H145372   7.528   3.037   0.394
 7059TIP3    H245373   7.444   2.929   0.456
 7060TIP3   OH245374   7.482   2.794   0.586
 7060TIP3    H145375   7.387   2.778   0.606
 7060TIP3    H245376   7.519   2.792   0.676
 7061TIP3   OH245377   7.493   3.055   1.106
 7061TIP3    H145378   7.572   3.035   1.053
 7061TIP3    H245379   7.499   3.154   1.101
 7062TIP3   OH245380   7.314   3.368   1.324
 7062TIP3    H145381   7.234   3.400   1.369
 7062TIP3    H245382   7.283   3.351   1.233
 7063TIP3   OH245383   7.498   2.798   0.211
 7063TIP3    H145384   7.428   2.832   0.154
 7063TIP3    H245385   7.501   2.871   0.276
 7064TIP3   OH245386   7.344   2.460   0.131
 7064TIP3    H145387   7.380   2.538   0.085
 7064TIP3    H245388   7.355   2.392   0.064
 7065TIP3   OH245389   7.255   2.694   0.683
 7065TIP3    H145390   7.231   2.604   0.655
 7065TIP3    H245391   7.224   2.696   0.776
 7066TIP3   OH245392   5.751   2.904   1.090
 7066TIP3    H145393   5.759   2.872   0.997
 7066TIP3    H245394   5.838   2.872   1.124
 7067TIP3   OH245395   7.337   2.849   1.626
 7067TIP3    H145396   7.411   2.788   1.606
 7067TIP3    H245397   7.383   2.934   1.614
 7068TIP3   OH245398   7.484   2.626   1.652
 7068TIP3    H145399   7.386   2.627   1.658
 7068TIP3    H245400   7.504   2.536   1.689
 7069TIP3   OH245401   7.256   2.198  -0.012
 7069TIP3    H145402   7.327   2.167   0.048
 7069TIP3    H245403   7.189   2.232   0.049
 7070TIP3   OH245404   7.236   2.449   0.503
 7070TIP3    H145405   7.234   2.352   0.516
 7070TIP3    H245406   7.332   2.464   0.505
 7071TIP3   OH245407   7.251   2.503   1.062
 7071TIP3    H145408   7.348   2.488   1.045
 7071TIP3    H245409   7.248   2.488   1.159
 7072TIP3   OH245410   7.287   2.539   1.345
 7072TIP3    H145411   7.200   2.580   1.362
 7072TIP3    H245412   7.341   2.618   1.325
 7073TIP3   OH245413   5.717   2.367   1.669
 7073TIP3    H145414   5.807   2.355   1.707
 7073TIP3    H245415   5.664   2.307   1.725
 7074TIP3   OH245416   7.511   1.911   1.844
 7074TIP3    H145417   7.561   1.861   1.778
 7074TIP3    H245418   7.498   1.994   1.792
 7075TIP3   OH245419   7.263   2.184   0.510
 7075TIP3    H145420   7.296   2.147   0.595
 7075TIP3    H245421   7.218   2.105   0.476
 7076TIP3   OH245422   5.847   2.223   1.037
 7076TIP3    H145423   5.890   2.136   1.031
 7076TIP3    H245424   5.916   2.287   1.015
 7077TIP3   OH245425   5.695   2.532   1.077
 7077TIP3    H145426   5.750   2.513   0.998
 7077TIP3    H245427   5.739   2.613   1.106
 7078TIP3   OH245428   7.458   2.136   1.709
 7078TIP3    H145429   7.378   2.184   1.743
 7078TIP3    H245430   7.424   2.107   1.623
 7079TIP3   OH245431   7.503   2.136   0.146
 7079TIP3    H145432   7.561   2.061   0.125
 7079TIP3    H245433   7.550   2.209   0.103
 7080TIP3   OH245434   5.710   2.154   0.482
 7080TIP3    H145435   5.618   2.183   0.488
 7080TIP3    H245436   5.735   2.195   0.397
 7081TIP3   OH245437   7.182   3.622   0.674
 7081TIP3    H145438   7.241   3.608   0.597
 7081TIP3    H245439   7.237   3.675   0.732
 7082TIP3   OH245440   5.719   2.013   1.313
 7082TIP3    H145441   5.645   1.962   1.350
 7082TIP3    H245442   5.674   2.079   1.256
 7083TIP3   OH245443   5.949   3.332   1.720
 7083TIP3    H145444   5.892   3.395   1.675
 7083TIP3    H245445   5.913   3.334   1.809
 7084TIP3   OH245446   6.215   3.470   1.350
 7084TIP3    H145447   6.205   3.567   1.359
 7084TIP3    H245448   6.311   3.462   1.370
 7085TIP3   OH245449   6.638   3.604   1.669
 7085TIP3    H145450   6.658   3.589   1.764
 7085TIP3    H245451   6.729   3.623   1.635
 7086TIP3   OH245452   6.865   3.727   1.587
 7086TIP3    H145453   6.941   3.694   1.539
 7086TIP3    H245454   6.902   3.794   1.646
 7087TIP3   OH245455   7.346   1.968   1.516
 7087TIP3    H145456   7.270   2.007   1.470
 7087TIP3    H245457   7.355   1.882   1.470
 7088TIP3   OH245458   5.966   3.785   1.291
 7088TIP3    H145459   5.888   3.843   1.289
 7088TIP3    H245460   5.967   3.749   1.382
 7089TIP3   OH245461   6.224   3.735   1.254
 7089TIP3    H145462   6.128   3.747   1.278
 7089TIP3    H245463   6.223   3.791   1.175
 7090TIP3   OH245464   6.679   3.693   1.171
 7090TIP3    H145465   6.615   3.738   1.114
 7090TIP3    H245466   6.697   3.762   1.238
 7091TIP3   OH245467   6.867   3.566   1.327
 7091TIP3    H145468   6.803   3.594   1.258
 7091TIP3    H245469   6.941   3.627   1.305
 7092TIP3   OH245470   7.123   3.696   1.280
 7092TIP3    H145471   7.132   3.786   1.247
 7092TIP3    H245472   7.179   3.646   1.217
 7093TIP3   OH245473   5.913   3.608   1.034
 7093TIP3    H145474   5.895   3.559   1.118
 7093TIP3    H245475   6.006   3.579   1.019
 7094TIP3   OH245476   6.137   3.514   0.930
 7094TIP3    H145477   6.130   3.417   0.942
 7094TIP3    H245478   6.228   3.530   0.963
 7095TIP3   OH245479   6.369   3.525   1.050
 7095TIP3    H145480   6.409   3.438   1.035
 7095TIP3    H245481   6.352   3.521   1.146
 7096TIP3   OH245482   6.692   2.099   0.867
 7096TIP3    H145483   6.627   2.059   0.927
 7096TIP3    H245484   6.752   2.024   0.854
 7097TIP3   OH245485   7.222   1.923   0.933
 7097TIP3    H145486   7.268   1.980   0.868
 7097TIP3    H245487   7.130   1.945   0.909
 7098TIP3   OH245488   7.356   2.052   0.733
 7098TIP3    H145489   7.425   1.986   0.709
 7098TIP3    H245490   7.415   2.123   0.767
 7099TIP3   OH245491   5.967   1.942   0.707
 7099TIP3    H145492   5.883   1.930   0.660
 7099TIP3    H245493   6.004   1.851   0.699
 7100TIP3   OH245494   5.823   1.940   0.264
 7100TIP3    H145495   5.883   2.005   0.221
 7100TIP3    H245496   5.782   1.992   0.336
 7101TIP3   OH245497   6.397   1.900   0.685
 7101TIP3    H145498   6.469   1.942   0.638
 7101TIP3    H245499   6.409   1.933   0.775
 7102TIP3   OH245500   6.963   1.979   0.847
 7102TIP3    H145501   6.949   1.986   0.752
 7102TIP3    H245502   6.921   1.890   0.866
 7103TIP3   OH245503   7.110   1.954   0.412
 7103TIP3    H145504   7.035   2.009   0.443
 7103TIP3    H245505   7.079   1.864   0.434
 7104TIP3   OH245506   5.823   3.542   0.378
 7104TIP3    H145507   5.738   3.544   0.331
 7104TIP3    H245508   5.844   3.636   0.375
 7105TIP3   OH245509   6.010   2.077   0.124
 7105TIP3    H145510   6.082   2.013   0.136
 7105TIP3    H245511   6.040   2.153   0.174
 7106TIP3   OH245512   6.557   2.187   0.369
 7106TIP3    H145513   6.609   2.137   0.436
 7106TIP3    H245514   6.574   2.276   0.405
 7107TIP3   OH245515   6.699   3.681   0.174
 7107TIP3    H145516   6.797   3.695   0.165
 7107TIP3    H245517   6.683   3.632   0.092
 7108TIP3   OH245518   7.365   3.616   0.474
 7108TIP3    H145519   7.361   3.522   0.445
 7108TIP3    H245520   7.354   3.662   0.390
 7109TIP3   OH245521   5.936   2.036   1.661
 7109TIP3    H145522   5.884   1.953   1.657
 7109TIP3    H245523   6.016   2.008   1.711
 7110TIP3   OH245524   6.149   1.946   1.820
 7110TIP3    H145525   6.241   1.950   1.788
 7110TIP3    H245526   6.154   1.859   1.862
 7111TIP3   OH245527   6.038   3.664   0.132
 7111TIP3    H145528   5.974   3.691   0.201
 7111TIP3    H245529   6.082   3.586   0.169
 7112TIP3   OH245530   6.975   1.903   1.844
 7112TIP3    H145531   6.982   1.849   1.926
 7112TIP3    H245532   7.061   1.881   1.803
 7113TIP3   OH245533   7.294   3.487   1.677
 7113TIP3    H145534   7.243   3.496   1.593
 7113TIP3    H245535   7.279   3.576   1.713
 7114TIP3   OH245536   7.574   2.535   0.580
 7114TIP3    H145537   7.553   2.631   0.578
 7114TIP3    H245538   7.555   2.511   0.486
 7115TIP3   OH245539   7.590   3.020   1.355
 7115TIP3    H145540   7.542   3.016   1.270
 7115TIP3    H245541   7.585   2.928   1.388
 7116TIP3   OH245542   7.549   3.308   1.032
 7116TIP3    H145543   7.638   3.306   0.990
 7116TIP3    H245544   7.561   3.385   1.090
 7117TIP3   OH245545   7.541   2.243   0.736
 7117TIP3    H145546   7.629   2.281   0.753
 7117TIP3    H245547   7.539   2.250   0.639
 7118TIP3   OH245548   7.601   2.761   1.453
 7118TIP3    H145549   7.579   2.701   1.528
 7118TIP3    H245550   7.526   2.741   1.393
 7119TIP3   OH245551   7.647   2.956   1.766
 7119TIP3    H145552   7.591   2.886   1.804
 7119TIP3    H245553   7.582   3.008   1.713
 7120TIP3   OH245554   7.513   3.738   0.664
 7120TIP3    H145555   7.456   3.700   0.594
 7120TIP3    H245556   7.531   3.656   0.716
 7121TIP3   OH245557   7.561   3.515   0.806
 7121TIP3    H145558   7.510   3.436   0.827
 7121TIP3    H245559   7.602   3.534   0.893
 7122TIP3   OH245560   7.630   2.801   1.099
 7122TIP3    H145561   7.608   2.828   1.009
 7122TIP3    H245562   7.708   2.859   1.115
 7123TIP3   OH245563   7.553   2.381   1.717
 7123TIP3    H145564   7.650   2.386   1.704
 7123TIP3    H245565   7.537   2.284   1.717
 7124TIP3   OH245566   7.513   2.522   1.029
 7124TIP3    H145567   7.609   2.499   1.039
 7124TIP3    H245568   7.524   2.617   1.034
 7125TIP3   OH245569   7.517   2.185   0.428
 7125TIP3    H145570   7.421   2.202   0.442
 7125TIP3    H245571   7.523   2.188   0.331
 7126TIP3   OH245572   7.472   1.990   1.272
 7126TIP3    H145573   7.462   2.003   1.368
 7126TIP3    H245574   7.436   2.072   1.234
 7127TIP3   OH245575   1.231   4.779   0.688
 7127TIP3    H145576   1.225   4.868   0.728
 7127TIP3    H245577   1.161   4.786   0.621
 7128TIP3   OH245578   1.109   4.673   1.033
 7128TIP3    H145579   1.116   4.628   1.121
 7128TIP3    H245580   1.046   4.615   0.987
 7129TIP3   OH245581   0.341   4.666   1.194
 7129TIP3    H145582   0.327   4.579   1.235
 7129TIP3    H245583   0.399   4.704   1.264
 7130TIP3   OH245584   1.419   4.972   0.878
 7130TIP3    H145585   1.399   4.900   0.940
 7130TIP3    H245586   1.436   5.046   0.939
 7131TIP3   OH245587   0.350   5.111   0.979
 7131TIP3    H145588   0.330   5.017   0.958
 7131TIP3    H245589   0.444   5.109   0.999
 7132TIP3   OH245590   0.142   4.443   0.515
 7132TIP3    H145591   0.139   4.517   0.576
 7132TIP3    H245592   0.045   4.423   0.514
 7133TIP3   OH245593   0.143   4.693   0.817
 7133TIP3    H145594   0.162   4.602   0.848
 7133TIP3    H245595   0.071   4.684   0.754
 7134TIP3   OH245596   1.186   5.525   0.904
 7134TIP3    H145597   1.252   5.471   0.854
 7134TIP3    H245598   1.136   5.451   0.942
 7135TIP3   OH245599   0.926   4.972   1.096
 7135TIP3    H145600   0.950   4.898   1.038
 7135TIP3    H245601   1.012   4.989   1.141
 7136TIP3   OH245602   1.784   4.087   1.118
 7136TIP3    H145603   1.790   4.144   1.197
 7136TIP3    H245604   1.867   4.110   1.073
 7137TIP3   OH245605   1.304   4.387   1.138
 7137TIP3    H145606   1.315   4.290   1.152
 7137TIP3    H245607   1.268   4.386   1.048
 7138TIP3   OH245608   0.588   4.173   0.815
 7138TIP3    H145609   0.591   4.256   0.763
 7138TIP3    H245610   0.544   4.114   0.750
 7139TIP3   OH245611   1.325   4.186   0.666
 7139TIP3    H145612   1.375   4.162   0.747
 7139TIP3    H245613   1.379   4.259   0.633
 7140TIP3   OH245614   0.300   4.474   0.857
 7140TIP3    H145615   0.345   4.412   0.919
 7140TIP3    H245616   0.281   4.411   0.787
 7141TIP3   OH245617   0.728   4.590   0.848
 7141TIP3    H145618   0.811   4.546   0.875
 7141TIP3    H245619   0.681   4.514   0.809
 7142TIP3   OH245620   1.801   4.226   1.359
 7142TIP3    H145621   1.767   4.312   1.323
 7142TIP3    H245622   1.808   4.251   1.453
 7143TIP3   OH245623   0.472   4.093   1.222
 7143TIP3    H145624   0.442   4.134   1.138
 7143TIP3    H245625   0.412   4.136   1.285
 7144TIP3   OH245626   1.139   5.026   0.572
 7144TIP3    H145627   1.138   5.028   0.474
 7144TIP3    H245628   1.112   5.119   0.591
 7145TIP3   OH245629   0.716   4.857   1.223
 7145TIP3    H145630   0.653   4.925   1.253
 7145TIP3    H245631   0.782   4.913   1.176
 7146TIP3   OH245632   1.500   4.168   0.868
 7146TIP3    H145633   1.485   4.085   0.912
 7146TIP3    H245634   1.589   4.191   0.900
 7147TIP3   OH245635   0.410   4.283   1.007
 7147TIP3    H145636   0.470   4.337   1.064
 7147TIP3    H245637   0.474   4.250   0.941
 7148TIP3   OH245638   0.559   5.068   1.302
 7148TIP3    H145639   0.554   5.145   1.245
 7148TIP3    H245640   0.470   5.067   1.342
 7149TIP3   OH245641   0.122   4.989   0.420
 7149TIP3    H145642   0.114   5.030   0.331
 7149TIP3    H245643   0.148   5.064   0.476
 7150TIP3   OH245644   1.514   5.178   1.082
 7150TIP3    H145645   1.420   5.198   1.100
 7150TIP3    H245646   1.540   5.264   1.044
 7151TIP3   OH245647   1.495   4.031   1.199
 7151TIP3    H145648   1.417   4.065   1.149
 7151TIP3    H245649   1.568   4.056   1.140
 7152TIP3   OH245650   0.821   3.832   0.949
 7152TIP3    H145651   0.789   3.741   0.954
 7152TIP3    H245652   0.739   3.879   0.981
 7153TIP3   OH245653   1.344   5.360   0.754
 7153TIP3    H145654   1.357   5.277   0.703
 7153TIP3    H245655   1.429   5.404   0.732
 7154TIP3   OH245656   1.442   5.143   0.605
 7154TIP3    H145657   1.437   5.075   0.536
 7154TIP3    H245658   1.425   5.089   0.684
 7155TIP3   OH245659   1.608   5.011   1.473
 7155TIP3    H145660   1.633   4.938   1.411
 7155TIP3    H245661   1.610   5.086   1.411
 7156TIP3   OH245662   1.085   4.727   0.437
 7156TIP3    H145663   1.041   4.813   0.419
 7156TIP3    H245664   1.166   4.731   0.380
 7157TIP3   OH245665   1.109   4.574   0.141
 7157TIP3    H145666   1.180   4.617   0.194
 7157TIP3    H245667   1.151   4.486   0.127
 7158TIP3   OH245668   1.824   4.663   1.253
 7158TIP3    H145669   1.754   4.731   1.253
 7158TIP3    H245670   1.881   4.699   1.181
 7159TIP3   OH245671   1.438   4.697   0.534
 7159TIP3    H145672   1.366   4.730   0.592
 7159TIP3    H245673   1.502   4.662   0.601
 7160TIP3   OH245674   1.442   4.562   1.427
 7160TIP3    H145675   1.406   4.643   1.466
 7160TIP3    H245676   1.375   4.547   1.358
 7161TIP3   OH245677   0.603   4.759   0.692
 7161TIP3    H145678   0.623   4.761   0.597
 7161TIP3    H245679   0.674   4.701   0.731
 7162TIP3   OH245680   0.699   5.089   0.973
 7162TIP3    H145681   0.721   5.103   0.879
 7162TIP3    H245682   0.783   5.057   1.012
 7163TIP3   OH245683   0.621   4.648   1.084
 7163TIP3    H145684   0.672   4.652   1.000
 7163TIP3    H245685   0.659   4.720   1.139
 7164TIP3   OH245686   1.256   5.231   1.147
 7164TIP3    H145687   1.248   5.296   1.219
 7164TIP3    H245688   1.213   5.153   1.189
 7165TIP3   OH245689   0.705   5.114   1.537
 7165TIP3    H145690   0.627   5.147   1.586
 7165TIP3    H245691   0.665   5.096   1.450
 7166TIP3   OH245692   1.309   4.662   0.303
 7166TIP3    H145693   1.362   4.671   0.387
 7166TIP3    H245694   1.367   4.709   0.238
 7167TIP3   OH245695   0.444   4.727   1.431
 7167TIP3    H145696   0.440   4.802   1.495
 7167TIP3    H245697   0.359   4.686   1.453
 7168TIP3   OH245698   1.073   5.309   0.581
 7168TIP3    H145699   1.107   5.355   0.658
 7168TIP3    H245700   1.033   5.379   0.528
 7169TIP3   OH245701   0.517   5.277   1.641
 7169TIP3    H145702   0.508   5.313   1.550
 7169TIP3    H245703   0.424   5.268   1.669
 7170TIP3   OH245704   1.701   3.799   0.310
 7170TIP3    H145705   1.606   3.799   0.339
 7170TIP3    H245706   1.713   3.893   0.293
 7171TIP3   OH245707   0.414   4.663   0.511
 7171TIP3    H145708   0.414   4.730   0.438
 7171TIP3    H245709   0.421   4.579   0.464
 7172TIP3   OH245710   1.785   5.273   0.130
 7172TIP3    H145711   1.813   5.367   0.143
 7172TIP3    H245712   1.867   5.223   0.150
 7173TIP3   OH245713   0.166   4.907   1.377
 7173TIP3    H145714   0.069   4.910   1.364
 7173TIP3    H245715   0.185   4.812   1.366
 7174TIP3   OH245716   0.123   5.255   1.006
 7174TIP3    H145717   0.202   5.198   1.009
 7174TIP3    H245718   0.130   5.297   1.094
 7175TIP3   OH245719   1.888   5.267   1.628
 7175TIP3    H145720   1.870   5.176   1.601
 7175TIP3    H245721   1.799   5.290   1.664
 7176TIP3   OH245722   0.955   5.214   1.517
 7176TIP3    H145723   0.970   5.289   1.578
 7176TIP3    H245724   0.858   5.193   1.527
 7177TIP3   OH245725   1.007   5.576   0.456
 7177TIP3    H145726   1.032   5.606   0.368
 7177TIP3    H245727   1.017   5.660   0.507
 7178TIP3   OH245728   0.408   5.449   0.672
 7178TIP3    H145729   0.422   5.431   0.767
 7178TIP3    H245730   0.311   5.441   0.666
 7179TIP3   OH245731   1.303   5.575   0.210
 7179TIP3    H145732   1.355   5.498   0.177
 7179TIP3    H245733   1.326   5.574   0.305
 7180TIP3   OH245734   1.282   5.512   0.485
 7180TIP3    H145735   1.186   5.506   0.490
 7180TIP3    H245736   1.308   5.425   0.521
 7181TIP3   OH245737   1.563   4.405   1.663
 7181TIP3    H145738   1.508   4.448   1.593
 7181TIP3    H245739   1.568   4.314   1.627
 7182TIP3   OH245740   0.333   5.092   1.456
 7182TIP3    H145741   0.349   5.036   1.535
 7182TIP3    H245742   0.259   5.040   1.416
 7183TIP3   OH245743   0.594   3.937   1.041
 7183TIP3    H145744   0.501   3.938   1.009
 7183TIP3    H245745   0.581   3.984   1.126
 7184TIP3   OH245746   1.077   3.868   1.362
 7184TIP3    H145747   1.107   3.806   1.431
 7184TIP3    H245748   0.979   3.869   1.374
 7185TIP3   OH245749   1.319   4.282   1.501
 7185TIP3    H145750   1.271   4.235   1.574
 7185TIP3    H245751   1.261   4.359   1.488
 7186TIP3   OH245752   1.474   4.776   0.139
 7186TIP3    H145753   1.434   4.779   0.048
 7186TIP3    H245754   1.566   4.798   0.112
 7187TIP3   OH245755   1.019   4.149   0.146
 7187TIP3    H145756   0.965   4.117   0.222
 7187TIP3    H245757   0.972   4.107   0.073
 7188TIP3   OH245758   0.588   4.400   1.172
 7188TIP3    H145759   0.516   4.408   1.238
 7188TIP3    H245760   0.605   4.495   1.151
 7189TIP3   OH245761   0.583   4.413   0.700
 7189TIP3    H145762   0.495   4.377   0.670
 7189TIP3    H245763   0.625   4.422   0.612
 7190TIP3   OH245764   1.158   4.501   0.567
 7190TIP3    H145765   1.122   4.581   0.522
 7190TIP3    H245766   1.214   4.465   0.496
 7191TIP3   OH245767   1.029   4.504   1.673
 7191TIP3    H145768   0.982   4.425   1.705
 7191TIP3    H245769   1.105   4.506   1.733
 7192TIP3   OH245770   1.243   4.429   0.833
 7192TIP3    H145771   1.236   4.515   0.787
 7192TIP3    H245772   1.239   4.371   0.755
 7193TIP3   OH245773   0.348   4.401   1.315
 7193TIP3    H145774   0.371   4.441   1.400
 7193TIP3    H245775   0.309   4.315   1.344
 7194TIP3   OH245776   0.693   4.147   0.028
 7194TIP3    H145777   0.665   4.127   0.118
 7194TIP3    H245778   0.630   4.216   0.003
 7195TIP3   OH245779   0.120   4.211   0.758
 7195TIP3    H145780   0.155   4.152   0.827
 7195TIP3    H245781   0.103   4.152   0.683
 7196TIP3   OH245782   0.114   4.210   0.271
 7196TIP3    H145783   0.186   4.260   0.230
 7196TIP3    H245784   0.047   4.279   0.281
 7197TIP3   OH245785   1.153   4.558   1.271
 7197TIP3    H145786   1.216   4.492   1.234
 7197TIP3    H245787   1.093   4.500   1.324
 7198TIP3   OH245788   0.867   4.185   0.783
 7198TIP3    H145789   0.773   4.185   0.807
 7198TIP3    H245790   0.907   4.131   0.854
 7199TIP3   OH245791   0.348   4.329   0.623
 7199TIP3    H145792   0.269   4.349   0.567
 7199TIP3    H245793   0.348   4.230   0.624
 7200TIP3   OH245794   0.671   4.372   0.437
 7200TIP3    H145795   0.767   4.354   0.437
 7200TIP3    H245796   0.655   4.398   0.343
 7201TIP3   OH245797   1.272   4.114   1.091
 7201TIP3    H145798   1.211   4.099   1.166
 7201TIP3    H245799   1.240   4.049   1.026
 7202TIP3   OH245800   0.631   4.424   0.163
 7202TIP3    H145801   0.537   4.431   0.142
 7202TIP3    H245802   0.674   4.491   0.107
 7203TIP3   OH245803   1.588   5.668   1.734
 7203TIP3    H145804   1.623   5.694   1.647
 7203TIP3    H245805   1.664   5.692   1.789
 7204TIP3   OH245806   0.430   4.916   1.627
 7204TIP3    H145807   0.500   4.928   1.694
 7204TIP3    H245808   0.352   4.904   1.683
 7205TIP3   OH245809   0.954   4.459   0.952
 7205TIP3    H145810   1.034   4.432   0.904
 7205TIP3    H245811   0.925   4.376   0.990
 7206TIP3   OH245812   0.410   4.073   0.619
 7206TIP3    H145813   0.358   3.999   0.658
 7206TIP3    H245814   0.420   4.043   0.527
 7207TIP3   OH245815   0.820   4.266   1.192
 7207TIP3    H145816   0.739   4.322   1.186
 7207TIP3    H245817   0.884   4.328   1.230
 7208TIP3   OH245818   0.899   4.924   0.381
 7208TIP3    H145819   0.823   4.871   0.351
 7208TIP3    H245820   0.865   4.948   0.471
 7209TIP3   OH245821   1.641   4.870   1.253
 7209TIP3    H145822   1.687   4.926   1.185
 7209TIP3    H245823   1.557   4.854   1.208
 7210TIP3   OH245824   1.271   4.190   0.197
 7210TIP3    H145825   1.173   4.194   0.186
 7210TIP3    H245826   1.292   4.279   0.234
 7211TIP3   OH245827   0.990   4.942   1.496
 7211TIP3    H145828   0.945   4.913   1.577
 7211TIP3    H245829   0.984   5.039   1.507
 7212TIP3   OH245830   1.345   4.402   0.341
 7212TIP3    H145831   1.424   4.384   0.395
 7212TIP3    H245832   1.359   4.494   0.312
 7213TIP3   OH245833   0.431   4.842   0.923
 7213TIP3    H145834   0.509   4.898   0.909
 7213TIP3    H245835   0.455   4.794   1.005
 7214TIP3   OH245836   1.127   5.069   0.290
 7214TIP3    H145837   1.086   5.159   0.293
 7214TIP3    H245838   1.048   5.014   0.305
 7215TIP3   OH245839   0.181   4.621   1.427
 7215TIP3    H145840   0.179   4.593   1.521
 7215TIP3    H245841   0.084   4.629   1.414
 7216TIP3   OH245842   0.790   4.658   1.659
 7216TIP3    H145843   0.735   4.597   1.605
 7216TIP3    H245844   0.874   4.608   1.669
 7217TIP3   OH245845   1.293   5.175   1.525
 7217TIP3    H145846   1.212   5.191   1.474
 7217TIP3    H245847   1.268   5.218   1.609
 7218TIP3   OH245848   1.837   4.382   0.355
 7218TIP3    H145849   1.766   4.368   0.289
 7218TIP3    H245850   1.851   4.478   0.338
 7219TIP3   OH245851   1.855   4.982   1.590
 7219TIP3    H145852   1.762   4.990   1.558
 7219TIP3    H245853   1.906   4.982   1.506
 7220TIP3   OH245854   1.699   5.238   0.381
 7220TIP3    H145855   1.613   5.194   0.388
 7220TIP3    H245856   1.709   5.247   0.284
 7221TIP3   OH245857   1.379   4.760   1.060
 7221TIP3    H145858   1.286   4.734   1.044
 7221TIP3    H245859   1.426   4.691   1.010
 7222TIP3   OH245860   0.619   5.182   0.718
 7222TIP3    H145861   0.655   5.271   0.698
 7222TIP3    H245862   0.529   5.190   0.683
 7223TIP3   OH245863   0.242   4.665   0.138
 7223TIP3    H145864   0.292   4.740   0.174
 7223TIP3    H245865   0.156   4.675   0.182
 7224TIP3   OH245866   0.775   4.965   0.627
 7224TIP3    H145867   0.726   5.050   0.636
 7224TIP3    H245868   0.747   4.916   0.706
 7225TIP3   OH245869   0.843   5.358   1.299
 7225TIP3    H145870   0.896   5.434   1.266
 7225TIP3    H245871   0.903   5.319   1.366
 7226TIP3   OH245872   0.671   5.432   0.601
 7226TIP3    H145873   0.576   5.450   0.617
 7226TIP3    H245874   0.709   5.520   0.624
 7227TIP3   OH245875   1.147   4.982   1.247
 7227TIP3    H145876   1.100   4.945   1.324
 7227TIP3    H245877   1.198   4.904   1.220
 7228TIP3   OH245878   1.424   5.081   0.137
 7228TIP3    H145879   1.436   5.033   0.222
 7228TIP3    H245880   1.327   5.074   0.135
 7229TIP3   OH245881   1.474   5.420   1.479
 7229TIP3    H145882   1.383   5.383   1.482
 7229TIP3    H245883   1.471   5.479   1.400
 7230TIP3   OH245884   1.860   5.531   0.180
 7230TIP3    H145885   1.935   5.590   0.162
 7230TIP3    H245886   1.801   5.592   0.231
 7231TIP3   OH245887   0.272   4.174   1.421
 7231TIP3    H145888   0.241   4.205   1.508
 7231TIP3    H245889   0.247   4.080   1.426
 7232TIP3   OH245890   1.496   4.952   0.363
 7232TIP3    H145891   1.487   4.856   0.363
 7232TIP3    H245892   1.594   4.959   0.361
 7233TIP3   OH245893   0.231   5.340   1.249
 7233TIP3    H145894   0.309   5.286   1.271
 7233TIP3    H245895   0.207   5.374   1.336
 7234TIP3   OH245896   0.674   5.133   0.236
 7234TIP3    H145897   0.760   5.101   0.264
 7234TIP3    H245898   0.682   5.228   0.261
 7235TIP3   OH245899   0.357   4.871   0.311
 7235TIP3    H145900   0.272   4.913   0.339
 7235TIP3    H245901   0.401   4.944   0.264
 7236TIP3   OH245902   1.143   4.126   1.339
 7236TIP3    H145903   1.226   4.148   1.381
 7236TIP3    H245904   1.125   4.033   1.369
 7237TIP3   OH245905   1.236   4.067   0.449
 7237TIP3    H145906   1.263   4.124   0.374
 7237TIP3    H245907   1.281   4.110   0.526
 7238TIP3   OH245908   0.988   5.310   0.274
 7238TIP3    H145909   0.903   5.338   0.313
 7238TIP3    H245910   1.031   5.397   0.263
 7239TIP3   OH245911   0.954   4.262   0.543
 7239TIP3    H145912   1.016   4.337   0.555
 7239TIP3    H245913   0.920   4.245   0.634
 7240TIP3   OH245914   1.043   4.376   1.425
 7240TIP3    H145915   1.056   4.399   1.518
 7240TIP3    H245916   1.063   4.280   1.419
 7241TIP3   OH245917   1.021   3.952   0.578
 7241TIP3    H145918   0.982   4.031   0.620
 7241TIP3    H245919   1.100   3.994   0.535
 7242TIP3   OH245920   0.719   5.388   0.316
 7242TIP3    H145921   0.733   5.478   0.279
 7242TIP3    H245922   0.705   5.410   0.410
 7243TIP3   OH245923   0.584   4.084   0.309
 7243TIP3    H145924   0.580   4.169   0.355
 7243TIP3    H245925   0.675   4.052   0.327
 7244TIP3   OH245926   1.584   4.179   1.520
 7244TIP3    H145927   1.489   4.193   1.502
 7244TIP3    H245928   1.620   4.170   1.430
 7245TIP3   OH245929   1.482   4.523   0.918
 7245TIP3    H145930   1.408   4.461   0.910
 7245TIP3    H245931   1.546   4.472   0.971
 7246TIP3   OH245932   0.415   5.112   0.161
 7246TIP3    H145933   0.494   5.140   0.211
 7246TIP3    H245934   0.459   5.054   0.097
 7247TIP3   OH245935   0.332   4.394   0.157
 7247TIP3    H145936   0.315   4.485   0.187
 7247TIP3    H245937   0.258   4.389   0.091
 7248TIP3   OH245938   1.579   5.458   1.079
 7248TIP3    H145939   1.589   5.523   1.006
 7248TIP3    H245940   1.675   5.449   1.099
 7249TIP3   OH245941   0.337   3.889   0.972
 7249TIP3    H145942   0.335   3.856   0.880
 7249TIP3    H245943   0.308   3.805   1.017
 7250TIP3   OH245944   0.217   5.225   0.551
 7250TIP3    H145945   0.133   5.272   0.560
 7250TIP3    H245946   0.271   5.287   0.500
 7251TIP3   OH245947   0.166   5.541   1.701
 7251TIP3    H145948   0.231   5.541   1.774
 7251TIP3    H245949   0.128   5.454   1.718
 7252TIP3   OH245950   0.621   5.450   1.848
 7252TIP3    H145951   0.694   5.399   1.887
 7252TIP3    H245952   0.601   5.402   1.766
 7253TIP3   OH245953   1.016   5.350  -0.014
 7253TIP3    H145954   0.959   5.295   0.043
 7253TIP3    H245955   1.102   5.325   0.023
 7254TIP3   OH245956   1.236   5.293   1.754
 7254TIP3    H145957   1.204   5.205   1.788
 7254TIP3    H245958   1.325   5.297   1.796
 7255TIP3   OH245959   1.427   5.344   0.123
 7255TIP3    H145960   1.445   5.248   0.112
 7255TIP3    H245961   1.466   5.384   0.043
 7256TIP3   OH245962   0.205   4.943   1.793
 7256TIP3    H145963   0.218   4.868   1.853
 7256TIP3    H245964   0.108   4.930   1.781
 7257TIP3   OH245965   0.615   4.884   0.084
 7257TIP3    H145966   0.623   4.849   0.175
 7257TIP3    H245967   0.699   4.931   0.074
 7258TIP3   OH245968   0.783   4.931   1.719
 7258TIP3    H145969   0.754   4.980   1.640
 7258TIP3    H245970   0.768   4.835   1.698
 7259TIP3   OH245971   1.360   4.895   1.508
 7259TIP3    H145972   1.445   4.946   1.507
 7259TIP3    H245973   1.301   4.972   1.518
 7260TIP3   OH245974   0.207   4.586   1.758
 7260TIP3    H145975   0.304   4.589   1.770
 7260TIP3    H245976   0.178   4.635   1.837
 7261TIP3   OH245977   0.683   4.727   0.290
 7261TIP3    H145978   0.625   4.651   0.305
 7261TIP3    H245979   0.747   4.690   0.226
 7262TIP3   OH245980   0.626   4.533   1.465
 7262TIP3    H145981   0.564   4.610   1.467
 7262TIP3    H245982   0.697   4.568   1.406
 7263TIP3   OH245983   0.835   4.586   0.088
 7263TIP3    H145984   0.850   4.532   0.008
 7263TIP3    H245985   0.926   4.581   0.128
 7264TIP3   OH245986   1.149   4.813   1.807
 7264TIP3    H145987   1.208   4.761   1.750
 7264TIP3    H245988   1.102   4.743   1.854
 7265TIP3   OH245989   1.705   4.787  10.004
 7265TIP3    H145990   1.775   4.738   9.957
 7265TIP3    H245991   1.743   4.875   9.998
 7266TIP3   OH245992   0.680   4.283   1.541
 7266TIP3    H145993   0.683   4.219   1.466
 7266TIP3    H245994   0.667   4.370   1.498
 7267TIP3   OH245995   0.707   4.086   1.353
 7267TIP3    H145996   0.761   4.140   1.290
 7267TIP3    H245997   0.622   4.083   1.305
 7268TIP3   OH245998   0.847   4.649   1.341
 7268TIP3    H145999   0.938   4.677   1.350
 7268TIP3    H246000   0.802   4.730   1.310
 7269TIP3   OH246001   1.282   4.408   1.848
 7269TIP3    H146002   1.308   4.315   1.848
 7269TIP3    H246003   1.366   4.454   1.833
 7270TIP3   OH246004   1.439   4.731   1.706
 7270TIP3    H146005   1.404   4.783   1.630
 7270TIP3    H246006   1.533   4.725   1.679
 7271TIP3   OH246007   0.543   4.325   1.772
 7271TIP3    H146008   0.447   4.304   1.771
 7271TIP3    H246009   0.574   4.305   1.681
 7272TIP3   OH246010   0.804   3.840   1.345
 7272TIP3    H146011   0.769   3.931   1.360
 7272TIP3    H246012   0.721   3.794   1.325
 7273TIP3   OH246013   0.884   4.279   1.754
 7273TIP3    H146014   0.828   4.252   1.830
 7273TIP3    H246015   0.820   4.266   1.681
 7274TIP3   OH246016   1.151   4.198   1.686
 7274TIP3    H146017   1.058   4.202   1.715
 7274TIP3    H246018   1.194   4.153   1.762
 7275TIP3   OH246019   1.322   4.054   1.849
 7275TIP3    H146020   1.325   3.956   1.844
 7275TIP3    H246021   1.319   4.068   1.946
 7276TIP3   OH246022   0.305   4.171   1.789
 7276TIP3    H146023   0.327   4.089   1.741
 7276TIP3    H246024   0.287   4.133   1.878
 7277TIP3   OH246025   0.792   3.813   1.624
 7277TIP3    H146026   0.868   3.755   1.643
 7277TIP3    H246027   0.787   3.805   1.526
 7278TIP3   OH246028   0.815   3.905   1.884
 7278TIP3    H146029   0.798   3.873   1.792
 7278TIP3    H246030   0.784   3.998   1.877
 7279TIP3   OH246031   0.756   5.632   0.208
 7279TIP3    H146032   0.852   5.634   0.224
 7279TIP3    H246033   0.751   5.662   0.117
 7280TIP3   OH246034   0.158   5.069   0.155
 7280TIP3    H146035   0.252   5.097   0.159
 7280TIP3    H246036   0.160   5.009   0.078
 7281TIP3   OH246037   0.087   5.585   0.596
 7281TIP3    H146038   0.001   5.629   0.617
 7281TIP3    H246039   0.108   5.546   0.684
 7282TIP3   OH246040   0.172   5.456   0.817
 7282TIP3    H146041   0.147   5.362   0.822
 7282TIP3    H246042   0.214   5.470   0.904
 7283TIP3   OH246043   1.846   5.515   1.084
 7283TIP3    H146044   1.883   5.516   1.173
 7283TIP3    H246045   1.924   5.532   1.028
 7284TIP3   OH246046   1.781   5.475   1.381
 7284TIP3    H146047   1.747   5.394   1.336
 7284TIP3    H246048   1.811   5.436   1.465
 7285TIP3   OH246049   1.667   5.041   1.874
 7285TIP3    H146050   1.575   5.045   1.907
 7285TIP3    H246051   1.703   5.124   1.911
 7286TIP3   OH246052   1.759   4.898   0.387
 7286TIP3    H146053   1.845   4.939   0.409
 7286TIP3    H246054   1.742   4.843   0.466
 7287TIP3   OH246055   1.823   4.704   0.622
 7287TIP3    H146056   1.740   4.658   0.650
 7287TIP3    H246057   1.872   4.711   0.707
 7288TIP3   OH246058   1.791   4.976   1.064
 7288TIP3    H146059   1.858   4.905   1.050
 7288TIP3    H246060   1.833   5.054   1.022
 7289TIP3   OH246061   1.657   5.248   1.312
 7289TIP3    H146062   1.585   5.289   1.363
 7289TIP3    H246063   1.609   5.212   1.233
 7290TIP3   OH246064   1.863   4.680   0.219
 7290TIP3    H146065   1.794   4.698   0.153
 7290TIP3    H246066   1.844   4.750   0.284
 7291TIP3   OH246067   1.635   4.377   0.157
 7291TIP3    H146068   1.609   4.443   0.090
 7291TIP3    H246069   1.691   4.321   0.101
 7292TIP3   OH246070   1.611   4.559   0.689
 7292TIP3    H146071   1.592   4.467   0.665
 7292TIP3    H246072   1.582   4.558   0.783
 7293TIP3   OH246073   0.166   4.830   1.052
 7293TIP3    H146074   0.172   4.780   0.968
 7293TIP3    H246075   0.245   4.799   1.101
 7294TIP3   OH246076   1.719   4.751   1.632
 7294TIP3    H146077   1.768   4.667   1.646
 7294TIP3    H246078   1.789   4.818   1.617
 7295TIP3   OH246079   1.817   4.484   1.671
 7295TIP3    H146080   1.724   4.452   1.665
 7295TIP3    H246081   1.869   4.401   1.686
 7296TIP3   OH246082   1.617   4.150  -0.015
 7296TIP3    H146083   1.674   4.112   0.054
 7296TIP3    H246084   1.529   4.128   0.018
 7297TIP3   OH246085   1.549   4.320   0.495
 7297TIP3    H146086   1.568   4.228   0.525
 7297TIP3    H246087   1.638   4.341   0.464
 7298TIP3   OH246088   1.656   4.358   1.057
 7298TIP3    H146089   1.752   4.379   1.065
 7298TIP3    H246090   1.628   4.371   1.149
 7299TIP3   OH246091   1.662   4.444   1.313
 7299TIP3    H146092   1.581   4.473   1.360
 7299TIP3    H246093   1.705   4.531   1.294
 7300TIP3   OH246094   0.120   4.259   1.625
 7300TIP3    H146095   0.191   4.288   1.687
 7300TIP3    H246096   0.126   4.163   1.633
 7301TIP3   OH246097   1.883   3.866   1.842
 7301TIP3    H146098   1.911   3.791   1.787
 7301TIP3    H246099   1.870   3.936   1.774
 7302TIP3   OH246100   1.646   4.064   0.536
 7302TIP3    H146101   1.683   4.015   0.613
 7302TIP3    H246102   1.597   3.992   0.493
 7303TIP3   OH246103   0.169   4.116   1.028
 7303TIP3    H146104   0.229   4.039   1.032
 7303TIP3    H246105   0.228   4.192   1.038
 7304TIP3   OH246106   0.093   4.421   1.046
 7304TIP3    H146107   0.172   4.415   0.990
 7304TIP3    H246108   0.113   4.491   1.109
 7305TIP3   OH246109   1.812   4.071   1.685
 7305TIP3    H146110   1.741   4.114   1.740
 7305TIP3    H246111   1.762   4.048   1.605
 7306TIP3   OH246112   1.824   4.070   0.173
 7306TIP3    H146113   1.867   4.013   0.107
 7306TIP3    H246114   1.900   4.126   0.199
 7307TIP3   OH246115   0.104   4.050   0.483
 7307TIP3    H146116   0.007   4.041   0.479
 7307TIP3    H246117   0.118   4.096   0.397
 7308TIP3   OH246118   1.531   5.529   0.686
 7308TIP3    H146119   1.596   5.521   0.613
 7308TIP3    H246120   1.570   5.594   0.746
 7309TIP3   OH246121   0.072   3.873   1.318
 7309TIP3    H146122  -0.021   3.852   1.340
 7309TIP3    H246123   0.057   3.930   1.241
 7310TIP3   OH246124   0.249   5.195   1.731
 7310TIP3    H146125   0.198   5.186   1.651
 7310TIP3    H246126   0.265   5.099   1.750
 7311TIP3   OH246127   0.573   5.376   1.369
 7311TIP3    H146128   0.568   5.465   1.329
 7311TIP3    H246129   0.669   5.357   1.362
 7312TIP3   OH246130   0.985   5.492   1.615
 7312TIP3    H146131   0.990   5.466   1.709
 7312TIP3    H246132   1.076   5.524   1.598
 7313TIP3   OH246133   1.210   5.637   1.570
 7313TIP3    H146134   1.291   5.607   1.528
 7313TIP3    H246135   1.242   5.660   1.661
 7314TIP3   OH246136   1.726   3.847   1.485
 7314TIP3    H146137   1.649   3.883   1.439
 7314TIP3    H246138   1.732   3.756   1.447
 7315TIP3   OH246139   0.322   5.666   1.359
 7315TIP3    H146140   0.242   5.711   1.322
 7315TIP3    H246141   0.300   5.662   1.453
 7316TIP3   OH246142   0.551   5.614   1.243
 7316TIP3    H146143   0.458   5.629   1.272
 7316TIP3    H246144   0.554   5.672   1.166
 7317TIP3   OH246145   0.996   5.566   1.181
 7317TIP3    H146146   0.965   5.621   1.108
 7317TIP3    H246147   1.027   5.635   1.243
 7318TIP3   OH246148   1.222   5.446   1.313
 7318TIP3    H146149   1.157   5.482   1.250
 7318TIP3    H246150   1.298   5.504   1.294
 7319TIP3   OH246151   1.473   5.601   1.279
 7319TIP3    H146152   1.491   5.694   1.256
 7319TIP3    H246153   1.518   5.557   1.203
 7320TIP3   OH246154   0.295   5.532   1.061
 7320TIP3    H146155   0.263   5.482   1.140
 7320TIP3    H246156   0.371   5.478   1.030
 7321TIP3   OH246157   0.473   5.387   0.928
 7321TIP3    H146158   0.443   5.297   0.943
 7321TIP3    H246159   0.568   5.384   0.957
 7322TIP3   OH246160   0.718   5.382   1.034
 7322TIP3    H146161   0.766   5.298   1.030
 7322TIP3    H246162   0.732   5.406   1.127
 7323TIP3   OH246163   1.049   3.975   0.926
 7323TIP3    H146164   0.969   3.939   0.967
 7323TIP3    H246165   1.066   3.908   0.859
 7324TIP3   OH246166   1.592   3.785   0.896
 7324TIP3    H146167   1.658   3.844   0.853
 7324TIP3    H246168   1.508   3.818   0.856
 7325TIP3   OH246169   1.757   3.915   0.734
 7325TIP3    H146170   1.821   3.856   0.689
 7325TIP3    H246171   1.815   3.992   0.756
 7326TIP3   OH246172   0.339   3.830   0.702
 7326TIP3    H146173   0.262   3.824   0.642
 7326TIP3    H246174   0.384   3.745   0.683
 7327TIP3   OH246175   0.110   3.863   0.238
 7327TIP3    H146176   0.173   3.914   0.182
 7327TIP3    H246177   0.127   3.906   0.323
 7328TIP3   OH246178   0.746   3.819   0.678
 7328TIP3    H146179   0.830   3.855   0.646
 7328TIP3    H246180   0.755   3.837   0.773
 7329TIP3   OH246181   1.349   3.838   0.794
 7329TIP3    H146182   1.291   3.848   0.718
 7329TIP3    H246183   1.301   3.773   0.849
 7330TIP3   OH246184   1.467   3.833   0.415
 7330TIP3    H146185   1.393   3.895   0.405
 7330TIP3    H246186   1.428   3.766   0.474
 7331TIP3   OH246187   0.197   5.481   0.315
 7331TIP3    H146188   0.107   5.480   0.348
 7331TIP3    H246189   0.207   5.578   0.300
 7332TIP3   OH246190   0.351   3.982   0.124
 7332TIP3    H146191   0.406   3.922   0.073
 7332TIP3    H246192   0.414   4.015   0.189
 7333TIP3   OH246193   0.874   4.066   0.360
 7333TIP3    H146194   0.906   4.000   0.422
 7333TIP3    H246195   0.898   4.147   0.409
 7334TIP3   OH246196   1.043   5.553   0.177
 7334TIP3    H146197   1.140   5.577   0.181
 7334TIP3    H246198   1.041   5.511   0.089
 7335TIP3   OH246199   1.703   5.481   0.500
 7335TIP3    H146200   1.698   5.390   0.462
 7335TIP3    H246201   1.690   5.537   0.421
 7336TIP3   OH246202   0.270   3.910   1.656
 7336TIP3    H146203   0.219   3.826   1.658
 7336TIP3    H246204   0.357   3.881   1.690
 7337TIP3   OH246205   0.500   3.841   1.831
 7337TIP3    H146206   0.593   3.826   1.809
 7337TIP3    H246207   0.478   3.751   1.863
 7338TIP3   OH246208   0.462   5.562   0.129
 7338TIP3    H146209   0.388   5.539   0.187
 7338TIP3    H246210   0.531   5.501   0.161
 7339TIP3   OH246211   1.317   3.782   1.830
 7339TIP3    H146212   1.313   3.717   1.904
 7339TIP3    H246213   1.409   3.764   1.802
 7340TIP3   OH246214   1.655   5.392   1.670
 7340TIP3    H146215   1.593   5.394   1.593
 7340TIP3    H246216   1.638   5.481   1.706
 7341TIP3   OH246217   3.118   4.784   0.689
 7341TIP3    H146218   3.108   4.870   0.734
 7341TIP3    H246219   3.039   4.783   0.633
 7342TIP3   OH246220   2.985   4.661   1.022
 7342TIP3    H146221   2.986   4.622   1.112
 7342TIP3    H246222   2.927   4.600   0.972
 7343TIP3   OH246223   2.195   4.664   1.167
 7343TIP3    H146224   2.190   4.591   1.232
 7343TIP3    H246225   2.270   4.713   1.203
 7344TIP3   OH246226   3.304   4.977   0.880
 7344TIP3    H146227   3.290   4.904   0.943
 7344TIP3    H246228   3.334   5.046   0.941
 7345TIP3   OH246229   2.296   5.129   1.001
 7345TIP3    H146230   2.262   5.039   0.984
 7345TIP3    H246231   2.391   5.107   0.996
 7346TIP3   OH246232   1.972   4.457   0.582
 7346TIP3    H146233   1.929   4.543   0.593
 7346TIP3    H246234   1.917   4.418   0.512
 7347TIP3   OH246235   2.025   4.702   0.824
 7347TIP3    H146236   2.071   4.616   0.838
 7347TIP3    H246237   2.092   4.757   0.780
 7348TIP3   OH246238   3.063   5.527   0.861
 7348TIP3    H146239   3.128   5.467   0.816
 7348TIP3    H246240   3.035   5.468   0.932
 7349TIP3   OH246241   2.797   4.937   1.116
 7349TIP3    H146242   2.827   4.889   1.039
 7349TIP3    H246243   2.884   4.965   1.153
 7350TIP3   OH246244   3.670   4.081   1.125
 7350TIP3    H146245   3.668   4.147   1.197
 7350TIP3    H246246   3.752   4.108   1.081
 7351TIP3   OH246247   3.174   4.389   1.139
 7351TIP3    H146248   3.185   4.293   1.151
 7351TIP3    H246249   3.130   4.393   1.052
 7352TIP3   OH246250   2.447   4.161   0.799
 7352TIP3    H146251   2.461   4.242   0.745
 7352TIP3    H246252   2.406   4.104   0.730
 7353TIP3   OH246253   3.203   4.198   0.678
 7353TIP3    H146254   3.265   4.156   0.743
 7353TIP3    H246255   3.263   4.259   0.632
 7354TIP3   OH246256   2.106   4.449   0.898
 7354TIP3    H146257   2.167   4.392   0.948
 7354TIP3    H246258   2.120   4.413   0.808
 7355TIP3   OH246259   2.593   4.576   0.852
 7355TIP3    H146260   2.676   4.533   0.879
 7355TIP3    H246261   2.548   4.504   0.805
 7356TIP3   OH246262   3.679   4.223   1.365
 7356TIP3    H146263   3.648   4.310   1.327
 7356TIP3    H246264   3.698   4.254   1.455
 7357TIP3   OH246265   2.353   4.088   1.222
 7357TIP3    H146266   2.309   4.133   1.146
 7357TIP3    H246267   2.290   4.110   1.294
 7358TIP3   OH246268   3.038   5.035   0.578
 7358TIP3    H146269   3.037   5.029   0.482
 7358TIP3    H246270   3.009   5.127   0.593
 7359TIP3   OH246271   2.562   4.848   1.199
 7359TIP3    H146272   2.510   4.923   1.236
 7359TIP3    H246273   2.640   4.896   1.163
 7360TIP3   OH246274   3.407   4.123   0.842
 7360TIP3    H146275   3.372   4.062   0.908
 7360TIP3    H246276   3.483   4.160   0.888
 7361TIP3   OH246277   2.297   4.270   1.012
 7361TIP3    H146278   2.360   4.329   1.060
 7361TIP3    H246279   2.352   4.241   0.936
 7362TIP3   OH246280   2.442   5.071   1.314
 7362TIP3    H146281   2.425   5.147   1.257
 7362TIP3    H246282   2.356   5.063   1.361
 7363TIP3   OH246283   2.026   5.004   0.400
 7363TIP3    H146284   2.025   5.058   0.317
 7363TIP3    H246285   2.035   5.073   0.469
 7364TIP3   OH246286   3.400   5.185   1.085
 7364TIP3    H146287   3.306   5.205   1.107
 7364TIP3    H246288   3.422   5.270   1.043
 7365TIP3   OH246289   3.391   4.028   1.192
 7365TIP3    H146290   3.329   4.042   1.117
 7365TIP3    H246291   3.474   4.054   1.149
 7366TIP3   OH246292   2.696   3.826   0.949
 7366TIP3    H146293   2.673   3.735   0.970
 7366TIP3    H246294   2.609   3.870   0.974
 7367TIP3   OH246295   3.233   5.360   0.745
 7367TIP3    H146296   3.252   5.277   0.696
 7367TIP3    H246297   3.315   5.411   0.723
 7368TIP3   OH246298   3.328   5.142   0.608
 7368TIP3    H146299   3.323   5.075   0.537
 7368TIP3    H246300   3.322   5.085   0.686
 7369TIP3   OH246301   3.495   5.013   1.467
 7369TIP3    H146302   3.520   4.939   1.405
 7369TIP3    H246303   3.505   5.088   1.405
 7370TIP3   OH246304   2.955   4.713   0.427
 7370TIP3    H146305   2.911   4.798   0.407
 7370TIP3    H246306   3.040   4.719   0.378
 7371TIP3   OH246307   3.007   4.570   0.139
 7371TIP3    H146308   3.081   4.607   0.193
 7371TIP3    H246309   3.040   4.479   0.123
 7372TIP3   OH246310   3.706   4.658   1.256
 7372TIP3    H146311   3.637   4.727   1.253
 7372TIP3    H246312   3.768   4.693   1.190
 7373TIP3   OH246313   3.324   4.695   0.540
 7373TIP3    H146314   3.254   4.734   0.598
 7373TIP3    H246315   3.388   4.658   0.604
 7374TIP3   OH246316   3.304   4.534   1.444
 7374TIP3    H146317   3.300   4.624   1.480
 7374TIP3    H246318   3.240   4.543   1.372
 7375TIP3   OH246319   2.459   4.772   0.724
 7375TIP3    H146320   2.430   4.746   0.634
 7375TIP3    H246321   2.522   4.699   0.744
 7376TIP3   OH246322   2.598   5.112   0.979
 7376TIP3    H146323   2.603   5.098   0.883
 7376TIP3    H246324   2.673   5.061   1.012
 7377TIP3   OH246325   2.474   4.625   1.092
 7377TIP3    H146326   2.509   4.630   1.000
 7377TIP3    H246327   2.518   4.703   1.133
 7378TIP3   OH246328   3.143   5.224   1.158
 7378TIP3    H146329   3.120   5.279   1.235
 7378TIP3    H246330   3.125   5.134   1.190
 7379TIP3   OH246331   2.607   5.114   1.526
 7379TIP3    H146332   2.535   5.160   1.575
 7379TIP3    H246333   2.561   5.099   1.441
 7380TIP3   OH246334   3.194   4.670   0.310
 7380TIP3    H146335   3.244   4.676   0.396
 7380TIP3    H246336   3.257   4.713   0.246
 7381TIP3   OH246337   2.294   4.717   1.440
 7381TIP3    H146338   2.314   4.790   1.500
 7381TIP3    H246339   2.217   4.678   1.485
 7382TIP3   OH246340   2.945   5.331   0.575
 7382TIP3    H146341   2.964   5.354   0.666
 7382TIP3    H246342   2.916   5.414   0.534
 7383TIP3   OH246343   2.422   5.272   1.635
 7383TIP3    H146344   2.406   5.322   1.552
 7383TIP3    H246345   2.330   5.244   1.653
 7384TIP3   OH246346   3.593   3.800   0.318
 7384TIP3    H146347   3.497   3.800   0.337
 7384TIP3    H246348   3.606   3.894   0.296
 7385TIP3   OH246349   2.362   4.661   0.487
 7385TIP3    H146350   2.316   4.735   0.444
 7385TIP3    H246351   2.319   4.584   0.448
 7386TIP3   OH246352   3.668   5.276   0.140
 7386TIP3    H146353   3.688   5.372   0.151
 7386TIP3    H246354   3.755   5.235   0.151
 7387TIP3   OH246355   1.996   4.940   1.371
 7387TIP3    H146356   1.956   4.931   1.283
 7387TIP3    H246357   2.034   4.850   1.381
 7388TIP3   OH246358   1.964   5.201   1.016
 7388TIP3    H146359   2.060   5.190   1.013
 7388TIP3    H246360   1.956   5.270   1.083
 7389TIP3   OH246361   3.768   5.276   1.631
 7389TIP3    H146362   3.757   5.183   1.606
 7389TIP3    H246363   3.676   5.296   1.664
 7390TIP3   OH246364   2.852   5.222   1.514
 7390TIP3    H146365   2.858   5.304   1.565
 7390TIP3    H246366   2.757   5.196   1.524
 7391TIP3   OH246367   2.899   5.589   0.467
 7391TIP3    H146368   2.944   5.622   0.388
 7391TIP3    H246369   2.901   5.672   0.519
 7392TIP3   OH246370   2.277   5.473   0.679
 7392TIP3    H146371   2.308   5.448   0.769
 7392TIP3    H246372   2.190   5.428   0.679
 7393TIP3   OH246373   3.193   5.567   0.204
 7393TIP3    H146374   3.241   5.488   0.170
 7393TIP3    H246375   3.225   5.567   0.296
 7394TIP3   OH246376   3.167   5.498   0.475
 7394TIP3    H146377   3.076   5.515   0.502
 7394TIP3    H246378   3.181   5.407   0.508
 7395TIP3   OH246379   3.459   4.405   1.659
 7395TIP3    H146380   3.408   4.439   1.583
 7395TIP3    H246381   3.469   4.310   1.636
 7396TIP3   OH246382   2.214   5.070   1.458
 7396TIP3    H146383   2.215   5.030   1.549
 7396TIP3    H246384   2.129   5.033   1.425
 7397TIP3   OH246385   2.474   3.927   1.049
 7397TIP3    H146386   2.385   3.922   1.008
 7397TIP3    H246387   2.450   3.973   1.132
 7398TIP3   OH246388   2.961   3.872   1.364
 7398TIP3    H146389   2.986   3.832   1.449
 7398TIP3    H246390   2.862   3.875   1.368
 7399TIP3   OH246391   3.234   4.271   1.478
 7399TIP3    H146392   3.177   4.262   1.558
 7399TIP3    H246393   3.260   4.365   1.480
 7400TIP3   OH246394   3.355   4.770   0.139
 7400TIP3    H146395   3.318   4.778   0.046
 7400TIP3    H246396   3.449   4.788   0.114
 7401TIP3   OH246397   2.917   4.150   0.142
 7401TIP3    H146398   2.872   4.124   0.225
 7401TIP3    H246399   2.855   4.114   0.077
 7402TIP3   OH246400   2.481   4.379   1.185
 7402TIP3    H146401   2.401   4.393   1.240
 7402TIP3    H246402   2.492   4.470   1.148
 7403TIP3   OH246403   2.467   4.383   0.660
 7403TIP3    H146404   2.371   4.388   0.642
 7403TIP3    H246405   2.505   4.376   0.569
 7404TIP3   OH246406   3.044   4.498   0.573
 7404TIP3    H146407   3.007   4.576   0.525
 7404TIP3    H246408   3.102   4.461   0.505
 7405TIP3   OH246409   2.925   4.499   1.689
 7405TIP3    H146410   2.887   4.419   1.731
 7405TIP3    H246411   3.001   4.512   1.748
 7406TIP3   OH246412   3.123   4.430   0.852
 7406TIP3    H146413   3.129   4.504   0.789
 7406TIP3    H246414   3.127   4.354   0.791
 7407TIP3   OH246415   2.238   4.412   1.303
 7407TIP3    H146416   2.264   4.449   1.389
 7407TIP3    H246417   2.204   4.325   1.328
 7408TIP3   OH246418   2.574   4.161   0.056
 7408TIP3    H146419   2.526   4.131   0.136
 7408TIP3    H246420   2.504   4.184  -0.006
 7409TIP3   OH246421   1.914   4.128   0.764
 7409TIP3    H146422   1.984   4.134   0.830
 7409TIP3    H246423   1.963   4.128   0.680
 7410TIP3   OH246424   2.034   4.202   0.285
 7410TIP3    H146425   2.103   4.258   0.243
 7410TIP3    H246426   1.969   4.273   0.307
 7411TIP3   OH246427   3.032   4.576   1.276
 7411TIP3    H146428   3.090   4.507   1.236
 7411TIP3    H246429   2.979   4.519   1.338
 7412TIP3   OH246430   2.754   4.163   0.779
 7412TIP3    H146431   2.659   4.164   0.795
 7412TIP3    H246432   2.790   4.140   0.866
 7413TIP3   OH246433   2.187   4.321   0.666
 7413TIP3    H146434   2.115   4.353   0.608
 7413TIP3    H246435   2.214   4.235   0.629
 7414TIP3   OH246436   2.589   4.344   0.423
 7414TIP3    H146437   2.684   4.354   0.415
 7414TIP3    H246438   2.552   4.401   0.352
 7415TIP3   OH246439   3.173   4.096   1.057
 7415TIP3    H146440   3.120   4.097   1.139
 7415TIP3    H246441   3.119   4.038   0.999
 7416TIP3   OH246442   2.446   4.466   0.227
 7416TIP3    H146443   2.363   4.444   0.182
 7416TIP3    H246444   2.510   4.477   0.153
 7417TIP3   OH246445   3.475   5.670   1.741
 7417TIP3    H146446   3.505   5.705   1.656
 7417TIP3    H246447   3.552   5.694   1.795
 7418TIP3   OH246448   2.232   4.920   1.686
 7418TIP3    H146449   2.309   4.934   1.745
 7418TIP3    H246450   2.160   4.902   1.750
 7419TIP3   OH246451   2.850   4.435   0.945
 7419TIP3    H146452   2.928   4.414   0.892
 7419TIP3    H246453   2.836   4.355   0.996
 7420TIP3   OH246454   2.299   4.048   0.598
 7420TIP3    H146455   2.246   3.981   0.646
 7420TIP3    H246456   2.344   3.991   0.534
 7421TIP3   OH246457   2.721   4.264   1.190
 7421TIP3    H146458   2.639   4.318   1.191
 7421TIP3    H246459   2.783   4.319   1.241
 7422TIP3   OH246460   2.784   4.933   0.389
 7422TIP3    H146461   2.716   4.873   0.349
 7422TIP3    H246462   2.742   4.944   0.478
 7423TIP3   OH246463   3.520   4.860   1.256
 7423TIP3    H146464   3.565   4.910   1.184
 7423TIP3    H246465   3.430   4.858   1.221
 7424TIP3   OH246466   3.171   4.198   0.195
 7424TIP3    H146467   3.074   4.199   0.190
 7424TIP3    H246468   3.191   4.286   0.232
 7425TIP3   OH246469   2.887   4.953   1.485
 7425TIP3    H146470   2.880   4.921   1.576
 7425TIP3    H246471   2.878   5.050   1.499
 7426TIP3   OH246472   3.225   4.405   0.349
 7426TIP3    H146473   3.309   4.380   0.394
 7426TIP3    H246474   3.244   4.496   0.320
 7427TIP3   OH246475   2.303   4.858   0.946
 7427TIP3    H146476   2.368   4.837   0.875
 7427TIP3    H246477   2.301   4.775   0.996
 7428TIP3   OH246478   2.982   5.088   0.272
 7428TIP3    H146479   2.934   5.174   0.281
 7428TIP3    H246480   2.916   5.028   0.312
 7429TIP3   OH246481   2.009   4.660   1.476
 7429TIP3    H146482   1.983   4.612   1.557
 7429TIP3    H246483   1.948   4.623   1.409
 7430TIP3   OH246484   2.676   4.656   1.665
 7430TIP3    H146485   2.628   4.590   1.612
 7430TIP3    H246486   2.768   4.624   1.657
 7431TIP3   OH246487   3.178   5.181   1.513
 7431TIP3    H146488   3.091   5.187   1.472
 7431TIP3    H246489   3.158   5.221   1.600
 7432TIP3   OH246490   3.725   4.392   0.354
 7432TIP3    H146491   3.654   4.377   0.289
 7432TIP3    H246492   3.737   4.488   0.341
 7433TIP3   OH246493   3.738   4.985   1.589
 7433TIP3    H146494   3.647   5.000   1.555
 7433TIP3    H246495   3.788   4.973   1.505
 7434TIP3   OH246496   3.565   5.236   0.386
 7434TIP3    H146497   3.474   5.202   0.386
 7434TIP3    H246498   3.585   5.246   0.291
 7435TIP3   OH246499   3.267   4.757   1.064
 7435TIP3    H146500   3.174   4.730   1.053
 7435TIP3    H246501   3.311   4.688   1.011
 7436TIP3   OH246502   2.516   5.188   0.702
 7436TIP3    H146503   2.551   5.277   0.683
 7436TIP3    H246504   2.425   5.198   0.671
 7437TIP3   OH246505   2.125   4.662   0.106
 7437TIP3    H146506   2.178   4.721   0.162
 7437TIP3    H246507   2.038   4.667   0.149
 7438TIP3   OH246508   2.655   4.962   0.632
 7438TIP3    H146509   2.608   5.046   0.650
 7438TIP3    H246510   2.611   4.899   0.692
 7439TIP3   OH246511   2.718   5.373   1.318
 7439TIP3    H146512   2.779   5.436   1.275
 7439TIP3    H246513   2.777   5.327   1.381
 7440TIP3   OH246514   2.537   5.450   0.583
 7440TIP3    H146515   2.445   5.460   0.617
 7440TIP3    H246516   2.578   5.532   0.619
 7441TIP3   OH246517   3.030   4.964   1.252
 7441TIP3    H146518   2.979   4.940   1.333
 7441TIP3    H246519   3.078   4.881   1.234
 7442TIP3   OH246520   3.309   5.084   0.143
 7442TIP3    H146521   3.320   5.039   0.230
 7442TIP3    H246522   3.213   5.074   0.137
 7443TIP3   OH246523   3.356   5.419   1.475
 7443TIP3    H146524   3.266   5.381   1.463
 7443TIP3    H246525   3.363   5.483   1.401
 7444TIP3   OH246526   3.750   5.526   0.186
 7444TIP3    H146527   3.818   5.590   0.156
 7444TIP3    H246528   3.690   5.587   0.237
 7445TIP3   OH246529   2.179   4.158   1.427
 7445TIP3    H146530   2.117   4.205   1.485
 7445TIP3    H246531   2.192   4.075   1.477
 7446TIP3   OH246532   3.381   4.949   0.364
 7446TIP3    H146533   3.382   4.852   0.358
 7446TIP3    H246534   3.477   4.964   0.360
 7447TIP3   OH246535   2.123   5.342   1.260
 7447TIP3    H146536   2.183   5.268   1.273
 7447TIP3    H246537   2.125   5.382   1.348
 7448TIP3   OH246538   2.565   5.137   0.261
 7448TIP3    H146539   2.647   5.109   0.305
 7448TIP3    H246540   2.568   5.235   0.276
 7449TIP3   OH246541   2.228   4.864   0.282
 7449TIP3    H146542   2.158   4.910   0.334
 7449TIP3    H246543   2.287   4.937   0.258
 7450TIP3   OH246544   3.031   4.168   1.308
 7450TIP3    H146545   3.099   4.196   1.373
 7450TIP3    H246546   3.003   4.081   1.340
 7451TIP3   OH246547   3.117   4.058   0.458
 7451TIP3    H146548   3.143   4.123   0.390
 7451TIP3    H246549   3.167   4.088   0.537
 7452TIP3   OH246550   2.858   5.327   0.283
 7452TIP3    H146551   2.793   5.356   0.348
 7452TIP3    H246552   2.910   5.409   0.272
 7453TIP3   OH246553   2.853   4.271   0.550
 7453TIP3    H146554   2.905   4.353   0.562
 7453TIP3    H246555   2.823   4.248   0.640
 7454TIP3   OH246556   2.911   4.398   1.433
 7454TIP3    H146557   2.918   4.419   1.529
 7454TIP3    H246558   2.953   4.311   1.422
 7455TIP3   OH246559   2.892   3.950   0.585
 7455TIP3    H146560   2.844   4.018   0.635
 7455TIP3    H246561   2.973   4.000   0.555
 7456TIP3   OH246562   2.584   5.410   0.304
 7456TIP3    H146563   2.635   5.487   0.277
 7456TIP3    H246564   2.558   5.433   0.395
 7457TIP3   OH246565   2.465   4.076   0.307
 7457TIP3    H146566   2.461   4.156   0.361
 7457TIP3    H246567   2.560   4.054   0.317
 7458TIP3   OH246568   3.476   4.159   1.550
 7458TIP3    H146569   3.381   4.159   1.522
 7458TIP3    H246570   3.520   4.174   1.465
 7459TIP3   OH246571   3.369   4.516   0.923
 7459TIP3    H146572   3.289   4.461   0.933
 7459TIP3    H246573   3.435   4.467   0.977
 7460TIP3   OH246574   2.309   5.134   0.173
 7460TIP3    H146575   2.401   5.133   0.209
 7460TIP3    H246576   2.324   5.095   0.086
 7461TIP3   OH246577   2.142   4.395   0.139
 7461TIP3    H146578   2.149   4.493   0.134
 7461TIP3    H246579   2.080   4.378   0.066
 7462TIP3   OH246580   3.461   5.462   1.072
 7462TIP3    H146581   3.459   5.532   1.003
 7462TIP3    H246582   3.558   5.454   1.078
 7463TIP3   OH246583   2.215   3.866   0.984
 7463TIP3    H146584   2.212   3.855   0.887
 7463TIP3    H246585   2.185   3.777   1.013
 7464TIP3   OH246586   2.081   5.269   0.590
 7464TIP3    H146587   1.997   5.317   0.584
 7464TIP3    H246588   2.122   5.299   0.508
 7465TIP3   OH246589   2.013   5.521   1.712
 7465TIP3    H146590   2.077   5.511   1.785
 7465TIP3    H246591   1.984   5.430   1.695
 7466TIP3   OH246592   2.509   5.427   1.864
 7466TIP3    H146593   2.593   5.388   1.891
 7466TIP3    H246594   2.492   5.385   1.778
 7467TIP3   OH246595   2.897   5.352  -0.010
 7467TIP3    H146596   2.838   5.285   0.029
 7467TIP3    H246597   2.980   5.326   0.035
 7468TIP3   OH246598   3.134   5.289   1.755
 7468TIP3    H146599   3.099   5.201   1.786
 7468TIP3    H246600   3.219   5.293   1.805
 7469TIP3   OH246601   3.320   5.343   0.120
 7469TIP3    H146602   3.333   5.246   0.113
 7469TIP3    H246603   3.364   5.379   0.040
 7470TIP3   OH246604   1.987   4.917   1.824
 7470TIP3    H146605   1.941   4.831   1.830
 7470TIP3    H246606   1.953   4.952   1.738
 7471TIP3   OH246607   2.505   4.867   0.063
 7471TIP3    H146608   2.509   4.836   0.156
 7471TIP3    H246609   2.582   4.927   0.067
 7472TIP3   OH246610   2.674   4.921   1.709
 7472TIP3    H146611   2.659   4.966   1.623
 7472TIP3    H246612   2.666   4.825   1.686
 7473TIP3   OH246613   3.244   4.890   1.511
 7473TIP3    H146614   3.330   4.938   1.511
 7473TIP3    H246615   3.184   4.966   1.516
 7474TIP3   OH246616   2.138   4.613   1.775
 7474TIP3    H146617   2.192   4.539   1.807
 7474TIP3    H246618   2.154   4.679   1.846
 7475TIP3   OH246619   2.596   4.753   0.290
 7475TIP3    H146620   2.523   4.703   0.329
 7475TIP3    H246621   2.631   4.692   0.222
 7476TIP3   OH246622   2.482   4.533   1.449
 7476TIP3    H146623   2.422   4.608   1.429
 7476TIP3    H246624   2.560   4.563   1.398
 7477TIP3   OH246625   2.716   4.577   0.097
 7477TIP3    H146626   2.732   4.543   0.007
 7477TIP3    H246627   2.807   4.579   0.134
 7478TIP3   OH246628   3.038   4.809   1.829
 7478TIP3    H146629   3.110   4.766   1.780
 7478TIP3    H246630   3.012   4.739   1.891
 7479TIP3   OH246631   3.586   4.773  10.010
 7479TIP3    H146632   3.644   4.735   9.944
 7479TIP3    H246633   3.621   4.865  10.008
 7480TIP3   OH246634   2.566   4.288   1.540
 7480TIP3    H146635   2.563   4.220   1.467
 7480TIP3    H246636   2.549   4.372   1.491
 7481TIP3   OH246637   2.586   4.088   1.349
 7481TIP3    H146638   2.640   4.137   1.282
 7481TIP3    H246639   2.498   4.091   1.305
 7482TIP3   OH246640   2.707   4.674   1.350
 7482TIP3    H146641   2.794   4.711   1.329
 7482TIP3    H246642   2.650   4.743   1.310
 7483TIP3   OH246643   3.162   4.409   1.847
 7483TIP3    H146644   3.204   4.322   1.835
 7483TIP3    H246645   3.235   4.463   1.882
 7484TIP3   OH246646   3.330   4.724   1.711
 7484TIP3    H146647   3.290   4.777   1.639
 7484TIP3    H246648   3.424   4.722   1.685
 7485TIP3   OH246649   2.420   4.348   1.767
 7485TIP3    H146650   2.334   4.305   1.747
 7485TIP3    H246651   2.476   4.315   1.692
 7486TIP3   OH246652   2.691   3.845   1.348
 7486TIP3    H146653   2.649   3.934   1.357
 7486TIP3    H246654   2.615   3.796   1.315
 7487TIP3   OH246655   2.788   4.258   1.776
 7487TIP3    H146656   2.718   4.234   1.841
 7487TIP3    H246657   2.739   4.247   1.693
 7488TIP3   OH246658   3.051   4.190   1.660
 7488TIP3    H146659   2.965   4.202   1.704
 7488TIP3    H246660   3.096   4.134   1.727
 7489TIP3   OH246661   3.199   4.052   1.839
 7489TIP3    H146662   3.214   3.957   1.852
 7489TIP3    H246663   3.187   4.083   1.931
 7490TIP3   OH246664   2.196   4.176   1.776
 7490TIP3    H146665   2.175   4.097   1.723
 7490TIP3    H246666   2.171   4.147   1.868
 7491TIP3   OH246667   2.663   3.817   1.636
 7491TIP3    H146668   2.733   3.752   1.658
 7491TIP3    H246669   2.661   3.807   1.538
 7492TIP3   OH246670   2.685   3.930   1.905
 7492TIP3    H146671   2.671   3.896   1.814
 7492TIP3    H246672   2.633   4.013   1.905
 7493TIP3   OH246673   2.681   5.679   0.161
 7493TIP3    H146674   2.770   5.639   0.176
 7493TIP3    H246675   2.694   5.764   0.210
 7494TIP3   OH246676   2.026   5.133   0.162
 7494TIP3    H146677   2.124   5.135   0.152
 7494TIP3    H246678   1.998   5.072   0.090
 7495TIP3   OH246679   1.908   5.601   0.618
 7495TIP3    H146680   1.824   5.557   0.590
 7495TIP3    H246681   1.932   5.550   0.698
 7496TIP3   OH246682   1.991   5.435   0.823
 7496TIP3    H146683   1.942   5.355   0.849
 7496TIP3    H246684   2.053   5.451   0.897
 7497TIP3   OH246685   3.733   5.517   1.089
 7497TIP3    H146686   3.767   5.525   1.180
 7497TIP3    H246687   3.794   5.576   1.043
 7498TIP3   OH246688   3.681   5.480   1.384
 7498TIP3    H146689   3.645   5.403   1.334
 7498TIP3    H246690   3.695   5.437   1.470
 7499TIP3   OH246691   3.553   5.049   1.896
 7499TIP3    H146692   3.462   5.063   1.930
 7499TIP3    H246693   3.591   5.139   1.905
 7500TIP3   OH246694   3.648   4.904   0.381
 7500TIP3    H146695   3.736   4.942   0.402
 7500TIP3    H246696   3.631   4.851   0.460
 7501TIP3   OH246697   3.707   4.705   0.621
 7501TIP3    H146698   3.625   4.658   0.646
 7501TIP3    H246699   3.757   4.707   0.705
 7502TIP3   OH246700   3.666   4.969   1.070
 7502TIP3    H146701   3.732   4.896   1.066
 7502TIP3    H246702   3.715   5.045   1.033
 7503TIP3   OH246703   3.549   5.251   1.322
 7503TIP3    H146704   3.479   5.291   1.376
 7503TIP3    H246705   3.500   5.225   1.240
 7504TIP3   OH246706   3.749   4.686   0.229
 7504TIP3    H146707   3.676   4.704   0.167
 7504TIP3    H246708   3.744   4.765   0.285
 7505TIP3   OH246709   3.528   4.372   0.156
 7505TIP3    H146710   3.505   4.434   0.084
 7505TIP3    H246711   3.594   4.320   0.108
 7506TIP3   OH246712   3.501   4.549   0.687
 7506TIP3    H146713   3.484   4.457   0.664
 7506TIP3    H246714   3.469   4.552   0.779
 7507TIP3   OH246715   1.981   4.784   1.082
 7507TIP3    H146716   1.992   4.755   0.988
 7507TIP3    H246717   2.068   4.753   1.116
 7508TIP3   OH246718   3.600   4.753   1.627
 7508TIP3    H146719   3.646   4.666   1.640
 7508TIP3    H246720   3.673   4.815   1.606
 7509TIP3   OH246721   3.698   4.512   1.666
 7509TIP3    H146722   3.609   4.470   1.673
 7509TIP3    H246723   3.758   4.435   1.680
 7510TIP3   OH246724   3.504   4.138  -0.013
 7510TIP3    H146725   3.557   4.101   0.059
 7510TIP3    H246726   3.415   4.127   0.021
 7511TIP3   OH246727   3.435   4.315   0.492
 7511TIP3    H146728   3.462   4.227   0.527
 7511TIP3    H246729   3.517   4.337   0.447
 7512TIP3   OH246730   3.547   4.365   1.067
 7512TIP3    H146731   3.645   4.382   1.078
 7512TIP3    H246732   3.520   4.371   1.160
 7513TIP3   OH246733   3.547   4.445   1.328
 7513TIP3    H146734   3.459   4.471   1.361
 7513TIP3    H246735   3.589   4.532   1.308
 7514TIP3   OH246736   1.979   4.270   1.665
 7514TIP3    H146737   2.064   4.261   1.714
 7514TIP3    H246738   1.938   4.182   1.682
 7515TIP3   OH246739   3.766   3.866   1.850
 7515TIP3    H146740   3.802   3.793   1.794
 7515TIP3    H246741   3.751   3.937   1.782
 7516TIP3   OH246742   3.537   4.067   0.536
 7516TIP3    H146743   3.571   4.016   0.612
 7516TIP3    H246744   3.482   3.998   0.494
 7517TIP3   OH246745   2.071   4.107   1.031
 7517TIP3    H146746   2.112   4.018   1.026
 7517TIP3    H246747   2.145   4.167   1.008
 7518TIP3   OH246748   1.915   4.422   1.080
 7518TIP3    H146749   1.972   4.394   1.006
 7518TIP3    H246750   1.967   4.497   1.110
 7519TIP3   OH246751   3.685   4.043   1.675
 7519TIP3    H146752   3.598   4.088   1.662
 7519TIP3    H246753   3.681   3.981   1.600
 7520TIP3   OH246754   3.713   4.067   0.178
 7520TIP3    H146755   3.756   4.016   0.109
 7520TIP3    H246756   3.788   4.126   0.204
 7521TIP3   OH246757   1.939   4.037   0.482
 7521TIP3    H146758   1.848   4.066   0.491
 7521TIP3    H246759   1.963   4.078   0.396
 7522TIP3   OH246760   3.420   5.529   0.686
 7522TIP3    H146761   3.486   5.515   0.616
 7522TIP3    H246762   3.464   5.591   0.747
 7523TIP3   OH246763   1.939   3.894   1.311
 7523TIP3    H146764   1.872   3.869   1.378
 7523TIP3    H246765   1.894   3.965   1.264
 7524TIP3   OH246766   2.164   5.219   1.707
 7524TIP3    H146767   2.076   5.249   1.678
 7524TIP3    H246768   2.147   5.174   1.790
 7525TIP3   OH246769   2.456   5.373   1.379
 7525TIP3    H146770   2.460   5.462   1.338
 7525TIP3    H246771   2.551   5.349   1.373
 7526TIP3   OH246772   2.865   5.485   1.621
 7526TIP3    H146773   2.873   5.471   1.718
 7526TIP3    H246774   2.953   5.523   1.601
 7527TIP3   OH246775   3.077   5.648   1.584
 7527TIP3    H146776   3.150   5.614   1.530
 7527TIP3    H246777   3.122   5.668   1.670
 7528TIP3   OH246778   3.620   3.836   1.504
 7528TIP3    H146779   3.559   3.870   1.438
 7528TIP3    H246780   3.628   3.742   1.475
 7529TIP3   OH246781   2.183   5.660   1.352
 7529TIP3    H146782   2.106   5.720   1.335
 7529TIP3    H246783   2.186   5.659   1.449
 7530TIP3   OH246784   2.416   5.614   1.245
 7530TIP3    H146785   2.323   5.627   1.276
 7530TIP3    H246786   2.418   5.669   1.165
 7531TIP3   OH246787   2.878   5.573   1.171
 7531TIP3    H146788   2.809   5.629   1.132
 7531TIP3    H246789   2.917   5.635   1.236
 7532TIP3   OH246790   3.112   5.449   1.318
 7532TIP3    H146791   3.048   5.483   1.255
 7532TIP3    H246792   3.191   5.504   1.297
 7533TIP3   OH246793   3.375   5.602   1.277
 7533TIP3    H146794   3.400   5.690   1.245
 7533TIP3    H246795   3.406   5.550   1.199
 7534TIP3   OH246796   2.140   5.494   1.040
 7534TIP3    H146797   2.123   5.438   1.120
 7534TIP3    H246798   2.230   5.463   1.017
 7535TIP3   OH246799   2.363   5.400   0.917
 7535TIP3    H146800   2.351   5.305   0.936
 7535TIP3    H246801   2.449   5.414   0.961
 7536TIP3   OH246802   2.582   5.382   1.058
 7536TIP3    H146803   2.613   5.293   1.033
 7536TIP3    H246804   2.617   5.392   1.149
 7537TIP3   OH246805   2.965   3.981   0.926
 7537TIP3    H146806   2.880   3.960   0.967
 7537TIP3    H246807   2.973   3.910   0.861
 7538TIP3   OH246808   3.474   3.794   0.903
 7538TIP3    H146809   3.536   3.853   0.855
 7538TIP3    H246810   3.387   3.818   0.862
 7539TIP3   OH246811   3.643   3.915   0.732
 7539TIP3    H146812   3.710   3.858   0.686
 7539TIP3    H246813   3.697   3.995   0.755
 7540TIP3   OH246814   2.196   3.829   0.706
 7540TIP3    H146815   2.109   3.821   0.662
 7540TIP3    H246816   2.234   3.740   0.688
 7541TIP3   OH246817   2.065   3.826   0.274
 7541TIP3    H146818   2.122   3.892   0.226
 7541TIP3    H246819   2.025   3.879   0.345
 7542TIP3   OH246820   2.627   3.780   0.688
 7542TIP3    H146821   2.701   3.818   0.640
 7542TIP3    H246822   2.645   3.808   0.780
 7543TIP3   OH246823   3.226   3.843   0.799
 7543TIP3    H146824   3.178   3.853   0.716
 7543TIP3    H246825   3.173   3.775   0.846
 7544TIP3   OH246826   3.358   3.838   0.427
 7544TIP3    H146827   3.276   3.888   0.412
 7544TIP3    H246828   3.322   3.760   0.474
 7545TIP3   OH246829   2.053   5.431   0.359
 7545TIP3    H146830   1.963   5.431   0.323
 7545TIP3    H246831   2.054   5.521   0.393
 7546TIP3   OH246832   2.229   3.973   0.125
 7546TIP3    H146833   2.306   3.914   0.120
 7546TIP3    H246834   2.263   4.051   0.169
 7547TIP3   OH246835   2.771   4.075   0.363
 7547TIP3    H146836   2.813   4.017   0.430
 7547TIP3    H246837   2.784   4.160   0.410
 7548TIP3   OH246838   2.933   5.563   0.179
 7548TIP3    H146839   3.032   5.580   0.183
 7548TIP3    H246840   2.934   5.513   0.095
 7549TIP3   OH246841   3.589   5.480   0.498
 7549TIP3    H146842   3.580   5.389   0.461
 7549TIP3    H246843   3.573   5.535   0.419
 7550TIP3   OH246844   2.152   3.923   1.637
 7550TIP3    H146845   2.103   3.838   1.641
 7550TIP3    H246846   2.222   3.909   1.704
 7551TIP3   OH246847   2.352   3.850   1.828
 7551TIP3    H146848   2.445   3.839   1.799
 7551TIP3    H246849   2.332   3.757   1.849
 7552TIP3   OH246850   2.277   5.519   0.159
 7552TIP3    H146851   2.214   5.581   0.203
 7552TIP3    H246852   2.251   5.437   0.204
 7553TIP3   OH246853   3.220   3.769   1.862
 7553TIP3    H146854   3.220   3.674   1.880
 7553TIP3    H246855   3.297   3.771   1.801
 7554TIP3   OH246856   3.535   5.387   1.662
 7554TIP3    H146857   3.464   5.380   1.596
 7554TIP3    H246858   3.516   5.474   1.700
 7555TIP3   OH246859   4.991   4.790   0.687
 7555TIP3    H146860   4.982   4.881   0.720
 7555TIP3    H246861   4.932   4.794   0.610
 7556TIP3   OH246862   4.893   4.654   1.026
 7556TIP3    H146863   4.880   4.621   1.118
 7556TIP3    H246864   4.821   4.609   0.977
 7557TIP3   OH246865   4.066   4.651   1.179
 7557TIP3    H146866   4.080   4.582   1.247
 7557TIP3    H246867   4.150   4.699   1.182
 7558TIP3   OH246868   5.185   4.976   0.876
 7558TIP3    H146869   5.171   4.904   0.941
 7558TIP3    H246870   5.215   5.046   0.936
 7559TIP3   OH246871   4.191   5.127   0.996
 7559TIP3    H146872   4.161   5.034   0.986
 7559TIP3    H246873   4.286   5.111   0.982
 7560TIP3   OH246874   3.863   4.453   0.582
 7560TIP3    H146875   3.822   4.541   0.592
 7560TIP3    H246876   3.808   4.417   0.510
 7561TIP3   OH246877   3.914   4.701   0.829
 7561TIP3    H146878   3.957   4.613   0.840
 7561TIP3    H246879   3.975   4.748   0.771
 7562TIP3   OH246880   4.955   5.530   0.861
 7562TIP3    H146881   5.024   5.469   0.826
 7562TIP3    H246882   4.909   5.469   0.919
 7563TIP3   OH246883   4.686   4.934   1.120
 7563TIP3    H146884   4.711   4.890   1.038
 7563TIP3    H246885   4.775   4.961   1.153
 7564TIP3   OH246886   5.561   4.086   1.117
 7564TIP3    H146887   5.568   4.143   1.196
 7564TIP3    H246888   5.643   4.110   1.071
 7565TIP3   OH246889   5.058   4.394   1.137
 7565TIP3    H146890   5.079   4.300   1.145
 7565TIP3    H246891   5.025   4.396   1.044
 7566TIP3   OH246892   4.335   4.154   0.797
 7566TIP3    H146893   4.352   4.234   0.743
 7566TIP3    H246894   4.286   4.101   0.732
 7567TIP3   OH246895   5.090   4.198   0.676
 7567TIP3    H146896   5.145   4.159   0.749
 7567TIP3    H246897   5.154   4.260   0.636
 7568TIP3   OH246898   3.979   4.442   0.894
 7568TIP3    H146899   4.041   4.391   0.948
 7568TIP3    H246900   4.002   4.407   0.806
 7569TIP3   OH246901   4.486   4.586   0.862
 7569TIP3    H146902   4.577   4.555   0.881
 7569TIP3    H246903   4.451   4.507   0.817
 7570TIP3   OH246904   5.569   4.228   1.360
 7570TIP3    H146905   5.529   4.311   1.325
 7570TIP3    H246906   5.592   4.258   1.450
 7571TIP3   OH246907   4.249   4.082   1.215
 7571TIP3    H146908   4.197   4.128   1.146
 7571TIP3    H246909   4.190   4.099   1.291
 7572TIP3   OH246910   4.923   5.049   0.587
 7572TIP3    H146911   4.917   5.039   0.489
 7572TIP3    H246912   4.895   5.141   0.595
 7573TIP3   OH246913   4.445   4.853   1.193
 7573TIP3    H146914   4.399   4.928   1.237
 7573TIP3    H246915   4.530   4.896   1.166
 7574TIP3   OH246916   5.266   4.131   0.869
 7574TIP3    H146917   5.263   4.052   0.925
 7574TIP3    H246918   5.355   4.163   0.889
 7575TIP3   OH246919   4.189   4.272   1.018
 7575TIP3    H146920   4.251   4.335   1.062
 7575TIP3    H246921   4.239   4.248   0.937
 7576TIP3   OH246922   4.330   5.066   1.320
 7576TIP3    H146923   4.305   5.137   1.258
 7576TIP3    H246924   4.244   5.053   1.368
 7577TIP3   OH246925   3.914   4.999   0.405
 7577TIP3    H146926   3.911   5.063   0.330
 7577TIP3    H246927   3.921   5.059   0.481
 7578TIP3   OH246928   5.279   5.176   1.080
 7578TIP3    H146929   5.183   5.189   1.098
 7578TIP3    H246930   5.300   5.264   1.046
 7579TIP3   OH246931   5.297   4.003   1.200
 7579TIP3    H146932   5.223   4.010   1.136
 7579TIP3    H246933   5.369   4.048   1.153
 7580TIP3   OH246934   4.584   3.821   0.961
 7580TIP3    H146935   4.559   3.728   0.969
 7580TIP3    H246936   4.496   3.862   0.981
 7581TIP3   OH246937   5.127   5.353   0.766
 7581TIP3    H146938   5.134   5.278   0.703
 7581TIP3    H246939   5.209   5.403   0.742
 7582TIP3   OH246940   5.205   5.148   0.609
 7582TIP3    H146941   5.199   5.085   0.532
 7582TIP3    H246942   5.191   5.084   0.681
 7583TIP3   OH246943   5.377   5.010   1.470
 7583TIP3    H146944   5.404   4.935   1.412
 7583TIP3    H246945   5.388   5.084   1.406
 7584TIP3   OH246946   4.843   4.729   0.426
 7584TIP3    H146947   4.789   4.811   0.412
 7584TIP3    H246948   4.909   4.740   0.356
 7585TIP3   OH246949   4.892   4.558   0.144
 7585TIP3    H146950   4.960   4.608   0.196
 7585TIP3    H246951   4.943   4.477   0.124
 7586TIP3   OH246952   5.592   4.660   1.248
 7586TIP3    H146953   5.522   4.728   1.253
 7586TIP3    H246954   5.649   4.702   1.181
 7587TIP3   OH246955   5.200   4.681   0.553
 7587TIP3    H146956   5.131   4.730   0.605
 7587TIP3    H246957   5.270   4.664   0.619
 7588TIP3   OH246958   5.188   4.544   1.442
 7588TIP3    H146959   5.168   4.622   1.496
 7588TIP3    H246960   5.120   4.554   1.374
 7589TIP3   OH246961   4.346   4.775   0.729
 7589TIP3    H146962   4.323   4.751   0.636
 7589TIP3    H246963   4.407   4.701   0.751
 7590TIP3   OH246964   4.473   5.108   0.972
 7590TIP3    H146965   4.488   5.091   0.878
 7590TIP3    H246966   4.546   5.061   1.017
 7591TIP3   OH246967   4.348   4.633   1.093
 7591TIP3    H146968   4.391   4.629   1.004
 7591TIP3    H246969   4.399   4.707   1.134
 7592TIP3   OH246970   5.025   5.218   1.162
 7592TIP3    H146971   5.010   5.285   1.231
 7592TIP3    H246972   4.997   5.136   1.207
 7593TIP3   OH246973   4.498   5.113   1.529
 7593TIP3    H146974   4.425   5.158   1.578
 7593TIP3    H246975   4.449   5.092   1.446
 7594TIP3   OH246976   5.087   4.643   0.307
 7594TIP3    H146977   5.133   4.667   0.391
 7594TIP3    H246978   5.121   4.710   0.244
 7595TIP3   OH246979   4.173   4.697   1.458
 7595TIP3    H146980   4.195   4.766   1.524
 7595TIP3    H246981   4.088   4.669   1.495
 7596TIP3   OH246982   4.854   5.375   0.575
 7596TIP3    H146983   4.860   5.375   0.671
 7596TIP3    H246984   4.796   5.451   0.552
 7597TIP3   OH246985   4.308   5.271   1.628
 7597TIP3    H146986   4.291   5.315   1.541
 7597TIP3    H246987   4.216   5.250   1.653
 7598TIP3   OH246988   5.476   3.799   0.311
 7598TIP3    H146989   5.378   3.799   0.324
 7598TIP3    H246990   5.488   3.893   0.291
 7599TIP3   OH246991   4.247   4.660   0.488
 7599TIP3    H146992   4.217   4.742   0.445
 7599TIP3    H246993   4.195   4.593   0.441
 7600TIP3   OH246994   5.554   5.274   0.136
 7600TIP3    H146995   5.574   5.369   0.154
 7600TIP3    H246996   5.639   5.230   0.151
 7601TIP3   OH246997   3.882   4.936   1.376
 7601TIP3    H146998   3.832   4.929   1.294
 7601TIP3    H246999   3.928   4.849   1.375
 7602TIP3   OH247000   3.842   5.202   1.039
 7602TIP3    H147001   3.936   5.178   1.036
 7602TIP3    H247002   3.844   5.280   1.096
 7603TIP3   OH247003   5.660   5.270   1.624
 7603TIP3    H147004   5.646   5.177   1.604
 7603TIP3    H247005   5.571   5.291   1.662
 7604TIP3   OH247006   4.742   5.221   1.496
 7604TIP3    H147007   4.745   5.305   1.546
 7604TIP3    H247008   4.649   5.190   1.508
 7605TIP3   OH247009   4.760   5.610   0.449
 7605TIP3    H147010   4.803   5.619   0.363
 7605TIP3    H247011   4.796   5.690   0.495
 7606TIP3   OH247012   4.158   5.464   0.675
 7606TIP3    H147013   4.185   5.440   0.767
 7606TIP3    H247014   4.067   5.427   0.673
 7607TIP3   OH247015   5.064   5.565   0.219
 7607TIP3    H147016   5.118   5.494   0.177
 7607TIP3    H247017   5.082   5.553   0.315
 7608TIP3   OH247018   5.062   5.519   0.489
 7608TIP3    H147019   4.968   5.493   0.492
 7608TIP3    H247020   5.098   5.447   0.544
 7609TIP3   OH247021   5.371   4.414   1.650
 7609TIP3    H147022   5.308   4.445   1.582
 7609TIP3    H247023   5.364   4.317   1.640
 7610TIP3   OH247024   4.100   5.060   1.461
 7610TIP3    H147025   4.101   5.021   1.551
 7610TIP3    H247026   4.013   5.029   1.427
 7611TIP3   OH247027   4.353   3.909   1.040
 7611TIP3    H147028   4.265   3.911   0.999
 7611TIP3    H247029   4.339   3.971   1.114
 7612TIP3   OH247030   4.845   3.874   1.360
 7612TIP3    H147031   4.876   3.835   1.445
 7612TIP3    H247032   4.747   3.868   1.365
 7613TIP3   OH247033   5.133   4.266   1.496
 7613TIP3    H147034   5.065   4.232   1.560
 7613TIP3    H247035   5.096   4.351   1.466
 7614TIP3   OH247036   5.253   4.768   0.147
 7614TIP3    H147037   5.203   4.781   0.062
 7614TIP3    H247038   5.345   4.786   0.116
 7615TIP3   OH247039   4.791   4.148   0.141
 7615TIP3    H147040   4.736   4.123   0.219
 7615TIP3    H247041   4.747   4.097   0.072
 7616TIP3   OH247042   4.373   4.389   1.187
 7616TIP3    H147043   4.289   4.386   1.238
 7616TIP3    H247044   4.369   4.481   1.153
 7617TIP3   OH247045   4.355   4.369   0.654
 7617TIP3    H147046   4.259   4.382   0.641
 7617TIP3    H247047   4.390   4.364   0.563
 7618TIP3   OH247048   4.924   4.503   0.566
 7618TIP3    H147049   4.892   4.586   0.524
 7618TIP3    H247050   4.987   4.475   0.497
 7619TIP3   OH247051   4.815   4.496   1.674
 7619TIP3    H147052   4.754   4.427   1.708
 7619TIP3    H247053   4.883   4.494   1.742
 7620TIP3   OH247054   5.013   4.430   0.848
 7620TIP3    H147055   5.012   4.513   0.796
 7620TIP3    H247056   5.010   4.366   0.775
 7621TIP3   OH247057   4.137   4.397   1.310
 7621TIP3    H147058   4.160   4.436   1.395
 7621TIP3    H247059   4.097   4.312   1.338
 7622TIP3   OH247060   4.458   4.188   0.046
 7622TIP3    H147061   4.418   4.153   0.128
 7622TIP3    H247062   4.387   4.177  -0.018
 7623TIP3   OH247063   3.799   4.130   0.765
 7623TIP3    H147064   3.867   4.136   0.833
 7623TIP3    H247065   3.849   4.128   0.682
 7624TIP3   OH247066   3.915   4.206   0.282
 7624TIP3    H147067   3.995   4.249   0.247
 7624TIP3    H247068   3.858   4.285   0.294
 7625TIP3   OH247069   4.921   4.586   1.284
 7625TIP3    H147070   4.976   4.520   1.237
 7625TIP3    H247071   4.856   4.526   1.327
 7626TIP3   OH247072   4.652   4.160   0.776
 7626TIP3    H147073   4.555   4.165   0.790
 7626TIP3    H247074   4.686   4.115   0.855
 7627TIP3   OH247075   4.082   4.317   0.667
 7627TIP3    H147076   4.008   4.351   0.613
 7627TIP3    H247077   4.102   4.229   0.628
 7628TIP3   OH247078   4.484   4.321   0.407
 7628TIP3    H147079   4.575   4.350   0.424
 7628TIP3    H247080   4.446   4.391   0.349
 7629TIP3   OH247081   5.061   4.082   1.075
 7629TIP3    H147082   4.992   4.086   1.143
 7629TIP3    H247083   5.017   4.043   0.998
 7630TIP3   OH247084   4.337   4.463   0.216
 7630TIP3    H147085   4.256   4.435   0.170
 7630TIP3    H247086   4.401   4.466   0.143
 7631TIP3   OH247087   5.351   5.677   1.744
 7631TIP3    H147088   5.375   5.732   1.668
 7631TIP3    H247089   5.434   5.682   1.794
 7632TIP3   OH247090   4.143   4.889   1.689
 7632TIP3    H147091   4.203   4.927   1.757
 7632TIP3    H247092   4.059   4.881   1.739
 7633TIP3   OH247093   4.724   4.472   0.932
 7633TIP3    H147094   4.802   4.429   0.894
 7633TIP3    H247095   4.704   4.418   1.009
 7634TIP3   OH247096   4.176   4.049   0.602
 7634TIP3    H147097   4.116   3.987   0.650
 7634TIP3    H247098   4.215   3.989   0.537
 7635TIP3   OH247099   4.618   4.271   1.192
 7635TIP3    H147100   4.534   4.323   1.199
 7635TIP3    H247101   4.676   4.323   1.250
 7636TIP3   OH247102   4.660   4.921   0.392
 7636TIP3    H147103   4.589   4.865   0.356
 7636TIP3    H247104   4.623   4.945   0.479
 7637TIP3   OH247105   5.409   4.867   1.252
 7637TIP3    H147106   5.456   4.920   1.183
 7637TIP3    H247107   5.325   4.854   1.206
 7638TIP3   OH247108   5.046   4.195   0.185
 7638TIP3    H147109   4.948   4.203   0.184
 7638TIP3    H247110   5.073   4.277   0.232
 7639TIP3   OH247111   4.773   4.930   1.482
 7639TIP3    H147112   4.748   4.865   1.548
 7639TIP3    H247113   4.755   5.016   1.523
 7640TIP3   OH247114   5.111   4.389   0.350
 7640TIP3    H147115   5.194   4.365   0.396
 7640TIP3    H247116   5.128   4.482   0.322
 7641TIP3   OH247117   4.187   4.860   0.946
 7641TIP3    H147118   4.247   4.845   0.870
 7641TIP3    H247119   4.195   4.777   0.996
 7642TIP3   OH247120   4.877   5.093   0.330
 7642TIP3    H147121   4.801   5.152   0.316
 7642TIP3    H247122   4.879   5.038   0.249
 7643TIP3   OH247123   3.887   4.673   1.479
 7643TIP3    H147124   3.865   4.636   1.566
 7643TIP3    H247125   3.825   4.626   1.420
 7644TIP3   OH247126   4.577   4.666   1.645
 7644TIP3    H147127   4.512   4.611   1.597
 7644TIP3    H247128   4.604   4.601   1.714
 7645TIP3   OH247129   5.064   5.188   1.511
 7645TIP3    H147130   4.978   5.198   1.466
 7645TIP3    H247131   5.043   5.228   1.598
 7646TIP3   OH247132   5.628   4.384   0.337
 7646TIP3    H147133   5.548   4.377   0.280
 7646TIP3    H247134   5.651   4.477   0.320
 7647TIP3   OH247135   5.614   4.968   1.596
 7647TIP3    H147136   5.519   4.988   1.574
 7647TIP3    H247137   5.656   4.963   1.508
 7648TIP3   OH247138   5.453   5.239   0.379
 7648TIP3    H147139   5.361   5.206   0.381
 7648TIP3    H247140   5.471   5.244   0.282
 7649TIP3   OH247141   5.154   4.752   1.056
 7649TIP3    H147142   5.059   4.735   1.045
 7649TIP3    H247143   5.191   4.676   1.005
 7650TIP3   OH247144   4.403   5.194   0.690
 7650TIP3    H147145   4.443   5.273   0.646
 7650TIP3    H247146   4.309   5.215   0.679
 7651TIP3   OH247147   4.011   4.658   0.108
 7651TIP3    H147148   4.061   4.716   0.169
 7651TIP3    H247149   3.922   4.663   0.148
 7652TIP3   OH247150   4.542   4.960   0.635
 7652TIP3    H147151   4.494   5.044   0.651
 7652TIP3    H247152   4.497   4.898   0.695
 7653TIP3   OH247153   4.609   5.382   1.316
 7653TIP3    H147154   4.670   5.442   1.269
 7653TIP3    H247155   4.670   5.331   1.372
 7654TIP3   OH247156   4.431   5.450   0.596
 7654TIP3    H147157   4.337   5.460   0.619
 7654TIP3    H247158   4.463   5.539   0.625
 7655TIP3   OH247159   4.918   4.964   1.254
 7655TIP3    H147160   4.864   4.937   1.333
 7655TIP3    H247161   4.969   4.882   1.237
 7656TIP3   OH247162   5.197   5.077   0.149
 7656TIP3    H147163   5.173   5.081   0.243
 7656TIP3    H247164   5.130   5.008   0.127
 7657TIP3   OH247165   5.238   5.418   1.479
 7657TIP3    H147166   5.150   5.380   1.459
 7657TIP3    H247167   5.251   5.484   1.406
 7658TIP3   OH247168   5.637   5.522   0.189
 7658TIP3    H147169   5.704   5.585   0.157
 7658TIP3    H247170   5.579   5.585   0.240
 7659TIP3   OH247171   4.060   4.150   1.412
 7659TIP3    H147172   3.978   4.195   1.438
 7659TIP3    H247173   4.061   4.076   1.475
 7660TIP3   OH247174   5.258   4.967   0.399
 7660TIP3    H147175   5.226   4.889   0.351
 7660TIP3    H247176   5.352   4.962   0.372
 7661TIP3   OH247177   4.012   5.346   1.268
 7661TIP3    H147178   4.083   5.281   1.280
 7661TIP3    H247179   4.023   5.399   1.349
 7662TIP3   OH247180   4.440   5.139   0.257
 7662TIP3    H147181   4.526   5.102   0.286
 7662TIP3    H247182   4.452   5.234   0.282
 7663TIP3   OH247183   4.109   4.853   0.283
 7663TIP3    H147184   4.039   4.900   0.334
 7663TIP3    H247185   4.164   4.929   0.254
 7664TIP3   OH247186   4.917   4.147   1.365
 7664TIP3    H147187   5.011   4.151   1.388
 7664TIP3    H247188   4.895   4.053   1.381
 7665TIP3   OH247189   5.021   4.039   0.467
 7665TIP3    H147190   5.024   4.112   0.402
 7665TIP3    H247191   5.054   4.085   0.548
 7666TIP3   OH247192   4.730   5.329   0.281
 7666TIP3    H147193   4.662   5.366   0.339
 7666TIP3    H247194   4.771   5.410   0.246
 7667TIP3   OH247195   4.741   4.264   0.540
 7667TIP3    H147196   4.791   4.347   0.546
 7667TIP3    H247197   4.718   4.242   0.633
 7668TIP3   OH247198   4.793   4.398   1.419
 7668TIP3    H147199   4.788   4.430   1.512
 7668TIP3    H247200   4.825   4.306   1.431
 7669TIP3   OH247201   4.772   3.951   0.579
 7669TIP3    H147202   4.739   4.029   0.628
 7669TIP3    H247203   4.860   3.985   0.551
 7670TIP3   OH247204   4.463   5.408   0.323
 7670TIP3    H147205   4.492   5.494   0.286
 7670TIP3    H247206   4.448   5.431   0.417
 7671TIP3   OH247207   4.359   4.093   0.303
 7671TIP3    H147208   4.364   4.175   0.355
 7671TIP3    H247209   4.450   4.061   0.319
 7672TIP3   OH247210   5.368   4.151   1.532
 7672TIP3    H147211   5.277   4.183   1.509
 7672TIP3    H247212   5.413   4.157   1.445
 7673TIP3   OH247213   5.252   4.519   0.928
 7673TIP3    H147214   5.177   4.458   0.919
 7673TIP3    H247215   5.318   4.464   0.976
 7674TIP3   OH247216   4.182   5.102   0.193
 7674TIP3    H147217   4.272   5.129   0.225
 7674TIP3    H247218   4.201   5.094   0.098
 7675TIP3   OH247219   4.034   4.391   0.131
 7675TIP3    H147220   4.032   4.489   0.136
 7675TIP3    H247221   3.964   4.373   0.066
 7676TIP3   OH247222   5.343   5.459   1.074
 7676TIP3    H147223   5.336   5.526   1.003
 7676TIP3    H247224   5.441   5.452   1.077
 7677TIP3   OH247225   4.086   3.869   0.989
 7677TIP3    H147226   4.082   3.858   0.891
 7677TIP3    H247227   4.066   3.778   1.018
 7678TIP3   OH247228   3.952   5.252   0.590
 7678TIP3    H147229   3.876   5.311   0.589
 7678TIP3    H247230   3.997   5.287   0.512
 7679TIP3   OH247231   3.896   5.547   1.711
 7679TIP3    H147232   3.969   5.528   1.773
 7679TIP3    H247233   3.863   5.457   1.694
 7680TIP3   OH247234   4.380   5.423   1.839
 7680TIP3    H147235   4.466   5.387   1.869
 7680TIP3    H247236   4.368   5.376   1.754
 7681TIP3   OH247237   4.789   5.339  -0.020
 7681TIP3    H147238   4.728   5.264  -0.022
 7681TIP3    H247239   4.853   5.302   0.044
 7682TIP3   OH247240   5.022   5.280   1.759
 7682TIP3    H147241   4.993   5.193   1.798
 7682TIP3    H247242   5.108   5.291   1.804
 7683TIP3   OH247243   5.188   5.339   0.123
 7683TIP3    H147244   5.190   5.240   0.118
 7683TIP3    H247245   5.230   5.367   0.039
 7684TIP3   OH247246   3.878   4.917   1.804
 7684TIP3    H147247   3.837   4.829   1.810
 7684TIP3    H247248   3.835   4.952   1.723
 7685TIP3   OH247249   4.391   4.873   0.050
 7685TIP3    H147250   4.354   4.834   0.130
 7685TIP3    H247251   4.466   4.923   0.087
 7686TIP3   OH247252   4.565   4.926   1.721
 7686TIP3    H147253   4.558   4.987   1.643
 7686TIP3    H247254   4.574   4.837   1.679
 7687TIP3   OH247255   5.120   4.890   1.523
 7687TIP3    H147256   5.199   4.948   1.515
 7687TIP3    H247257   5.050   4.957   1.516
 7688TIP3   OH247258   4.003   4.629   1.775
 7688TIP3    H147259   4.076   4.570   1.748
 7688TIP3    H247260   4.047   4.679   1.847
 7689TIP3   OH247261   4.470   4.736   0.289
 7689TIP3    H147262   4.414   4.669   0.332
 7689TIP3    H247263   4.517   4.683   0.221
 7690TIP3   OH247264   4.362   4.521   1.470
 7690TIP3    H147265   4.301   4.595   1.450
 7690TIP3    H247266   4.435   4.542   1.410
 7691TIP3   OH247267   4.604   4.589   0.095
 7691TIP3    H147268   4.617   4.570   0.002
 7691TIP3    H247269   4.698   4.586   0.128
 7692TIP3   OH247270   4.902   4.789   1.833
 7692TIP3    H147271   4.973   4.781   1.767
 7692TIP3    H247272   4.841   4.719   1.809
 7693TIP3   OH247273   5.490   4.764  10.033
 7693TIP3    H147274   5.504   4.719   9.948
 7693TIP3    H247275   5.522   4.854  10.011
 7694TIP3   OH247276   4.396   4.233   1.557
 7694TIP3    H147277   4.444   4.182   1.487
 7694TIP3    H247278   4.388   4.321   1.518
 7695TIP3   OH247279   4.491   4.099   1.349
 7695TIP3    H147280   4.549   4.139   1.281
 7695TIP3    H247281   4.404   4.110   1.305
 7696TIP3   OH247282   4.595   4.660   1.337
 7696TIP3    H147283   4.676   4.694   1.376
 7696TIP3    H247284   4.546   4.739   1.309
 7697TIP3   OH247285   5.075   4.392   1.890
 7697TIP3    H147286   5.066   4.319   1.827
 7697TIP3    H247287   5.145   4.449   1.855
 7698TIP3   OH247288   5.207   4.712   1.705
 7698TIP3    H147289   5.177   4.772   1.632
 7698TIP3    H247290   5.303   4.711   1.684
 7699TIP3   OH247291   4.226   4.439   1.767
 7699TIP3    H147292   4.214   4.353   1.723
 7699TIP3    H247293   4.323   4.448   1.763
 7700TIP3   OH247294   4.575   3.845   1.334
 7700TIP3    H147295   4.540   3.935   1.355
 7700TIP3    H247296   4.493   3.798   1.316
 7701TIP3   OH247297   4.702   4.231   1.727
 7701TIP3    H147298   4.673   4.266   1.814
 7701TIP3    H247299   4.616   4.231   1.684
 7702TIP3   OH247300   4.964   4.162   1.676
 7702TIP3    H147301   4.866   4.168   1.682
 7702TIP3    H247302   4.984   4.115   1.760
 7703TIP3   OH247303   5.081   4.031   1.888
 7703TIP3    H147304   5.097   3.944   1.844
 7703TIP3    H247305   5.093   4.010   1.981
 7704TIP3   OH247306   4.054   4.189   1.785
 7704TIP3    H147307   4.075   4.113   1.729
 7704TIP3    H247308   4.068   4.153   1.876
 7705TIP3   OH247309   4.539   3.803   1.628
 7705TIP3    H147310   4.612   3.747   1.663
 7705TIP3    H247311   4.554   3.792   1.533
 7706TIP3   OH247312   4.577   3.922   1.885
 7706TIP3    H147313   4.558   3.894   1.793
 7706TIP3    H247314   4.547   4.016   1.887
 7707TIP3   OH247315   4.539   5.640   0.210
 7707TIP3    H147316   4.636   5.633   0.211
 7707TIP3    H247317   4.522   5.676   0.123
 7708TIP3   OH247318   3.917   5.132   0.164
 7708TIP3    H147319   4.014   5.120   0.176
 7708TIP3    H247320   3.899   5.074   0.089
 7709TIP3   OH247321   3.795   5.604   0.623
 7709TIP3    H147322   3.716   5.556   0.592
 7709TIP3    H247323   3.822   5.550   0.701
 7710TIP3   OH247324   3.879   5.439   0.823
 7710TIP3    H147325   3.823   5.362   0.847
 7710TIP3    H247326   3.935   5.451   0.903
 7711TIP3   OH247327   5.619   5.513   1.086
 7711TIP3    H147328   5.650   5.524   1.177
 7711TIP3    H247329   5.689   5.559   1.037
 7712TIP3   OH247330   5.561   5.477   1.390
 7712TIP3    H147331   5.524   5.402   1.338
 7712TIP3    H247332   5.589   5.428   1.470
 7713TIP3   OH247333   5.441   5.047   1.878
 7713TIP3    H147334   5.346   5.052   1.895
 7713TIP3    H247335   5.473   5.127   1.924
 7714TIP3   OH247336   5.529   4.898   0.387
 7714TIP3    H147337   5.615   4.937   0.414
 7714TIP3    H247338   5.511   4.839   0.462
 7715TIP3   OH247339   5.589   4.710   0.628
 7715TIP3    H147340   5.509   4.660   0.656
 7715TIP3    H247341   5.640   4.710   0.712
 7716TIP3   OH247342   5.561   4.975   1.063
 7716TIP3    H147343   5.627   4.905   1.048
 7716TIP3    H247344   5.609   5.056   1.038
 7717TIP3   OH247345   5.424   5.253   1.314
 7717TIP3    H147346   5.356   5.292   1.371
 7717TIP3    H247347   5.373   5.227   1.234
 7718TIP3   OH247348   5.652   4.687   0.235
 7718TIP3    H147349   5.578   4.707   0.173
 7718TIP3    H247350   5.643   4.764   0.295
 7719TIP3   OH247351   5.407   4.380   0.160
 7719TIP3    H147352   5.390   4.446   0.090
 7719TIP3    H247353   5.446   4.312   0.102
 7720TIP3   OH247354   5.388   4.553   0.698
 7720TIP3    H147355   5.359   4.464   0.673
 7720TIP3    H247356   5.356   4.557   0.791
 7721TIP3   OH247357   3.866   4.792   1.090
 7721TIP3    H147358   3.877   4.757   0.999
 7721TIP3    H247359   3.949   4.754   1.129
 7722TIP3   OH247360   5.472   4.742   1.626
 7722TIP3    H147361   5.527   4.661   1.639
 7722TIP3    H247362   5.540   4.811   1.615
 7723TIP3   OH247363   5.619   4.514   1.667
 7723TIP3    H147364   5.528   4.478   1.662
 7723TIP3    H247365   5.669   4.430   1.680
 7724TIP3   OH247366   5.385   4.148  -0.004
 7724TIP3    H147367   5.440   4.097   0.058
 7724TIP3    H247368   5.295   4.124   0.022
 7725TIP3   OH247369   5.322   4.304   0.499
 7725TIP3    H147370   5.355   4.215   0.525
 7725TIP3    H247371   5.405   4.342   0.468
 7726TIP3   OH247372   5.434   4.364   1.056
 7726TIP3    H147373   5.532   4.378   1.066
 7726TIP3    H247374   5.409   4.369   1.150
 7727TIP3   OH247375   5.429   4.447   1.312
 7727TIP3    H147376   5.337   4.475   1.323
 7727TIP3    H247377   5.475   4.533   1.301
 7728TIP3   OH247378   3.818   4.277   1.677
 7728TIP3    H147379   3.901   4.269   1.728
 7728TIP3    H247380   3.781   4.187   1.679
 7729TIP3   OH247381   5.684   3.851   1.869
 7729TIP3    H147382   5.725   3.787   1.806
 7729TIP3    H247383   5.656   3.916   1.801
 7730TIP3   OH247384   5.451   4.060   0.529
 7730TIP3    H147385   5.473   4.009   0.611
 7730TIP3    H247386   5.388   4.000   0.488
 7731TIP3   OH247387   3.963   4.110   1.033
 7731TIP3    H147388   4.002   4.020   1.028
 7731TIP3    H247389   4.037   4.169   1.009
 7732TIP3   OH247390   3.802   4.418   1.085
 7732TIP3    H147391   3.851   4.392   1.005
 7732TIP3    H247392   3.854   4.497   1.108
 7733TIP3   OH247393   5.602   4.033   1.695
 7733TIP3    H147394   5.528   4.090   1.724
 7733TIP3    H247395   5.565   4.002   1.611
 7734TIP3   OH247396   5.592   4.053   0.166
 7734TIP3    H147397   5.640   3.990   0.110
 7734TIP3    H247398   5.662   4.119   0.184
 7735TIP3   OH247399   3.824   4.038   0.480
 7735TIP3    H147400   3.734   4.069   0.494
 7735TIP3    H247401   3.845   4.079   0.393
 7736TIP3   OH247402   5.299   5.533   0.684
 7736TIP3    H147403   5.364   5.514   0.614
 7736TIP3    H247404   5.343   5.597   0.743
 7737TIP3   OH247405   3.827   3.895   1.314
 7737TIP3    H147406   3.766   3.848   1.373
 7737TIP3    H247407   3.769   3.955   1.264
 7738TIP3   OH247408   4.052   5.226   1.713
 7738TIP3    H147409   3.964   5.254   1.681
 7738TIP3    H247410   4.034   5.186   1.798
 7739TIP3   OH247411   4.339   5.368   1.375
 7739TIP3    H147412   4.341   5.459   1.338
 7739TIP3    H247413   4.434   5.348   1.373
 7740TIP3   OH247414   4.748   5.491   1.627
 7740TIP3    H147415   4.764   5.453   1.716
 7740TIP3    H247416   4.839   5.519   1.603
 7741TIP3   OH247417   4.976   5.615   1.561
 7741TIP3    H147418   5.052   5.563   1.530
 7741TIP3    H247419   5.009   5.649   1.647
 7742TIP3   OH247420   5.487   3.843   1.498
 7742TIP3    H147421   5.415   3.889   1.452
 7742TIP3    H247422   5.501   3.764   1.442
 7743TIP3   OH247423   4.075   5.662   1.344
 7743TIP3    H147424   3.997   5.711   1.312
 7743TIP3    H247425   4.066   5.676   1.440
 7744TIP3   OH247426   4.311   5.615   1.248
 7744TIP3    H147427   4.217   5.629   1.275
 7744TIP3    H247428   4.317   5.678   1.174
 7745TIP3   OH247429   4.784   5.571   1.159
 7745TIP3    H147430   4.730   5.621   1.096
 7745TIP3    H247431   4.811   5.643   1.222
 7746TIP3   OH247432   4.994   5.444   1.315
 7746TIP3    H147433   4.927   5.485   1.256
 7746TIP3    H247434   5.070   5.500   1.290
 7747TIP3   OH247435   5.259   5.607   1.283
 7747TIP3    H147436   5.266   5.698   1.250
 7747TIP3    H247437   5.298   5.558   1.207
 7748TIP3   OH247438   4.036   5.503   1.046
 7748TIP3    H147439   4.014   5.441   1.120
 7748TIP3    H247440   4.124   5.469   1.017
 7749TIP3   OH247441   4.244   5.396   0.918
 7749TIP3    H147442   4.234   5.302   0.943
 7749TIP3    H247443   4.333   5.414   0.957
 7750TIP3   OH247444   4.476   5.391   1.044
 7750TIP3    H147445   4.505   5.299   1.027
 7750TIP3    H247446   4.500   5.402   1.138
 7751TIP3   OH247447   4.831   3.980   0.923
 7751TIP3    H147448   4.755   3.945   0.972
 7751TIP3    H247449   4.848   3.908   0.860
 7752TIP3   OH247450   5.358   3.789   0.901
 7752TIP3    H147451   5.426   3.846   0.857
 7752TIP3    H247452   5.274   3.824   0.864
 7753TIP3   OH247453   5.532   3.912   0.741
 7753TIP3    H147454   5.595   3.853   0.692
 7753TIP3    H247455   5.588   3.992   0.756
 7754TIP3   OH247456   4.060   3.828   0.708
 7754TIP3    H147457   3.978   3.814   0.657
 7754TIP3    H247458   4.108   3.745   0.690
 7755TIP3   OH247459   3.940   3.823   0.268
 7755TIP3    H147460   3.997   3.892   0.227
 7755TIP3    H247461   3.897   3.871   0.340
 7756TIP3   OH247462   4.516   3.792   0.686
 7756TIP3    H147463   4.590   3.833   0.640
 7756TIP3    H247464   4.527   3.822   0.777
 7757TIP3   OH247465   5.106   3.854   0.807
 7757TIP3    H147466   5.070   3.856   0.718
 7757TIP3    H247467   5.054   3.782   0.850
 7758TIP3   OH247468   5.246   3.829   0.426
 7758TIP3    H147469   5.171   3.889   0.419
 7758TIP3    H247470   5.206   3.755   0.475
 7759TIP3   OH247471   3.932   5.436   0.376
 7759TIP3    H147472   3.846   5.435   0.330
 7759TIP3    H247473   3.950   5.531   0.367
 7760TIP3   OH247474   4.108   3.973   0.123
 7760TIP3    H147475   4.184   3.912   0.118
 7760TIP3    H247476   4.144   4.048   0.173
 7761TIP3   OH247477   4.648   4.051   0.359
 7761TIP3    H147478   4.690   3.989   0.423
 7761TIP3    H247479   4.653   4.132   0.412
 7762TIP3   OH247480   4.809   5.570   0.176
 7762TIP3    H147481   4.906   5.588   0.188
 7762TIP3    H247482   4.814   5.526   0.090
 7763TIP3   OH247483   5.474   5.478   0.501
 7763TIP3    H147484   5.467   5.390   0.455
 7763TIP3    H247485   5.470   5.540   0.425
 7764TIP3   OH247486   4.033   3.914   1.646
 7764TIP3    H147487   3.989   3.828   1.656
 7764TIP3    H247488   4.111   3.902   1.704
 7765TIP3   OH247489   4.244   3.852   1.827
 7765TIP3    H147490   4.334   3.824   1.805
 7765TIP3    H247491   4.211   3.770   1.870
 7766TIP3   OH247492   4.151   5.552   0.142
 7766TIP3    H147493   4.090   5.574   0.215
 7766TIP3    H247494   4.199   5.475   0.175
 7767TIP3   OH247495   5.093   3.774   1.807
 7767TIP3    H147496   5.091   3.718   1.889
 7767TIP3    H247497   5.186   3.762   1.782
 7768TIP3   OH247498   5.426   5.384   1.665
 7768TIP3    H147499   5.350   5.376   1.603
 7768TIP3    H247500   5.405   5.470   1.705
 7769TIP3   OH247501   6.881   4.786   0.692
 7769TIP3    H147502   6.874   4.873   0.736
 7769TIP3    H247503   6.804   4.793   0.633
 7770TIP3   OH247504   6.740   4.663   1.010
 7770TIP3    H147505   6.760   4.621   1.096
 7770TIP3    H247506   6.670   4.607   0.970
 7771TIP3   OH247507   5.968   4.665   1.162
 7771TIP3    H147508   5.955   4.600   1.234
 7771TIP3    H247509   6.045   4.711   1.197
 7772TIP3   OH247510   7.121   4.999   0.889
 7772TIP3    H147511   7.116   4.922   0.948
 7772TIP3    H247512   7.109   5.073   0.951
 7773TIP3   OH247513   6.080   5.133   1.016
 7773TIP3    H147514   6.045   5.043   1.000
 7773TIP3    H247515   6.174   5.113   0.997
 7774TIP3   OH247516   5.733   4.454   0.581
 7774TIP3    H147517   5.690   4.541   0.588
 7774TIP3    H247518   5.690   4.416   0.503
 7775TIP3   OH247519   5.792   4.694   0.829
 7775TIP3    H147520   5.839   4.608   0.840
 7775TIP3    H247521   5.851   4.746   0.772
 7776TIP3   OH247522   6.830   5.524   0.897
 7776TIP3    H147523   6.889   5.465   0.844
 7776TIP3    H247524   6.794   5.459   0.958
 7777TIP3   OH247525   6.569   4.933   1.128
 7777TIP3    H147526   6.599   4.887   1.049
 7777TIP3    H247527   6.655   4.960   1.167
 7778TIP3   OH247528   7.463   4.116   1.113
 7778TIP3    H147529   7.462   4.181   1.185
 7778TIP3    H247530   7.525   4.157   1.050
 7779TIP3   OH247531   6.923   4.378   1.129
 7779TIP3    H147532   6.969   4.298   1.157
 7779TIP3    H247533   6.918   4.362   1.033
 7780TIP3   OH247534   6.209   4.165   0.803
 7780TIP3    H147535   6.227   4.244   0.748
 7780TIP3    H247536   6.176   4.104   0.733
 7781TIP3   OH247537   6.991   4.190   0.671
 7781TIP3    H147538   7.045   4.175   0.752
 7781TIP3    H247539   7.044   4.256   0.625
 7782TIP3   OH247540   5.876   4.453   0.896
 7782TIP3    H147541   5.940   4.414   0.959
 7782TIP3    H247542   5.897   4.404   0.814
 7783TIP3   OH247543   6.373   4.580   0.844
 7783TIP3    H147544   6.449   4.534   0.884
 7783TIP3    H247545   6.336   4.508   0.791
 7784TIP3   OH247546   7.456   4.218   1.391
 7784TIP3    H147547   7.395   4.285   1.353
 7784TIP3    H247548   7.531   4.275   1.413
 7785TIP3   OH247549   6.131   4.092   1.216
 7785TIP3    H147550   6.090   4.141   1.143
 7785TIP3    H247551   6.062   4.105   1.284
 7786TIP3   OH247552   6.797   5.038   0.573
 7786TIP3    H147553   6.788   5.032   0.476
 7786TIP3    H247554   6.775   5.133   0.587
 7787TIP3   OH247555   6.330   4.855   1.201
 7787TIP3    H147556   6.283   4.936   1.233
 7787TIP3    H247557   6.412   4.896   1.166
 7788TIP3   OH247558   7.148   4.165   0.888
 7788TIP3    H147559   7.115   4.095   0.948
 7788TIP3    H247560   7.233   4.192   0.930
 7789TIP3   OH247561   6.072   4.278   1.019
 7789TIP3    H147562   6.139   4.338   1.061
 7789TIP3    H247563   6.122   4.246   0.941
 7790TIP3   OH247564   6.220   5.080   1.314
 7790TIP3    H147565   6.206   5.150   1.249
 7790TIP3    H247566   6.128   5.072   1.351
 7791TIP3   OH247567   5.793   4.995   0.411
 7791TIP3    H147568   5.785   5.047   0.328
 7791TIP3    H247569   5.795   5.066   0.478
 7792TIP3   OH247570   7.161   5.202   1.074
 7792TIP3    H147571   7.069   5.212   1.104
 7792TIP3    H247572   7.180   5.293   1.047
 7793TIP3   OH247573   7.206   4.065   1.215
 7793TIP3    H147574   7.127   4.089   1.162
 7793TIP3    H247575   7.282   4.091   1.159
 7794TIP3   OH247576   6.465   3.831   0.944
 7794TIP3    H147577   6.433   3.746   0.977
 7794TIP3    H247578   6.386   3.885   0.972
 7795TIP3   OH247579   6.980   5.349   0.755
 7795TIP3    H147580   7.000   5.264   0.711
 7795TIP3    H247581   7.066   5.394   0.737
 7796TIP3   OH247582   7.087   5.150   0.606
 7796TIP3    H147583   7.078   5.079   0.541
 7796TIP3    H247584   7.126   5.104   0.682
 7797TIP3   OH247585   7.260   5.002   1.460
 7797TIP3    H147586   7.245   4.942   1.384
 7797TIP3    H247587   7.283   5.084   1.413
 7798TIP3   OH247588   6.722   4.713   0.420
 7798TIP3    H147589   6.681   4.802   0.414
 7798TIP3    H247590   6.797   4.721   0.360
 7799TIP3   OH247591   6.767   4.579   0.135
 7799TIP3    H147592   6.846   4.607   0.188
 7799TIP3    H247593   6.794   4.488   0.112
 7800TIP3   OH247594   7.423   4.635   1.256
 7800TIP3    H147595   7.364   4.710   1.231
 7800TIP3    H247596   7.499   4.651   1.197
 7801TIP3   OH247597   7.082   4.715   0.527
 7801TIP3    H147598   7.011   4.750   0.586
 7801TIP3    H247599   7.143   4.677   0.595
 7802TIP3   OH247600   7.069   4.547   1.441
 7802TIP3    H147601   7.047   4.632   1.482
 7802TIP3    H247602   7.007   4.554   1.366
 7803TIP3   OH247603   6.226   4.773   0.719
 7803TIP3    H147604   6.194   4.753   0.628
 7803TIP3    H247605   6.286   4.696   0.735
 7804TIP3   OH247606   6.361   5.105   0.983
 7804TIP3    H147607   6.374   5.094   0.888
 7804TIP3    H247608   6.440   5.063   1.021
 7805TIP3   OH247609   6.257   4.633   1.083
 7805TIP3    H147610   6.288   4.637   0.989
 7805TIP3    H247611   6.300   4.713   1.121
 7806TIP3   OH247612   6.914   5.218   1.159
 7806TIP3    H147613   6.902   5.292   1.221
 7806TIP3    H247614   6.877   5.143   1.210
 7807TIP3   OH247615   6.376   5.112   1.537
 7807TIP3    H147616   6.304   5.157   1.588
 7807TIP3    H247617   6.328   5.100   1.452
 7808TIP3   OH247618   6.961   4.657   0.294
 7808TIP3    H147619   6.997   4.669   0.385
 7808TIP3    H247620   7.021   4.715   0.242
 7809TIP3   OH247621   6.063   4.709   1.438
 7809TIP3    H147622   6.064   4.799   1.471
 7809TIP3    H247623   6.009   4.667   1.507
 7810TIP3   OH247624   6.736   5.312   0.581
 7810TIP3    H147625   6.770   5.335   0.670
 7810TIP3    H247626   6.683   5.389   0.556
 7811TIP3   OH247627   6.193   5.269   1.639
 7811TIP3    H147628   6.183   5.316   1.554
 7811TIP3    H247629   6.099   5.247   1.658
 7812TIP3   OH247630   7.331   3.787   0.250
 7812TIP3    H147631   7.233   3.793   0.259
 7812TIP3    H247632   7.357   3.871   0.290
 7813TIP3   OH247633   6.128   4.665   0.482
 7813TIP3    H147634   6.080   4.736   0.436
 7813TIP3    H247635   6.095   4.585   0.440
 7814TIP3   OH247636   7.476   5.271   0.158
 7814TIP3    H147637   7.493   5.368   0.166
 7814TIP3    H247638   7.564   5.234   0.173
 7815TIP3   OH247639   5.767   4.935   1.378
 7815TIP3    H147640   5.722   4.928   1.293
 7815TIP3    H247641   5.805   4.844   1.382
 7816TIP3   OH247642   5.736   5.202   1.029
 7816TIP3    H147643   5.831   5.183   1.031
 7816TIP3    H247644   5.732   5.278   1.087
 7817TIP3   OH247645   7.526   5.278   1.599
 7817TIP3    H147646   7.522   5.182   1.589
 7817TIP3    H247647   7.453   5.290   1.663
 7818TIP3   OH247648   6.626   5.207   1.515
 7818TIP3    H147649   6.645   5.290   1.563
 7818TIP3    H247650   6.530   5.191   1.531
 7819TIP3   OH247651   6.676   5.588   0.454
 7819TIP3    H147652   6.689   5.609   0.360
 7819TIP3    H247653   6.676   5.678   0.494
 7820TIP3   OH247654   6.049   5.464   0.674
 7820TIP3    H147655   6.077   5.440   0.765
 7820TIP3    H247656   5.958   5.427   0.673
 7821TIP3   OH247657   6.957   5.575   0.196
 7821TIP3    H147658   6.998   5.493   0.161
 7821TIP3    H247659   6.976   5.571   0.290
 7822TIP3   OH247660   6.943   5.501   0.465
 7822TIP3    H147661   6.848   5.506   0.487
 7822TIP3    H247662   6.976   5.431   0.524
 7823TIP3   OH247663   7.228   4.435   1.656
 7823TIP3    H147664   7.157   4.453   1.590
 7823TIP3    H247665   7.239   4.339   1.648
 7824TIP3   OH247666   5.982   5.071   1.446
 7824TIP3    H147667   5.987   5.040   1.539
 7824TIP3    H247668   5.896   5.032   1.419
 7825TIP3   OH247669   6.240   3.924   1.046
 7825TIP3    H147670   6.152   3.923   1.005
 7825TIP3    H247671   6.220   3.977   1.126
 7826TIP3   OH247672   6.732   3.873   1.383
 7826TIP3    H147673   6.752   3.806   1.450
 7826TIP3    H247674   6.634   3.869   1.374
 7827TIP3   OH247675   7.010   4.254   1.469
 7827TIP3    H147676   6.952   4.224   1.543
 7827TIP3    H247677   6.986   4.348   1.464
 7828TIP3   OH247678   7.116   4.789   0.133
 7828TIP3    H147679   7.070   4.797   0.045
 7828TIP3    H247680   7.208   4.791   0.100
 7829TIP3   OH247681   6.689   4.145   0.139
 7829TIP3    H147682   6.643   4.114   0.220
 7829TIP3    H247683   6.627   4.112   0.072
 7830TIP3   OH247684   6.252   4.397   1.189
 7830TIP3    H147685   6.171   4.397   1.245
 7830TIP3    H247686   6.248   4.489   1.152
 7831TIP3   OH247687   6.245   4.379   0.655
 7831TIP3    H147688   6.149   4.388   0.644
 7831TIP3    H247689   6.276   4.358   0.564
 7832TIP3   OH247690   6.824   4.507   0.574
 7832TIP3    H147691   6.778   4.576   0.521
 7832TIP3    H247692   6.880   4.466   0.505
 7833TIP3   OH247693   6.661   4.485   1.699
 7833TIP3    H147694   6.629   4.398   1.730
 7833TIP3    H247695   6.746   4.491   1.746
 7834TIP3   OH247696   6.899   4.448   0.839
 7834TIP3    H147697   6.883   4.532   0.794
 7834TIP3    H247698   6.903   4.390   0.762
 7835TIP3   OH247699   6.007   4.404   1.316
 7835TIP3    H147700   6.031   4.443   1.401
 7835TIP3    H247701   5.975   4.315   1.340
 7836TIP3   OH247702   6.344   4.149   0.051
 7836TIP3    H147703   6.297   4.137   0.136
 7836TIP3    H247704   6.273   4.178  -0.008
 7837TIP3   OH247705   5.684   4.138   0.756
 7837TIP3    H147706   5.752   4.135   0.826
 7837TIP3    H247707   5.735   4.129   0.675
 7838TIP3   OH247708   5.809   4.195   0.285
 7838TIP3    H147709   5.884   4.249   0.251
 7838TIP3    H247710   5.745   4.268   0.299
 7839TIP3   OH247711   6.822   4.584   1.274
 7839TIP3    H147712   6.866   4.514   1.220
 7839TIP3    H247713   6.766   4.528   1.333
 7840TIP3   OH247714   6.529   4.149   0.772
 7840TIP3    H147715   6.434   4.161   0.788
 7840TIP3    H247716   6.562   4.116   0.856
 7841TIP3   OH247717   5.960   4.315   0.675
 7841TIP3    H147718   5.890   4.347   0.614
 7841TIP3    H247719   5.992   4.232   0.635
 7842TIP3   OH247720   6.354   4.338   0.413
 7842TIP3    H147721   6.447   4.362   0.416
 7842TIP3    H247722   6.316   4.405   0.352
 7843TIP3   OH247723   6.961   4.087   1.078
 7843TIP3    H147724   6.895   4.087   1.149
 7843TIP3    H247725   6.902   4.055   1.006
 7844TIP3   OH247726   6.210   4.471   0.221
 7844TIP3    H147727   6.134   4.437   0.171
 7844TIP3    H247728   6.278   4.479   0.151
 7845TIP3   OH247729   7.251   5.633   1.742
 7845TIP3    H147730   7.285   5.680   1.663
 7845TIP3    H247731   7.325   5.646   1.805
 7846TIP3   OH247732   5.994   4.934   1.686
 7846TIP3    H147733   6.072   4.957   1.740
 7846TIP3    H247734   5.929   4.904   1.752
 7847TIP3   OH247735   6.610   4.432   0.941
 7847TIP3    H147736   6.697   4.416   0.902
 7847TIP3    H247737   6.596   4.353   0.995
 7848TIP3   OH247738   6.080   4.041   0.597
 7848TIP3    H147739   6.015   3.978   0.637
 7848TIP3    H247740   6.129   3.980   0.539
 7849TIP3   OH247741   6.483   4.261   1.194
 7849TIP3    H147742   6.402   4.317   1.193
 7849TIP3    H247743   6.546   4.319   1.238
 7850TIP3   OH247744   6.547   4.935   0.386
 7850TIP3    H147745   6.474   4.880   0.350
 7850TIP3    H247746   6.510   4.950   0.476
 7851TIP3   OH247747   7.264   4.861   1.228
 7851TIP3    H147748   7.322   4.899   1.159
 7851TIP3    H247749   7.181   4.848   1.176
 7852TIP3   OH247750   6.941   4.200   0.201
 7852TIP3    H147751   6.844   4.193   0.188
 7852TIP3    H247752   6.948   4.291   0.237
 7853TIP3   OH247753   6.668   4.937   1.536
 7853TIP3    H147754   6.625   4.927   1.623
 7853TIP3    H247755   6.658   5.034   1.526
 7854TIP3   OH247756   6.998   4.401   0.360
 7854TIP3    H147757   7.090   4.384   0.388
 7854TIP3    H247758   7.005   4.489   0.319
 7855TIP3   OH247759   6.075   4.861   0.951
 7855TIP3    H147760   6.127   4.837   0.872
 7855TIP3    H247761   6.073   4.778   1.002
 7856TIP3   OH247762   6.772   5.041   0.288
 7856TIP3    H147763   6.761   5.136   0.300
 7856TIP3    H247764   6.681   5.010   0.310
 7857TIP3   OH247765   5.780   4.671   1.445
 7857TIP3    H147766   5.757   4.634   1.532
 7857TIP3    H247767   5.717   4.629   1.384
 7858TIP3   OH247768   6.445   4.652   1.657
 7858TIP3    H147769   6.412   4.615   1.574
 7858TIP3    H247770   6.533   4.608   1.664
 7859TIP3   OH247771   6.953   5.169   1.515
 7859TIP3    H147772   6.872   5.179   1.464
 7859TIP3    H247773   6.924   5.204   1.602
 7860TIP3   OH247774   7.461   4.410   0.349
 7860TIP3    H147775   7.411   4.366   0.276
 7860TIP3    H247776   7.468   4.498   0.307
 7861TIP3   OH247777   7.487   4.973   1.594
 7861TIP3    H147778   7.396   4.992   1.561
 7861TIP3    H247779   7.537   4.963   1.510
 7862TIP3   OH247780   7.324   5.244   0.381
 7862TIP3    H147781   7.249   5.185   0.382
 7862TIP3    H247782   7.364   5.231   0.293
 7863TIP3   OH247783   7.063   4.789   1.045
 7863TIP3    H147784   6.973   4.788   1.010
 7863TIP3    H247785   7.092   4.702   1.008
 7864TIP3   OH247786   6.281   5.199   0.704
 7864TIP3    H147787   6.306   5.288   0.671
 7864TIP3    H247788   6.187   5.199   0.679
 7865TIP3   OH247789   5.895   4.642   0.116
 7865TIP3    H147790   5.947   4.708   0.165
 7865TIP3    H247791   5.805   4.655   0.156
 7866TIP3   OH247792   6.431   4.960   0.640
 7866TIP3    H147793   6.379   5.042   0.654
 7866TIP3    H247794   6.389   4.894   0.699
 7867TIP3   OH247795   6.495   5.374   1.317
 7867TIP3    H147796   6.558   5.443   1.289
 7867TIP3    H247797   6.550   5.326   1.382
 7868TIP3   OH247798   6.309   5.445   0.592
 7868TIP3    H147799   6.214   5.461   0.612
 7868TIP3    H247800   6.344   5.534   0.615
 7869TIP3   OH247801   6.795   4.963   1.263
 7869TIP3    H147802   6.748   4.936   1.345
 7869TIP3    H247803   6.840   4.880   1.240
 7870TIP3   OH247804   7.070   5.094   0.147
 7870TIP3    H147805   7.109   5.044   0.222
 7870TIP3    H247806   6.979   5.061   0.152
 7871TIP3   OH247807   7.119   5.419   1.480
 7871TIP3    H147808   7.037   5.366   1.477
 7871TIP3    H247809   7.119   5.471   1.396
 7872TIP3   OH247810   7.536   5.531   0.149
 7872TIP3    H147811   7.597   5.605   0.145
 7872TIP3    H247812   7.454   5.575   0.183
 7873TIP3   OH247813   5.940   4.154   1.419
 7873TIP3    H147814   5.884   4.208   1.478
 7873TIP3    H247815   5.941   4.070   1.469
 7874TIP3   OH247816   7.166   4.955   0.371
 7874TIP3    H147817   7.136   4.863   0.371
 7874TIP3    H247818   7.263   4.943   0.373
 7875TIP3   OH247819   5.901   5.347   1.260
 7875TIP3    H147820   5.951   5.266   1.277
 7875TIP3    H247821   5.906   5.389   1.347
 7876TIP3   OH247822   6.328   5.136   0.254
 7876TIP3    H147823   6.413   5.104   0.289
 7876TIP3    H247824   6.334   5.232   0.280
 7877TIP3   OH247825   6.003   4.861   0.293
 7877TIP3    H147826   5.925   4.905   0.334
 7877TIP3    H247827   6.049   4.939   0.255
 7878TIP3   OH247828   6.777   4.155   1.346
 7878TIP3    H147829   6.866   4.164   1.384
 7878TIP3    H247830   6.756   4.062   1.368
 7879TIP3   OH247831   6.884   4.061   0.453
 7879TIP3    H147832   6.901   4.127   0.383
 7879TIP3    H247833   6.938   4.096   0.528
 7880TIP3   OH247834   6.640   5.309   0.271
 7880TIP3    H147835   6.565   5.330   0.329
 7880TIP3    H247836   6.680   5.398   0.262
 7881TIP3   OH247837   6.638   4.272   0.553
 7881TIP3    H147838   6.678   4.360   0.569
 7881TIP3    H247839   6.609   4.241   0.641
 7882TIP3   OH247840   6.693   4.397   1.424
 7882TIP3    H147841   6.689   4.407   1.522
 7882TIP3    H247842   6.726   4.306   1.409
 7883TIP3   OH247843   6.673   3.950   0.592
 7883TIP3    H147844   6.619   4.018   0.635
 7883TIP3    H247845   6.755   3.998   0.566
 7884TIP3   OH247846   6.367   5.386   0.330
 7884TIP3    H147847   6.389   5.472   0.286
 7884TIP3    H247848   6.340   5.417   0.419
 7885TIP3   OH247849   6.244   4.083   0.298
 7885TIP3    H147850   6.234   4.164   0.350
 7885TIP3    H247851   6.336   4.061   0.319
 7886TIP3   OH247852   7.252   4.141   1.552
 7886TIP3    H147853   7.166   4.162   1.511
 7886TIP3    H247854   7.315   4.160   1.479
 7887TIP3   OH247855   7.123   4.559   0.925
 7887TIP3    H147856   7.042   4.505   0.912
 7887TIP3    H247857   7.179   4.495   0.976
 7888TIP3   OH247858   6.075   5.103   0.183
 7888TIP3    H147859   6.165   5.124   0.220
 7888TIP3    H247860   6.098   5.094   0.089
 7889TIP3   OH247861   5.929   4.378   0.137
 7889TIP3    H147862   5.929   4.476   0.137
 7889TIP3    H247863   5.856   4.361   0.074
 7890TIP3   OH247864   7.262   5.456   1.083
 7890TIP3    H147865   7.246   5.527   1.016
 7890TIP3    H247866   7.358   5.460   1.096
 7891TIP3   OH247867   5.980   3.870   0.987
 7891TIP3    H147868   5.980   3.842   0.893
 7891TIP3    H247869   5.956   3.787   1.034
 7892TIP3   OH247870   5.844   5.257   0.591
 7892TIP3    H147871   5.768   5.317   0.591
 7892TIP3    H247872   5.887   5.286   0.510
 7893TIP3   OH247873   5.783   5.535   1.696
 7893TIP3    H147874   5.848   5.525   1.769
 7893TIP3    H247875   5.750   5.443   1.690
 7894TIP3   OH247876   6.286   5.439   1.855
 7894TIP3    H147877   6.364   5.401   1.900
 7894TIP3    H247878   6.273   5.380   1.779
 7895TIP3   OH247879   6.677   5.351  -0.015
 7895TIP3    H147880   6.609   5.301   0.034
 7895TIP3    H247881   6.757   5.325   0.033
 7896TIP3   OH247882   6.901   5.310   1.754
 7896TIP3    H147883   6.870   5.222   1.787
 7896TIP3    H247884   6.986   5.319   1.802
 7897TIP3   OH247885   7.058   5.353   0.076
 7897TIP3    H147886   7.081   5.262   0.103
 7897TIP3    H247887   7.137   5.387   0.029
 7898TIP3   OH247888   5.751   4.905   1.820
 7898TIP3    H147889   5.710   4.818   1.833
 7898TIP3    H247890   5.711   4.933   1.734
 7899TIP3   OH247891   6.252   4.871   0.050
 7899TIP3    H147892   6.232   4.864   0.145
 7899TIP3    H247893   6.339   4.911   0.057
 7900TIP3   OH247894   6.450   4.922   1.720
 7900TIP3    H147895   6.433   4.978   1.641
 7900TIP3    H247896   6.437   4.831   1.686
 7901TIP3   OH247897   7.029   4.883   1.513
 7901TIP3    H147898   7.124   4.909   1.519
 7901TIP3    H247899   6.991   4.972   1.526
 7902TIP3   OH247900   5.923   4.621   1.751
 7902TIP3    H147901   5.927   4.535   1.797
 7902TIP3    H247902   5.911   4.680   1.828
 7903TIP3   OH247903   6.359   4.759   0.291
 7903TIP3    H147904   6.289   4.707   0.334
 7903TIP3    H247905   6.398   4.696   0.228
 7904TIP3   OH247906   6.247   4.527   1.447
 7904TIP3    H147907   6.184   4.601   1.435
 7904TIP3    H247908   6.321   4.562   1.394
 7905TIP3   OH247909   6.491   4.583   0.101
 7905TIP3    H147910   6.508   4.554   0.010
 7905TIP3    H247911   6.583   4.586   0.138
 7906TIP3   OH247912   6.779   4.781   1.854
 7906TIP3    H147913   6.840   4.771   1.779
 7906TIP3    H247914   6.804   4.706   1.910
 7907TIP3   OH247915   7.356   4.750  10.008
 7907TIP3    H147916   7.397   4.673   9.965
 7907TIP3    H247917   7.417   4.821   9.977
 7908TIP3   OH247918   6.339   4.290   1.555
 7908TIP3    H147919   6.348   4.228   1.480
 7908TIP3    H247920   6.302   4.370   1.512
 7909TIP3   OH247921   6.356   4.088   1.359
 7909TIP3    H147922   6.409   4.135   1.290
 7909TIP3    H247923   6.266   4.092   1.320
 7910TIP3   OH247924   6.468   4.675   1.367
 7910TIP3    H147925   6.559   4.698   1.344
 7910TIP3    H247926   6.418   4.743   1.319
 7911TIP3   OH247927   6.922   4.421   1.863
 7911TIP3    H147928   6.925   4.327   1.882
 7911TIP3    H247929   7.010   4.453   1.888
 7912TIP3   OH247930   7.060   4.730   1.728
 7912TIP3    H147931   7.034   4.776   1.646
 7912TIP3    H247932   7.151   4.703   1.707
 7913TIP3   OH247933   6.186   4.353   1.785
 7913TIP3    H147934   6.096   4.316   1.775
 7913TIP3    H247935   6.228   4.322   1.703
 7914TIP3   OH247936   6.471   3.850   1.331
 7914TIP3    H147937   6.432   3.938   1.352
 7914TIP3    H247938   6.390   3.801   1.310
 7915TIP3   OH247939   6.572   4.221   1.761
 7915TIP3    H147940   6.503   4.223   1.831
 7915TIP3    H247941   6.517   4.232   1.681
 7916TIP3   OH247942   6.849   4.177   1.665
 7916TIP3    H147943   6.758   4.165   1.699
 7916TIP3    H247944   6.900   4.131   1.736
 7917TIP3   OH247945   6.962   4.040   1.860
 7917TIP3    H147946   6.993   3.948   1.868
 7917TIP3    H247947   6.962   4.070   1.955
 7918TIP3   OH247948   5.971   4.184   1.739
 7918TIP3    H147949   5.951   4.097   1.698
 7918TIP3    H247950   5.960   4.161   1.835
 7919TIP3   OH247951   6.428   3.792   1.673
 7919TIP3    H147952   6.487   3.714   1.673
 7919TIP3    H247953   6.426   3.815   1.579
 7920TIP3   OH247954   6.431   3.910   1.917
 7920TIP3    H147955   6.428   3.863   1.830
 7920TIP3    H247956   6.417   4.001   1.889
 7921TIP3   OH247957   6.413   5.622   0.207
 7921TIP3    H147958   6.510   5.624   0.215
 7921TIP3    H247959   6.395   5.682   0.133
 7922TIP3   OH247960   5.800   5.114   0.168
 7922TIP3    H147961   5.899   5.105   0.175
 7922TIP3    H247962   5.782   5.065   0.087
 7923TIP3   OH247963   5.674   5.607   0.620
 7923TIP3    H147964   5.597   5.554   0.589
 7923TIP3    H247965   5.702   5.555   0.699
 7924TIP3   OH247966   5.756   5.443   0.820
 7924TIP3    H147967   5.693   5.376   0.852
 7924TIP3    H247968   5.817   5.454   0.897
 7925TIP3   OH247969   7.545   5.494   1.142
 7925TIP3    H147970   7.549   5.496   1.240
 7925TIP3    H247971   7.538   5.589   1.125
 7926TIP3   OH247972   7.459   5.474   1.413
 7926TIP3    H147973   7.413   5.405   1.360
 7926TIP3    H247974   7.490   5.420   1.489
 7927TIP3   OH247975   7.318   5.039   1.886
 7927TIP3    H147976   7.236   5.060   1.936
 7927TIP3    H247977   7.351   5.127   1.864
 7928TIP3   OH247978   7.444   4.896   0.394
 7928TIP3    H147979   7.532   4.937   0.403
 7928TIP3    H247980   7.450   4.824   0.459
 7929TIP3   OH247981   7.475   4.699   0.604
 7929TIP3    H147982   7.381   4.671   0.598
 7929TIP3    H247983   7.488   4.680   0.698
 7930TIP3   OH247984   7.495   4.937   1.094
 7930TIP3    H147985   7.588   4.935   1.067
 7930TIP3    H247986   7.480   5.033   1.075
 7931TIP3   OH247987   7.319   5.248   1.327
 7931TIP3    H147988   7.239   5.278   1.374
 7931TIP3    H247989   7.287   5.236   1.236
 7932TIP3   OH247990   7.504   4.693   0.223
 7932TIP3    H147991   7.439   4.716   0.154
 7932TIP3    H247992   7.503   4.777   0.271
 7933TIP3   OH247993   7.329   4.373   0.126
 7933TIP3    H147994   7.290   4.432   0.061
 7933TIP3    H247995   7.332   4.289   0.076
 7934TIP3   OH247996   7.252   4.579   0.682
 7934TIP3    H147997   7.224   4.491   0.648
 7934TIP3    H247998   7.212   4.580   0.771
 7935TIP3   OH247999   5.753   4.784   1.082
 7935TIP3    H148000   5.758   4.750   0.989
 7935TIP3    H248001   5.843   4.757   1.112
 7936TIP3   OH248002   7.339   4.734   1.637
 7936TIP3    H148003   7.405   4.662   1.628
 7936TIP3    H248004   7.391   4.815   1.618
 7937TIP3   OH248005   7.482   4.514   1.649
 7937TIP3    H148006   7.384   4.500   1.657
 7937TIP3    H248007   7.514   4.427   1.683
 7938TIP3   OH248008   7.271   4.156  -0.011
 7938TIP3    H148009   7.323   4.090   0.037
 7938TIP3    H248010   7.182   4.140   0.024
 7939TIP3   OH248011   7.233   4.335   0.508
 7939TIP3    H148012   7.227   4.237   0.512
 7939TIP3    H248013   7.328   4.347   0.498
 7940TIP3   OH248014   7.250   4.375   1.060
 7940TIP3    H148015   7.348   4.368   1.049
 7940TIP3    H248016   7.246   4.375   1.158
 7941TIP3   OH248017   7.288   4.419   1.332
 7941TIP3    H148018   7.206   4.456   1.370
 7941TIP3    H248019   7.338   4.502   1.313
 7942TIP3   OH248020   5.720   4.269   1.669
 7942TIP3    H148021   5.811   4.264   1.705
 7942TIP3    H248022   5.687   4.178   1.684
 7943TIP3   OH248023   7.515   3.802   1.852
 7943TIP3    H148024   7.557   3.743   1.787
 7943TIP3    H248025   7.506   3.883   1.798
 7944TIP3   OH248026   7.267   4.058   0.505
 7944TIP3    H148027   7.290   4.030   0.596
 7944TIP3    H248028   7.219   3.979   0.474
 7945TIP3   OH248029   5.851   4.113   0.999
 7945TIP3    H148030   5.890   4.023   1.010
 7945TIP3    H248031   5.931   4.170   0.994
 7946TIP3   OH248032   5.692   4.419   1.080
 7946TIP3    H148033   5.746   4.392   1.003
 7946TIP3    H248034   5.734   4.503   1.102
 7947TIP3   OH248035   7.453   4.023   1.718
 7947TIP3    H148036   7.366   4.071   1.730
 7947TIP3    H248037   7.444   4.003   1.623
 7948TIP3   OH248038   7.526   4.049   0.153
 7948TIP3    H148039   7.554   3.963   0.119
 7948TIP3    H248040   7.588   4.112   0.109
 7949TIP3   OH248041   5.717   4.034   0.484
 7949TIP3    H148042   5.624   4.060   0.489
 7949TIP3    H248043   5.742   4.078   0.400
 7950TIP3   OH248044   7.179   5.498   0.670
 7950TIP3    H148045   7.236   5.489   0.591
 7950TIP3    H248046   7.242   5.540   0.729
 7951TIP3   OH248047   5.698   3.892   1.300
 7951TIP3    H148048   5.643   3.860   1.374
 7951TIP3    H248049   5.642   3.957   1.255
 7952TIP3   OH248050   5.936   5.220   1.700
 7952TIP3    H148051   5.847   5.248   1.674
 7952TIP3    H248052   5.924   5.171   1.782
 7953TIP3   OH248053   6.233   5.385   1.385
 7953TIP3    H148054   6.228   5.472   1.338
 7953TIP3    H248055   6.327   5.364   1.375
 7954TIP3   OH248056   6.642   5.482   1.624
 7954TIP3    H148057   6.651   5.455   1.718
 7954TIP3    H248058   6.732   5.517   1.605
 7955TIP3   OH248059   6.866   5.625   1.583
 7955TIP3    H148060   6.942   5.580   1.545
 7955TIP3    H248061   6.902   5.662   1.665
 7956TIP3   OH248062   7.372   3.847   1.503
 7956TIP3    H148063   7.290   3.887   1.469
 7956TIP3    H248064   7.372   3.758   1.464
 7957TIP3   OH248065   5.962   5.662   1.341
 7957TIP3    H148066   5.886   5.718   1.313
 7957TIP3    H248067   5.954   5.664   1.437
 7958TIP3   OH248068   6.201   5.621   1.246
 7958TIP3    H148069   6.109   5.637   1.279
 7958TIP3    H248070   6.202   5.677   1.167
 7959TIP3   OH248071   6.678   5.577   1.172
 7959TIP3    H148072   6.628   5.625   1.106
 7959TIP3    H248073   6.692   5.647   1.240
 7960TIP3   OH248074   6.863   5.438   1.321
 7960TIP3    H148075   6.795   5.478   1.262
 7960TIP3    H248076   6.934   5.503   1.310
 7961TIP3   OH248077   7.131   5.588   1.272
 7961TIP3    H148078   7.140   5.679   1.240
 7961TIP3    H248079   7.182   5.541   1.202
 7962TIP3   OH248080   5.913   5.504   1.039
 7962TIP3    H148081   5.884   5.456   1.121
 7962TIP3    H248082   6.001   5.463   1.024
 7963TIP3   OH248083   6.133   5.398   0.922
 7963TIP3    H148084   6.122   5.304   0.945
 7963TIP3    H248085   6.221   5.415   0.962
 7964TIP3   OH248086   6.366   5.403   1.040
 7964TIP3    H148087   6.398   5.313   1.019
 7964TIP3    H248088   6.384   5.405   1.135
 7965TIP3   OH248089   6.725   4.001   0.950
 7965TIP3    H148090   6.645   3.948   0.966
 7965TIP3    H248091   6.774   3.944   0.888
 7966TIP3   OH248092   7.217   3.796   0.915
 7966TIP3    H148093   7.261   3.865   0.859
 7966TIP3    H248094   7.124   3.820   0.895
 7967TIP3   OH248095   7.357   3.940   0.735
 7967TIP3    H148096   7.429   3.875   0.715
 7967TIP3    H248097   7.413   4.016   0.765
 7968TIP3   OH248098   5.974   3.822   0.705
 7968TIP3    H148099   5.885   3.812   0.665
 7968TIP3    H248100   6.012   3.733   0.689
 7969TIP3   OH248101   5.831   3.823   0.266
 7969TIP3    H148102   5.892   3.886   0.222
 7969TIP3    H248103   5.790   3.879   0.334
 7970TIP3   OH248104   6.376   3.796   0.675
 7970TIP3    H148105   6.453   3.832   0.630
 7970TIP3    H248106   6.402   3.805   0.769
 7971TIP3   OH248107   6.953   3.854   0.826
 7971TIP3    H148108   6.941   3.839   0.731
 7971TIP3    H248109   6.909   3.775   0.865
 7972TIP3   OH248110   7.114   3.832   0.422
 7972TIP3    H148111   7.036   3.888   0.424
 7972TIP3    H248112   7.076   3.747   0.456
 7973TIP3   OH248113   5.825   5.437   0.376
 7973TIP3    H148114   5.736   5.435   0.338
 7973TIP3    H248115   5.847   5.531   0.364
 7974TIP3   OH248116   6.013   3.958   0.121
 7974TIP3    H148117   6.091   3.904   0.136
 7974TIP3    H248118   6.035   4.041   0.164
 7975TIP3   OH248119   6.551   4.071   0.368
 7975TIP3    H148120   6.606   4.022   0.432
 7975TIP3    H248121   6.556   4.159   0.411
 7976TIP3   OH248122   6.696   5.560   0.181
 7976TIP3    H148123   6.793   5.580   0.166
 7976TIP3    H248124   6.678   5.513   0.097
 7977TIP3   OH248125   7.365   5.493   0.476
 7977TIP3    H148126   7.349   5.400   0.448
 7977TIP3    H248127   7.361   5.540   0.391
 7978TIP3   OH248128   5.937   3.926   1.618
 7978TIP3    H148129   5.906   3.835   1.603
 7978TIP3    H248130   6.018   3.905   1.669
 7979TIP3   OH248131   6.120   3.850   1.829
 7979TIP3    H148132   6.206   3.827   1.790
 7979TIP3    H248133   6.081   3.761   1.838
 7980TIP3   OH248134   6.043   5.562   0.133
 7980TIP3    H148135   5.980   5.583   0.203
 7980TIP3    H248136   6.073   5.473   0.157
 7981TIP3   OH248137   7.015   3.770   1.870
 7981TIP3    H148138   7.027   3.677   1.896
 7981TIP3    H248139   7.090   3.776   1.806
 7982TIP3   OH248140   7.290   5.367   1.676
 7982TIP3    H148141   7.235   5.376   1.595
 7982TIP3    H248142   7.279   5.458   1.709
 7983TIP3   OH248143   7.574   4.452   0.578
 7983TIP3    H148144   7.547   4.545   0.577
 7983TIP3    H248145   7.536   4.423   0.492
 7984TIP3   OH248146   7.582   4.902   1.350
 7984TIP3    H148147   7.533   4.899   1.265
 7984TIP3    H248148   7.581   4.810   1.382
 7985TIP3   OH248149   7.548   5.192   1.038
 7985TIP3    H148150   7.641   5.200   1.005
 7985TIP3    H248151   7.546   5.267   1.099
 7986TIP3   OH248152   7.545   4.128   0.740
 7986TIP3    H148153   7.627   4.179   0.761
 7986TIP3    H248154   7.550   4.126   0.643
 7987TIP3   OH248155   7.597   4.655   1.460
 7987TIP3    H148156   7.578   4.600   1.540
 7987TIP3    H248157   7.525   4.626   1.401
 7988TIP3   OH248158   7.642   4.857   1.775
 7988TIP3    H148159   7.606   4.771   1.802
 7988TIP3    H248160   7.571   4.897   1.720
 7989TIP3   OH248161   7.511   5.621   0.663
 7989TIP3    H148162   7.454   5.580   0.594
 7989TIP3    H248163   7.536   5.539   0.712
 7990TIP3   OH248164   7.558   5.405   0.817
 7990TIP3    H148165   7.525   5.314   0.829
 7990TIP3    H248166   7.593   5.423   0.906
 7991TIP3   OH248167   7.633   4.681   1.100
 7991TIP3    H148168   7.594   4.730   1.025
 7991TIP3    H248169   7.711   4.738   1.117
 7992TIP3   OH248170   7.554   4.274   1.718
 7992TIP3    H148171   7.649   4.269   1.692
 7992TIP3    H248172   7.524   4.181   1.716
 7993TIP3   OH248173   7.511   4.397   1.041
 7993TIP3    H148174   7.608   4.384   1.027
 7993TIP3    H248175   7.513   4.488   1.072
 7994TIP3   OH248176   7.519   4.067   0.428
 7994TIP3    H148177   7.423   4.076   0.448
 7994TIP3    H248178   7.518   4.067   0.329
 7995TIP3   OH248179   7.493   3.878   1.272
 7995TIP3    H148180   7.474   3.885   1.367
 7995TIP3    H248181   7.443   3.953   1.234
 7996TIP3   OH248182   1.224   6.668   0.690
 7996TIP3    H148183   1.203   6.756   0.722
 7996TIP3    H248184   1.154   6.656   0.623
 7997TIP3   OH248185   1.115   6.542   1.029
 7997TIP3    H148186   1.105   6.502   1.119
 7997TIP3    H248187   1.053   6.489   0.975
 7998TIP3   OH248188   0.311   6.548   1.166
 7998TIP3    H148189   0.296   6.464   1.213
 7998TIP3    H248190   0.384   6.583   1.219
 7999TIP3   OH248191   1.438   6.834   0.881
 7999TIP3    H148192   1.431   6.765   0.949
 7999TIP3    H248193   1.432   6.915   0.934
 8000TIP3   OH248194   0.376   6.979   1.063
 8000TIP3    H148195   0.377   6.892   1.013
 8000TIP3    H248196   0.465   7.009   1.036
 8001TIP3   OH248197   0.153   6.376   0.546
 8001TIP3    H148198   0.134   6.405   0.636
 8001TIP3    H248199   0.070   6.328   0.528
 8002TIP3   OH248200   0.104   6.548   0.835
 8002TIP3    H148201   0.160   6.472   0.863
 8002TIP3    H248202   0.166   6.601   0.784
 8003TIP3   OH248203   1.156   7.344   0.838
 8003TIP3    H148204   1.248   7.311   0.824
 8003TIP3    H248205   1.129   7.285   0.910
 8004TIP3   OH248206   0.947   6.834   1.072
 8004TIP3    H148207   0.977   6.757   1.022
 8004TIP3    H248208   1.026   6.854   1.125
 8005TIP3   OH248209   1.789   5.990   1.082
 8005TIP3    H148210   1.788   6.038   1.168
 8005TIP3    H248211   1.879   6.011   1.053
 8006TIP3   OH248212   1.272   6.278   1.145
 8006TIP3    H148213   1.292   6.183   1.153
 8006TIP3    H248214   1.255   6.286   1.050
 8007TIP3   OH248215   0.585   6.053   0.806
 8007TIP3    H148216   0.592   6.132   0.748
 8007TIP3    H248217   0.545   5.990   0.743
 8008TIP3   OH248218   1.312   6.082   0.676
 8008TIP3    H148219   1.369   6.036   0.743
 8008TIP3    H248220   1.376   6.146   0.640
 8009TIP3   OH248221   0.278   6.337   0.877
 8009TIP3    H148222   0.332   6.280   0.936
 8009TIP3    H248223   0.292   6.291   0.792
 8010TIP3   OH248224   0.698   6.464   0.845
 8010TIP3    H148225   0.786   6.425   0.863
 8010TIP3    H248226   0.660   6.392   0.789
 8011TIP3   OH248227   1.796   6.104   1.332
 8011TIP3    H148228   1.754   6.194   1.338
 8011TIP3    H248229   1.869   6.118   1.395
 8012TIP3   OH248230   0.470   5.970   1.219
 8012TIP3    H148231   0.438   6.020   1.141
 8012TIP3    H248232   0.412   6.007   1.288
 8013TIP3   OH248233   1.148   6.924   0.591
 8013TIP3    H148234   1.144   6.910   0.494
 8013TIP3    H248235   1.126   7.018   0.596
 8014TIP3   OH248236   0.734   6.732   1.203
 8014TIP3    H148237   0.682   6.804   1.243
 8014TIP3    H248238   0.800   6.784   1.153
 8015TIP3   OH248239   1.512   6.011   0.840
 8015TIP3    H148240   1.501   5.948   0.913
 8015TIP3    H248241   1.596   6.052   0.864
 8016TIP3   OH248242   0.416   6.159   1.027
 8016TIP3    H148243   0.474   6.225   1.073
 8016TIP3    H248244   0.477   6.129   0.955
 8017TIP3   OH248245   0.599   6.952   1.320
 8017TIP3    H148246   0.600   7.048   1.338
 8017TIP3    H248247   0.535   6.915   1.385
 8018TIP3   OH248248   0.134   6.844   0.410
 8018TIP3    H148249   0.122   6.890   0.323
 8018TIP3    H248250   0.157   6.917   0.471
 8019TIP3   OH248251   1.512   7.107   1.123
 8019TIP3    H148252   1.415   7.101   1.129
 8019TIP3    H248253   1.520   7.169   1.049
 8020TIP3   OH248254   1.529   5.916   1.204
 8020TIP3    H148255   1.455   5.932   1.140
 8020TIP3    H248256   1.605   5.953   1.154
 8021TIP3   OH248257   0.825   5.714   0.948
 8021TIP3    H148258   0.798   5.622   0.958
 8021TIP3    H248259   0.741   5.759   0.976
 8022TIP3   OH248260   1.392   7.232   0.792
 8022TIP3    H148261   1.387   7.151   0.738
 8022TIP3    H248262   1.456   7.282   0.736
 8023TIP3   OH248263   1.472   7.007   0.631
 8023TIP3    H148264   1.434   6.976   0.547
 8023TIP3    H248265   1.464   6.927   0.686
 8024TIP3   OH248266   1.618   6.897   1.459
 8024TIP3    H148267   1.637   6.825   1.395
 8024TIP3    H248268   1.638   6.974   1.402
 8025TIP3   OH248269   1.084   6.616   0.448
 8025TIP3    H148270   1.028   6.692   0.419
 8025TIP3    H248271   1.159   6.617   0.386
 8026TIP3   OH248272   1.104   6.459   0.142
 8026TIP3    H148273   1.173   6.502   0.198
 8026TIP3    H248274   1.145   6.371   0.127
 8027TIP3   OH248275   1.820   6.532   1.251
 8027TIP3    H148276   1.761   6.609   1.257
 8027TIP3    H248277   1.882   6.562   1.182
 8028TIP3   OH248278   1.434   6.575   0.542
 8028TIP3    H148279   1.365   6.612   0.602
 8028TIP3    H248280   1.501   6.543   0.607
 8029TIP3   OH248281   1.424   6.438   1.439
 8029TIP3    H148282   1.406   6.523   1.482
 8029TIP3    H248283   1.364   6.441   1.363
 8030TIP3   OH248284   0.584   6.681   0.724
 8030TIP3    H148285   0.524   6.653   0.652
 8030TIP3    H248286   0.621   6.595   0.751
 8031TIP3   OH248287   0.708   7.000   0.985
 8031TIP3    H148288   0.736   6.997   0.891
 8031TIP3    H248289   0.783   6.960   1.030
 8032TIP3   OH248290   0.618   6.519   1.089
 8032TIP3    H148291   0.649   6.528   0.996
 8032TIP3    H248292   0.662   6.596   1.132
 8033TIP3   OH248293   1.246   7.104   1.155
 8033TIP3    H148294   1.209   7.174   1.212
 8033TIP3    H248295   1.223   7.023   1.205
 8034TIP3   OH248296   0.701   6.997   1.586
 8034TIP3    H148297   0.631   7.059   1.618
 8034TIP3    H248298   0.674   6.983   1.494
 8035TIP3   OH248299   1.306   6.552   0.307
 8035TIP3    H148300   1.355   6.556   0.393
 8035TIP3    H248301   1.370   6.597   0.246
 8036TIP3   OH248302   0.438   6.613   1.432
 8036TIP3    H148303   0.446   6.666   1.514
 8036TIP3    H248304   0.346   6.583   1.438
 8037TIP3   OH248305   1.087   7.208   0.586
 8037TIP3    H148306   1.104   7.234   0.679
 8037TIP3    H248307   1.026   7.277   0.559
 8038TIP3   OH248308   0.506   7.181   1.630
 8038TIP3    H148309   0.492   7.188   1.534
 8038TIP3    H248310   0.417   7.155   1.662
 8039TIP3   OH248311   1.710   5.690   0.320
 8039TIP3    H148312   1.612   5.691   0.327
 8039TIP3    H248313   1.725   5.783   0.297
 8040TIP3   OH248314   0.426   6.556   0.520
 8040TIP3    H148315   0.396   6.623   0.454
 8040TIP3    H248316   0.411   6.474   0.472
 8041TIP3   OH248317   1.805   7.151   0.152
 8041TIP3    H148318   1.857   7.232   0.132
 8041TIP3    H248319   1.872   7.080   0.147
 8042TIP3   OH248320   0.164   6.798   1.377
 8042TIP3    H148321   0.066   6.792   1.375
 8042TIP3    H248322   0.185   6.705   1.360
 8043TIP3   OH248323   0.118   7.115   0.991
 8043TIP3    H148324   0.190   7.050   1.008
 8043TIP3    H248325   0.100   7.147   1.080
 8044TIP3   OH248326   1.864   7.157   1.635
 8044TIP3    H148327   1.845   7.062   1.643
 8044TIP3    H248328   1.774   7.193   1.656
 8045TIP3   OH248329   0.975   7.086   1.507
 8045TIP3    H148330   0.981   7.180   1.534
 8045TIP3    H248331   0.885   7.061   1.537
 8046TIP3   OH248332   1.073   7.518   0.488
 8046TIP3    H148333   1.069   7.502   0.392
 8046TIP3    H248334   1.038   7.607   0.498
 8047TIP3   OH248335   0.408   7.335   0.668
 8047TIP3    H148336   0.430   7.329   0.763
 8047TIP3    H248337   0.319   7.296   0.669
 8048TIP3   OH248338   1.327   7.420   0.227
 8048TIP3    H148339   1.375   7.357   0.168
 8048TIP3    H248340   1.335   7.373   0.313
 8049TIP3   OH248341   1.290   7.367   0.481
 8049TIP3    H148342   1.213   7.420   0.508
 8049TIP3    H248343   1.258   7.277   0.500
 8050TIP3   OH248344   1.555   6.301   1.663
 8050TIP3    H148345   1.519   6.328   1.577
 8050TIP3    H248346   1.580   6.209   1.645
 8051TIP3   OH248347   0.382   6.907   1.472
 8051TIP3    H148348   0.372   6.890   1.567
 8051TIP3    H248349   0.313   6.845   1.437
 8052TIP3   OH248350   0.598   5.813   1.044
 8052TIP3    H148351   0.510   5.819   1.001
 8052TIP3    H248352   0.578   5.858   1.128
 8053TIP3   OH248353   1.064   5.753   1.364
 8053TIP3    H148354   1.102   5.697   1.436
 8053TIP3    H248355   0.967   5.748   1.380
 8054TIP3   OH248356   1.351   6.158   1.486
 8054TIP3    H148357   1.312   6.121   1.568
 8054TIP3    H248358   1.314   6.248   1.483
 8055TIP3   OH248359   1.469   6.661   0.140
 8055TIP3    H148360   1.430   6.672   0.050
 8055TIP3    H248361   1.562   6.679   0.117
 8056TIP3   OH248362   1.025   6.038   0.146
 8056TIP3    H148363   0.978   5.999   0.224
 8056TIP3    H248364   0.978   5.993   0.074
 8057TIP3   OH248365   0.600   6.274   1.181
 8057TIP3    H148366   0.520   6.286   1.236
 8057TIP3    H248367   0.614   6.368   1.151
 8058TIP3   OH248368   0.613   6.278   0.666
 8058TIP3    H148369   0.517   6.287   0.643
 8058TIP3    H248370   0.649   6.253   0.579
 8059TIP3   OH248371   1.168   6.383   0.571
 8059TIP3    H148372   1.131   6.462   0.527
 8059TIP3    H248373   1.220   6.344   0.498
 8060TIP3   OH248374   1.048   6.377   1.689
 8060TIP3    H148375   1.001   6.300   1.729
 8060TIP3    H248376   1.128   6.381   1.743
 8061TIP3   OH248377   1.241   6.306   0.852
 8061TIP3    H148378   1.239   6.383   0.791
 8061TIP3    H248379   1.230   6.233   0.788
 8062TIP3   OH248380   0.356   6.289   1.305
 8062TIP3    H148381   0.385   6.321   1.392
 8062TIP3    H248382   0.327   6.197   1.328
 8063TIP3   OH248383   0.667   6.067   0.053
 8063TIP3    H148384   0.638   6.023   0.134
 8063TIP3    H248385   0.598   6.131   0.034
 8064TIP3   OH248386   0.139   6.069   0.731
 8064TIP3    H148387   0.160   6.008   0.805
 8064TIP3    H248388   0.127   6.011   0.654
 8065TIP3   OH248389   0.116   6.091   0.276
 8065TIP3    H148390   0.186   6.134   0.224
 8065TIP3    H248391   0.050   6.161   0.282
 8066TIP3   OH248392   1.121   6.451   1.279
 8066TIP3    H148393   1.193   6.397   1.238
 8066TIP3    H248394   1.084   6.384   1.341
 8067TIP3   OH248395   0.871   6.054   0.781
 8067TIP3    H148396   0.776   6.065   0.801
 8067TIP3    H248397   0.906   6.012   0.862
 8068TIP3   OH248398   0.360   6.234   0.628
 8068TIP3    H148399   0.289   6.264   0.567
 8068TIP3    H248400   0.343   6.138   0.632
 8069TIP3   OH248401   0.689   6.205   0.410
 8069TIP3    H148402   0.782   6.234   0.420
 8069TIP3    H248403   0.650   6.277   0.356
 8070TIP3   OH248404   1.302   5.973   1.079
 8070TIP3    H148405   1.238   5.978   1.154
 8070TIP3    H248406   1.254   5.923   1.010
 8071TIP3   OH248407   0.592   6.372   0.213
 8071TIP3    H148408   0.517   6.325   0.170
 8071TIP3    H248409   0.664   6.369   0.147
 8072TIP3   OH248410   1.566   7.542   1.715
 8072TIP3    H148411   1.584   7.575   1.625
 8072TIP3    H248412   1.653   7.563   1.759
 8073TIP3   OH248413   0.411   6.762   1.698
 8073TIP3    H148414   0.485   6.793   1.754
 8073TIP3    H248415   0.339   6.801   1.751
 8074TIP3   OH248416   0.959   6.335   0.927
 8074TIP3    H148417   1.042   6.303   0.889
 8074TIP3    H248418   0.941   6.268   0.995
 8075TIP3   OH248419   0.409   5.964   0.608
 8075TIP3    H148420   0.358   5.889   0.646
 8075TIP3    H248421   0.413   5.940   0.514
 8076TIP3   OH248422   0.838   6.144   1.189
 8076TIP3    H148423   0.757   6.199   1.178
 8076TIP3    H248424   0.894   6.205   1.239
 8077TIP3   OH248425   0.899   6.804   0.386
 8077TIP3    H148426   0.821   6.755   0.351
 8077TIP3    H248427   0.864   6.828   0.475
 8078TIP3   OH248428   1.638   6.739   1.254
 8078TIP3    H148429   1.683   6.792   1.184
 8078TIP3    H248430   1.550   6.731   1.213
 8079TIP3   OH248431   1.277   6.080   0.194
 8079TIP3    H148432   1.179   6.083   0.178
 8079TIP3    H248433   1.294   6.168   0.233
 8080TIP3   OH248434   0.990   6.812   1.493
 8080TIP3    H148435   1.011   6.781   1.581
 8080TIP3    H248436   0.994   6.909   1.504
 8081TIP3   OH248437   1.335   6.289   0.344
 8081TIP3    H148438   1.416   6.266   0.395
 8081TIP3    H248439   1.354   6.379   0.315
 8082TIP3   OH248440   0.422   6.751   0.929
 8082TIP3    H148441   0.468   6.738   0.841
 8082TIP3    H248442   0.458   6.676   0.978
 8083TIP3   OH248443   1.109   6.951   0.331
 8083TIP3    H148444   1.072   7.043   0.331
 8083TIP3    H248445   1.027   6.895   0.340
 8084TIP3   OH248446   0.180   6.528   1.433
 8084TIP3    H148447   0.180   6.518   1.531
 8084TIP3    H248448   0.084   6.515   1.417
 8085TIP3   OH248449   0.811   6.532   1.663
 8085TIP3    H148450   0.748   6.477   1.611
 8085TIP3    H248451   0.893   6.477   1.666
 8086TIP3   OH248452   1.290   7.046   1.512
 8086TIP3    H148453   1.208   7.067   1.466
 8086TIP3    H248454   1.275   7.098   1.594
 8087TIP3   OH248455   1.841   6.278   0.351
 8087TIP3    H148456   1.769   6.262   0.287
 8087TIP3    H248457   1.849   6.375   0.342
 8088TIP3   OH248458   1.850   6.872   1.596
 8088TIP3    H148459   1.761   6.883   1.556
 8088TIP3    H248460   1.904   6.858   1.515
 8089TIP3   OH248461   1.675   7.117   0.384
 8089TIP3    H148462   1.602   7.054   0.381
 8089TIP3    H248463   1.710   7.117   0.292
 8090TIP3   OH248464   1.397   6.639   1.062
 8090TIP3    H148465   1.305   6.639   1.030
 8090TIP3    H248466   1.438   6.577   0.998
 8091TIP3   OH248467   0.637   7.072   0.712
 8091TIP3    H148468   0.666   7.153   0.664
 8091TIP3    H248469   0.542   7.071   0.694
 8092TIP3   OH248470   0.229   6.552   0.129
 8092TIP3    H148471   0.290   6.616   0.171
 8092TIP3    H248472   0.151   6.557   0.186
 8093TIP3   OH248473   0.783   6.854   0.637
 8093TIP3    H148474   0.728   6.934   0.654
 8093TIP3    H248475   0.735   6.786   0.687
 8094TIP3   OH248476   0.830   7.258   1.333
 8094TIP3    H148477   0.862   7.350   1.329
 8094TIP3    H248478   0.912   7.207   1.346
 8095TIP3   OH248479   0.664   7.314   0.598
 8095TIP3    H148480   0.568   7.336   0.601
 8095TIP3    H248481   0.705   7.392   0.641
 8096TIP3   OH248482   1.150   6.851   1.256
 8096TIP3    H148483   1.100   6.811   1.330
 8096TIP3    H248484   1.213   6.779   1.239
 8097TIP3   OH248485   1.420   6.965   0.129
 8097TIP3    H148486   1.450   6.922   0.212
 8097TIP3    H248487   1.325   6.960   0.145
 8098TIP3   OH248488   1.454   7.316   1.493
 8098TIP3    H148489   1.380   7.260   1.461
 8098TIP3    H248490   1.465   7.386   1.426
 8099TIP3   OH248491   1.902   7.398   0.132
 8099TIP3    H148492   1.964   7.471   0.148
 8099TIP3    H248493   1.820   7.433   0.176
 8100TIP3   OH248494   0.294   6.057   1.425
 8100TIP3    H148495   0.256   6.096   1.507
 8100TIP3    H248496   0.266   5.965   1.435
 8101TIP3   OH248497   1.496   6.836   0.356
 8101TIP3    H148498   1.482   6.741   0.362
 8101TIP3    H248499   1.594   6.839   0.358
 8102TIP3   OH248500   0.233   7.233   1.301
 8102TIP3    H148501   0.199   7.273   1.219
 8102TIP3    H248502   0.241   7.317   1.351
 8103TIP3   OH248503   0.679   7.021   0.238
 8103TIP3    H148504   0.756   6.974   0.273
 8103TIP3    H248505   0.691   7.113   0.269
 8104TIP3   OH248506   0.356   6.729   0.319
 8104TIP3    H148507   0.278   6.773   0.360
 8104TIP3    H248508   0.404   6.804   0.279
 8105TIP3   OH248509   1.170   6.011   1.331
 8105TIP3    H148510   1.244   6.032   1.390
 8105TIP3    H248511   1.139   5.924   1.363
 8106TIP3   OH248512   1.237   5.943   0.464
 8106TIP3    H148513   1.249   6.006   0.390
 8106TIP3    H248514   1.282   5.990   0.539
 8107TIP3   OH248515   1.019   7.198   0.284
 8107TIP3    H148516   0.936   7.208   0.331
 8107TIP3    H248517   1.033   7.289   0.251
 8108TIP3   OH248518   0.950   6.155   0.539
 8108TIP3    H148519   1.014   6.227   0.552
 8108TIP3    H248520   0.922   6.132   0.630
 8109TIP3   OH248521   1.034   6.263   1.444
 8109TIP3    H148522   1.033   6.298   1.536
 8109TIP3    H248523   1.067   6.171   1.453
 8110TIP3   OH248524   1.014   5.835   0.574
 8110TIP3    H148525   0.981   5.916   0.616
 8110TIP3    H248526   1.098   5.871   0.535
 8111TIP3   OH248527   0.722   7.294   0.315
 8111TIP3    H148528   0.733   7.378   0.266
 8111TIP3    H248529   0.677   7.324   0.397
 8112TIP3   OH248530   0.571   5.961   0.327
 8112TIP3    H148531   0.584   6.048   0.370
 8112TIP3    H248532   0.661   5.923   0.336
 8113TIP3   OH248533   1.596   6.044   1.532
 8113TIP3    H148534   1.506   6.073   1.505
 8113TIP3    H248535   1.645   6.050   1.448
 8114TIP3   OH248536   1.486   6.401   0.913
 8114TIP3    H148537   1.406   6.345   0.915
 8114TIP3    H248538   1.547   6.354   0.974
 8115TIP3   OH248539   0.412   6.979   0.182
 8115TIP3    H148540   0.486   7.032   0.217
 8115TIP3    H248541   0.462   6.928   0.116
 8116TIP3   OH248542   0.329   6.284   0.142
 8116TIP3    H148543   0.307   6.376   0.167
 8116TIP3    H248544   0.246   6.265   0.091
 8117TIP3   OH248545   1.596   7.412   1.111
 8117TIP3    H148546   1.587   7.440   1.017
 8117TIP3    H248547   1.694   7.396   1.113
 8118TIP3   OH248548   0.341   5.768   0.971
 8118TIP3    H148549   0.327   5.743   0.877
 8118TIP3    H248550   0.313   5.684   1.015
 8119TIP3   OH248551   0.212   7.113   0.534
 8119TIP3    H148552   0.126   7.145   0.561
 8119TIP3    H248553   0.232   7.177   0.462
 8120TIP3   OH248554   0.148   7.420   1.677
 8120TIP3    H148555   0.228   7.413   1.732
 8120TIP3    H248556   0.093   7.348   1.710
 8121TIP3   OH248557   0.608   7.257   1.882
 8121TIP3    H148558   0.700   7.288   1.880
 8121TIP3    H248559   0.587   7.242   1.788
 8122TIP3   OH248560   1.041   7.229   9.979
 8122TIP3    H148561   0.967   7.167   9.972
 8122TIP3    H248562   1.101   7.186  10.041
 8123TIP3   OH248563   1.251   7.159   1.762
 8123TIP3    H148564   1.209   7.074   1.789
 8123TIP3    H248565   1.327   7.159   1.822
 8124TIP3   OH248566   1.428   7.228   0.081
 8124TIP3    H148567   1.466   7.139   0.093
 8124TIP3    H248568   1.495   7.277   0.027
 8125TIP3   OH248569   0.178   6.841   1.828
 8125TIP3    H148570   0.188   6.747   1.810
 8125TIP3    H248571   0.083   6.844   1.804
 8126TIP3   OH248572   0.613   6.806   0.049
 8126TIP3    H148573   0.642   6.779   0.138
 8126TIP3    H248574   0.684   6.772  -0.008
 8127TIP3   OH248575   0.797   6.795   1.742
 8127TIP3    H148576   0.772   6.849   1.664
 8127TIP3    H248577   0.804   6.704   1.704
 8128TIP3   OH248578   1.367   6.765   1.494
 8128TIP3    H148579   1.453   6.814   1.493
 8128TIP3    H248580   1.309   6.843   1.501
 8129TIP3   OH248581   0.222   6.495   1.770
 8129TIP3    H148582   0.312   6.460   1.777
 8129TIP3    H248583   0.206   6.535   1.858
 8130TIP3   OH248584   0.702   6.637   0.291
 8130TIP3    H148585   0.633   6.583   0.334
 8130TIP3    H248586   0.739   6.573   0.227
 8131TIP3   OH248587   0.630   6.422   1.480
 8131TIP3    H148588   0.565   6.492   1.460
 8131TIP3    H248589   0.699   6.445   1.414
 8132TIP3   OH248590   0.828   6.464   0.086
 8132TIP3    H148591   0.851   6.420   0.002
 8132TIP3    H248592   0.917   6.465   0.128
 8133TIP3   OH248593   1.150   6.672   1.821
 8133TIP3    H148594   1.228   6.630   1.781
 8133TIP3    H248595   1.116   6.599   1.878
 8134TIP3   OH248596   1.694   6.647  10.006
 8134TIP3    H148597   1.752   6.618   9.934
 8134TIP3    H248598   1.718   6.743  10.006
 8135TIP3   OH248599   0.674   6.169   1.555
 8135TIP3    H148600   0.694   6.110   1.479
 8135TIP3    H248601   0.668   6.258   1.513
 8136TIP3   OH248602   0.712   5.989   1.353
 8136TIP3    H148603   0.774   6.027   1.287
 8136TIP3    H248604   0.629   5.996   1.301
 8137TIP3   OH248605   0.838   6.511   1.330
 8137TIP3    H148606   0.935   6.514   1.325
 8137TIP3    H248607   0.811   6.599   1.297
 8138TIP3   OH248608   1.341   6.282   1.849
 8138TIP3    H148609   1.355   6.189   1.828
 8138TIP3    H248610   1.430   6.317   1.827
 8139TIP3   OH248611   1.446   6.606   1.713
 8139TIP3    H148612   1.419   6.659   1.635
 8139TIP3    H248613   1.537   6.578   1.689
 8140TIP3   OH248614   0.492   6.278   1.771
 8140TIP3    H148615   0.422   6.211   1.775
 8140TIP3    H248616   0.540   6.251   1.691
 8141TIP3   OH248617   0.790   5.733   1.366
 8141TIP3    H148618   0.755   5.825   1.368
 8141TIP3    H248619   0.713   5.684   1.333
 8142TIP3   OH248620   0.905   6.158   1.762
 8142TIP3    H148621   0.843   6.124   1.830
 8142TIP3    H248622   0.849   6.150   1.683
 8143TIP3   OH248623   1.176   6.068   1.681
 8143TIP3    H148624   1.081   6.068   1.702
 8143TIP3    H248625   1.211   6.017   1.757
 8144TIP3   OH248626   1.333   5.925   1.856
 8144TIP3    H148627   1.326   5.828   1.851
 8144TIP3    H248628   1.319   5.945   1.951
 8145TIP3   OH248629   0.312   6.076   1.781
 8145TIP3    H148630   0.348   5.998   1.736
 8145TIP3    H248631   0.285   6.036   1.868
 8146TIP3   OH248632   0.788   5.702   1.650
 8146TIP3    H148633   0.866   5.644   1.649
 8146TIP3    H248634   0.777   5.712   1.553
 8147TIP3   OH248635   0.789   5.798   1.905
 8147TIP3    H148636   0.782   5.762   1.813
 8147TIP3    H248637   0.750   5.887   1.895
 8148TIP3   OH248638   0.785   7.522   0.174
 8148TIP3    H148639   0.870   7.537   0.217
 8148TIP3    H248640   0.808   7.531   0.079
 8149TIP3   OH248641   0.147   6.950   0.163
 8149TIP3    H148642   0.243   6.970   0.181
 8149TIP3    H248643   0.155   6.914   0.074
 8150TIP3   OH248644   0.058   7.517   0.539
 8150TIP3    H148645  -0.039   7.531   0.539
 8150TIP3    H248646   0.062   7.463   0.619
 8151TIP3   OH248647   0.164   7.324   0.777
 8151TIP3    H148648   0.146   7.229   0.771
 8151TIP3    H248649   0.166   7.338   0.872
 8152TIP3   OH248650   1.868   7.413   1.099
 8152TIP3    H148651   1.885   7.462   1.182
 8152TIP3    H248652   1.937   7.450   1.042
 8153TIP3   OH248653   1.809   7.330   1.425
 8153TIP3    H148654   1.779   7.264   1.360
 8153TIP3    H248655   1.849   7.270   1.491
 8154TIP3   OH248656   1.668   6.949   1.871
 8154TIP3    H148657   1.584   6.946   1.923
 8154TIP3    H248658   1.704   7.036   1.902
 8155TIP3   OH248659   1.760   6.785   0.376
 8155TIP3    H148660   1.848   6.823   0.395
 8155TIP3    H248661   1.743   6.734   0.457
 8156TIP3   OH248662   1.810   6.585   0.626
 8156TIP3    H148663   1.732   6.527   0.642
 8156TIP3    H248664   1.835   6.610   0.717
 8157TIP3   OH248665   1.788   6.846   1.067
 8157TIP3    H148666   1.846   6.766   1.064
 8157TIP3    H248667   1.849   6.916   1.038
 8158TIP3   OH248668   1.666   7.125   1.329
 8158TIP3    H148669   1.595   7.174   1.373
 8158TIP3    H248670   1.624   7.110   1.241
 8159TIP3   OH248671   1.866   6.572   0.223
 8159TIP3    H148672   1.801   6.598   0.155
 8159TIP3    H248673   1.860   6.650   0.282
 8160TIP3   OH248674   1.633   6.259   0.160
 8160TIP3    H148675   1.607   6.341   0.113
 8160TIP3    H248676   1.688   6.217   0.091
 8161TIP3   OH248677   1.615   6.423   0.680
 8161TIP3    H148678   1.593   6.332   0.656
 8161TIP3    H248679   1.587   6.426   0.774
 8162TIP3   OH248680   0.160   6.730   1.034
 8162TIP3    H148681   0.160   6.669   0.957
 8162TIP3    H248682   0.234   6.691   1.085
 8163TIP3   OH248683   1.713   6.619   1.618
 8163TIP3    H148684   1.758   6.531   1.622
 8163TIP3    H248685   1.786   6.682   1.615
 8164TIP3   OH248686   1.824   6.369   1.644
 8164TIP3    H148687   1.735   6.341   1.673
 8164TIP3    H248688   1.879   6.337   1.719
 8165TIP3   OH248689   1.623   6.027  -0.016
 8165TIP3    H148690   1.680   5.986   0.051
 8165TIP3    H248691   1.535   6.013   0.021
 8166TIP3   OH248692   1.542   6.202   0.498
 8166TIP3    H148693   1.575   6.115   0.528
 8166TIP3    H248694   1.619   6.228   0.446
 8167TIP3   OH248695   1.657   6.262   1.078
 8167TIP3    H148696   1.756   6.272   1.078
 8167TIP3    H248697   1.643   6.269   1.174
 8168TIP3   OH248698   1.651   6.328   1.338
 8168TIP3    H148699   1.558   6.356   1.353
 8168TIP3    H248700   1.694   6.416   1.329
 8169TIP3   OH248701   0.121   6.137   1.611
 8169TIP3    H148702   0.188   6.167   1.675
 8169TIP3    H248703   0.111   6.044   1.637
 8170TIP3   OH248704   1.904   5.734   1.876
 8170TIP3    H148705   1.934   5.664   1.815
 8170TIP3    H248706   1.885   5.804   1.809
 8171TIP3   OH248707   1.662   5.955   0.520
 8171TIP3    H148708   1.692   5.912   0.603
 8171TIP3    H248709   1.601   5.885   0.489
 8172TIP3   OH248710   0.183   5.986   1.005
 8172TIP3    H148711   0.245   5.910   1.016
 8172TIP3    H248712   0.238   6.064   1.022
 8173TIP3   OH248713   0.077   6.297   1.068
 8173TIP3    H148714   0.150   6.296   1.003
 8173TIP3    H248715   0.102   6.370   1.126
 8174TIP3   OH248716   1.800   5.914   1.714
 8174TIP3    H148717   1.741   5.976   1.761
 8174TIP3    H248718   1.764   5.920   1.624
 8175TIP3   OH248719   1.835   5.941   0.167
 8175TIP3    H148720   1.882   5.899   0.093
 8175TIP3    H248721   1.903   6.005   0.196
 8176TIP3   OH248722   0.103   5.924   0.479
 8176TIP3    H148723   0.006   5.917   0.481
 8176TIP3    H248724   0.113   5.975   0.395
 8177TIP3   OH248725   1.525   7.407   0.644
 8177TIP3    H148726   1.611   7.400   0.598
 8177TIP3    H248727   1.549   7.459   0.723
 8178TIP3   OH248728   0.071   5.762   1.323
 8178TIP3    H148729  -0.017   5.750   1.361
 8178TIP3    H248730   0.050   5.822   1.249
 8179TIP3   OH248731   0.265   7.104   1.720
 8179TIP3    H148732   0.181   7.110   1.674
 8179TIP3    H248733   0.239   7.126   1.811
 8180TIP3   OH248734   0.561   7.208   1.362
 8180TIP3    H148735   0.538   7.296   1.323
 8180TIP3    H248736   0.658   7.224   1.372
 8181TIP3   OH248737   1.009   7.335   1.620
 8181TIP3    H148738   0.997   7.308   1.712
 8181TIP3    H248739   1.094   7.383   1.622
 8182TIP3   OH248740   1.247   7.512   1.580
 8182TIP3    H148741   1.313   7.448   1.550
 8182TIP3    H248742   1.277   7.523   1.673
 8183TIP3   OH248743   1.719   5.724   1.487
 8183TIP3    H148744   1.651   5.767   1.433
 8183TIP3    H248745   1.732   5.639   1.441
 8184TIP3   OH248746   0.284   7.499   1.347
 8184TIP3    H148747   0.215   7.552   1.296
 8184TIP3    H248748   0.267   7.537   1.434
 8185TIP3   OH248749   0.539   7.446   1.257
 8185TIP3    H148750   0.456   7.488   1.290
 8185TIP3    H248751   0.559   7.499   1.177
 8186TIP3   OH248752   1.033   7.463   1.186
 8186TIP3    H148753   0.958   7.480   1.124
 8186TIP3    H248754   1.040   7.550   1.227
 8187TIP3   OH248755   1.216   7.322   1.327
 8187TIP3    H148756   1.142   7.370   1.283
 8187TIP3    H248757   1.290   7.376   1.295
 8188TIP3   OH248758   1.470   7.541   1.300
 8188TIP3    H148759   1.437   7.628   1.272
 8188TIP3    H248760   1.504   7.503   1.215
 8189TIP3   OH248761   0.278   7.380   1.078
 8189TIP3    H148762   0.333   7.408   1.153
 8189TIP3    H248763   0.348   7.350   1.015
 8190TIP3   OH248764   0.473   7.286   0.916
 8190TIP3    H148765   0.500   7.195   0.895
 8190TIP3    H248766   0.550   7.310   0.973
 8191TIP3   OH248767   0.697   7.277   1.055
 8191TIP3    H148768   0.745   7.199   1.020
 8191TIP3    H248769   0.728   7.278   1.147
 8192TIP3   OH248770   1.057   5.860   0.922
 8192TIP3    H148771   0.977   5.822   0.964
 8192TIP3    H248772   1.067   5.802   0.846
 8193TIP3   OH248773   1.589   5.684   0.904
 8193TIP3    H148774   1.655   5.740   0.856
 8193TIP3    H248775   1.506   5.704   0.854
 8194TIP3   OH248776   1.757   5.799   0.725
 8194TIP3    H148777   1.821   5.741   0.677
 8194TIP3    H248778   1.816   5.874   0.752
 8195TIP3   OH248779   0.341   5.716   0.692
 8195TIP3    H148780   0.256   5.703   0.646
 8195TIP3    H248781   0.387   5.631   0.674
 8196TIP3   OH248782   0.146   5.737   0.232
 8196TIP3    H148783   0.204   5.798   0.182
 8196TIP3    H248784   0.129   5.792   0.309
 8197TIP3   OH248785   0.748   5.669   0.688
 8197TIP3    H148786   0.804   5.733   0.644
 8197TIP3    H248787   0.760   5.694   0.782
 8198TIP3   OH248788   1.339   5.718   0.790
 8198TIP3    H148789   1.282   5.722   0.712
 8198TIP3    H248790   1.290   5.653   0.846
 8199TIP3   OH248791   1.468   5.716   0.411
 8199TIP3    H148792   1.402   5.784   0.394
 8199TIP3    H248793   1.424   5.652   0.470
 8200TIP3   OH248794   0.202   7.317   0.361
 8200TIP3    H148795   0.110   7.295   0.339
 8200TIP3    H248796   0.196   7.414   0.352
 8201TIP3   OH248797   0.353   5.880   0.135
 8201TIP3    H148798   0.410   5.826   0.080
 8201TIP3    H248799   0.417   5.909   0.202
 8202TIP3   OH248800   0.880   5.935   0.354
 8202TIP3    H148801   0.916   5.874   0.421
 8202TIP3    H248802   0.885   6.019   0.404
 8203TIP3   OH248803   1.071   7.447   0.193
 8203TIP3    H148804   1.169   7.451   0.204
 8203TIP3    H248805   1.065   7.405   0.105
 8204TIP3   OH248806   1.726   7.367   0.491
 8204TIP3    H148807   1.703   7.280   0.452
 8204TIP3    H248808   1.716   7.427   0.414
 8205TIP3   OH248809   0.251   5.795   1.639
 8205TIP3    H148810   0.206   5.708   1.653
 8205TIP3    H248811   0.337   5.777   1.681
 8206TIP3   OH248812   0.496   5.735   1.841
 8206TIP3    H148813   0.589   5.727   1.812
 8206TIP3    H248814   0.481   5.643   1.868
 8207TIP3   OH248815   0.426   7.477   0.099
 8207TIP3    H148816   0.367   7.494   0.175
 8207TIP3    H248817   0.462   7.393   0.127
 8208TIP3   OH248818   1.325   5.656   1.814
 8208TIP3    H148819   1.336   5.599   1.894
 8208TIP3    H248820   1.418   5.653   1.784
 8209TIP3   OH248821   1.622   7.260   1.693
 8209TIP3    H148822   1.543   7.267   1.635
 8209TIP3    H248823   1.637   7.355   1.710
 8210TIP3   OH248824   3.103   6.656   0.688
 8210TIP3    H148825   3.088   6.744   0.726
 8210TIP3    H248826   3.034   6.655   0.619
 8211TIP3   OH248827   2.986   6.563   1.027
 8211TIP3    H148828   2.988   6.517   1.114
 8211TIP3    H248829   2.923   6.510   0.975
 8212TIP3   OH248830   2.187   6.525   1.172
 8212TIP3    H148831   2.201   6.453   1.236
 8212TIP3    H248832   2.247   6.593   1.207
 8213TIP3   OH248833   3.317   6.824   0.893
 8213TIP3    H148834   3.300   6.760   0.967
 8213TIP3    H248835   3.319   6.909   0.939
 8214TIP3   OH248836   2.302   7.009   1.014
 8214TIP3    H148837   2.270   6.919   0.989
 8214TIP3    H248838   2.397   6.991   1.003
 8215TIP3   OH248839   1.974   6.339   0.581
 8215TIP3    H148840   1.936   6.427   0.599
 8215TIP3    H248841   1.917   6.306   0.510
 8216TIP3   OH248842   2.021   6.568   0.830
 8216TIP3    H148843   2.061   6.478   0.841
 8216TIP3    H248844   2.079   6.610   0.764
 8217TIP3   OH248845   3.042   7.356   0.850
 8217TIP3    H148846   3.130   7.317   0.832
 8217TIP3    H248847   3.015   7.306   0.928
 8218TIP3   OH248848   2.813   6.848   1.087
 8218TIP3    H148849   2.839   6.779   1.024
 8218TIP3    H248850   2.896   6.859   1.138
 8219TIP3   OH248851   3.665   5.971   1.120
 8219TIP3    H148852   3.670   6.028   1.200
 8219TIP3    H248853   3.753   5.991   1.084
 8220TIP3   OH248854   3.165   6.268   1.141
 8220TIP3    H148855   3.183   6.172   1.136
 8220TIP3    H248856   3.131   6.282   1.051
 8221TIP3   OH248857   2.449   6.046   0.799
 8221TIP3    H148858   2.466   6.126   0.743
 8221TIP3    H248859   2.411   5.987   0.732
 8222TIP3   OH248860   3.216   6.070   0.659
 8222TIP3    H148861   3.264   6.050   0.743
 8222TIP3    H248862   3.265   6.148   0.625
 8223TIP3   OH248863   2.113   6.324   0.891
 8223TIP3    H148864   2.175   6.269   0.943
 8223TIP3    H248865   2.130   6.289   0.802
 8224TIP3   OH248866   2.596   6.475   0.849
 8224TIP3    H148867   2.679   6.434   0.883
 8224TIP3    H248868   2.577   6.412   0.777
 8225TIP3   OH248869   3.685   6.110   1.356
 8225TIP3    H148870   3.653   6.196   1.320
 8225TIP3    H248871   3.697   6.135   1.449
 8226TIP3   OH248872   2.375   5.963   1.219
 8226TIP3    H148873   2.332   6.015   1.149
 8226TIP3    H248874   2.304   5.966   1.286
 8227TIP3   OH248875   3.038   6.920   0.581
 8227TIP3    H148876   3.035   6.912   0.484
 8227TIP3    H248877   3.019   7.015   0.592
 8228TIP3   OH248878   2.575   6.738   1.205
 8228TIP3    H148879   2.522   6.812   1.241
 8228TIP3    H248880   2.644   6.786   1.155
 8229TIP3   OH248881   3.378   6.034   0.876
 8229TIP3    H148882   3.374   5.954   0.930
 8229TIP3    H248883   3.469   6.062   0.889
 8230TIP3   OH248884   2.301   6.155   1.015
 8230TIP3    H148885   2.364   6.221   1.053
 8230TIP3    H248886   2.352   6.121   0.937
 8231TIP3   OH248887   2.444   6.956   1.320
 8231TIP3    H148888   2.434   7.049   1.294
 8231TIP3    H248889   2.356   6.937   1.360
 8232TIP3   OH248890   2.028   6.878   0.403
 8232TIP3    H148891   2.026   6.932   0.320
 8232TIP3    H248892   2.038   6.947   0.471
 8233TIP3   OH248893   3.397   7.111   1.127
 8233TIP3    H148894   3.300   7.103   1.131
 8233TIP3    H248895   3.405   7.166   1.048
 8234TIP3   OH248896   3.385   5.922   1.210
 8234TIP3    H148897   3.306   5.963   1.168
 8234TIP3    H248898   3.459   5.950   1.153
 8235TIP3   OH248899   2.697   5.706   0.975
 8235TIP3    H148900   2.670   5.616   0.957
 8235TIP3    H248901   2.608   5.748   0.989
 8236TIP3   OH248902   3.266   7.228   0.782
 8236TIP3    H148903   3.269   7.151   0.721
 8236TIP3    H248904   3.332   7.284   0.735
 8237TIP3   OH248905   3.353   7.018   0.624
 8237TIP3    H148906   3.321   6.978   0.541
 8237TIP3    H248907   3.346   6.942   0.684
 8238TIP3   OH248908   3.500   6.894   1.472
 8238TIP3    H148909   3.516   6.821   1.408
 8238TIP3    H248910   3.512   6.970   1.411
 8239TIP3   OH248911   2.962   6.607   0.431
 8239TIP3    H148912   2.903   6.680   0.403
 8239TIP3    H248913   3.040   6.614   0.372
 8240TIP3   OH248914   3.008   6.435   0.138
 8240TIP3    H148915   3.084   6.478   0.185
 8240TIP3    H248916   3.054   6.355   0.102
 8241TIP3   OH248917   3.705   6.541   1.249
 8241TIP3    H148918   3.646   6.617   1.262
 8241TIP3    H248919   3.760   6.577   1.177
 8242TIP3   OH248920   3.321   6.588   0.539
 8242TIP3    H148921   3.250   6.623   0.598
 8242TIP3    H248922   3.382   6.546   0.605
 8243TIP3   OH248923   3.326   6.423   1.444
 8243TIP3    H148924   3.306   6.505   1.493
 8243TIP3    H248925   3.267   6.435   1.366
 8244TIP3   OH248926   2.461   6.674   0.721
 8244TIP3    H148927   2.438   6.633   0.634
 8244TIP3    H248928   2.516   6.604   0.761
 8245TIP3   OH248929   2.594   6.995   0.975
 8245TIP3    H148930   2.607   6.982   0.880
 8245TIP3    H248931   2.676   6.957   1.014
 8246TIP3   OH248932   2.465   6.535   1.088
 8246TIP3    H148933   2.510   6.527   1.001
 8246TIP3    H248934   2.516   6.608   1.131
 8247TIP3   OH248935   3.122   7.105   1.148
 8247TIP3    H148936   3.087   7.174   1.207
 8247TIP3    H248937   3.092   7.023   1.194
 8248TIP3   OH248938   2.592   6.987   1.551
 8248TIP3    H148939   2.528   7.053   1.588
 8248TIP3    H248940   2.552   6.972   1.462
 8249TIP3   OH248941   3.192   6.550   0.302
 8249TIP3    H148942   3.234   6.555   0.391
 8249TIP3    H248943   3.257   6.599   0.245
 8250TIP3   OH248944   2.291   6.594   1.444
 8250TIP3    H148945   2.299   6.685   1.476
 8250TIP3    H248946   2.233   6.560   1.515
 8251TIP3   OH248947   2.974   7.217   0.583
 8251TIP3    H148948   2.999   7.223   0.676
 8251TIP3    H248949   2.899   7.279   0.578
 8252TIP3   OH248950   2.407   7.181   1.622
 8252TIP3    H148951   2.390   7.194   1.526
 8252TIP3    H248952   2.319   7.150   1.654
 8253TIP3   OH248953   3.593   5.687   0.319
 8253TIP3    H148954   3.498   5.692   0.347
 8253TIP3    H248955   3.609   5.781   0.301
 8254TIP3   OH248956   2.359   6.549   0.486
 8254TIP3    H148957   2.313   6.625   0.445
 8254TIP3    H248958   2.314   6.475   0.444
 8255TIP3   OH248959   3.690   7.154   0.146
 8255TIP3    H148960   3.743   7.235   0.134
 8255TIP3    H248961   3.758   7.082   0.144
 8256TIP3   OH248962   2.000   6.824   1.371
 8256TIP3    H148963   1.948   6.824   1.290
 8256TIP3    H248964   2.032   6.730   1.374
 8257TIP3   OH248965   1.973   7.060   1.026
 8257TIP3    H148966   2.069   7.047   1.029
 8257TIP3    H248967   1.960   7.140   1.078
 8258TIP3   OH248968   3.752   7.163   1.652
 8258TIP3    H148969   3.733   7.068   1.647
 8258TIP3    H248970   3.663   7.194   1.683
 8259TIP3   OH248971   2.854   7.094   1.488
 8259TIP3    H148972   2.864   7.179   1.536
 8259TIP3    H248973   2.765   7.063   1.514
 8260TIP3   OH248974   2.948   7.508   0.479
 8260TIP3    H148975   2.950   7.504   0.382
 8260TIP3    H248976   2.916   7.597   0.497
 8261TIP3   OH248977   2.283   7.324   0.680
 8261TIP3    H148978   2.322   7.336   0.770
 8261TIP3    H248979   2.216   7.256   0.703
 8262TIP3   OH248980   3.209   7.432   0.218
 8262TIP3    H148981   3.256   7.367   0.161
 8262TIP3    H248982   3.213   7.385   0.305
 8263TIP3   OH248983   3.177   7.372   0.469
 8263TIP3    H148984   3.093   7.409   0.503
 8263TIP3    H248985   3.181   7.287   0.515
 8264TIP3   OH248986   3.454   6.287   1.662
 8264TIP3    H148987   3.408   6.337   1.591
 8264TIP3    H248988   3.460   6.197   1.623
 8265TIP3   OH248989   2.218   6.933   1.462
 8265TIP3    H148990   2.214   6.893   1.553
 8265TIP3    H248991   2.130   6.907   1.427
 8266TIP3   OH248992   2.464   5.800   1.030
 8266TIP3    H148993   2.372   5.785   1.001
 8266TIP3    H248994   2.450   5.861   1.105
 8267TIP3   OH248995   2.958   5.739   1.367
 8267TIP3    H148996   3.002   5.711   1.451
 8267TIP3    H248997   2.864   5.735   1.394
 8268TIP3   OH248998   3.220   6.171   1.479
 8268TIP3    H148999   3.207   6.146   1.573
 8268TIP3    H249000   3.271   6.255   1.484
 8269TIP3   OH249001   3.351   6.664   0.136
 8269TIP3    H149002   3.314   6.667   0.044
 8269TIP3    H249003   3.445   6.679   0.112
 8270TIP3   OH249004   2.887   6.058   0.142
 8270TIP3    H149005   2.846   6.014   0.217
 8270TIP3    H249006   2.858   5.999   0.072
 8271TIP3   OH249007   2.477   6.287   1.180
 8271TIP3    H149008   2.397   6.286   1.237
 8271TIP3    H249009   2.471   6.378   1.144
 8272TIP3   OH249010   2.477   6.254   0.634
 8272TIP3    H149011   2.382   6.273   0.624
 8272TIP3    H249012   2.509   6.238   0.541
 8273TIP3   OH249013   3.057   6.382   0.569
 8273TIP3    H149014   3.020   6.462   0.524
 8273TIP3    H249015   3.109   6.344   0.495
 8274TIP3   OH249016   2.926   6.368   1.681
 8274TIP3    H149017   2.883   6.298   1.732
 8274TIP3    H249018   3.002   6.389   1.739
 8275TIP3   OH249019   3.133   6.311   0.839
 8275TIP3    H149020   3.127   6.396   0.791
 8275TIP3    H249021   3.121   6.252   0.763
 8276TIP3   OH249022   2.246   6.287   1.308
 8276TIP3    H149023   2.271   6.319   1.396
 8276TIP3    H249024   2.214   6.196   1.327
 8277TIP3   OH249025   2.565   6.016   0.041
 8277TIP3    H149026   2.530   6.019   0.133
 8277TIP3    H249027   2.511   6.080  -0.007
 8278TIP3   OH249028   1.917   6.010   0.758
 8278TIP3    H149029   1.981   6.022   0.831
 8278TIP3    H249030   1.968   6.022   0.677
 8279TIP3   OH249031   2.034   6.088   0.283
 8279TIP3    H149032   2.110   6.140   0.248
 8279TIP3    H249033   1.974   6.162   0.305
 8280TIP3   OH249034   3.030   6.455   1.270
 8280TIP3    H149035   3.096   6.394   1.229
 8280TIP3    H249036   2.978   6.398   1.330
 8281TIP3   OH249037   2.769   6.069   0.765
 8281TIP3    H149038   2.674   6.061   0.780
 8281TIP3    H249039   2.808   6.009   0.833
 8282TIP3   OH249040   2.204   6.229   0.649
 8282TIP3    H149041   2.124   6.258   0.601
 8282TIP3    H249042   2.219   6.138   0.620
 8283TIP3   OH249043   2.606   6.219   0.399
 8283TIP3    H149044   2.694   6.254   0.411
 8283TIP3    H249045   2.560   6.286   0.343
 8284TIP3   OH249046   3.161   6.000   1.091
 8284TIP3    H149047   3.097   5.963   1.153
 8284TIP3    H249048   3.128   5.972   1.004
 8285TIP3   OH249049   2.446   6.350   0.216
 8285TIP3    H149050   2.373   6.315   0.164
 8285TIP3    H249051   2.506   6.383   0.147
 8286TIP3   OH249052   3.427   7.576   1.720
 8286TIP3    H149053   3.455   7.586   1.627
 8286TIP3    H249054   3.517   7.565   1.761
 8287TIP3   OH249055   2.238   6.772   1.690
 8287TIP3    H149056   2.308   6.806   1.749
 8287TIP3    H249057   2.162   6.766   1.751
 8288TIP3   OH249058   2.829   6.350   0.939
 8288TIP3    H149059   2.904   6.317   0.886
 8288TIP3    H249060   2.821   6.279   1.003
 8289TIP3   OH249061   2.315   5.925   0.589
 8289TIP3    H149062   2.249   5.874   0.641
 8289TIP3    H249063   2.356   5.852   0.542
 8290TIP3   OH249064   2.692   6.143   1.192
 8290TIP3    H149065   2.610   6.196   1.171
 8290TIP3    H249066   2.755   6.213   1.215
 8291TIP3   OH249067   2.783   6.813   0.389
 8291TIP3    H149068   2.712   6.755   0.354
 8291TIP3    H249069   2.746   6.830   0.479
 8292TIP3   OH249070   3.513   6.735   1.266
 8292TIP3    H149071   3.564   6.786   1.198
 8292TIP3    H249072   3.426   6.733   1.223
 8293TIP3   OH249073   3.143   6.076   0.199
 8293TIP3    H149074   3.046   6.085   0.186
 8293TIP3    H249075   3.165   6.165   0.235
 8294TIP3   OH249076   2.884   6.824   1.497
 8294TIP3    H149077   2.885   6.792   1.588
 8294TIP3    H249078   2.886   6.921   1.509
 8295TIP3   OH249079   3.224   6.286   0.355
 8295TIP3    H149080   3.311   6.261   0.395
 8295TIP3    H249081   3.244   6.374   0.317
 8296TIP3   OH249082   2.302   6.753   0.927
 8296TIP3    H149083   2.356   6.742   0.846
 8296TIP3    H249084   2.322   6.673   0.978
 8297TIP3   OH249085   3.001   6.956   0.308
 8297TIP3    H149086   2.961   7.046   0.309
 8297TIP3    H249087   2.923   6.897   0.318
 8298TIP3   OH249088   1.997   6.567   1.464
 8298TIP3    H149089   1.997   6.515   1.546
 8298TIP3    H249090   1.937   6.514   1.408
 8299TIP3   OH249091   2.675   6.518   1.661
 8299TIP3    H149092   2.622   6.457   1.607
 8299TIP3    H249093   2.763   6.478   1.658
 8300TIP3   OH249094   3.178   7.063   1.515
 8300TIP3    H149095   3.105   7.077   1.455
 8300TIP3    H249096   3.144   7.112   1.593
 8301TIP3   OH249097   3.727   6.282   0.345
 8301TIP3    H149098   3.650   6.267   0.286
 8301TIP3    H249099   3.738   6.378   0.333
 8302TIP3   OH249100   3.735   6.876   1.606
 8302TIP3    H149101   3.642   6.890   1.576
 8302TIP3    H249102   3.782   6.869   1.520
 8303TIP3   OH249103   3.559   7.128   0.381
 8303TIP3    H149104   3.483   7.070   0.383
 8303TIP3    H249105   3.591   7.122   0.289
 8304TIP3   OH249106   3.264   6.632   1.074
 8304TIP3    H149107   3.173   6.622   1.040
 8304TIP3    H249108   3.311   6.567   1.017
 8305TIP3   OH249109   2.519   7.073   0.695
 8305TIP3    H149110   2.551   7.163   0.671
 8305TIP3    H249111   2.439   7.069   0.642
 8306TIP3   OH249112   2.123   6.556   0.101
 8306TIP3    H149113   2.176   6.611   0.163
 8306TIP3    H249114   2.036   6.559   0.145
 8307TIP3   OH249115   2.669   6.850   0.636
 8307TIP3    H149116   2.623   6.936   0.652
 8307TIP3    H249117   2.615   6.791   0.691
 8308TIP3   OH249118   2.714   7.257   1.319
 8308TIP3    H149119   2.762   7.340   1.300
 8308TIP3    H249120   2.785   7.203   1.359
 8309TIP3   OH249121   2.540   7.324   0.587
 8309TIP3    H149122   2.445   7.340   0.608
 8309TIP3    H249123   2.584   7.403   0.626
 8310TIP3   OH249124   3.030   6.854   1.248
 8310TIP3    H149125   2.980   6.830   1.330
 8310TIP3    H249126   3.076   6.770   1.228
 8311TIP3   OH249127   3.305   6.976   0.149
 8311TIP3    H149128   3.321   6.927   0.232
 8311TIP3    H249129   3.208   6.974   0.149
 8312TIP3   OH249130   3.337   7.322   1.499
 8312TIP3    H149131   3.258   7.269   1.475
 8312TIP3    H249132   3.346   7.383   1.423
 8313TIP3   OH249133   3.786   7.405   0.137
 8313TIP3    H149134   3.851   7.473   0.160
 8313TIP3    H249135   3.704   7.445   0.175
 8314TIP3   OH249136   2.162   6.020   1.410
 8314TIP3    H149137   2.105   6.070   1.472
 8314TIP3    H249138   2.177   5.943   1.467
 8315TIP3   OH249139   3.380   6.835   0.361
 8315TIP3    H149140   3.368   6.740   0.371
 8315TIP3    H249141   3.478   6.838   0.358
 8316TIP3   OH249142   2.133   7.203   1.282
 8316TIP3    H149143   2.182   7.120   1.279
 8316TIP3    H249144   2.187   7.253   1.346
 8317TIP3   OH249145   2.571   7.026   0.247
 8317TIP3    H149146   2.649   6.980   0.282
 8317TIP3    H249147   2.585   7.118   0.278
 8318TIP3   OH249148   2.231   6.732   0.294
 8318TIP3    H149149   2.158   6.781   0.339
 8318TIP3    H249150   2.283   6.807   0.258
 8319TIP3   OH249151   3.017   6.016   1.354
 8319TIP3    H149152   3.108   6.037   1.386
 8319TIP3    H249153   3.011   5.920   1.365
 8320TIP3   OH249154   3.133   5.920   0.456
 8320TIP3    H149155   3.138   5.998   0.397
 8320TIP3    H249156   3.167   5.959   0.540
 8321TIP3   OH249157   2.892   7.202   0.286
 8321TIP3    H149158   2.815   7.219   0.341
 8321TIP3    H249159   2.910   7.292   0.253
 8322TIP3   OH249160   2.867   6.135   0.514
 8322TIP3    H149161   2.913   6.221   0.520
 8322TIP3    H249162   2.824   6.126   0.601
 8323TIP3   OH249163   2.915   6.267   1.427
 8323TIP3    H149164   2.934   6.315   1.511
 8323TIP3    H249165   2.992   6.206   1.418
 8324TIP3   OH249166   2.903   5.834   0.582
 8324TIP3    H149167   2.871   5.906   0.639
 8324TIP3    H249168   2.984   5.878   0.544
 8325TIP3   OH249169   2.602   7.287   0.321
 8325TIP3    H149170   2.621   7.372   0.275
 8325TIP3    H249171   2.563   7.318   0.406
 8326TIP3   OH249172   2.484   5.988   0.299
 8326TIP3    H149173   2.486   6.071   0.351
 8326TIP3    H249174   2.566   5.946   0.329
 8327TIP3   OH249175   3.469   6.055   1.520
 8327TIP3    H149176   3.376   6.046   1.492
 8327TIP3    H249177   3.518   6.052   1.435
 8328TIP3   OH249178   3.373   6.420   0.925
 8328TIP3    H149179   3.296   6.362   0.915
 8328TIP3    H249180   3.439   6.362   0.970
 8329TIP3   OH249181   2.297   6.987   0.185
 8329TIP3    H149182   2.371   7.040   0.219
 8329TIP3    H249183   2.326   6.972   0.093
 8330TIP3   OH249184   2.147   6.278   0.133
 8330TIP3    H149185   2.155   6.375   0.128
 8330TIP3    H249186   2.077   6.260   0.068
 8331TIP3   OH249187   3.491   7.419   1.118
 8331TIP3    H149188   3.475   7.442   1.024
 8331TIP3    H249189   3.589   7.404   1.110
 8332TIP3   OH249190   2.202   5.754   0.996
 8332TIP3    H149191   2.196   5.747   0.898
 8332TIP3    H249192   2.173   5.664   1.023
 8333TIP3   OH249193   2.081   7.111   0.561
 8333TIP3    H149194   2.000   7.162   0.560
 8333TIP3    H249195   2.128   7.162   0.493
 8334TIP3   OH249196   2.030   7.430   1.727
 8334TIP3    H149197   2.118   7.425   1.768
 8334TIP3    H249198   2.003   7.337   1.726
 8335TIP3   OH249199   2.515   7.261   1.868
 8335TIP3    H149200   2.610   7.269   1.861
 8335TIP3    H249201   2.489   7.243   1.776
 8336TIP3   OH249202   2.910   7.202   9.948
 8336TIP3    H149203   2.827   7.171   9.987
 8336TIP3    H249204   2.976   7.176  10.014
 8337TIP3   OH249205   3.125   7.169   1.760
 8337TIP3    H149206   3.094   7.078   1.785
 8337TIP3    H249207   3.202   7.179   1.820
 8338TIP3   OH249208   3.311   7.232   0.082
 8338TIP3    H149209   3.349   7.145   0.105
 8338TIP3    H249210   3.378   7.277   0.026
 8339TIP3   OH249211   1.989   6.795   1.812
 8339TIP3    H149212   1.941   6.712   1.829
 8339TIP3    H249213   1.939   6.828   1.734
 8340TIP3   OH249214   2.514   6.747   0.077
 8340TIP3    H149215   2.512   6.707   0.166
 8340TIP3    H249216   2.601   6.791   0.085
 8341TIP3   OH249217   2.676   6.790   1.712
 8341TIP3    H149218   2.649   6.844   1.633
 8341TIP3    H249219   2.668   6.697   1.681
 8342TIP3   OH249220   3.243   6.774   1.498
 8342TIP3    H149221   3.324   6.830   1.498
 8342TIP3    H249222   3.178   6.846   1.501
 8343TIP3   OH249223   2.123   6.484   1.767
 8343TIP3    H149224   2.167   6.401   1.790
 8343TIP3    H249225   2.157   6.545   1.835
 8344TIP3   OH249226   2.596   6.628   0.298
 8344TIP3    H149227   2.518   6.578   0.330
 8344TIP3    H249228   2.633   6.569   0.229
 8345TIP3   OH249229   2.477   6.407   1.454
 8345TIP3    H149230   2.417   6.484   1.441
 8345TIP3    H249231   2.555   6.438   1.404
 8346TIP3   OH249232   2.715   6.467   0.105
 8346TIP3    H149233   2.728   6.428   0.017
 8346TIP3    H249234   2.807   6.463   0.141
 8347TIP3   OH249235   3.023   6.669   1.818
 8347TIP3    H149236   3.090   6.631   1.759
 8347TIP3    H249237   3.007   6.594   1.880
 8348TIP3   OH249238   3.589   6.653  10.017
 8348TIP3    H149239   3.655   6.619   9.955
 8348TIP3    H249240   3.609   6.749  10.005
 8349TIP3   OH249241   2.575   6.167   1.539
 8349TIP3    H149242   2.553   6.098   1.472
 8349TIP3    H249243   2.531   6.246   1.499
 8350TIP3   OH249244   2.608   5.971   1.363
 8350TIP3    H149245   2.647   6.020   1.287
 8350TIP3    H249246   2.517   5.956   1.326
 8351TIP3   OH249247   2.708   6.548   1.350
 8351TIP3    H149248   2.791   6.589   1.322
 8351TIP3    H249249   2.646   6.620   1.326
 8352TIP3   OH249250   3.160   6.290   1.840
 8352TIP3    H149251   3.198   6.201   1.850
 8352TIP3    H249252   3.231   6.345   1.875
 8353TIP3   OH249253   3.322   6.608   1.693
 8353TIP3    H149254   3.292   6.670   1.623
 8353TIP3    H249255   3.419   6.610   1.678
 8354TIP3   OH249256   2.405   6.262   1.781
 8354TIP3    H149257   2.315   6.223   1.787
 8354TIP3    H249258   2.438   6.223   1.700
 8355TIP3   OH249259   2.678   5.719   1.364
 8355TIP3    H149260   2.642   5.809   1.375
 8355TIP3    H249261   2.603   5.675   1.321
 8356TIP3   OH249262   2.794   6.131   1.799
 8356TIP3    H149263   2.852   6.094   1.871
 8356TIP3    H249264   2.707   6.114   1.842
 8357TIP3   OH249265   3.044   6.076   1.678
 8357TIP3    H149266   3.024   6.135   1.752
 8357TIP3    H249267   3.091   6.006   1.729
 8358TIP3   OH249268   3.201   5.933   1.836
 8358TIP3    H149269   3.211   5.835   1.841
 8358TIP3    H249270   3.199   5.961   1.929
 8359TIP3   OH249271   2.196   6.088   1.768
 8359TIP3    H149272   2.176   6.004   1.722
 8359TIP3    H249273   2.164   6.068   1.858
 8360TIP3   OH249274   2.672   5.700   1.640
 8360TIP3    H149275   2.747   5.638   1.649
 8360TIP3    H249276   2.656   5.690   1.543
 8361TIP3   OH249277   2.699   5.821   1.888
 8361TIP3    H149278   2.680   5.770   1.807
 8361TIP3    H249279   2.638   5.898   1.877
 8362TIP3   OH249280   2.674   7.512   0.172
 8362TIP3    H149281   2.764   7.524   0.208
 8362TIP3    H249282   2.691   7.520   0.074
 8363TIP3   OH249283   2.028   6.982   0.153
 8363TIP3    H149284   2.126   6.985   0.165
 8363TIP3    H249285   2.021   6.957   0.060
 8364TIP3   OH249286   1.903   7.501   0.626
 8364TIP3    H149287   1.823   7.458   0.588
 8364TIP3    H249288   1.920   7.437   0.698
 8365TIP3   OH249289   1.987   7.317   0.822
 8365TIP3    H149290   1.918   7.257   0.853
 8365TIP3    H249291   2.050   7.319   0.898
 8366TIP3   OH249292   3.759   7.416   1.083
 8366TIP3    H149293   3.773   7.450   1.174
 8366TIP3    H249294   3.804   7.486   1.034
 8367TIP3   OH249295   3.691   7.349   1.422
 8367TIP3    H149296   3.667   7.272   1.365
 8367TIP3    H249297   3.738   7.302   1.494
 8368TIP3   OH249298   3.546   6.933   1.890
 8368TIP3    H149299   3.458   6.938   1.933
 8368TIP3    H249300   3.585   7.021   1.910
 8369TIP3   OH249301   3.640   6.785   0.385
 8369TIP3    H149302   3.728   6.825   0.404
 8369TIP3    H249303   3.625   6.731   0.465
 8370TIP3   OH249304   3.697   6.591   0.615
 8370TIP3    H149305   3.616   6.541   0.640
 8370TIP3    H249306   3.744   6.598   0.701
 8371TIP3   OH249307   3.670   6.847   1.081
 8371TIP3    H149308   3.731   6.773   1.060
 8371TIP3    H249309   3.718   6.922   1.040
 8372TIP3   OH249310   3.544   7.129   1.341
 8372TIP3    H149311   3.485   7.187   1.392
 8372TIP3    H249312   3.492   7.117   1.258
 8373TIP3   OH249313   3.751   6.582   0.228
 8373TIP3    H149314   3.688   6.608   0.158
 8373TIP3    H249315   3.741   6.657   0.290
 8374TIP3   OH249316   3.531   6.261   0.156
 8374TIP3    H149317   3.500   6.328   0.093
 8374TIP3    H249318   3.594   6.215   0.099
 8375TIP3   OH249319   3.495   6.438   0.688
 8375TIP3    H149320   3.481   6.346   0.667
 8375TIP3    H249321   3.467   6.441   0.782
 8376TIP3   OH249322   1.982   6.659   1.084
 8376TIP3    H149323   1.983   6.629   0.990
 8376TIP3    H249324   2.068   6.622   1.114
 8377TIP3   OH249325   3.600   6.630   1.638
 8377TIP3    H149326   3.647   6.544   1.644
 8377TIP3    H249327   3.669   6.697   1.618
 8378TIP3   OH249328   3.701   6.372   1.664
 8378TIP3    H149329   3.608   6.338   1.666
 8378TIP3    H249330   3.756   6.291   1.679
 8379TIP3   OH249331   3.505   6.026  -0.018
 8379TIP3    H149332   3.561   5.986   0.052
 8379TIP3    H249333   3.416   6.008   0.015
 8380TIP3   OH249334   3.448   6.206   0.494
 8380TIP3    H149335   3.461   6.113   0.524
 8380TIP3    H249336   3.538   6.223   0.463
 8381TIP3   OH249337   3.551   6.253   1.049
 8381TIP3    H149338   3.648   6.264   1.063
 8381TIP3    H249339   3.520   6.258   1.141
 8382TIP3   OH249340   3.535   6.319   1.312
 8382TIP3    H149341   3.453   6.349   1.357
 8382TIP3    H249342   3.583   6.404   1.303
 8383TIP3   OH249343   1.979   6.110   1.595
 8383TIP3    H149344   2.035   6.147   1.667
 8383TIP3    H249345   1.910   6.072   1.653
 8384TIP3   OH249346   3.763   5.773   1.841
 8384TIP3    H149347   3.796   5.694   1.794
 8384TIP3    H249348   3.760   5.838   1.766
 8385TIP3   OH249349   3.538   5.947   0.531
 8385TIP3    H149350   3.571   5.896   0.608
 8385TIP3    H249351   3.479   5.881   0.491
 8386TIP3   OH249352   2.080   5.997   1.003
 8386TIP3    H149353   2.111   5.904   1.010
 8386TIP3    H249354   2.161   6.050   1.001
 8387TIP3   OH249355   1.916   6.316   1.064
 8387TIP3    H149356   1.974   6.308   0.986
 8387TIP3    H249357   1.971   6.374   1.118
 8388TIP3   OH249358   3.700   5.964   1.669
 8388TIP3    H149359   3.620   6.004   1.712
 8388TIP3    H249360   3.659   5.917   1.594
 8389TIP3   OH249361   3.710   5.955   0.168
 8389TIP3    H149362   3.762   5.898   0.109
 8389TIP3    H249363   3.775   6.026   0.186
 8390TIP3   OH249364   1.943   5.918   0.480
 8390TIP3    H149365   1.851   5.948   0.484
 8390TIP3    H249366   1.971   5.955   0.394
 8391TIP3   OH249367   3.398   7.403   0.643
 8391TIP3    H149368   3.481   7.392   0.592
 8391TIP3    H249369   3.427   7.462   0.714
 8392TIP3   OH249370   1.935   5.778   1.311
 8392TIP3    H149371   1.861   5.733   1.357
 8392TIP3    H249372   1.890   5.847   1.261
 8393TIP3   OH249373   2.164   7.087   1.715
 8393TIP3    H149374   2.082   7.099   1.663
 8393TIP3    H249375   2.134   7.098   1.806
 8394TIP3   OH249376   2.442   7.228   1.362
 8394TIP3    H149377   2.437   7.324   1.341
 8394TIP3    H249378   2.540   7.223   1.371
 8395TIP3   OH249379   2.886   7.321   1.632
 8395TIP3    H149380   2.876   7.308   1.729
 8395TIP3    H249381   2.964   7.380   1.627
 8396TIP3   OH249382   3.120   7.521   1.576
 8396TIP3    H149383   3.200   7.470   1.556
 8396TIP3    H249384   3.128   7.526   1.674
 8397TIP3   OH249385   3.611   5.732   1.494
 8397TIP3    H149386   3.540   5.771   1.441
 8397TIP3    H249387   3.625   5.646   1.448
 8398TIP3   OH249388   2.181   7.557   1.336
 8398TIP3    H149389   2.094   7.567   1.295
 8398TIP3    H249390   2.156   7.558   1.430
 8399TIP3   OH249391   2.427   7.482   1.291
 8399TIP3    H149392   2.337   7.517   1.315
 8399TIP3    H249393   2.431   7.508   1.197
 8400TIP3   OH249394   2.912   7.461   1.175
 8400TIP3    H149395   2.846   7.479   1.104
 8400TIP3    H249396   2.916   7.548   1.220
 8401TIP3   OH249397   3.100   7.324   1.326
 8401TIP3    H149398   3.027   7.370   1.279
 8401TIP3    H249399   3.173   7.386   1.309
 8402TIP3   OH249400   3.333   7.536   1.294
 8402TIP3    H149401   3.315   7.627   1.264
 8402TIP3    H249402   3.384   7.500   1.216
 8403TIP3   OH249403   2.142   7.344   1.038
 8403TIP3    H149404   2.127   7.288   1.118
 8403TIP3    H249405   2.229   7.312   1.006
 8404TIP3   OH249406   2.366   7.273   0.927
 8404TIP3    H149407   2.354   7.176   0.943
 8404TIP3    H249408   2.450   7.285   0.976
 8405TIP3   OH249409   2.593   7.271   1.053
 8405TIP3    H149410   2.620   7.181   1.026
 8405TIP3    H249411   2.615   7.273   1.148
 8406TIP3   OH249412   2.900   5.848   0.888
 8406TIP3    H149413   2.835   5.816   0.955
 8406TIP3    H249414   2.942   5.764   0.865
 8407TIP3   OH249415   3.475   5.676   0.905
 8407TIP3    H149416   3.545   5.729   0.861
 8407TIP3    H249417   3.394   5.709   0.860
 8408TIP3   OH249418   3.644   5.804   0.741
 8408TIP3    H149419   3.708   5.750   0.689
 8408TIP3    H249420   3.699   5.885   0.757
 8409TIP3   OH249421   2.189   5.729   0.712
 8409TIP3    H149422   2.108   5.730   0.658
 8409TIP3    H249423   2.226   5.641   0.688
 8410TIP3   OH249424   2.066   5.702   0.258
 8410TIP3    H149425   2.113   5.776   0.212
 8410TIP3    H249426   2.015   5.749   0.326
 8411TIP3   OH249427   2.637   5.680   0.695
 8411TIP3    H149428   2.717   5.707   0.649
 8411TIP3    H249429   2.638   5.737   0.775
 8412TIP3   OH249430   3.228   5.724   0.789
 8412TIP3    H149431   3.171   5.742   0.713
 8412TIP3    H249432   3.177   5.653   0.834
 8413TIP3   OH249433   3.358   5.712   0.425
 8413TIP3    H149434   3.281   5.770   0.415
 8413TIP3    H249435   3.320   5.640   0.480
 8414TIP3   OH249436   2.058   7.305   0.377
 8414TIP3    H149437   1.967   7.296   0.344
 8414TIP3    H249438   2.079   7.394   0.345
 8415TIP3   OH249439   2.226   5.858   0.122
 8415TIP3    H149440   2.310   5.818   0.097
 8415TIP3    H249441   2.255   5.939   0.168
 8416TIP3   OH249442   2.758   5.918   0.357
 8416TIP3    H149443   2.809   5.875   0.429
 8416TIP3    H249444   2.762   6.009   0.393
 8417TIP3   OH249445   2.952   7.461   0.190
 8417TIP3    H149446   3.051   7.460   0.197
 8417TIP3    H249447   2.942   7.416   0.104
 8418TIP3   OH249448   3.602   7.373   0.492
 8418TIP3    H149449   3.582   7.285   0.452
 8418TIP3    H249450   3.602   7.430   0.412
 8419TIP3   OH249451   2.165   5.800   1.649
 8419TIP3    H149452   2.110   5.719   1.659
 8419TIP3    H249453   2.240   5.781   1.709
 8420TIP3   OH249454   2.360   5.717   1.838
 8420TIP3    H149455   2.453   5.702   1.818
 8420TIP3    H249456   2.335   5.629   1.875
 8421TIP3   OH249457   2.266   7.476   0.091
 8421TIP3    H149458   2.203   7.483   0.164
 8421TIP3    H249459   2.325   7.408   0.127
 8422TIP3   OH249460   3.213   5.667   1.820
 8422TIP3    H149461   3.203   5.604   1.895
 8422TIP3    H249462   3.308   5.652   1.799
 8423TIP3   OH249463   3.510   7.260   1.701
 8423TIP3    H149464   3.430   7.259   1.644
 8423TIP3    H249465   3.532   7.355   1.698
 8424TIP3   OH249466   5.002   6.668   0.684
 8424TIP3    H149467   4.978   6.759   0.707
 8424TIP3    H249468   4.929   6.647   0.623
 8425TIP3   OH249469   4.870   6.547   1.025
 8425TIP3    H149470   4.875   6.506   1.115
 8425TIP3    H249471   4.809   6.487   0.979
 8426TIP3   OH249472   4.069   6.538   1.171
 8426TIP3    H149473   4.082   6.465   1.233
 8426TIP3    H249474   4.140   6.598   1.195
 8427TIP3   OH249475   5.200   6.830   0.885
 8427TIP3    H149476   5.181   6.762   0.952
 8427TIP3    H249477   5.197   6.910   0.938
 8428TIP3   OH249478   4.191   7.001   1.014
 8428TIP3    H149479   4.159   6.913   0.986
 8428TIP3    H249480   4.287   6.983   1.009
 8429TIP3   OH249481   3.861   6.341   0.575
 8429TIP3    H149482   3.819   6.426   0.599
 8429TIP3    H249483   3.831   6.332   0.482
 8430TIP3   OH249484   3.898   6.567   0.811
 8430TIP3    H149485   3.936   6.478   0.833
 8430TIP3    H249486   3.968   6.610   0.759
 8431TIP3   OH249487   4.915   7.352   0.833
 8431TIP3    H149488   5.006   7.314   0.827
 8431TIP3    H249489   4.885   7.312   0.916
 8432TIP3   OH249490   4.697   6.815   1.097
 8432TIP3    H149491   4.725   6.749   1.031
 8432TIP3    H249492   4.783   6.844   1.133
 8433TIP3   OH249493   5.551   5.972   1.125
 8433TIP3    H149494   5.557   6.021   1.209
 8433TIP3    H249495   5.636   6.001   1.087
 8434TIP3   OH249496   5.045   6.272   1.131
 8434TIP3    H149497   5.069   6.179   1.143
 8434TIP3    H249498   5.017   6.269   1.038
 8435TIP3   OH249499   4.334   6.045   0.794
 8435TIP3    H149500   4.348   6.126   0.739
 8435TIP3    H249501   4.290   5.987   0.727
 8436TIP3   OH249502   5.098   6.088   0.666
 8436TIP3    H149503   5.146   6.052   0.744
 8436TIP3    H249504   5.162   6.152   0.630
 8437TIP3   OH249505   3.985   6.325   0.895
 8437TIP3    H149506   4.049   6.276   0.949
 8437TIP3    H249507   4.012   6.292   0.807
 8438TIP3   OH249508   4.472   6.465   0.847
 8438TIP3    H149509   4.559   6.427   0.872
 8438TIP3    H249510   4.432   6.392   0.796
 8439TIP3   OH249511   5.573   6.113   1.355
 8439TIP3    H149512   5.537   6.199   1.325
 8439TIP3    H249513   5.578   6.130   1.451
 8440TIP3   OH249514   4.236   5.965   1.232
 8440TIP3    H149515   4.197   6.008   1.153
 8440TIP3    H249516   4.169   5.991   1.299
 8441TIP3   OH249517   4.924   6.916   0.583
 8441TIP3    H149518   4.919   6.907   0.485
 8441TIP3    H249519   4.902   7.010   0.592
 8442TIP3   OH249520   4.455   6.730   1.198
 8442TIP3    H149521   4.404   6.804   1.237
 8442TIP3    H249522   4.529   6.778   1.153
 8443TIP3   OH249523   5.274   6.017   0.858
 8443TIP3    H149524   5.273   5.939   0.914
 8443TIP3    H249525   5.358   6.058   0.883
 8444TIP3   OH249526   4.185   6.155   1.007
 8444TIP3    H149527   4.250   6.213   1.054
 8444TIP3    H249528   4.238   6.125   0.930
 8445TIP3   OH249529   4.326   6.947   1.320
 8445TIP3    H149530   4.312   7.036   1.283
 8445TIP3    H249531   4.239   6.931   1.365
 8446TIP3   OH249532   3.903   6.870   0.407
 8446TIP3    H149533   3.908   6.925   0.325
 8446TIP3    H249534   3.921   6.937   0.475
 8447TIP3   OH249535   5.284   7.108   1.129
 8447TIP3    H149536   5.186   7.099   1.134
 8447TIP3    H249537   5.290   7.175   1.060
 8448TIP3   OH249538   5.279   5.910   1.197
 8448TIP3    H149539   5.200   5.922   1.140
 8448TIP3    H249540   5.349   5.939   1.136
 8449TIP3   OH249541   4.590   5.717   0.966
 8449TIP3    H149542   4.556   5.627   0.956
 8449TIP3    H249543   4.505   5.762   0.989
 8450TIP3   OH249544   5.155   7.238   0.788
 8450TIP3    H149545   5.153   7.159   0.731
 8450TIP3    H249546   5.217   7.293   0.734
 8451TIP3   OH249547   5.236   7.016   0.626
 8451TIP3    H149548   5.208   6.977   0.542
 8451TIP3    H249549   5.226   6.940   0.686
 8452TIP3   OH249550   5.383   6.900   1.466
 8452TIP3    H149551   5.401   6.825   1.405
 8452TIP3    H249552   5.399   6.975   1.406
 8453TIP3   OH249553   4.844   6.609   0.431
 8453TIP3    H149554   4.789   6.686   0.405
 8453TIP3    H249555   4.918   6.612   0.366
 8454TIP3   OH249556   4.877   6.440   0.135
 8454TIP3    H149557   4.944   6.488   0.189
 8454TIP3    H249558   4.926   6.356   0.118
 8455TIP3   OH249559   5.592   6.539   1.247
 8455TIP3    H149560   5.527   6.612   1.257
 8455TIP3    H249561   5.645   6.579   1.174
 8456TIP3   OH249562   5.207   6.574   0.530
 8456TIP3    H149563   5.139   6.614   0.589
 8456TIP3    H249564   5.271   6.540   0.597
 8457TIP3   OH249565   5.183   6.435   1.461
 8457TIP3    H149566   5.169   6.529   1.481
 8457TIP3    H249567   5.118   6.424   1.389
 8458TIP3   OH249568   4.349   6.661   0.708
 8458TIP3    H149569   4.329   6.639   0.613
 8458TIP3    H249570   4.399   6.581   0.736
 8459TIP3   OH249571   4.485   6.994   0.977
 8459TIP3    H149572   4.495   6.969   0.884
 8459TIP3    H249573   4.566   6.956   1.017
 8460TIP3   OH249574   4.357   6.516   1.087
 8460TIP3    H149575   4.395   6.516   0.997
 8460TIP3    H249576   4.406   6.590   1.129
 8461TIP3   OH249577   5.013   7.097   1.148
 8461TIP3    H149578   4.977   7.172   1.200
 8461TIP3    H249579   4.977   7.020   1.197
 8462TIP3   OH249580   4.488   6.983   1.552
 8462TIP3    H149581   4.426   7.046   1.596
 8462TIP3    H249582   4.444   6.971   1.465
 8463TIP3   OH249583   5.068   6.551   0.286
 8463TIP3    H149584   5.116   6.554   0.373
 8463TIP3    H249585   5.134   6.593   0.225
 8464TIP3   OH249586   4.185   6.600   1.452
 8464TIP3    H149587   4.173   6.693   1.476
 8464TIP3    H249588   4.132   6.560   1.522
 8465TIP3   OH249589   4.850   7.222   0.585
 8465TIP3    H149590   4.871   7.236   0.678
 8465TIP3    H249591   4.784   7.293   0.574
 8466TIP3   OH249592   4.294   7.167   1.614
 8466TIP3    H149593   4.283   7.173   1.517
 8466TIP3    H249594   4.209   7.126   1.641
 8467TIP3   OH249595   5.483   5.689   0.319
 8467TIP3    H149596   5.386   5.686   0.333
 8467TIP3    H249597   5.494   5.783   0.297
 8468TIP3   OH249598   4.245   6.551   0.481
 8468TIP3    H149599   4.194   6.625   0.444
 8468TIP3    H249600   4.196   6.475   0.447
 8469TIP3   OH249601   5.580   7.154   0.156
 8469TIP3    H149602   5.626   7.239   0.137
 8469TIP3    H249603   5.653   7.088   0.153
 8470TIP3   OH249604   3.879   6.817   1.380
 8470TIP3    H149605   3.844   6.807   1.291
 8470TIP3    H249606   3.911   6.726   1.398
 8471TIP3   OH249607   3.858   7.066   1.004
 8471TIP3    H149608   3.955   7.062   1.008
 8471TIP3    H249609   3.841   7.141   1.063
 8472TIP3   OH249610   5.644   7.162   1.644
 8472TIP3    H149611   5.623   7.068   1.626
 8472TIP3    H249612   5.559   7.192   1.684
 8473TIP3   OH249613   4.743   7.093   1.500
 8473TIP3    H149614   4.754   7.182   1.541
 8473TIP3    H249615   4.651   7.070   1.521
 8474TIP3   OH249616   4.834   7.515   0.483
 8474TIP3    H149617   4.837   7.505   0.386
 8474TIP3    H249618   4.806   7.607   0.495
 8475TIP3   OH249619   4.167   7.324   0.681
 8475TIP3    H149620   4.200   7.336   0.773
 8475TIP3    H249621   4.100   7.254   0.699
 8476TIP3   OH249622   5.094   7.429   0.226
 8476TIP3    H149623   5.142   7.366   0.167
 8476TIP3    H249624   5.099   7.381   0.312
 8477TIP3   OH249625   5.060   7.375   0.477
 8477TIP3    H149626   4.971   7.404   0.503
 8477TIP3    H249627   5.064   7.285   0.514
 8478TIP3   OH249628   5.340   6.279   1.668
 8478TIP3    H149629   5.307   6.326   1.589
 8478TIP3    H249630   5.361   6.191   1.629
 8479TIP3   OH249631   4.099   6.939   1.462
 8479TIP3    H149632   4.098   6.904   1.554
 8479TIP3    H249633   4.009   6.914   1.430
 8480TIP3   OH249634   4.362   5.818   1.043
 8480TIP3    H149635   4.272   5.807   1.005
 8480TIP3    H249636   4.341   5.865   1.126
 8481TIP3   OH249637   4.849   5.754   1.356
 8481TIP3    H149638   4.885   5.712   1.438
 8481TIP3    H249639   4.751   5.751   1.369
 8482TIP3   OH249640   5.108   6.175   1.509
 8482TIP3    H149641   5.049   6.137   1.577
 8482TIP3    H249642   5.138   6.256   1.553
 8483TIP3   OH249643   5.246   6.664   0.139
 8483TIP3    H149644   5.212   6.668   0.045
 8483TIP3    H249645   5.341   6.671   0.120
 8484TIP3   OH249646   4.809   6.028   0.140
 8484TIP3    H149647   4.765   5.994   0.221
 8484TIP3    H249648   4.741   6.005   0.075
 8485TIP3   OH249649   4.368   6.268   1.179
 8485TIP3    H149650   4.290   6.279   1.238
 8485TIP3    H249651   4.373   6.360   1.144
 8486TIP3   OH249652   4.352   6.272   0.658
 8486TIP3    H149653   4.256   6.278   0.640
 8486TIP3    H249654   4.394   6.273   0.568
 8487TIP3   OH249655   4.933   6.391   0.573
 8487TIP3    H149656   4.898   6.467   0.521
 8487TIP3    H249657   4.994   6.352   0.506
 8488TIP3   OH249658   4.810   6.394   1.678
 8488TIP3    H149659   4.768   6.311   1.710
 8488TIP3    H249660   4.890   6.393   1.731
 8489TIP3   OH249661   5.032   6.314   0.832
 8489TIP3    H149662   5.014   6.398   0.788
 8489TIP3    H249663   5.023   6.256   0.754
 8490TIP3   OH249664   4.128   6.295   1.306
 8490TIP3    H149665   4.153   6.331   1.392
 8490TIP3    H249666   4.087   6.210   1.332
 8491TIP3   OH249667   4.466   6.053   0.059
 8491TIP3    H149668   4.423   6.029   0.143
 8491TIP3    H249669   4.413   6.129   0.029
 8492TIP3   OH249670   3.805   6.021   0.766
 8492TIP3    H149671   3.874   6.029   0.832
 8492TIP3    H249672   3.844   6.061   0.687
 8493TIP3   OH249673   3.917   6.086   0.289
 8493TIP3    H149674   3.992   6.137   0.251
 8493TIP3    H249675   3.856   6.160   0.307
 8494TIP3   OH249676   4.924   6.459   1.274
 8494TIP3    H149677   4.978   6.390   1.228
 8494TIP3    H249678   4.864   6.402   1.328
 8495TIP3   OH249679   4.647   6.046   0.783
 8495TIP3    H149680   4.552   6.055   0.798
 8495TIP3    H249681   4.680   6.005   0.864
 8496TIP3   OH249682   4.074   6.208   0.669
 8496TIP3    H149683   4.000   6.237   0.612
 8496TIP3    H249684   4.101   6.120   0.635
 8497TIP3   OH249685   4.484   6.231   0.417
 8497TIP3    H149686   4.578   6.246   0.400
 8497TIP3    H249687   4.437   6.288   0.351
 8498TIP3   OH249688   5.057   5.984   1.075
 8498TIP3    H149689   4.996   5.973   1.150
 8498TIP3    H249690   5.014   5.932   1.005
 8499TIP3   OH249691   4.305   6.346   0.239
 8499TIP3    H149692   4.225   6.339   0.184
 8499TIP3    H249693   4.375   6.346   0.171
 8500TIP3   OH249694   5.330   7.602   1.710
 8500TIP3    H149695   5.358   7.602   1.617
 8500TIP3    H249696   5.417   7.585   1.754
 8501TIP3   OH249697   4.134   6.775   1.701
 8501TIP3    H149698   4.200   6.788   1.771
 8501TIP3    H249699   4.052   6.761   1.753
 8502TIP3   OH249700   4.740   6.328   0.950
 8502TIP3    H149701   4.805   6.291   0.889
 8502TIP3    H249702   4.713   6.250   1.001
 8503TIP3   OH249703   4.191   5.932   0.600
 8503TIP3    H149704   4.125   5.873   0.643
 8503TIP3    H249705   4.229   5.869   0.537
 8504TIP3   OH249706   4.602   6.137   1.186
 8504TIP3    H149707   4.524   6.198   1.184
 8504TIP3    H249708   4.668   6.190   1.232
 8505TIP3   OH249709   4.666   6.802   0.383
 8505TIP3    H149710   4.591   6.748   0.351
 8505TIP3    H249711   4.631   6.829   0.472
 8506TIP3   OH249712   5.408   6.734   1.266
 8506TIP3    H149713   5.455   6.790   1.198
 8506TIP3    H249714   5.322   6.724   1.222
 8507TIP3   OH249715   5.060   6.079   0.210
 8507TIP3    H149716   4.965   6.072   0.187
 8507TIP3    H249717   5.071   6.175   0.220
 8508TIP3   OH249718   4.781   6.821   1.490
 8508TIP3    H149719   4.772   6.787   1.580
 8508TIP3    H249720   4.763   6.916   1.503
 8509TIP3   OH249721   5.119   6.301   0.356
 8509TIP3    H149722   5.202   6.272   0.397
 8509TIP3    H249723   5.143   6.382   0.307
 8510TIP3   OH249724   4.186   6.747   0.925
 8510TIP3    H149725   4.240   6.727   0.845
 8510TIP3    H249726   4.201   6.668   0.978
 8511TIP3   OH249727   4.876   6.950   0.326
 8511TIP3    H149728   4.841   7.042   0.324
 8511TIP3    H249729   4.795   6.895   0.327
 8512TIP3   OH249730   3.879   6.560   1.481
 8512TIP3    H149731   3.866   6.502   1.558
 8512TIP3    H249732   3.824   6.517   1.413
 8513TIP3   OH249733   4.558   6.517   1.668
 8513TIP3    H149734   4.529   6.447   1.609
 8513TIP3    H249735   4.654   6.499   1.673
 8514TIP3   OH249736   5.065   7.058   1.511
 8514TIP3    H149737   4.978   7.067   1.468
 8514TIP3    H249738   5.044   7.103   1.596
 8515TIP3   OH249739   5.611   6.280   0.350
 8515TIP3    H149740   5.542   6.262   0.282
 8515TIP3    H249741   5.618   6.376   0.341
 8516TIP3   OH249742   5.629   6.871   1.591
 8516TIP3    H149743   5.538   6.883   1.556
 8516TIP3    H249744   5.681   6.857   1.508
 8517TIP3   OH249745   5.449   7.124   0.389
 8517TIP3    H149746   5.373   7.064   0.387
 8517TIP3    H249747   5.482   7.121   0.297
 8518TIP3   OH249748   5.151   6.640   1.071
 8518TIP3    H149749   5.059   6.611   1.060
 8518TIP3    H249750   5.195   6.587   1.002
 8519TIP3   OH249751   4.399   7.061   0.699
 8519TIP3    H149752   4.440   7.147   0.677
 8519TIP3    H249753   4.311   7.071   0.659
 8520TIP3   OH249754   4.003   6.551   0.101
 8520TIP3    H149755   4.058   6.611   0.155
 8520TIP3    H249756   3.916   6.563   0.143
 8521TIP3   OH249757   4.549   6.844   0.630
 8521TIP3    H149758   4.497   6.926   0.643
 8521TIP3    H249759   4.502   6.781   0.687
 8522TIP3   OH249760   4.597   7.256   1.325
 8522TIP3    H149761   4.647   7.337   1.305
 8522TIP3    H249762   4.668   7.199   1.360
 8523TIP3   OH249763   4.431   7.316   0.592
 8523TIP3    H149764   4.337   7.336   0.614
 8523TIP3    H249765   4.478   7.396   0.626
 8524TIP3   OH249766   4.915   6.858   1.246
 8524TIP3    H149767   4.873   6.838   1.333
 8524TIP3    H249768   4.947   6.771   1.218
 8525TIP3   OH249769   5.199   6.979   0.155
 8525TIP3    H149770   5.222   6.930   0.237
 8525TIP3    H249771   5.103   6.976   0.165
 8526TIP3   OH249772   5.239   7.313   1.477
 8526TIP3    H149773   5.164   7.254   1.453
 8526TIP3    H249774   5.234   7.386   1.412
 8527TIP3   OH249775   5.669   7.407   0.134
 8527TIP3    H149776   5.743   7.465   0.161
 8527TIP3    H249777   5.593   7.453   0.176
 8528TIP3   OH249778   4.059   6.049   1.425
 8528TIP3    H149779   3.997   6.093   1.486
 8528TIP3    H249780   4.077   5.968   1.477
 8529TIP3   OH249781   5.263   6.832   0.370
 8529TIP3    H149782   5.248   6.737   0.374
 8529TIP3    H249783   5.361   6.832   0.366
 8530TIP3   OH249784   4.019   7.195   1.294
 8530TIP3    H149785   4.071   7.114   1.285
 8530TIP3    H249786   4.073   7.246   1.356
 8531TIP3   OH249787   4.454   7.039   0.254
 8531TIP3    H149788   4.533   6.990   0.279
 8531TIP3    H249789   4.471   7.130   0.288
 8532TIP3   OH249790   4.121   6.729   0.283
 8532TIP3    H149791   4.050   6.777   0.329
 8532TIP3    H249792   4.177   6.802   0.251
 8533TIP3   OH249793   4.907   6.035   1.337
 8533TIP3    H149794   4.992   6.054   1.380
 8533TIP3    H249795   4.888   5.943   1.365
 8534TIP3   OH249796   5.007   5.942   0.464
 8534TIP3    H149797   5.029   6.014   0.401
 8534TIP3    H249798   5.051   5.974   0.546
 8535TIP3   OH249799   4.787   7.199   0.272
 8535TIP3    H149800   4.711   7.209   0.330
 8535TIP3    H249801   4.799   7.291   0.241
 8536TIP3   OH249802   4.749   6.146   0.538
 8536TIP3    H149803   4.800   6.230   0.538
 8536TIP3    H249804   4.710   6.141   0.626
 8537TIP3   OH249805   4.795   6.283   1.424
 8537TIP3    H149806   4.801   6.322   1.514
 8537TIP3    H249807   4.855   6.206   1.428
 8538TIP3   OH249808   4.787   5.840   0.592
 8538TIP3    H149809   4.742   5.912   0.639
 8538TIP3    H249810   4.865   5.889   0.552
 8539TIP3   OH249811   4.485   7.311   0.322
 8539TIP3    H149812   4.508   7.400   0.288
 8539TIP3    H249813   4.445   7.330   0.409
 8540TIP3   OH249814   4.376   5.994   0.302
 8540TIP3    H149815   4.381   6.072   0.361
 8540TIP3    H249816   4.456   5.946   0.327
 8541TIP3   OH249817   5.357   6.049   1.520
 8541TIP3    H149818   5.261   6.055   1.503
 8541TIP3    H249819   5.395   6.042   1.430
 8542TIP3   OH249820   5.263   6.421   0.926
 8542TIP3    H149821   5.186   6.363   0.914
 8542TIP3    H249822   5.323   6.365   0.979
 8543TIP3   OH249823   4.184   6.990   0.183
 8543TIP3    H149824   4.257   7.046   0.217
 8543TIP3    H249825   4.218   6.966   0.095
 8544TIP3   OH249826   4.018   6.277   0.140
 8544TIP3    H149827   4.020   6.374   0.139
 8544TIP3    H249828   3.954   6.258   0.070
 8545TIP3   OH249829   5.373   7.419   1.111
 8545TIP3    H149830   5.360   7.445   1.017
 8545TIP3    H249831   5.471   7.412   1.107
 8546TIP3   OH249832   4.102   5.758   0.989
 8546TIP3    H149833   4.098   5.740   0.892
 8546TIP3    H249834   4.074   5.669   1.023
 8547TIP3   OH249835   3.976   7.114   0.575
 8547TIP3    H149836   3.900   7.167   0.601
 8547TIP3    H249837   4.000   7.162   0.493
 8548TIP3   OH249838   3.902   7.421   1.697
 8548TIP3    H149839   3.977   7.413   1.759
 8548TIP3    H249840   3.859   7.333   1.711
 8549TIP3   OH249841   4.327   7.313   1.872
 8549TIP3    H149842   4.414   7.355   1.880
 8549TIP3    H249843   4.347   7.245   1.804
 8550TIP3   OH249844   4.803   7.207   9.962
 8550TIP3    H149845   4.721   7.155   9.970
 8550TIP3    H249846   4.860   7.159  10.023
 8551TIP3   OH249847   5.023   7.162   1.754
 8551TIP3    H149848   4.995   7.076   1.792
 8551TIP3    H249849   5.106   7.182   1.803
 8552TIP3   OH249850   5.205   7.238   0.089
 8552TIP3    H149851   5.238   7.148   0.108
 8552TIP3    H249852   5.269   7.280   0.028
 8553TIP3   OH249853   3.881   6.785   1.819
 8553TIP3    H149854   3.846   6.694   1.822
 8553TIP3    H249855   3.835   6.821   1.740
 8554TIP3   OH249856   4.361   6.748   0.066
 8554TIP3    H149857   4.375   6.703   0.152
 8554TIP3    H249858   4.449   6.733   0.023
 8555TIP3   OH249859   4.565   6.782   1.708
 8555TIP3    H149860   4.537   6.847   1.638
 8555TIP3    H249861   4.543   6.694   1.670
 8556TIP3   OH249862   5.135   6.781   1.505
 8556TIP3    H149863   5.215   6.838   1.498
 8556TIP3    H249864   5.069   6.852   1.502
 8557TIP3   OH249865   4.012   6.506   1.775
 8557TIP3    H149866   4.079   6.440   1.756
 8557TIP3    H249867   4.049   6.553   1.852
 8558TIP3   OH249868   4.454   6.603   0.282
 8558TIP3    H149869   4.381   6.548   0.318
 8558TIP3    H249870   4.499   6.538   0.223
 8559TIP3   OH249871   4.368   6.408   1.453
 8559TIP3    H149872   4.316   6.491   1.457
 8559TIP3    H249873   4.441   6.440   1.398
 8560TIP3   OH249874   4.583   6.436   0.125
 8560TIP3    H149875   4.572   6.484   0.040
 8560TIP3    H249876   4.680   6.432   0.133
 8561TIP3   OH249877   4.926   6.676   1.832
 8561TIP3    H149878   4.983   6.628   1.770
 8561TIP3    H249879   4.885   6.606   1.887
 8562TIP3   OH249880   5.480   6.652  10.023
 8562TIP3    H149881   5.539   6.622   9.953
 8562TIP3    H249882   5.495   6.750  10.013
 8563TIP3   OH249883   4.446   6.164   1.542
 8563TIP3    H149884   4.450   6.095   1.472
 8563TIP3    H249885   4.427   6.246   1.492
 8564TIP3   OH249886   4.477   5.970   1.352
 8564TIP3    H149887   4.526   6.021   1.283
 8564TIP3    H249888   4.385   5.970   1.316
 8565TIP3   OH249889   4.600   6.555   1.354
 8565TIP3    H149890   4.688   6.592   1.335
 8565TIP3    H249891   4.541   6.621   1.312
 8566TIP3   OH249892   5.030   6.306   1.841
 8566TIP3    H149893   5.052   6.211   1.833
 8566TIP3    H249894   5.091   6.345   1.777
 8567TIP3   OH249895   5.205   6.606   1.698
 8567TIP3    H149896   5.175   6.671   1.632
 8567TIP3    H249897   5.301   6.608   1.683
 8568TIP3   OH249898   4.298   6.245   1.771
 8568TIP3    H149899   4.211   6.201   1.758
 8568TIP3    H249900   4.347   6.214   1.692
 8569TIP3   OH249901   4.577   5.726   1.357
 8569TIP3    H149902   4.538   5.816   1.368
 8569TIP3    H249903   4.499   5.674   1.333
 8570TIP3   OH249904   4.666   6.165   1.753
 8570TIP3    H149905   4.618   6.120   1.825
 8570TIP3    H249906   4.603   6.151   1.680
 8571TIP3   OH249907   4.936   6.082   1.682
 8571TIP3    H149908   4.840   6.080   1.697
 8571TIP3    H249909   4.969   6.018   1.749
 8572TIP3   OH249910   5.084   5.935   1.848
 8572TIP3    H149911   5.086   5.837   1.845
 8572TIP3    H249912   5.090   5.959   1.942
 8573TIP3   OH249913   4.080   6.075   1.775
 8573TIP3    H149914   4.071   5.992   1.723
 8573TIP3    H249915   4.061   6.042   1.867
 8574TIP3   OH249916   4.561   5.697   1.649
 8574TIP3    H149917   4.633   5.634   1.665
 8574TIP3    H249918   4.566   5.700   1.552
 8575TIP3   OH249919   4.586   5.819   1.892
 8575TIP3    H149920   4.568   5.780   1.803
 8575TIP3    H249921   4.516   5.887   1.895
 8576TIP3   OH249922   4.566   7.527   0.171
 8576TIP3    H149923   4.660   7.527   0.196
 8576TIP3    H249924   4.574   7.536   0.073
 8577TIP3   OH249925   3.916   6.983   0.161
 8577TIP3    H149926   4.014   6.990   0.171
 8577TIP3    H249927   3.908   6.960   0.068
 8578TIP3   OH249928   3.782   7.515   0.616
 8578TIP3    H149929   3.707   7.465   0.577
 8578TIP3    H249930   3.798   7.456   0.692
 8579TIP3   OH249931   3.876   7.316   0.826
 8579TIP3    H149932   3.807   7.252   0.853
 8579TIP3    H249933   3.926   7.326   0.910
 8580TIP3   OH249934   5.648   7.425   1.065
 8580TIP3    H149935   5.660   7.466   1.153
 8580TIP3    H249936   5.698   7.484   1.009
 8581TIP3   OH249937   5.579   7.351   1.409
 8581TIP3    H149938   5.549   7.277   1.350
 8581TIP3    H249939   5.629   7.296   1.472
 8582TIP3   OH249940   5.438   6.945   1.858
 8582TIP3    H149941   5.347   6.959   1.828
 8582TIP3    H249942   5.466   7.034   1.888
 8583TIP3   OH249943   5.530   6.784   0.384
 8583TIP3    H149944   5.618   6.822   0.405
 8583TIP3    H249945   5.513   6.726   0.461
 8584TIP3   OH249946   5.592   6.587   0.621
 8584TIP3    H149947   5.512   6.540   0.654
 8584TIP3    H249948   5.641   6.604   0.704
 8585TIP3   OH249949   5.561   6.852   1.084
 8585TIP3    H149950   5.628   6.781   1.070
 8585TIP3    H249951   5.607   6.928   1.043
 8586TIP3   OH249952   5.439   7.142   1.336
 8586TIP3    H149953   5.368   7.192   1.381
 8586TIP3    H249954   5.393   7.122   1.251
 8587TIP3   OH249955   5.642   6.577   0.229
 8587TIP3    H149956   5.580   6.606   0.158
 8587TIP3    H249957   5.633   6.652   0.291
 8588TIP3   OH249958   5.423   6.260   0.148
 8588TIP3    H149959   5.414   6.328   0.078
 8588TIP3    H249960   5.473   6.194   0.098
 8589TIP3   OH249961   5.389   6.435   0.688
 8589TIP3    H149962   5.370   6.345   0.659
 8589TIP3    H249963   5.353   6.436   0.780
 8590TIP3   OH249964   3.868   6.660   1.067
 8590TIP3    H149965   3.874   6.630   0.973
 8590TIP3    H249966   3.953   6.624   1.100
 8591TIP3   OH249967   5.489   6.624   1.634
 8591TIP3    H149968   5.535   6.538   1.652
 8591TIP3    H249969   5.562   6.684   1.610
 8592TIP3   OH249970   5.586   6.370   1.672
 8592TIP3    H149971   5.494   6.336   1.671
 8592TIP3    H249972   5.639   6.291   1.697
 8593TIP3   OH249973   5.396   6.012  -0.021
 8593TIP3    H149974   5.453   5.978   0.051
 8593TIP3    H249975   5.307   6.001   0.015
 8594TIP3   OH249976   5.336   6.202   0.508
 8594TIP3    H149977   5.355   6.110   0.536
 8594TIP3    H249978   5.408   6.215   0.445
 8595TIP3   OH249979   5.433   6.252   1.077
 8595TIP3    H149980   5.532   6.259   1.085
 8595TIP3    H249981   5.408   6.259   1.171
 8596TIP3   OH249982   5.423   6.330   1.342
 8596TIP3    H149983   5.334   6.359   1.369
 8596TIP3    H249984   5.467   6.414   1.317
 8597TIP3   OH249985   3.861   6.166   1.675
 8597TIP3    H149986   3.946   6.148   1.719
 8597TIP3    H249987   3.812   6.082   1.689
 8598TIP3   OH249988   5.645   5.766   1.839
 8598TIP3    H149989   5.680   5.686   1.796
 8598TIP3    H249990   5.647   5.831   1.765
 8599TIP3   OH249991   5.409   5.948   0.533
 8599TIP3    H149992   5.449   5.902   0.610
 8599TIP3    H249993   5.359   5.875   0.492
 8600TIP3   OH249994   3.955   5.992   1.037
 8600TIP3    H149995   3.996   5.903   1.031
 8600TIP3    H249996   4.029   6.050   1.013
 8601TIP3   OH249997   3.809   6.301   1.093
 8601TIP3    H149998   3.864   6.276   1.016
 8601TIP3    H249999   3.855   6.381   1.121
 8602TIP3   OH250000   5.595   5.948   1.643
 8602TIP3    H150001   5.513   5.993   1.671
 8602TIP3    H250002   5.558   5.883   1.580
 8603TIP3   OH250003   5.589   5.952   0.176
 8603TIP3    H150004   5.632   5.884   0.122
 8603TIP3    H250005   5.665   6.012   0.192
 8604TIP3   OH250006   3.822   5.921   0.482
 8604TIP3    H150007   3.729   5.947   0.492
 8604TIP3    H250008   3.843   5.957   0.393
 8605TIP3   OH250009   5.285   7.411   0.638
 8605TIP3    H150010   5.370   7.404   0.590
 8605TIP3    H250011   5.315   7.461   0.717
 8606TIP3   OH250012   3.827   5.782   1.313
 8606TIP3    H150013   3.756   5.755   1.373
 8606TIP3    H250014   3.786   5.850   1.258
 8607TIP3   OH250015   4.058   7.078   1.715
 8607TIP3    H150016   3.975   7.077   1.664
 8607TIP3    H250017   4.026   7.083   1.805
 8608TIP3   OH250018   4.329   7.217   1.345
 8608TIP3    H150019   4.319   7.315   1.335
 8608TIP3    H250020   4.426   7.216   1.358
 8609TIP3   OH250021   4.785   7.329   1.630
 8609TIP3    H150022   4.777   7.296   1.723
 8609TIP3    H250023   4.862   7.388   1.638
 8610TIP3   OH250024   5.004   7.506   1.578
 8610TIP3    H150025   5.067   7.437   1.556
 8610TIP3    H250026   5.024   7.518   1.674
 8611TIP3   OH250027   5.496   5.729   1.483
 8611TIP3    H150028   5.417   5.759   1.435
 8611TIP3    H250029   5.509   5.640   1.443
 8612TIP3   OH250030   4.057   7.539   1.339
 8612TIP3    H150031   3.966   7.554   1.304
 8612TIP3    H250032   4.042   7.552   1.434
 8613TIP3   OH250033   4.312   7.474   1.293
 8613TIP3    H150034   4.220   7.502   1.317
 8613TIP3    H250035   4.316   7.501   1.199
 8614TIP3   OH250036   4.809   7.465   1.152
 8614TIP3    H150037   4.733   7.479   1.092
 8614TIP3    H250038   4.808   7.547   1.204
 8615TIP3   OH250039   4.990   7.323   1.304
 8615TIP3    H150040   4.920   7.380   1.264
 8615TIP3    H250041   5.066   7.381   1.287
 8616TIP3   OH250042   5.222   7.536   1.293
 8616TIP3    H150043   5.200   7.628   1.274
 8616TIP3    H250044   5.266   7.505   1.209
 8617TIP3   OH250045   4.029   7.338   1.055
 8617TIP3    H150046   4.021   7.292   1.142
 8617TIP3    H250047   4.112   7.302   1.018
 8618TIP3   OH250048   4.244   7.266   0.923
 8618TIP3    H150049   4.237   7.169   0.937
 8618TIP3    H250050   4.329   7.283   0.969
 8619TIP3   OH250051   4.474   7.274   1.047
 8619TIP3    H150052   4.496   7.181   1.031
 8619TIP3    H250053   4.495   7.287   1.142
 8620TIP3   OH250054   4.835   5.857   0.930
 8620TIP3    H150055   4.755   5.817   0.968
 8620TIP3    H250056   4.846   5.804   0.851
 8621TIP3   OH250057   5.357   5.683   0.902
 8621TIP3    H150058   5.426   5.739   0.856
 8621TIP3    H250059   5.275   5.710   0.855
 8622TIP3   OH250060   5.525   5.807   0.739
 8622TIP3    H150061   5.587   5.747   0.692
 8622TIP3    H250062   5.585   5.884   0.755
 8623TIP3   OH250063   4.073   5.719   0.715
 8623TIP3    H150064   3.987   5.717   0.669
 8623TIP3    H250065   4.110   5.632   0.688
 8624TIP3   OH250066   3.947   5.709   0.273
 8624TIP3    H150067   4.005   5.775   0.227
 8624TIP3    H250068   3.908   5.763   0.344
 8625TIP3   OH250069   4.495   5.693   0.694
 8625TIP3    H150070   4.578   5.707   0.647
 8625TIP3    H250071   4.503   5.751   0.771
 8626TIP3   OH250072   5.110   5.733   0.797
 8626TIP3    H150073   5.057   5.742   0.717
 8626TIP3    H250074   5.063   5.660   0.843
 8627TIP3   OH250075   5.242   5.719   0.418
 8627TIP3    H150076   5.162   5.773   0.404
 8627TIP3    H250077   5.207   5.649   0.477
 8628TIP3   OH250078   3.937   7.307   0.395
 8628TIP3    H150079   3.844   7.297   0.372
 8628TIP3    H250080   3.960   7.391   0.350
 8629TIP3   OH250081   4.114   5.855   0.133
 8629TIP3    H150082   4.189   5.794   0.119
 8629TIP3    H250083   4.156   5.938   0.159
 8630TIP3   OH250084   4.670   5.923   0.356
 8630TIP3    H150085   4.702   5.865   0.427
 8630TIP3    H250086   4.672   6.009   0.403
 8631TIP3   OH250087   4.839   7.459   0.184
 8631TIP3    H150088   4.937   7.461   0.196
 8631TIP3    H250089   4.835   7.412   0.098
 8632TIP3   OH250090   5.492   7.373   0.491
 8632TIP3    H150091   5.472   7.283   0.455
 8632TIP3    H250092   5.484   7.428   0.410
 8633TIP3   OH250093   4.049   5.811   1.652
 8633TIP3    H150094   3.999   5.727   1.654
 8633TIP3    H250095   4.115   5.793   1.723
 8634TIP3   OH250096   4.240   5.733   1.832
 8634TIP3    H150097   4.333   5.718   1.808
 8634TIP3    H250098   4.215   5.643   1.864
 8635TIP3   OH250099   4.159   7.481   0.086
 8635TIP3    H150100   4.098   7.492   0.161
 8635TIP3    H250101   4.210   7.405   0.120
 8636TIP3   OH250102   5.092   5.660   1.814
 8636TIP3    H150103   5.097   5.609   1.898
 8636TIP3    H250104   5.186   5.659   1.789
 8637TIP3   OH250105   5.400   7.271   1.690
 8637TIP3    H150106   5.347   7.277   1.607
 8637TIP3    H250107   5.435   7.361   1.693
 8638TIP3   OH250108   6.868   6.661   0.693
 8638TIP3    H150109   6.847   6.746   0.736
 8638TIP3    H250110   6.799   6.659   0.625
 8639TIP3   OH250111   6.733   6.546   1.016
 8639TIP3    H150112   6.757   6.505   1.102
 8639TIP3    H250113   6.657   6.491   0.987
 8640TIP3   OH250114   5.963   6.539   1.165
 8640TIP3    H150115   5.982   6.467   1.227
 8640TIP3    H250116   6.023   6.607   1.198
 8641TIP3   OH250117   7.125   6.878   0.896
 8641TIP3    H150118   7.111   6.797   0.949
 8641TIP3    H250119   7.114   6.945   0.964
 8642TIP3   OH250120   6.072   7.003   1.016
 8642TIP3    H150121   6.042   6.914   0.987
 8642TIP3    H250122   6.168   6.986   1.008
 8643TIP3   OH250123   5.742   6.343   0.577
 8643TIP3    H150124   5.704   6.431   0.596
 8643TIP3    H250125   5.692   6.318   0.498
 8644TIP3   OH250126   5.794   6.577   0.832
 8644TIP3    H150127   5.829   6.486   0.846
 8644TIP3    H250128   5.857   6.617   0.770
 8645TIP3   OH250129   6.814   7.391   0.910
 8645TIP3    H150130   6.878   7.338   0.856
 8645TIP3    H250131   6.784   7.320   0.968
 8646TIP3   OH250132   6.586   6.819   1.097
 8646TIP3    H150133   6.617   6.749   1.038
 8646TIP3    H250134   6.670   6.846   1.141
 8647TIP3   OH250135   7.427   6.026   1.091
 8647TIP3    H150136   7.453   6.066   1.176
 8647TIP3    H250137   7.509   6.035   1.039
 8648TIP3   OH250138   6.917   6.253   1.125
 8648TIP3    H150139   6.965   6.171   1.145
 8648TIP3    H250140   6.906   6.242   1.029
 8649TIP3   OH250141   6.221   6.050   0.795
 8649TIP3    H150142   6.234   6.130   0.739
 8649TIP3    H250143   6.176   5.992   0.730
 8650TIP3   OH250144   7.007   6.073   0.651
 8650TIP3    H150145   7.061   6.057   0.733
 8650TIP3    H250146   7.054   6.148   0.612
 8651TIP3   OH250147   5.861   6.323   0.895
 8651TIP3    H150148   5.928   6.280   0.951
 8651TIP3    H250149   5.887   6.287   0.808
 8652TIP3   OH250150   6.379   6.460   0.843
 8652TIP3    H150151   6.449   6.400   0.875
 8652TIP3    H250152   6.340   6.405   0.773
 8653TIP3   OH250153   7.453   6.087   1.371
 8653TIP3    H150154   7.405   6.170   1.351
 8653TIP3    H250155   7.507   6.113   1.447
 8654TIP3   OH250156   6.118   5.964   1.227
 8654TIP3    H150157   6.080   6.018   1.155
 8654TIP3    H250158   6.055   5.986   1.299
 8655TIP3   OH250159   6.799   6.920   0.565
 8655TIP3    H150160   6.789   6.927   0.467
 8655TIP3    H250161   6.771   7.008   0.592
 8656TIP3   OH250162   6.345   6.735   1.202
 8656TIP3    H150163   6.296   6.810   1.240
 8656TIP3    H250164   6.418   6.782   1.156
 8657TIP3   OH250165   7.149   6.049   0.881
 8657TIP3    H150166   7.118   5.973   0.933
 8657TIP3    H250167   7.230   6.076   0.928
 8658TIP3   OH250168   6.074   6.158   1.018
 8658TIP3    H150169   6.137   6.222   1.059
 8658TIP3    H250170   6.126   6.129   0.939
 8659TIP3   OH250171   6.222   6.946   1.321
 8659TIP3    H150172   6.208   7.036   1.285
 8659TIP3    H250173   6.134   6.930   1.363
 8660TIP3   OH250174   5.796   6.876   0.398
 8660TIP3    H150175   5.800   6.935   0.319
 8660TIP3    H250176   5.806   6.941   0.471
 8661TIP3   OH250177   7.164   7.106   1.127
 8661TIP3    H150178   7.066   7.106   1.119
 8661TIP3    H250179   7.181   7.198   1.097
 8662TIP3   OH250180   7.201   5.933   1.202
 8662TIP3    H150181   7.120   5.940   1.147
 8662TIP3    H250182   7.266   5.984   1.149
 8663TIP3   OH250183   6.471   5.713   0.948
 8663TIP3    H150184   6.445   5.622   0.967
 8663TIP3    H250185   6.387   5.759   0.976
 8664TIP3   OH250186   6.984   7.246   0.765
 8664TIP3    H150187   7.015   7.160   0.727
 8664TIP3    H250188   7.059   7.303   0.739
 8665TIP3   OH250189   7.078   7.023   0.638
 8665TIP3    H150190   7.072   6.959   0.565
 8665TIP3    H250191   7.112   6.967   0.711
 8666TIP3   OH250192   7.245   6.881   1.461
 8666TIP3    H150193   7.256   6.816   1.388
 8666TIP3    H250194   7.267   6.963   1.414
 8667TIP3   OH250195   6.724   6.593   0.433
 8667TIP3    H150196   6.684   6.681   0.416
 8667TIP3    H250197   6.804   6.596   0.379
 8668TIP3   OH250198   6.765   6.459   0.135
 8668TIP3    H150199   6.835   6.492   0.197
 8668TIP3    H250200   6.803   6.371   0.114
 8669TIP3   OH250201   7.419   6.509   1.245
 8669TIP3    H150202   7.358   6.582   1.221
 8669TIP3    H250203   7.494   6.531   1.184
 8670TIP3   OH250204   7.089   6.615   0.537
 8670TIP3    H150205   7.015   6.643   0.596
 8670TIP3    H250206   7.144   6.565   0.602
 8671TIP3   OH250207   7.061   6.423   1.426
 8671TIP3    H150208   7.031   6.496   1.483
 8671TIP3    H250209   7.000   6.435   1.350
 8672TIP3   OH250210   6.221   6.661   0.717
 8672TIP3    H150211   6.191   6.642   0.625
 8672TIP3    H250212   6.285   6.587   0.733
 8673TIP3   OH250213   6.365   6.999   0.978
 8673TIP3    H150214   6.376   7.000   0.881
 8673TIP3    H250215   6.445   6.952   1.009
 8674TIP3   OH250216   6.251   6.523   1.082
 8674TIP3    H150217   6.293   6.523   0.994
 8674TIP3    H250218   6.298   6.596   1.128
 8675TIP3   OH250219   6.895   7.105   1.151
 8675TIP3    H150220   6.861   7.172   1.213
 8675TIP3    H250221   6.881   7.024   1.204
 8676TIP3   OH250222   6.380   6.985   1.550
 8676TIP3    H150223   6.315   7.046   1.591
 8676TIP3    H250224   6.342   6.975   1.460
 8677TIP3   OH250225   6.955   6.544   0.302
 8677TIP3    H150226   7.009   6.566   0.381
 8677TIP3    H250227   7.008   6.589   0.232
 8678TIP3   OH250228   6.073   6.598   1.446
 8678TIP3    H150229   6.084   6.688   1.481
 8678TIP3    H250230   6.003   6.564   1.505
 8679TIP3   OH250231   6.725   7.207   0.572
 8679TIP3    H150232   6.763   7.213   0.660
 8679TIP3    H250233   6.661   7.280   0.572
 8680TIP3   OH250234   6.177   7.165   1.614
 8680TIP3    H150235   6.167   7.171   1.517
 8680TIP3    H250236   6.093   7.124   1.643
 8681TIP3   OH250237   7.324   5.666   0.245
 8681TIP3    H150238   7.227   5.677   0.257
 8681TIP3    H250239   7.357   5.749   0.281
 8682TIP3   OH250240   6.127   6.553   0.481
 8682TIP3    H150241   6.091   6.629   0.431
 8682TIP3    H250242   6.083   6.478   0.438
 8683TIP3   OH250243   7.446   7.104   0.171
 8683TIP3    H150244   7.448   7.203   0.173
 8683TIP3    H250245   7.539   7.091   0.144
 8684TIP3   OH250246   5.765   6.823   1.371
 8684TIP3    H150247   5.715   6.819   1.288
 8684TIP3    H250248   5.802   6.731   1.372
 8685TIP3   OH250249   5.746   7.071   1.014
 8685TIP3    H150250   5.842   7.063   1.019
 8685TIP3    H250251   5.732   7.152   1.064
 8686TIP3   OH250252   7.530   7.147   1.603
 8686TIP3    H150253   7.513   7.051   1.601
 8686TIP3    H250254   7.455   7.175   1.659
 8687TIP3   OH250255   6.635   7.100   1.471
 8687TIP3    H150256   6.648   7.179   1.528
 8687TIP3    H250257   6.551   7.064   1.503
 8688TIP3   OH250258   6.708   7.507   0.489
 8688TIP3    H150259   6.692   7.512   0.394
 8688TIP3    H250260   6.665   7.588   0.521
 8689TIP3   OH250261   6.055   7.320   0.677
 8689TIP3    H150262   6.091   7.328   0.768
 8689TIP3    H250263   5.986   7.253   0.694
 8690TIP3   OH250264   6.964   7.443   0.223
 8690TIP3    H150265   7.002   7.385   0.153
 8690TIP3    H250266   6.985   7.390   0.303
 8691TIP3   OH250267   6.951   7.382   0.479
 8691TIP3    H150268   6.858   7.410   0.495
 8691TIP3    H250269   6.965   7.313   0.546
 8692TIP3   OH250270   7.243   6.309   1.641
 8692TIP3    H150271   7.182   6.330   1.569
 8692TIP3    H250272   7.261   6.214   1.627
 8693TIP3   OH250273   5.990   6.936   1.460
 8693TIP3    H150274   5.983   6.900   1.551
 8693TIP3    H250275   5.900   6.917   1.426
 8694TIP3   OH250276   6.246   5.815   1.040
 8694TIP3    H150277   6.160   5.806   0.998
 8694TIP3    H250278   6.219   5.865   1.120
 8695TIP3   OH250279   6.729   5.746   1.373
 8695TIP3    H150280   6.760   5.699   1.453
 8695TIP3    H250281   6.630   5.746   1.380
 8696TIP3   OH250282   7.026   6.121   1.465
 8696TIP3    H150283   6.981   6.093   1.547
 8696TIP3    H250284   7.025   6.218   1.475
 8697TIP3   OH250285   7.108   6.654   0.126
 8697TIP3    H150286   7.068   6.669   0.037
 8697TIP3    H250287   7.197   6.689   0.111
 8698TIP3   OH250288   6.683   6.031   0.143
 8698TIP3    H150289   6.642   5.998   0.227
 8698TIP3    H250290   6.620   5.995   0.081
 8699TIP3   OH250291   6.257   6.281   1.182
 8699TIP3    H150292   6.174   6.282   1.236
 8699TIP3    H250293   6.255   6.373   1.147
 8700TIP3   OH250294   6.241   6.267   0.650
 8700TIP3    H150295   6.146   6.285   0.636
 8700TIP3    H250296   6.275   6.245   0.560
 8701TIP3   OH250297   6.829   6.391   0.576
 8701TIP3    H150298   6.781   6.461   0.526
 8701TIP3    H250299   6.879   6.350   0.503
 8702TIP3   OH250300   6.672   6.363   1.677
 8702TIP3    H150301   6.632   6.282   1.715
 8702TIP3    H250302   6.752   6.371   1.734
 8703TIP3   OH250303   6.900   6.329   0.837
 8703TIP3    H150304   6.883   6.417   0.797
 8703TIP3    H250305   6.899   6.278   0.754
 8704TIP3   OH250306   6.018   6.285   1.308
 8704TIP3    H150307   6.039   6.325   1.393
 8704TIP3    H250308   5.976   6.201   1.337
 8705TIP3   OH250309   6.350   6.071   0.064
 8705TIP3    H150310   6.301   6.030   0.138
 8705TIP3    H250311   6.289   6.066  -0.010
 8706TIP3   OH250312   5.691   6.015   0.767
 8706TIP3    H150313   5.754   6.029   0.839
 8706TIP3    H250314   5.737   6.051   0.690
 8707TIP3   OH250315   5.801   6.088   0.286
 8707TIP3    H150316   5.878   6.137   0.249
 8707TIP3    H250317   5.740   6.164   0.300
 8708TIP3   OH250318   6.822   6.471   1.254
 8708TIP3    H150319   6.868   6.398   1.206
 8708TIP3    H250320   6.768   6.418   1.316
 8709TIP3   OH250321   6.511   6.040   0.779
 8709TIP3    H150322   6.416   6.042   0.799
 8709TIP3    H250323   6.550   5.995   0.856
 8710TIP3   OH250324   5.961   6.211   0.665
 8710TIP3    H150325   5.890   6.244   0.606
 8710TIP3    H250326   5.987   6.123   0.631
 8711TIP3   OH250327   6.365   6.222   0.410
 8711TIP3    H150328   6.457   6.251   0.409
 8711TIP3    H250329   6.320   6.285   0.349
 8712TIP3   OH250330   6.952   5.968   1.069
 8712TIP3    H150331   6.887   5.962   1.142
 8712TIP3    H250332   6.893   5.953   0.992
 8713TIP3   OH250333   6.214   6.349   0.224
 8713TIP3    H150334   6.130   6.325   0.183
 8713TIP3    H250335   6.276   6.345   0.149
 8714TIP3   OH250336   7.248   7.527   1.725
 8714TIP3    H150337   7.294   7.548   1.641
 8714TIP3    H250338   7.314   7.555   1.790
 8715TIP3   OH250339   6.009   6.771   1.695
 8715TIP3    H150340   6.076   6.800   1.760
 8715TIP3    H250341   5.930   6.756   1.751
 8716TIP3   OH250342   6.608   6.311   0.948
 8716TIP3    H150343   6.690   6.299   0.897
 8716TIP3    H250344   6.604   6.228   0.997
 8717TIP3   OH250345   6.068   5.933   0.605
 8717TIP3    H150346   6.003   5.874   0.649
 8717TIP3    H250347   6.108   5.868   0.544
 8718TIP3   OH250348   6.479   6.144   1.194
 8718TIP3    H150349   6.399   6.201   1.190
 8718TIP3    H250350   6.542   6.203   1.238
 8719TIP3   OH250351   6.550   6.808   0.384
 8719TIP3    H150352   6.479   6.750   0.350
 8719TIP3    H250353   6.513   6.829   0.473
 8720TIP3   OH250354   7.258   6.725   1.245
 8720TIP3    H150355   7.303   6.766   1.169
 8720TIP3    H250356   7.171   6.707   1.208
 8721TIP3   OH250357   6.935   6.079   0.202
 8721TIP3    H150358   6.838   6.068   0.187
 8721TIP3    H250359   6.937   6.171   0.235
 8722TIP3   OH250360   6.653   6.810   1.527
 8722TIP3    H150361   6.664   6.782   1.620
 8722TIP3    H250362   6.671   6.905   1.531
 8723TIP3   OH250363   6.987   6.287   0.360
 8723TIP3    H150364   7.076   6.258   0.387
 8723TIP3    H250365   7.004   6.378   0.327
 8724TIP3   OH250366   6.075   6.749   0.938
 8724TIP3    H150367   6.130   6.728   0.859
 8724TIP3    H250368   6.084   6.669   0.992
 8725TIP3   OH250369   6.775   6.944   0.290
 8725TIP3    H150370   6.746   7.038   0.299
 8725TIP3    H250371   6.691   6.895   0.298
 8726TIP3   OH250372   5.768   6.557   1.470
 8726TIP3    H150373   5.752   6.503   1.549
 8726TIP3    H250374   5.709   6.515   1.403
 8727TIP3   OH250375   6.450   6.512   1.667
 8727TIP3    H150376   6.410   6.455   1.600
 8727TIP3    H250377   6.540   6.472   1.671
 8728TIP3   OH250378   6.945   7.045   1.520
 8728TIP3    H150379   6.864   7.069   1.475
 8728TIP3    H250380   6.929   7.086   1.608
 8729TIP3   OH250381   7.475   6.245   0.338
 8729TIP3    H150382   7.402   6.234   0.273
 8729TIP3    H250383   7.514   6.324   0.297
 8730TIP3   OH250384   7.474   6.866   1.584
 8730TIP3    H150385   7.378   6.888   1.573
 8730TIP3    H250386   7.502   6.857   1.490
 8731TIP3   OH250387   7.311   7.148   0.395
 8731TIP3    H150388   7.240   7.083   0.407
 8731TIP3    H250389   7.357   7.114   0.316
 8732TIP3   OH250390   7.055   6.668   1.052
 8732TIP3    H150391   6.962   6.658   1.026
 8732TIP3    H250392   7.090   6.589   1.005
 8733TIP3   OH250393   6.283   7.067   0.710
 8733TIP3    H150394   6.318   7.156   0.690
 8733TIP3    H250395   6.204   7.068   0.654
 8734TIP3   OH250396   5.892   6.552   0.104
 8734TIP3    H150397   5.942   6.611   0.165
 8734TIP3    H250398   5.804   6.553   0.147
 8735TIP3   OH250399   6.432   6.846   0.635
 8735TIP3    H150400   6.386   6.929   0.657
 8735TIP3    H250401   6.392   6.783   0.697
 8736TIP3   OH250402   6.480   7.273   1.293
 8736TIP3    H150403   6.526   7.359   1.286
 8736TIP3    H250404   6.556   7.216   1.315
 8737TIP3   OH250405   6.313   7.321   0.588
 8737TIP3    H150406   6.219   7.339   0.609
 8737TIP3    H250407   6.359   7.401   0.623
 8738TIP3   OH250408   6.801   6.850   1.255
 8738TIP3    H150409   6.753   6.839   1.340
 8738TIP3    H250410   6.837   6.760   1.243
 8739TIP3   OH250411   7.069   6.986   0.145
 8739TIP3    H150412   7.108   6.938   0.222
 8739TIP3    H250413   6.975   6.970   0.166
 8740TIP3   OH250414   7.092   7.322   1.495
 8740TIP3    H150415   7.026   7.257   1.463
 8740TIP3    H250416   7.110   7.383   1.421
 8741TIP3   OH250417   7.508   7.364   0.145
 8741TIP3    H150418   7.568   7.437   0.125
 8741TIP3    H250419   7.433   7.415   0.184
 8742TIP3   OH250420   5.939   6.045   1.422
 8742TIP3    H150421   5.851   6.085   1.431
 8742TIP3    H250422   5.940   5.976   1.490
 8743TIP3   OH250423   7.172   6.841   0.341
 8743TIP3    H150424   7.126   6.766   0.384
 8743TIP3    H250425   7.266   6.813   0.350
 8744TIP3   OH250426   5.904   7.199   1.284
 8744TIP3    H150427   5.955   7.117   1.280
 8744TIP3    H250428   5.958   7.251   1.346
 8745TIP3   OH250429   6.342   7.015   0.248
 8745TIP3    H150430   6.421   6.970   0.281
 8745TIP3    H250431   6.360   7.108   0.276
 8746TIP3   OH250432   6.009   6.729   0.297
 8746TIP3    H150433   5.930   6.774   0.334
 8746TIP3    H250434   6.056   6.807   0.258
 8747TIP3   OH250435   6.788   6.031   1.360
 8747TIP3    H150436   6.881   6.045   1.386
 8747TIP3    H250437   6.766   5.946   1.401
 8748TIP3   OH250438   6.867   5.953   0.449
 8748TIP3    H150439   6.895   6.007   0.373
 8748TIP3    H250440   6.926   5.987   0.519
 8749TIP3   OH250441   6.654   7.194   0.263
 8749TIP3    H150442   6.573   7.209   0.315
 8749TIP3    H250443   6.692   7.283   0.265
 8750TIP3   OH250444   6.632   6.146   0.563
 8750TIP3    H150445   6.667   6.236   0.571
 8750TIP3    H250446   6.598   6.124   0.652
 8751TIP3   OH250447   6.689   6.283   1.417
 8751TIP3    H150448   6.680   6.299   1.514
 8751TIP3    H250449   6.733   6.195   1.410
 8752TIP3   OH250450   6.667   5.834   0.590
 8752TIP3    H150451   6.617   5.911   0.624
 8752TIP3    H250452   6.748   5.878   0.555
 8753TIP3   OH250453   6.381   7.277   0.320
 8753TIP3    H150454   6.404   7.360   0.277
 8753TIP3    H250455   6.334   7.307   0.401
 8754TIP3   OH250456   6.233   5.966   0.309
 8754TIP3    H150457   6.234   6.052   0.354
 8754TIP3    H250458   6.325   5.938   0.326
 8755TIP3   OH250459   7.259   6.019   1.549
 8755TIP3    H150460   7.174   6.037   1.504
 8755TIP3    H250461   7.322   6.039   1.476
 8756TIP3   OH250462   7.125   6.449   0.920
 8756TIP3    H150463   7.046   6.391   0.912
 8756TIP3    H250464   7.183   6.385   0.968
 8757TIP3   OH250465   6.072   6.982   0.185
 8757TIP3    H150466   6.156   7.018   0.220
 8757TIP3    H250467   6.095   6.970   0.092
 8758TIP3   OH250468   5.914   6.275   0.142
 8758TIP3    H150469   5.912   6.372   0.142
 8758TIP3    H250470   5.848   6.256   0.072
 8759TIP3   OH250471   7.272   7.363   1.102
 8759TIP3    H150472   7.249   7.416   1.022
 8759TIP3    H250473   7.369   7.362   1.093
 8760TIP3   OH250474   5.982   5.756   0.986
 8760TIP3    H150475   5.974   5.743   0.889
 8760TIP3    H250476   5.957   5.665   1.016
 8761TIP3   OH250477   5.858   7.115   0.569
 8761TIP3    H150478   5.775   7.161   0.586
 8761TIP3    H250479   5.888   7.171   0.494
 8762TIP3   OH250480   5.802   7.429   1.717
 8762TIP3    H150481   5.894   7.428   1.747
 8762TIP3    H250482   5.778   7.335   1.718
 8763TIP3   OH250483   6.283   7.269   1.876
 8763TIP3    H150484   6.378   7.250   1.876
 8763TIP3    H250485   6.261   7.251   1.784
 8764TIP3   OH250486   6.692   7.210   9.966
 8764TIP3    H150487   6.604   7.185   9.998
 8764TIP3    H250488   6.750   7.174  10.033
 8765TIP3   OH250489   6.911   7.159   1.766
 8765TIP3    H150490   6.871   7.073   1.790
 8765TIP3    H250491   6.991   7.160   1.822
 8766TIP3   OH250492   7.054   7.245   0.078
 8766TIP3    H150493   7.078   7.160   0.121
 8766TIP3    H250494   7.138   7.286   0.049
 8767TIP3   OH250495   5.756   6.786   1.815
 8767TIP3    H150496   5.726   6.693   1.807
 8767TIP3    H250497   5.720   6.825   1.733
 8768TIP3   OH250498   6.277   6.747   0.069
 8768TIP3    H150499   6.284   6.703   0.157
 8768TIP3    H250500   6.355   6.804   0.077
 8769TIP3   OH250501   6.455   6.779   1.736
 8769TIP3    H150502   6.448   6.834   1.655
 8769TIP3    H250503   6.457   6.687   1.699
 8770TIP3   OH250504   7.016   6.765   1.514
 8770TIP3    H150505   7.108   6.803   1.511
 8770TIP3    H250506   6.969   6.848   1.530
 8771TIP3   OH250507   5.894   6.505   1.766
 8771TIP3    H150508   5.953   6.430   1.768
 8771TIP3    H250509   5.923   6.556   1.844
 8772TIP3   OH250510   6.359   6.625   0.288
 8772TIP3    H150511   6.284   6.574   0.326
 8772TIP3    H250512   6.394   6.564   0.220
 8773TIP3   OH250513   6.260   6.408   1.453
 8773TIP3    H150514   6.199   6.484   1.441
 8773TIP3    H250515   6.336   6.443   1.404
 8774TIP3   OH250516   6.483   6.460   0.093
 8774TIP3    H150517   6.490   6.448  -0.002
 8774TIP3    H250518   6.576   6.452   0.125
 8775TIP3   OH250519   6.804   6.679   1.817
 8775TIP3    H150520   6.886   6.639   1.785
 8775TIP3    H250521   6.765   6.606   1.868
 8776TIP3   OH250522   7.347   6.712   9.993
 8776TIP3    H150523   7.336   6.616   9.982
 8776TIP3    H250524   7.426   6.724   9.935
 8777TIP3   OH250525   6.327   6.164   1.551
 8777TIP3    H150526   6.335   6.098   1.478
 8777TIP3    H250527   6.299   6.245   1.502
 8778TIP3   OH250528   6.354   5.971   1.353
 8778TIP3    H150529   6.412   6.021   1.291
 8778TIP3    H250530   6.272   5.961   1.301
 8779TIP3   OH250531   6.480   6.559   1.357
 8779TIP3    H150532   6.566   6.600   1.340
 8779TIP3    H250533   6.422   6.627   1.318
 8780TIP3   OH250534   6.881   6.314   1.838
 8780TIP3    H150535   6.890   6.222   1.811
 8780TIP3    H250536   6.970   6.334   1.875
 8781TIP3   OH250537   7.069   6.610   1.722
 8781TIP3    H150538   7.053   6.663   1.640
 8781TIP3    H250539   7.157   6.574   1.701
 8782TIP3   OH250540   6.182   6.246   1.774
 8782TIP3    H150541   6.096   6.206   1.749
 8782TIP3    H250542   6.238   6.224   1.696
 8783TIP3   OH250543   6.460   5.725   1.348
 8783TIP3    H150544   6.428   5.817   1.355
 8783TIP3    H250545   6.376   5.680   1.330
 8784TIP3   OH250546   6.548   6.139   1.764
 8784TIP3    H150547   6.484   6.114   1.834
 8784TIP3    H250548   6.489   6.136   1.686
 8785TIP3   OH250549   6.842   6.062   1.665
 8785TIP3    H150550   6.746   6.067   1.675
 8785TIP3    H250551   6.867   6.010   1.744
 8786TIP3   OH250552   6.978   5.932   1.852
 8786TIP3    H150553   6.980   5.833   1.853
 8786TIP3    H250554   6.971   5.954   1.947
 8787TIP3   OH250555   5.966   6.062   1.781
 8787TIP3    H150556   5.952   5.980   1.731
 8787TIP3    H250557   5.940   6.034   1.873
 8788TIP3   OH250558   6.440   5.701   1.656
 8788TIP3    H150559   6.522   5.650   1.660
 8788TIP3    H250560   6.426   5.701   1.560
 8789TIP3   OH250561   6.473   5.822   1.899
 8789TIP3    H150562   6.453   5.774   1.815
 8789TIP3    H250563   6.413   5.899   1.890
 8790TIP3   OH250564   6.436   7.517   0.172
 8790TIP3    H150565   6.527   7.531   0.202
 8790TIP3    H250566   6.447   7.529   0.075
 8791TIP3   OH250567   5.800   6.987   0.153
 8791TIP3    H150568   5.899   6.988   0.162
 8791TIP3    H250569   5.787   6.960   0.061
 8792TIP3   OH250570   5.671   7.518   0.622
 8792TIP3    H150571   5.596   7.471   0.579
 8792TIP3    H250572   5.681   7.461   0.700
 8793TIP3   OH250573   5.761   7.309   0.825
 8793TIP3    H150574   5.689   7.253   0.859
 8793TIP3    H250575   5.820   7.317   0.903
 8794TIP3   OH250576   7.576   7.403   1.082
 8794TIP3    H150577   7.579   7.432   1.175
 8794TIP3    H250578   7.552   7.487   1.042
 8795TIP3   OH250579   7.456   7.334   1.421
 8795TIP3    H150580   7.424   7.267   1.358
 8795TIP3    H250581   7.503   7.273   1.483
 8796TIP3   OH250582   7.278   6.945   1.859
 8796TIP3    H150583   7.203   6.946   1.924
 8796TIP3    H250584   7.335   7.017   1.892
 8797TIP3   OH250585   7.437   6.758   0.394
 8797TIP3    H150586   7.509   6.817   0.420
 8797TIP3    H250587   7.448   6.687   0.460
 8798TIP3   OH250588   7.476   6.572   0.589
 8798TIP3    H150589   7.381   6.548   0.595
 8798TIP3    H250590   7.503   6.558   0.681
 8799TIP3   OH250591   7.457   6.819   1.104
 8799TIP3    H150592   7.523   6.774   1.049
 8799TIP3    H250593   7.460   6.910   1.065
 8800TIP3   OH250594   7.326   7.119   1.334
 8800TIP3    H150595   7.256   7.168   1.379
 8800TIP3    H250596   7.283   7.103   1.247
 8801TIP3   OH250597   7.491   6.570   0.203
 8801TIP3    H150598   7.407   6.599   0.167
 8801TIP3    H250599   7.500   6.636   0.274
 8802TIP3   OH250600   7.329   6.253   0.123
 8802TIP3    H150601   7.380   6.299   0.053
 8802TIP3    H250602   7.322   6.166   0.080
 8803TIP3   OH250603   7.253   6.450   0.680
 8803TIP3    H150604   7.228   6.361   0.649
 8803TIP3    H250605   7.223   6.449   0.774
 8804TIP3   OH250606   5.752   6.665   1.084
 8804TIP3    H150607   5.761   6.632   0.990
 8804TIP3    H250608   5.839   6.636   1.118
 8805TIP3   OH250609   7.346   6.610   1.624
 8805TIP3    H150610   7.427   6.556   1.611
 8805TIP3    H250611   7.383   6.700   1.616
 8806TIP3   OH250612   7.502   6.409   1.694
 8806TIP3    H150613   7.405   6.394   1.697
 8806TIP3    H250614   7.531   6.317   1.712
 8807TIP3   OH250615   7.265   6.040  -0.017
 8807TIP3    H150616   7.321   5.974   0.027
 8807TIP3    H250617   7.179   6.030   0.028
 8808TIP3   OH250618   7.223   6.211   0.496
 8808TIP3    H150619   7.224   6.114   0.515
 8808TIP3    H250620   7.317   6.228   0.479
 8809TIP3   OH250621   7.250   6.263   1.049
 8809TIP3    H150622   7.347   6.251   1.034
 8809TIP3    H250623   7.247   6.246   1.145
 8810TIP3   OH250624   7.283   6.298   1.335
 8810TIP3    H150625   7.200   6.346   1.356
 8810TIP3    H250626   7.336   6.375   1.304
 8811TIP3   OH250627   5.743   6.160   1.687
 8811TIP3    H150628   5.833   6.141   1.722
 8811TIP3    H250629   5.701   6.070   1.688
 8812TIP3   OH250630   7.516   5.666   1.844
 8812TIP3    H150631   7.561   5.612   1.778
 8812TIP3    H250632   7.511   5.752   1.797
 8813TIP3   OH250633   7.267   5.945   0.522
 8813TIP3    H150634   7.297   5.912   0.610
 8813TIP3    H250635   7.219   5.867   0.489
 8814TIP3   OH250636   5.848   5.997   1.033
 8814TIP3    H150637   5.887   5.906   1.027
 8814TIP3    H250638   5.926   6.053   1.015
 8815TIP3   OH250639   5.693   6.304   1.091
 8815TIP3    H150640   5.747   6.288   1.012
 8815TIP3    H250641   5.737   6.384   1.123
 8816TIP3   OH250642   7.477   5.904   1.730
 8816TIP3    H150643   7.388   5.934   1.762
 8816TIP3    H250644   7.448   5.887   1.638
 8817TIP3   OH250645   7.525   5.925   0.155
 8817TIP3    H150646   7.555   5.841   0.117
 8817TIP3    H250647   7.573   5.994   0.105
 8818TIP3   OH250648   5.711   5.919   0.477
 8818TIP3    H150649   5.621   5.950   0.494
 8818TIP3    H250650   5.730   5.959   0.390
 8819TIP3   OH250651   7.159   7.407   0.653
 8819TIP3    H150652   7.228   7.409   0.582
 8819TIP3    H250653   7.212   7.435   0.730
 8820TIP3   OH250654   5.717   5.777   1.317
 8820TIP3    H150655   5.645   5.749   1.377
 8820TIP3    H250656   5.672   5.839   1.256
 8821TIP3   OH250657   5.936   7.082   1.705
 8821TIP3    H150658   5.852   7.082   1.655
 8821TIP3    H250659   5.906   7.090   1.796
 8822TIP3   OH250660   6.220   7.222   1.351
 8822TIP3    H150661   6.208   7.320   1.342
 8822TIP3    H250662   6.317   7.222   1.349
 8823TIP3   OH250663   6.680   7.325   1.622
 8823TIP3    H150664   6.666   7.305   1.717
 8823TIP3    H250665   6.755   7.389   1.627
 8824TIP3   OH250666   6.901   7.505   1.586
 8824TIP3    H150667   6.962   7.434   1.562
 8824TIP3    H250668   6.927   7.520   1.679
 8825TIP3   OH250669   7.349   5.734   1.509
 8825TIP3    H150670   7.269   5.771   1.469
 8825TIP3    H250671   7.355   5.647   1.465
 8826TIP3   OH250672   5.942   7.557   1.334
 8826TIP3    H150673   5.849   7.551   1.303
 8826TIP3    H250674   5.931   7.574   1.429
 8827TIP3   OH250675   6.198   7.480   1.298
 8827TIP3    H150676   6.107   7.513   1.322
 8827TIP3    H250677   6.201   7.504   1.204
 8828TIP3   OH250678   6.688   7.466   1.175
 8828TIP3    H150679   6.615   7.482   1.110
 8828TIP3    H250680   6.688   7.552   1.221
 8829TIP3   OH250681   6.865   7.315   1.317
 8829TIP3    H150682   6.797   7.364   1.265
 8829TIP3    H250683   6.940   7.373   1.302
 8830TIP3   OH250684   7.138   7.535   1.278
 8830TIP3    H150685   7.120   7.621   1.237
 8830TIP3    H250686   7.186   7.485   1.208
 8831TIP3   OH250687   5.919   7.333   1.045
 8831TIP3    H150688   5.918   7.282   1.129
 8831TIP3    H250689   6.003   7.304   1.002
 8832TIP3   OH250690   6.137   7.268   0.918
 8832TIP3    H150691   6.128   7.171   0.931
 8832TIP3    H250692   6.217   7.285   0.973
 8833TIP3   OH250693   6.359   7.269   1.053
 8833TIP3    H150694   6.385   7.175   1.038
 8833TIP3    H250695   6.388   7.283   1.146
 8834TIP3   OH250696   6.712   5.878   0.935
 8834TIP3    H150697   6.635   5.824   0.958
 8834TIP3    H250698   6.759   5.818   0.875
 8835TIP3   OH250699   7.212   5.678   0.922
 8835TIP3    H150700   7.263   5.742   0.868
 8835TIP3    H250701   7.121   5.703   0.892
 8836TIP3   OH250702   7.356   5.818   0.746
 8836TIP3    H150703   7.427   5.755   0.719
 8836TIP3    H250704   7.414   5.893   0.772
 8837TIP3   OH250705   5.950   5.708   0.711
 8837TIP3    H150706   5.868   5.697   0.661
 8837TIP3    H250707   5.998   5.624   0.690
 8838TIP3   OH250708   5.825   5.705   0.270
 8838TIP3    H150709   5.880   5.773   0.224
 8838TIP3    H250710   5.785   5.757   0.343
 8839TIP3   OH250711   6.380   5.685   0.676
 8839TIP3    H150712   6.462   5.713   0.635
 8839TIP3    H250713   6.397   5.705   0.769
 8840TIP3   OH250714   6.958   5.738   0.819
 8840TIP3    H150715   6.936   5.737   0.725
 8840TIP3    H250716   6.909   5.659   0.854
 8841TIP3   OH250717   7.109   5.715   0.423
 8841TIP3    H150718   7.032   5.773   0.430
 8841TIP3    H250719   7.072   5.628   0.453
 8842TIP3   OH250720   5.820   7.306   0.387
 8842TIP3    H150721   5.726   7.296   0.366
 8842TIP3    H250722   5.841   7.391   0.344
 8843TIP3   OH250723   6.006   5.842   0.130
 8843TIP3    H150724   6.084   5.786   0.142
 8843TIP3    H250725   6.034   5.925   0.171
 8844TIP3   OH250726   6.554   5.942   0.356
 8844TIP3    H150727   6.607   5.896   0.423
 8844TIP3    H250728   6.549   6.030   0.399
 8845TIP3   OH250729   6.707   7.463   0.182
 8845TIP3    H150730   6.806   7.461   0.189
 8845TIP3    H250731   6.695   7.414   0.098
 8846TIP3   OH250732   7.368   7.383   0.499
 8846TIP3    H150733   7.348   7.289   0.478
 8846TIP3    H250734   7.362   7.419   0.409
 8847TIP3   OH250735   5.926   5.807   1.656
 8847TIP3    H150736   5.874   5.724   1.655
 8847TIP3    H250737   5.998   5.785   1.718
 8848TIP3   OH250738   6.124   5.724   1.848
 8848TIP3    H150739   6.214   5.706   1.816
 8848TIP3    H250740   6.095   5.633   1.870
 8849TIP3   OH250741   6.038   7.489   0.090
 8849TIP3    H150742   5.974   7.491   0.164
 8849TIP3    H250743   6.093   7.415   0.119
 8850TIP3   OH250744   6.988   5.669   1.847
 8850TIP3    H150745   6.984   5.615   1.928
 8850TIP3    H250746   7.076   5.643   1.811
 8851TIP3   OH250747   7.290   7.248   1.697
 8851TIP3    H150748   7.230   7.280   1.627
 8851TIP3    H250749   7.328   7.332   1.727
 8852TIP3   OH250750   7.580   6.308   0.568
 8852TIP3    H150751   7.556   6.402   0.571
 8852TIP3    H250752   7.529   6.277   0.490
 8853TIP3   OH250753   7.570   6.769   1.353
 8853TIP3    H150754   7.527   6.776   1.265
 8853TIP3    H250755   7.551   6.677   1.381
 8854TIP3   OH250756   7.526   7.052   1.007
 8854TIP3    H150757   7.609   7.072   0.960
 8854TIP3    H250758   7.537   7.106   1.086
 8855TIP3   OH250759   7.549   6.005   0.740
 8855TIP3    H150760   7.634   6.052   0.751
 8855TIP3    H250761   7.542   6.005   0.644
 8856TIP3   OH250762   7.588   6.515   1.461
 8856TIP3    H150763   7.577   6.455   1.538
 8856TIP3    H250764   7.509   6.493   1.405
 8857TIP3   OH250765   7.604   6.738   1.784
 8857TIP3    H150766   7.545   6.665   1.809
 8857TIP3    H250767   7.561   6.777   1.705
 8858TIP3   OH250768   7.499   7.511   0.686
 8858TIP3    H150769   7.444   7.461   0.621
 8858TIP3    H250770   7.521   7.439   0.749
 8859TIP3   OH250771   7.557   7.277   0.832
 8859TIP3    H150772   7.479   7.234   0.872
 8859TIP3    H250773   7.615   7.289   0.910
 8860TIP3   OH250774   7.617   6.589   1.088
 8860TIP3    H150775   7.619   6.597   0.991
 8860TIP3    H250776   7.702   6.633   1.108
 8861TIP3   OH250777   7.543   6.152   1.667
 8861TIP3    H150778   7.639   6.144   1.650
 8861TIP3    H250779   7.526   6.075   1.726
 8862TIP3   OH250780   7.508   6.275   1.021
 8862TIP3    H150781   7.596   6.236   1.036
 8862TIP3    H250782   7.535   6.367   1.023
 8863TIP3   OH250783   7.517   5.942   0.435
 8863TIP3    H150784   7.424   5.968   0.451
 8863TIP3    H250785   7.522   5.946   0.337
 8864TIP3   OH250786   7.482   5.769   1.276
 8864TIP3    H150787   7.460   5.776   1.372
 8864TIP3    H250788   7.425   5.838   1.237
 8865TIP3   OH250789   0.831   7.540   1.031
 8865TIP3    H150790   0.836   7.474   0.958
 8865TIP3    H250791   0.733   7.544   1.046
 8866TIP3   OH250792   1.697   7.506   0.272
 8866TIP3    H150793   1.603   7.516   0.299
 8866TIP3    H250794   1.713   7.604   0.276
 8867TIP3   OH250795   0.584   7.628   1.062
 8867TIP3    H150796   0.491   7.623   1.030
 8867TIP3    H250797   0.599   7.725   1.043
 8868TIP3   OH250798   1.060   7.607   1.413
 8868TIP3    H150799   1.140   7.570   1.456
 8868TIP3    H250800   0.993   7.547   1.449
 8869TIP3   OH250801   0.333   7.604   0.957
 8869TIP3    H150802   0.324   7.605   0.859
 8869TIP3    H250803   0.276   7.528   0.981
 8870TIP3   OH250804   0.786   7.519   1.372
 8870TIP3    H150805   0.785   7.618   1.370
 8870TIP3    H250806   0.714   7.494   1.312
 8871TIP3   OH250807   0.760   7.493   1.633
 8871TIP3    H150808   0.846   7.468   1.669
 8871TIP3    H250809   0.776   7.482   1.537
 8872TIP3   OH250810   1.811   7.565   1.797
 8872TIP3    H150811   1.890   7.517   1.766
 8872TIP3    H250812   1.852   7.629   1.857
 8873TIP3   OH250813   0.081   7.642   1.283
 8873TIP3    H150814  -0.005   7.646   1.326
 8873TIP3    H250815   0.100   7.738   1.272
 8874TIP3   OH250816   1.689   7.571   1.464
 8874TIP3    H150817   1.623   7.561   1.392
 8874TIP3    H250818   1.720   7.478   1.475
 8875TIP3   OH250819   1.591   7.521   0.874
 8875TIP3    H150820   1.631   7.607   0.893
 8875TIP3    H250821   1.498   7.549   0.863
 8876TIP3   OH250822   0.291   7.578   0.673
 8876TIP3    H150823   0.209   7.556   0.624
 8876TIP3    H250824   0.342   7.495   0.658
 8877TIP3   OH250825   0.183   7.544   0.215
 8877TIP3    H150826   0.208   7.609   0.148
 8877TIP3    H250827   0.151   7.605   0.284
 8878TIP3   OH250828   0.762   7.540   0.706
 8878TIP3    H150829   0.791   7.614   0.650
 8878TIP3    H250830   0.692   7.585   0.756
 8879TIP3   OH250831   1.322   7.566   0.790
 8879TIP3    H150832   1.270   7.583   0.711
 8879TIP3    H250833   1.279   7.485   0.824
 8880TIP3   OH250834   1.469   7.580   0.392
 8880TIP3    H150835   1.407   7.562   0.319
 8880TIP3    H250836   1.441   7.511   0.456
 8881TIP3   OH250837   0.465   7.553   1.751
 8881TIP3    H150838   0.525   7.500   1.697
 8881TIP3    H250839   0.447   7.493   1.826
 8882TIP3   OH250840   1.336   7.478   1.826
 8882TIP3    H150841   1.346   7.448   1.919
 8882TIP3    H250842   1.430   7.476   1.799
 8883TIP3   OH250843   2.710   7.541   1.025
 8883TIP3    H150844   2.708   7.468   0.959
 8883TIP3    H250845   2.615   7.549   1.047
 8884TIP3   OH250846   3.581   7.518   0.266
 8884TIP3    H150847   3.489   7.521   0.300
 8884TIP3    H250848   3.596   7.616   0.274
 8885TIP3   OH250849   2.453   7.634   1.064
 8885TIP3    H150850   2.364   7.625   1.024
 8885TIP3    H250851   2.465   7.731   1.059
 8886TIP3   OH250852   2.952   7.607   1.398
 8886TIP3    H150853   3.027   7.577   1.456
 8886TIP3    H250854   2.886   7.541   1.424
 8887TIP3   OH250855   2.194   7.593   0.956
 8887TIP3    H150856   2.186   7.585   0.858
 8887TIP3    H250857   2.161   7.506   0.986
 8888TIP3   OH250858   2.686   7.522   1.371
 8888TIP3    H150859   2.692   7.618   1.349
 8888TIP3    H250860   2.596   7.503   1.338
 8889TIP3   OH250861   2.616   7.490   1.627
 8889TIP3    H150862   2.689   7.446   1.672
 8889TIP3    H250863   2.650   7.495   1.534
 8890TIP3   OH250864   3.667   7.520   1.794
 8890TIP3    H150865   3.754   7.498   1.757
 8890TIP3    H250866   3.690   7.596   1.850
 8891TIP3   OH250867   1.921   7.595   1.296
 8891TIP3    H150868   1.846   7.596   1.360
 8891TIP3    H250869   1.924   7.689   1.268
 8892TIP3   OH250870   3.548   7.576   1.467
 8892TIP3    H150871   3.486   7.562   1.393
 8892TIP3    H250872   3.601   7.493   1.462
 8893TIP3   OH250873   3.483   7.517   0.874
 8893TIP3    H150874   3.521   7.605   0.894
 8893TIP3    H250875   3.391   7.542   0.858
 8894TIP3   OH250876   2.160   7.560   0.679
 8894TIP3    H150877   2.070   7.543   0.643
 8894TIP3    H250878   2.206   7.477   0.655
 8895TIP3   OH250879   2.074   7.553   0.286
 8895TIP3    H150880   2.126   7.636   0.302
 8895TIP3    H250881   2.003   7.566   0.352
 8896TIP3   OH250882   2.641   7.534   0.712
 8896TIP3    H150883   2.680   7.605   0.657
 8896TIP3    H250884   2.569   7.587   0.748
 8897TIP3   OH250885   3.209   7.569   0.789
 8897TIP3    H150886   3.160   7.571   0.706
 8897TIP3    H250887   3.167   7.492   0.831
 8898TIP3   OH250888   3.348   7.583   0.387
 8898TIP3    H150889   3.281   7.560   0.320
 8898TIP3    H250890   3.321   7.519   0.457
 8899TIP3   OH250891   2.351   7.538   1.728
 8899TIP3    H150892   2.437   7.492   1.715
 8899TIP3    H250893   2.314   7.488   1.805
 8900TIP3   OH250894   3.201   7.473   1.826
 8900TIP3    H150895   3.215   7.443   1.918
 8900TIP3    H250896   3.293   7.475   1.793
 8901TIP3   OH250897   4.593   7.539   1.031
 8901TIP3    H150898   4.581   7.469   0.965
 8901TIP3    H250899   4.502   7.551   1.065
 8902TIP3   OH250900   5.464   7.514   0.266
 8902TIP3    H150901   5.372   7.513   0.299
 8902TIP3    H250902   5.472   7.613   0.269
 8903TIP3   OH250903   4.337   7.634   1.067
 8903TIP3    H150904   4.244   7.625   1.038
 8903TIP3    H250905   4.350   7.731   1.058
 8904TIP3   OH250906   4.848   7.601   1.385
 8904TIP3    H150907   4.917   7.574   1.449
 8904TIP3    H250908   4.774   7.546   1.416
 8905TIP3   OH250909   4.067   7.587   0.952
 8905TIP3    H150910   4.058   7.577   0.855
 8905TIP3    H250911   4.039   7.499   0.985
 8906TIP3   OH250912   4.581   7.518   1.380
 8906TIP3    H150913   4.577   7.612   1.351
 8906TIP3    H250914   4.493   7.487   1.350
 8907TIP3   OH250915   4.541   7.501   1.647
 8907TIP3    H150916   4.619   7.459   1.686
 8907TIP3    H250917   4.559   7.493   1.551
 8908TIP3   OH250918   5.567   7.527   1.784
 8908TIP3    H150919   5.654   7.507   1.744
 8908TIP3    H250920   5.593   7.597   1.846
 8909TIP3   OH250921   3.794   7.591   1.283
 8909TIP3    H150922   3.734   7.606   1.357
 8909TIP3    H250923   3.818   7.684   1.260
 8910TIP3   OH250924   5.446   7.576   1.459
 8910TIP3    H150925   5.380   7.565   1.388
 8910TIP3    H250926   5.498   7.492   1.449
 8911TIP3   OH250927   5.368   7.520   0.870
 8911TIP3    H150928   5.409   7.605   0.893
 8911TIP3    H250929   5.276   7.549   0.859
 8912TIP3   OH250930   4.041   7.557   0.659
 8912TIP3    H150931   3.950   7.542   0.626
 8912TIP3    H250932   4.083   7.471   0.643
 8913TIP3   OH250933   3.975   7.548   0.283
 8913TIP3    H150934   4.023   7.633   0.293
 8913TIP3    H250935   3.901   7.569   0.344
 8914TIP3   OH250936   4.528   7.534   0.704
 8914TIP3    H150937   4.566   7.612   0.661
 8914TIP3    H250938   4.452   7.578   0.743
 8915TIP3   OH250939   5.089   7.566   0.793
 8915TIP3    H150940   5.053   7.559   0.704
 8915TIP3    H250941   5.043   7.491   0.834
 8916TIP3   OH250942   5.235   7.580   0.393
 8916TIP3    H150943   5.173   7.556   0.322
 8916TIP3    H250944   5.204   7.520   0.464
 8917TIP3   OH250945   4.234   7.539   1.731
 8917TIP3    H150946   4.321   7.501   1.711
 8917TIP3    H250947   4.195   7.464   1.780
 8918TIP3   OH250948   5.118   7.480   1.816
 8918TIP3    H150949   5.121   7.446   1.908
 8918TIP3    H250950   5.213   7.489   1.793
 8919TIP3   OH250951   6.483   7.533   1.030
 8919TIP3    H150952   6.485   7.463   0.962
 8919TIP3    H250953   6.386   7.543   1.044
 8920TIP3   OH250954   7.317   7.521   0.258
 8920TIP3    H150955   7.234   7.526   0.311
 8920TIP3    H250956   7.325   7.617   0.237
 8921TIP3   OH250957   6.230   7.627   1.059
 8921TIP3    H150958   6.137   7.617   1.029
 8921TIP3    H250959   6.239   7.725   1.059
 8922TIP3   OH250960   6.734   7.595   1.396
 8922TIP3    H150961   6.804   7.567   1.460
 8922TIP3    H250962   6.668   7.526   1.414
 8923TIP3   OH250963   5.949   7.587   0.958
 8923TIP3    H150964   5.940   7.575   0.861
 8923TIP3    H250965   5.925   7.497   0.991
 8924TIP3   OH250966   6.463   7.520   1.392
 8924TIP3    H150967   6.469   7.615   1.367
 8924TIP3    H250968   6.381   7.494   1.346
 8925TIP3   OH250969   6.419   7.508   1.668
 8925TIP3    H150970   6.491   7.455   1.705
 8925TIP3    H250971   6.434   7.494   1.572
 8926TIP3   OH250972   7.515   7.495   1.816
 8926TIP3    H150973   7.607   7.475   1.795
 8926TIP3    H250974   7.529   7.573   1.872
 8927TIP3   OH250975   5.683   7.593   1.272
 8927TIP3    H150976   5.619   7.598   1.344
 8927TIP3    H250977   5.703   7.687   1.256
 8928TIP3   OH250978   7.339   7.566   1.469
 8928TIP3    H150979   7.280   7.563   1.392
 8928TIP3    H250980   7.382   7.477   1.460
 8929TIP3   OH250981   7.248   7.511   0.883
 8929TIP3    H150982   7.285   7.601   0.884
 8929TIP3    H250983   7.155   7.534   0.860
 8930TIP3   OH250984   5.935   7.552   0.680
 8930TIP3    H150985   5.850   7.540   0.633
 8930TIP3    H250986   5.982   7.469   0.656
 8931TIP3   OH250987   5.848   7.551   0.283
 8931TIP3    H150988   5.892   7.641   0.283
 8931TIP3    H250989   5.778   7.570   0.348
 8932TIP3   OH250990   6.416   7.533   0.711
 8932TIP3    H150991   6.450   7.614   0.669
 8932TIP3    H250992   6.339   7.575   0.753
 8933TIP3   OH250993   6.997   7.579   0.808
 8933TIP3    H150994   6.979   7.551   0.717
 8933TIP3    H250995   6.937   7.518   0.856
 8934TIP3   OH250996   7.106   7.589   0.398
 8934TIP3    H150997   7.034   7.572   0.334
 8934TIP3    H250998   7.076   7.526   0.468
 8935TIP3   OH250999   6.134   7.543   1.715
 8935TIP3    H151000   6.224   7.507   1.705
 8935TIP3    H251001   6.100   7.491   1.792
 8936TIP3   OH251002   7.012   7.485   1.833
 8936TIP3    H151003   7.023   7.461   1.926
 8936TIP3    H251004   7.105   7.476   1.801
 8937TIP3   OH251005   7.478   7.607   1.228
 8937TIP3    H151006   7.476   7.612   1.325
 8937TIP3    H251007   7.489   7.701   1.205
 8938TIP3   OH251008   1.211   0.995   2.598
 8938TIP3    H151009   1.200   1.091   2.582
 8938TIP3    H251010   1.144   0.961   2.536
 8939TIP3   OH251011   1.456   1.268   2.736
 8939TIP3    H151012   1.401   1.191   2.756
 8939TIP3    H251013   1.494   1.290   2.821
 8940TIP3   OH251014   0.473   1.341   2.880
 8940TIP3    H151015   0.412   1.270   2.847
 8940TIP3    H251016   0.549   1.285   2.896
 8941TIP3   OH251017   0.150   0.725   2.411
 8941TIP3    H151018   0.135   0.793   2.479
 8941TIP3    H251019   0.062   0.684   2.413
 8942TIP3   OH251020   0.169   0.902   2.627
 8942TIP3    H151021   0.187   0.821   2.679
 8942TIP3    H251022   0.256   0.928   2.594
 8943TIP3   OH251023   1.384   0.420   2.581
 8943TIP3    H151024   1.423   0.374   2.506
 8943TIP3    H251025   1.337   0.493   2.538
 8944TIP3   OH251026   0.226   0.650   2.761
 8944TIP3    H151027   0.299   0.659   2.824
 8944TIP3    H251028   0.234   0.559   2.726
 8945TIP3   OH251029   0.735   0.830   2.725
 8945TIP3    H151030   0.810   0.789   2.772
 8945TIP3    H251031   0.697   0.748   2.688
 8946TIP3   OH251032   1.151   1.248   2.471
 8946TIP3    H151033   1.144   1.225   2.375
 8946TIP3    H251034   1.168   1.342   2.463
 8947TIP3   OH251035   0.126   1.212   2.283
 8947TIP3    H151036   0.119   1.266   2.201
 8947TIP3    H251037   0.157   1.278   2.347
 8948TIP3   OH251038   1.507   1.359   2.455
 8948TIP3    H151039   1.429   1.318   2.414
 8948TIP3    H251040   1.488   1.349   2.550
 8949TIP3   OH251041   1.080   0.921   2.343
 8949TIP3    H151042   0.991   0.957   2.326
 8949TIP3    H251043   1.126   0.940   2.260
 8950TIP3   OH251044   1.083   0.823   2.038
 8950TIP3    H151045   1.172   0.824   2.081
 8950TIP3    H251046   1.093   0.747   1.978
 8951TIP3   OH251047   1.439   0.965   2.406
 8951TIP3    H151048   1.365   0.965   2.472
 8951TIP3    H251049   1.505   0.908   2.450
 8952TIP3   OH251050   0.590   1.053   2.642
 8952TIP3    H151051   0.547   1.010   2.566
 8952TIP3    H251052   0.643   0.977   2.678
 8953TIP3   OH251053   1.320   0.862   2.176
 8953TIP3    H151054   1.365   0.900   2.253
 8953TIP3    H251055   1.363   0.916   2.106
 8954TIP3   OH251056   1.702   0.094   2.186
 8954TIP3    H151057   1.614   0.131   2.204
 8954TIP3    H251058   1.744   0.169   2.137
 8955TIP3   OH251059   0.443   0.921   2.427
 8955TIP3    H151060   0.422   0.996   2.366
 8955TIP3    H251061   0.405   0.846   2.381
 8956TIP3   OH251062   1.798   1.460   2.059
 8956TIP3    H151063   1.827   1.554   2.060
 8956TIP3    H251064   1.886   1.417   2.053
 8957TIP3   OH251065   0.070   1.451   2.903
 8957TIP3    H151066   0.099   1.379   2.960
 8957TIP3    H251067   0.133   1.522   2.920
 8958TIP3   OH251068   0.404   1.674   2.545
 8958TIP3    H151069   0.419   1.652   2.639
 8958TIP3    H251070   0.307   1.672   2.539
 8959TIP3   OH251071   1.466   0.984   1.990
 8959TIP3    H151072   1.423   0.972   1.903
 8959TIP3    H251073   1.552   0.945   1.966
 8960TIP3   OH251074   1.006   0.338   2.030
 8960TIP3    H151075   0.946   0.304   2.099
 8960TIP3    H251076   0.951   0.328   1.951
 8961TIP3   OH251077   0.626   0.618   2.590
 8961TIP3    H151078   0.535   0.635   2.565
 8961TIP3    H251079   0.669   0.606   2.504
 8962TIP3   OH251080   1.178   0.666   2.411
 8962TIP3    H151081   1.148   0.756   2.385
 8962TIP3    H251082   1.255   0.652   2.352
 8963TIP3   OH251083   0.663   0.411   1.933
 8963TIP3    H151084   0.633   0.340   1.992
 8963TIP3    H251085   0.586   0.430   1.878
 8964TIP3   OH251086   0.895   0.410   2.689
 8964TIP3    H151087   0.811   0.374   2.659
 8964TIP3    H251088   0.890   0.386   2.783
 8965TIP3   OH251089   0.704   0.602   2.300
 8965TIP3    H151090   0.744   0.518   2.272
 8965TIP3    H251091   0.654   0.628   2.221
 8966TIP3   OH251092   0.565   0.718   2.039
 8966TIP3    H151093   0.541   0.680   1.952
 8966TIP3    H251094   0.660   0.737   2.019
 8967TIP3   OH251095   0.945   0.686   2.833
 8967TIP3    H151096   0.910   0.611   2.784
 8967TIP3    H251097   0.954   0.648   2.921
 8968TIP3   OH251098   0.892   1.177   2.249
 8968TIP3    H151099   0.834   1.106   2.214
 8968TIP3    H251100   0.853   1.188   2.339
 8969TIP3   OH251101   1.255   0.426   2.067
 8969TIP3    H151102   1.157   0.438   2.064
 8969TIP3    H251103   1.289   0.489   2.134
 8970TIP3   OH251104   1.375   0.594   2.238
 8970TIP3    H151105   1.462   0.593   2.282
 8970TIP3    H251106   1.377   0.676   2.184
 8971TIP3   OH251107   0.386   1.105   2.805
 8971TIP3    H151108   0.447   1.089   2.730
 8971TIP3    H251109   0.375   1.016   2.843
 8972TIP3   OH251110   1.154   1.222   2.204
 8972TIP3    H151111   1.127   1.311   2.179
 8972TIP3    H251112   1.064   1.181   2.205
 8973TIP3   OH251113   1.800   0.638   2.214
 8973TIP3    H151114   1.758   0.616   2.128
 8973TIP3    H251115   1.828   0.732   2.201
 8974TIP3   OH251116   1.596   1.521   2.225
 8974TIP3    H151117   1.581   1.461   2.301
 8974TIP3    H251118   1.674   1.483   2.179
 8975TIP3   OH251119   0.654   1.445   2.547
 8975TIP3    H151120   0.668   1.539   2.523
 8975TIP3    H251121   0.557   1.442   2.548
 8976TIP3   OH251122   0.230   0.936   2.033
 8976TIP3    H151123   0.277   1.002   2.088
 8976TIP3    H251124   0.149   0.922   2.085
 8977TIP3   OH251125   0.782   1.187   2.495
 8977TIP3    H151126   0.737   1.271   2.519
 8977TIP3    H251127   0.733   1.122   2.548
 8978TIP3   OH251128   0.661   1.711   2.472
 8978TIP3    H151129   0.564   1.705   2.488
 8978TIP3    H251130   0.677   1.805   2.495
 8979TIP3   OH251131   1.426   1.308   2.036
 8979TIP3    H151132   1.418   1.272   2.127
 8979TIP3    H251133   1.341   1.279   1.998
 8980TIP3   OH251134   1.861   1.721   2.081
 8980TIP3    H151135   1.902   1.785   2.022
 8980TIP3    H251136   1.793   1.775   2.128
 8981TIP3   OH251137   1.489   1.180   2.254
 8981TIP3    H151138   1.471   1.091   2.293
 8981TIP3    H251139   1.537   1.224   2.326
 8982TIP3   OH251140   0.835   1.443   1.879
 8982TIP3    H151141   0.813   1.377   1.810
 8982TIP3    H251142   0.766   1.424   1.945
 8983TIP3   OH251143   0.694   1.352   2.136
 8983TIP3    H151144   0.770   1.311   2.182
 8983TIP3    H251145   0.706   1.446   2.162
 8984TIP3   OH251146   0.367   1.102   2.205
 8984TIP3    H151147   0.288   1.154   2.233
 8984TIP3    H251148   0.407   1.162   2.140
 8985TIP3   OH251149   1.201   0.307   2.317
 8985TIP3    H151150   1.165   0.314   2.227
 8985TIP3    H251151   1.189   0.398   2.345
 8986TIP3   OH251152   0.962   0.483   2.432
 8986TIP3    H151153   1.025   0.557   2.427
 8986TIP3    H251154   0.938   0.484   2.527
 8987TIP3   OH251155   1.027   0.189   2.502
 8987TIP3    H151156   1.007   0.278   2.535
 8987TIP3    H251157   1.100   0.204   2.440
 8988TIP3   OH251158   0.749   1.605   2.183
 8988TIP3    H151159   0.716   1.660   2.110
 8988TIP3    H251160   0.723   1.659   2.261
 8989TIP3   OH251161   0.438   1.360   2.035
 8989TIP3    H151162   0.517   1.371   2.092
 8989TIP3    H251163   0.476   1.297   1.971
 8990TIP3   OH251164   0.210   1.455   2.399
 8990TIP3    H151165   0.133   1.508   2.418
 8990TIP3    H251166   0.265   1.524   2.358
 8991TIP3   OH251167   1.047   1.626   1.883
 8991TIP3    H151168   0.977   1.557   1.888
 8991TIP3    H251169   1.113   1.582   1.825
 8992TIP3   OH251170   1.466   1.577   1.900
 8992TIP3    H151171   1.496   1.534   1.982
 8992TIP3    H251172   1.548   1.584   1.847
 8993TIP3   OH251173   0.578   1.171   1.894
 8993TIP3    H151174   0.608   1.126   1.974
 8993TIP3    H251175   0.665   1.184   1.849
 8994TIP3   OH251176   1.162   1.281   1.894
 8994TIP3    H151177   1.071   1.288   1.925
 8994TIP3    H251178   1.155   1.192   1.850
 8995TIP3   OH251179   0.729   0.965   2.155
 8995TIP3    H151180   0.653   0.915   2.187
 8995TIP3    H251181   0.758   0.911   2.077
 8996TIP3   OH251182   0.810   0.800   1.960
 8996TIP3    H151183   0.830   0.824   1.868
 8996TIP3    H251184   0.901   0.807   2.000
 8997TIP3   OH251185   1.729   1.045   1.880
 8997TIP3    H151186   1.710   0.997   1.796
 8997TIP3    H251187   1.780   1.119   1.843
 8998TIP3   OH251188   0.168   1.330   2.046
 8998TIP3    H151189   0.262   1.354   2.036
 8998TIP3    H251190   0.152   1.280   1.963
 8999TIP3   OH251191   0.076   1.843   2.466
 8999TIP3    H151192  -0.013   1.883   2.473
 8999TIP3    H251193   0.083   1.796   2.550
 9000TIP3   OH251194   0.166   1.658   2.682
 9000TIP3    H151195   0.213   1.573   2.693
 9000TIP3    H251196   0.202   1.708   2.759
 9001TIP3   OH251197   1.781   1.131   2.234
 9001TIP3    H151198   1.865   1.173   2.263
 9001TIP3    H251199   1.757   1.085   2.317
 9002TIP3   OH251200   1.797   0.950   2.471
 9002TIP3    H151201   1.735   0.928   2.542
 9002TIP3    H251202   1.879   0.972   2.521
 9003TIP3   OH251203   1.828   1.223   2.946
 9003TIP3    H151204   1.912   1.191   2.908
 9003TIP3    H251205   1.856   1.245   3.036
 9004TIP3   OH251206   1.865   0.896   2.116
 9004TIP3    H151207   1.787   0.894   2.057
 9004TIP3    H251208   1.841   0.968   2.177
 9005TIP3   OH251209   1.658   0.656   1.966
 9005TIP3    H151210   1.715   0.694   1.896
 9005TIP3    H251211   1.647   0.563   1.935
 9006TIP3   OH251212   1.589   0.772   2.547
 9006TIP3    H151213   1.606   0.693   2.490
 9006TIP3    H251214   1.640   0.753   2.625
 9007TIP3   OH251215   0.239   0.894   2.969
 9007TIP3    H151216   0.195   0.951   2.906
 9007TIP3    H251217   0.219   0.937   3.054
 9008TIP3   OH251218   1.618   0.409   1.893
 9008TIP3    H151219   1.664   0.337   1.941
 9008TIP3    H251220   1.526   0.375   1.885
 9009TIP3   OH251221   1.605   0.558   2.379
 9009TIP3    H151222   1.625   0.466   2.403
 9009TIP3    H251223   1.677   0.578   2.315
 9010TIP3   OH251224   1.639   0.286   2.438
 9010TIP3    H151225   1.708   0.218   2.434
 9010TIP3    H251226   1.570   0.248   2.380
 9011TIP3   OH251227   0.103   0.644   3.054
 9011TIP3    H151228   0.147   0.646   2.969
 9011TIP3    H251229   0.132   0.727   3.095
 9012TIP3   OH251230   1.834   0.282   2.053
 9012TIP3    H151231   1.870   0.221   1.985
 9012TIP3    H251232   1.902   0.351   2.058
 9013TIP3   OH251233   0.274   1.736   2.909
 9013TIP3    H151234   0.304   1.736   3.003
 9013TIP3    H251235   0.350   1.683   2.872
 9014TIP3   OH251236   0.472   1.600   2.801
 9014TIP3    H151237   0.473   1.506   2.832
 9014TIP3    H251238   0.566   1.621   2.825
 9015TIP3   OH251239   0.727   1.637   2.890
 9015TIP3    H151240   0.815   1.622   2.854
 9015TIP3    H251241   0.744   1.661   2.982
 9016TIP3   OH251242   1.552   0.103   2.748
 9016TIP3    H151243   1.644   0.123   2.725
 9016TIP3    H251244   1.511   0.107   2.661
 9017TIP3   OH251245   0.158   0.155   2.108
 9017TIP3    H151246   0.114   0.073   2.078
 9017TIP3    H251247   0.162   0.139   2.204
 9018TIP3   OH251248   0.741   0.148   2.577
 9018TIP3    H151249   0.827   0.137   2.534
 9018TIP3    H251250   0.697   0.063   2.561
 9019TIP3   OH251251   1.454   0.180   2.273
 9019TIP3    H151252   1.362   0.213   2.273
 9019TIP3    H251253   1.437   0.083   2.277
 9020TIP3   OH251254   0.197   1.687   2.251
 9020TIP3    H151255   0.101   1.690   2.246
 9020TIP3    H251256   0.217   1.778   2.219
 9021TIP3   OH251257   0.867   0.306   2.253
 9021TIP3    H151258   0.881   0.225   2.305
 9021TIP3    H251259   0.912   0.375   2.308
 9022TIP3   OH251260   1.743   1.707   2.384
 9022TIP3    H151261   1.676   1.642   2.353
 9022TIP3    H251262   1.708   1.790   2.347
 9023TIP3   OH251263   0.327   1.755   1.949
 9023TIP3    H151264   0.285   1.779   2.033
 9023TIP3    H251265   0.386   1.684   1.977
 9024TIP3   OH251266   3.112   1.009   2.560
 9024TIP3    H151267   3.079   1.099   2.576
 9024TIP3    H251268   3.040   0.973   2.507
 9025TIP3   OH251269   3.326   1.217   2.784
 9025TIP3    H151270   3.316   1.121   2.784
 9025TIP3    H251271   3.373   1.234   2.701
 9026TIP3   OH251272   1.957   0.655   2.463
 9026TIP3    H151273   1.958   0.730   2.524
 9026TIP3    H251274   1.925   0.696   2.381
 9027TIP3   OH251275   2.005   0.923   2.698
 9027TIP3    H151276   2.047   0.851   2.751
 9027TIP3    H251277   2.066   0.995   2.721
 9028TIP3   OH251278   2.820   1.113   3.019
 9028TIP3    H151279   2.808   1.097   2.924
 9028TIP3    H251280   2.804   1.210   3.024
 9029TIP3   OH251281   2.413   0.445   2.719
 9029TIP3    H151282   2.434   0.513   2.653
 9029TIP3    H251283   2.385   0.369   2.665
 9030TIP3   OH251284   3.255   0.449   2.524
 9030TIP3    H151285   3.245   0.400   2.607
 9030TIP3    H251286   3.268   0.540   2.553
 9031TIP3   OH251287   2.079   0.647   2.772
 9031TIP3    H151288   2.132   0.634   2.852
 9031TIP3    H251289   2.123   0.585   2.710
 9032TIP3   OH251290   2.627   0.770   2.714
 9032TIP3    H151291   2.703   0.758   2.774
 9032TIP3    H251292   2.642   0.699   2.651
 9033TIP3   OH251293   3.020   1.246   2.454
 9033TIP3    H151294   3.020   1.215   2.362
 9033TIP3    H251295   3.005   1.343   2.439
 9034TIP3   OH251296   2.285   0.530   2.936
 9034TIP3    H151297   2.353   0.589   2.968
 9034TIP3    H251298   2.328   0.491   2.856
 9035TIP3   OH251299   2.036   1.208   2.281
 9035TIP3    H151300   2.027   1.263   2.200
 9035TIP3    H251301   2.050   1.278   2.349
 9036TIP3   OH251302   2.976   0.935   2.320
 9036TIP3    H151303   2.924   1.016   2.300
 9036TIP3    H251304   3.053   0.942   2.261
 9037TIP3   OH251305   2.968   0.824   1.995
 9037TIP3    H151306   3.035   0.866   2.053
 9037TIP3    H251307   3.013   0.742   1.971
 9038TIP3   OH251308   3.335   0.938   2.416
 9038TIP3    H151309   3.258   0.961   2.473
 9038TIP3    H251310   3.392   0.889   2.479
 9039TIP3   OH251311   3.193   0.904   2.160
 9039TIP3    H151312   3.247   0.908   2.241
 9039TIP3    H251313   3.257   0.942   2.095
 9040TIP3   OH251314   2.987   1.513   2.456
 9040TIP3    H151315   3.019   1.534   2.545
 9040TIP3    H251316   2.931   1.586   2.429
 9041TIP3   OH251317   3.556   0.095   2.160
 9041TIP3    H151318   3.467   0.125   2.187
 9041TIP3    H251319   3.596   0.181   2.138
 9042TIP3   OH251320   2.376   0.891   2.319
 9042TIP3    H151321   2.344   0.984   2.314
 9042TIP3    H251322   2.296   0.843   2.341
 9043TIP3   OH251323   2.907   1.825   2.350
 9043TIP3    H151324   2.898   1.835   2.253
 9043TIP3    H251325   2.914   1.919   2.377
 9044TIP3   OH251326   2.292   1.683   2.546
 9044TIP3    H151327   2.295   1.692   2.643
 9044TIP3    H251328   2.202   1.647   2.531
 9045TIP3   OH251329   3.199   1.733   2.067
 9045TIP3    H151330   3.268   1.677   2.023
 9045TIP3    H251331   3.230   1.735   2.159
 9046TIP3   OH251332   3.187   1.749   2.364
 9046TIP3    H151333   3.091   1.730   2.362
 9046TIP3    H251334   3.227   1.667   2.396
 9047TIP3   OH251335   2.483   0.105   2.893
 9047TIP3    H151336   2.407   0.067   2.847
 9047TIP3    H251337   2.449   0.193   2.908
 9048TIP3   OH251338   3.360   1.004   1.986
 9048TIP3    H151339   3.341   1.022   1.892
 9048TIP3    H251340   3.458   1.016   1.985
 9049TIP3   OH251341   2.483   0.642   2.500
 9049TIP3    H151342   2.400   0.654   2.545
 9049TIP3    H251343   2.509   0.735   2.490
 9050TIP3   OH251344   3.074   0.694   2.396
 9050TIP3    H151345   3.034   0.773   2.355
 9050TIP3    H251346   3.113   0.645   2.321
 9051TIP3   OH251347   3.090   0.652   2.680
 9051TIP3    H151348   3.069   0.698   2.598
 9051TIP3    H251349   3.084   0.560   2.654
 9052TIP3   OH251350   2.541   0.405   1.905
 9052TIP3    H151351   2.481   0.331   1.918
 9052TIP3    H251352   2.479   0.473   1.872
 9053TIP3   OH251353   2.013   0.459   2.185
 9053TIP3    H151354   2.068   0.507   2.120
 9053TIP3    H251355   1.944   0.527   2.201
 9054TIP3   OH251356   2.185   0.501   2.541
 9054TIP3    H151357   2.111   0.564   2.529
 9054TIP3    H251358   2.197   0.467   2.451
 9055TIP3   OH251359   2.433   0.686   2.024
 9055TIP3    H151360   2.420   0.665   1.930
 9055TIP3    H251361   2.509   0.745   2.018
 9056TIP3   OH251362   2.852   0.686   2.855
 9056TIP3    H151363   2.932   0.666   2.804
 9056TIP3    H251364   2.874   0.638   2.935
 9057TIP3   OH251365   2.787   1.119   2.254
 9057TIP3    H151366   2.716   1.064   2.215
 9057TIP3    H251367   2.742   1.145   2.338
 9058TIP3   OH251368   3.143   0.442   2.029
 9058TIP3    H151369   3.054   0.467   2.056
 9058TIP3    H251370   3.198   0.491   2.094
 9059TIP3   OH251371   3.246   0.608   2.206
 9059TIP3    H151372   3.324   0.590   2.263
 9059TIP3    H251373   3.270   0.695   2.172
 9060TIP3   OH251374   2.977   1.271   2.151
 9060TIP3    H151375   2.930   1.356   2.168
 9060TIP3    H251376   2.910   1.204   2.177
 9061TIP3   OH251377   3.716   0.632   2.219
 9061TIP3    H151378   3.660   0.604   2.144
 9061TIP3    H251379   3.727   0.729   2.199
 9062TIP3   OH251380   2.538   1.424   2.531
 9062TIP3    H151381   2.537   1.521   2.515
 9062TIP3    H251382   2.444   1.403   2.539
 9063TIP3   OH251383   2.112   0.962   2.001
 9063TIP3    H151384   2.167   0.995   2.075
 9063TIP3    H251385   2.027   0.939   2.043
 9064TIP3   OH251386   2.656   1.171   2.485
 9064TIP3    H151387   2.624   1.261   2.507
 9064TIP3    H251388   2.662   1.131   2.572
 9065TIP3   OH251389   2.543   1.687   2.462
 9065TIP3    H151390   2.446   1.681   2.479
 9065TIP3    H251391   2.562   1.776   2.496
 9066TIP3   OH251392   3.322   1.332   2.031
 9066TIP3    H151393   3.348   1.294   2.120
 9066TIP3    H251394   3.233   1.293   2.027
 9067TIP3   OH251395   3.383   1.191   2.253
 9067TIP3    H151396   3.343   1.126   2.313
 9067TIP3    H251397   3.478   1.171   2.264
 9068TIP3   OH251398   2.710   1.446   1.885
 9068TIP3    H151399   2.709   1.399   1.800
 9068TIP3    H251400   2.653   1.387   1.938
 9069TIP3   OH251401   2.588   1.366   2.126
 9069TIP3    H151402   2.661   1.321   2.172
 9069TIP3    H251403   2.598   1.457   2.162
 9070TIP3   OH251404   2.255   1.093   2.184
 9070TIP3    H151405   2.175   1.129   2.226
 9070TIP3    H251406   2.292   1.171   2.140
 9071TIP3   OH251407   3.108   0.334   2.310
 9071TIP3    H151408   3.144   0.418   2.285
 9071TIP3    H251409   3.125   0.332   2.406
 9072TIP3   OH251410   2.875   1.547   2.191
 9072TIP3    H151411   2.784   1.581   2.210
 9072TIP3    H251412   2.920   1.632   2.177
 9073TIP3   OH251413   2.622   1.627   2.203
 9073TIP3    H151414   2.627   1.705   2.143
 9073TIP3    H251415   2.586   1.669   2.284
 9074TIP3   OH251416   2.304   1.352   2.043
 9074TIP3    H151417   2.378   1.380   2.100
 9074TIP3    H251418   2.354   1.310   1.971
 9075TIP3   OH251419   2.090   0.664   2.007
 9075TIP3    H151420   2.139   0.749   2.011
 9075TIP3    H251421   2.053   0.667   1.918
 9076TIP3   OH251422   2.223   0.127   2.841
 9076TIP3    H151423   2.208   0.114   2.744
 9076TIP3    H251424   2.199   0.039   2.873
 9077TIP3   OH251425   2.096   1.456   2.437
 9077TIP3    H151426   2.030   1.522   2.464
 9077TIP3    H251427   2.132   1.506   2.362
 9078TIP3   OH251428   2.911   1.640   1.875
 9078TIP3    H151429   2.865   1.557   1.901
 9078TIP3    H251430   2.992   1.605   1.833
 9079TIP3   OH251431   3.367   1.584   1.920
 9079TIP3    H151432   3.375   1.495   1.961
 9079TIP3    H251433   3.430   1.584   1.845
 9080TIP3   OH251434   2.456   1.152   1.879
 9080TIP3    H151435   2.469   1.098   1.959
 9080TIP3    H251436   2.541   1.136   1.831
 9081TIP3   OH251437   3.010   1.297   1.871
 9081TIP3    H151438   2.984   1.287   1.965
 9081TIP3    H251439   3.011   1.201   1.845
 9082TIP3   OH251440   2.588   0.964   2.147
 9082TIP3    H151441   2.520   0.912   2.195
 9082TIP3    H251442   2.624   0.898   2.084
 9083TIP3   OH251443   2.675   0.798   1.952
 9083TIP3    H151444   2.658   0.814   1.858
 9083TIP3    H251445   2.772   0.806   1.957
 9084TIP3   OH251446   3.607   1.036   1.883
 9084TIP3    H151447   3.605   1.008   1.788
 9084TIP3    H251448   3.616   1.133   1.875
 9085TIP3   OH251449   2.669   1.853   2.081
 9085TIP3    H151450   2.766   1.859   2.089
 9085TIP3    H251451   2.659   1.898   1.995
 9086TIP3   OH251452   2.025   1.314   2.029
 9086TIP3    H151453   2.122   1.328   2.025
 9086TIP3    H251454   2.011   1.261   1.948
 9087TIP3   OH251455   1.927   1.862   2.505
 9087TIP3    H151456   1.859   1.808   2.459
 9087TIP3    H251457   1.938   1.804   2.584
 9088TIP3   OH251458   1.983   1.657   2.675
 9088TIP3    H151459   1.900   1.608   2.690
 9088TIP3    H251460   2.014   1.669   2.767
 9089TIP3   OH251461   3.683   1.116   2.287
 9089TIP3    H151462   3.769   1.157   2.304
 9089TIP3    H251463   3.685   1.041   2.350
 9090TIP3   OH251464   3.696   0.906   2.461
 9090TIP3    H151465   3.622   0.841   2.474
 9090TIP3    H251466   3.740   0.911   2.549
 9091TIP3   OH251467   3.716   0.892   2.109
 9091TIP3    H151468   3.657   0.904   2.032
 9091TIP3    H251469   3.688   0.967   2.165
 9092TIP3   OH251470   3.550   0.639   1.943
 9092TIP3    H151471   3.603   0.679   1.872
 9092TIP3    H251472   3.526   0.552   1.903
 9093TIP3   OH251473   3.497   0.740   2.523
 9093TIP3    H151474   3.471   0.683   2.447
 9093TIP3    H251475   3.475   0.684   2.599
 9094TIP3   OH251476   3.511   0.390   1.870
 9094TIP3    H151477   3.575   0.330   1.911
 9094TIP3    H251478   3.426   0.341   1.870
 9095TIP3   OH251479   3.478   0.556   2.347
 9095TIP3    H151480   3.474   0.459   2.369
 9095TIP3    H251481   3.572   0.567   2.321
 9096TIP3   OH251482   3.538   0.297   2.386
 9096TIP3    H151483   3.540   0.248   2.471
 9096TIP3    H251484   3.458   0.255   2.347
 9097TIP3   OH251485   2.081   0.363   2.843
 9097TIP3    H151486   2.149   0.292   2.835
 9097TIP3    H251487   2.134   0.438   2.877
 9098TIP3   OH251488   3.720   0.276   2.052
 9098TIP3    H151489   3.764   0.207   1.999
 9098TIP3    H251490   3.794   0.329   2.087
 9099TIP3   OH251491   1.911   0.266   2.347
 9099TIP3    H151492   1.825   0.305   2.330
 9099TIP3    H251493   1.968   0.332   2.302
 9100TIP3   OH251494   3.471   0.065   2.802
 9100TIP3    H151495   3.486   0.116   2.720
 9100TIP3    H251496   3.374   0.056   2.806
 9101TIP3   OH251497   3.603   0.189   2.616
 9101TIP3    H151498   3.666   0.125   2.582
 9101TIP3    H251499   3.663   0.263   2.642
 9102TIP3   OH251500   2.193   0.107   2.580
 9102TIP3    H151501   2.125   0.135   2.517
 9102TIP3    H251502   2.211   0.015   2.549
 9103TIP3   OH251503   2.090   0.129   2.186
 9103TIP3    H151504   2.088   0.174   2.101
 9103TIP3    H251505   2.004   0.157   2.223
 9104TIP3   OH251506   3.195   0.169   2.685
 9104TIP3    H151507   3.138   0.147   2.609
 9104TIP3    H251508   3.163   0.106   2.750
 9105TIP3   OH251509   3.327   0.171   2.289
 9105TIP3    H151510   3.238   0.209   2.307
 9105TIP3    H251511   3.304   0.076   2.289
 9106TIP3   OH251512   2.072   1.662   2.260
 9106TIP3    H151513   1.976   1.657   2.242
 9106TIP3    H251514   2.089   1.750   2.221
 9107TIP3   OH251515   2.249   0.244   1.996
 9107TIP3    H151516   2.279   0.186   1.923
 9107TIP3    H251517   2.291   0.203   2.074
 9108TIP3   OH251518   2.939   1.808   2.079
 9108TIP3    H151519   3.036   1.804   2.068
 9108TIP3    H251520   2.915   1.751   2.003
 9109TIP3   OH251521   2.207   1.754   1.954
 9109TIP3    H151522   2.178   1.765   2.046
 9109TIP3    H251523   2.276   1.687   1.964
 9110TIP3   OH251524   3.830   0.663   2.474
 9110TIP3    H151525   3.845   0.754   2.505
 9110TIP3    H251526   3.768   0.675   2.400
 9111TIP3   OH251527   3.884   0.925   2.662
 9111TIP3    H151528   3.911   0.901   2.752
 9111TIP3    H251529   3.947   0.997   2.642
 9112TIP3   OH251530   5.141   0.454   2.548
 9112TIP3    H151531   5.169   0.396   2.623
 9112TIP3    H251532   5.226   0.485   2.516
 9113TIP3   OH251533   4.028   0.629   2.771
 9113TIP3    H151534   4.023   0.533   2.789
 9113TIP3    H251535   4.045   0.626   2.675
 9114TIP3   OH251536   4.469   0.792   2.771
 9114TIP3    H151537   4.550   0.773   2.721
 9114TIP3    H251538   4.406   0.751   2.707
 9115TIP3   OH251539   5.275   0.328   2.728
 9115TIP3    H151540   5.232   0.339   2.815
 9115TIP3    H251541   5.365   0.357   2.747
 9116TIP3   OH251542   3.943   1.259   2.305
 9116TIP3    H151543   3.911   1.298   2.222
 9116TIP3    H251544   3.904   1.313   2.375
 9117TIP3   OH251545   4.596   0.146   2.873
 9117TIP3    H151546   4.630   0.056   2.859
 9117TIP3    H251547   4.517   0.144   2.816
 9118TIP3   OH251548   4.841   0.913   2.286
 9118TIP3    H151549   4.770   0.969   2.325
 9118TIP3    H251550   4.916   0.975   2.286
 9119TIP3   OH251551   4.859   0.815   1.998
 9119TIP3    H151552   4.871   0.795   2.093
 9119TIP3    H251553   4.904   0.740   1.958
 9120TIP3   OH251554   4.325   0.979   2.584
 9120TIP3    H151555   4.318   0.962   2.488
 9120TIP3    H251556   4.414   0.950   2.603
 9121TIP3   OH251557   5.482   0.068   2.210
 9121TIP3    H151558   5.395   0.052   2.252
 9121TIP3    H251559   5.481   0.163   2.189
 9122TIP3   OH251560   4.245   0.903   2.306
 9122TIP3    H151561   4.189   0.978   2.276
 9122TIP3    H251562   4.187   0.827   2.291
 9123TIP3   OH251563   5.563   1.434   2.016
 9123TIP3    H151564   5.585   1.518   1.975
 9123TIP3    H251565   5.648   1.385   2.012
 9124TIP3   OH251566   4.185   1.707   2.504
 9124TIP3    H151567   4.252   1.657   2.557
 9124TIP3    H251568   4.105   1.661   2.529
 9125TIP3   OH251569   5.090   1.776   2.077
 9125TIP3    H151570   5.163   1.716   2.050
 9125TIP3    H251571   5.111   1.781   2.172
 9126TIP3   OH251572   5.072   1.721   2.358
 9126TIP3    H151573   4.979   1.744   2.346
 9126TIP3    H251574   5.069   1.642   2.414
 9127TIP3   OH251575   4.775   0.378   2.015
 9127TIP3    H151576   4.739   0.359   2.104
 9127TIP3    H251577   4.734   0.302   1.972
 9128TIP3   OH251578   4.373   0.656   2.562
 9128TIP3    H151579   4.289   0.609   2.549
 9128TIP3    H251580   4.419   0.624   2.481
 9129TIP3   OH251581   4.921   0.703   2.423
 9129TIP3    H151582   4.889   0.774   2.363
 9129TIP3    H251583   4.998   0.669   2.376
 9130TIP3   OH251584   4.434   0.393   1.915
 9130TIP3    H151585   4.386   0.357   1.993
 9130TIP3    H251586   4.365   0.449   1.873
 9131TIP3   OH251587   3.815   0.346   2.640
 9131TIP3    H151588   3.871   0.424   2.648
 9131TIP3    H251589   3.832   0.316   2.549
 9132TIP3   OH251590   3.899   0.429   2.183
 9132TIP3    H151591   3.957   0.469   2.115
 9132TIP3    H251592   3.841   0.506   2.202
 9133TIP3   OH251593   4.652   0.467   2.675
 9133TIP3    H151594   4.592   0.392   2.662
 9133TIP3    H251595   4.731   0.421   2.713
 9134TIP3   OH251596   4.077   0.534   2.521
 9134TIP3    H151597   4.005   0.544   2.456
 9134TIP3    H251598   4.133   0.461   2.487
 9135TIP3   OH251599   4.458   0.582   2.308
 9135TIP3    H151600   4.555   0.590   2.297
 9135TIP3    H251601   4.423   0.651   2.250
 9136TIP3   OH251602   5.159   0.330   2.967
 9136TIP3    H151603   5.112   0.411   2.997
 9136TIP3    H251604   5.088   0.276   2.927
 9137TIP3   OH251605   4.332   0.702   2.036
 9137TIP3    H151606   4.299   0.658   1.955
 9137TIP3    H251607   4.412   0.744   1.999
 9138TIP3   OH251608   4.669   1.115   2.309
 9138TIP3    H151609   4.605   1.076   2.248
 9138TIP3    H251610   4.617   1.180   2.361
 9139TIP3   OH251611   5.027   0.436   2.097
 9139TIP3    H151612   4.936   0.438   2.060
 9139TIP3    H251613   5.045   0.529   2.116
 9140TIP3   OH251614   5.104   0.657   2.225
 9140TIP3    H151615   5.153   0.596   2.284
 9140TIP3    H251616   5.177   0.695   2.175
 9141TIP3   OH251617   4.120   1.088   2.739
 9141TIP3    H151618   4.200   1.061   2.690
 9141TIP3    H251619   4.121   1.035   2.818
 9142TIP3   OH251620   4.883   1.218   2.119
 9142TIP3    H151621   4.871   1.312   2.136
 9142TIP3    H251622   4.820   1.178   2.183
 9143TIP3   OH251623   5.599   0.647   2.205
 9143TIP3    H151624   5.549   0.612   2.127
 9143TIP3    H251625   5.627   0.735   2.174
 9144TIP3   OH251626   5.519   1.452   2.287
 9144TIP3    H151627   5.433   1.411   2.299
 9144TIP3    H251628   5.528   1.458   2.189
 9145TIP3   OH251629   5.181   0.914   2.902
 9145TIP3    H151630   5.105   0.971   2.884
 9145TIP3    H251631   5.137   0.826   2.907
 9146TIP3   OH251632   4.002   0.900   2.084
 9146TIP3    H151633   4.037   0.987   2.114
 9146TIP3    H251634   3.922   0.921   2.032
 9147TIP3   OH251635   4.610   1.401   1.886
 9147TIP3    H151636   4.582   1.380   1.796
 9147TIP3    H251637   4.596   1.315   1.929
 9148TIP3   OH251638   4.126   1.114   2.178
 9148TIP3    H151639   4.062   1.162   2.235
 9148TIP3    H251640   4.176   1.186   2.136
 9149TIP3   OH251641   5.000   0.342   2.364
 9149TIP3    H151642   4.980   0.403   2.292
 9149TIP3    H251643   5.048   0.398   2.430
 9150TIP3   OH251644   4.713   0.528   2.425
 9150TIP3    H151645   4.800   0.567   2.451
 9150TIP3    H251646   4.686   0.501   2.516
 9151TIP3   OH251647   4.793   0.199   2.467
 9151TIP3    H151648   4.788   0.225   2.560
 9151TIP3    H251649   4.871   0.251   2.438
 9152TIP3   OH251650   4.332   0.326   2.169
 9152TIP3    H151651   4.317   0.397   2.233
 9152TIP3    H251652   4.424   0.307   2.197
 9153TIP3   OH251653   4.191   1.344   2.037
 9153TIP3    H151654   4.268   1.366   2.092
 9153TIP3    H251655   4.238   1.294   1.966
 9154TIP3   OH251656   3.998   0.635   1.999
 9154TIP3    H151657   4.035   0.719   2.032
 9154TIP3    H251658   3.940   0.668   1.929
 9155TIP3   OH251659   4.791   1.621   1.900
 9155TIP3    H151660   4.743   1.536   1.889
 9155TIP3    H251661   4.874   1.596   1.854
 9156TIP3   OH251662   5.299   1.626   1.983
 9156TIP3    H151663   5.282   1.534   1.959
 9156TIP3    H251664   5.337   1.653   1.899
 9157TIP3   OH251665   4.355   1.176   1.897
 9157TIP3    H151666   4.337   1.088   1.932
 9157TIP3    H251667   4.431   1.154   1.838
 9158TIP3   OH251668   4.883   1.294   1.842
 9158TIP3    H151669   4.877   1.276   1.937
 9158TIP3    H251670   4.896   1.200   1.815
 9159TIP3   OH251671   4.460   0.998   2.141
 9159TIP3    H151672   4.394   0.952   2.197
 9159TIP3    H251673   4.490   0.926   2.083
 9160TIP3   OH251674   4.570   0.817   1.937
 9160TIP3    H151675   4.579   0.864   1.851
 9160TIP3    H251676   4.664   0.803   1.959
 9161TIP3   OH251677   3.911   1.328   2.022
 9161TIP3    H151678   4.008   1.316   2.014
 9161TIP3    H251679   3.878   1.264   1.954
 9162TIP3   OH251680   5.607   0.909   2.471
 9162TIP3    H151681   5.533   0.851   2.501
 9162TIP3    H251682   5.642   0.947   2.554
 9163TIP3   OH251683   5.647   0.894   2.110
 9163TIP3    H151684   5.557   0.896   2.073
 9163TIP3    H251685   5.642   0.941   2.195
 9164TIP3   OH251686   5.432   0.635   1.967
 9164TIP3    H151687   5.475   0.670   1.886
 9164TIP3    H251688   5.403   0.546   1.936
 9165TIP3   OH251689   5.388   0.758   2.520
 9165TIP3    H151690   5.310   0.704   2.500
 9165TIP3    H251691   5.362   0.797   2.605
 9166TIP3   OH251692   5.393   0.379   1.910
 9166TIP3    H151693   5.443   0.328   1.977
 9166TIP3    H251694   5.304   0.338   1.906
 9167TIP3   OH251695   5.310   0.550   2.373
 9167TIP3    H151696   5.359   0.463   2.371
 9167TIP3    H251697   5.386   0.611   2.370
 9168TIP3   OH251698   5.439   0.314   2.369
 9168TIP3    H151699   5.457   0.253   2.444
 9168TIP3    H251700   5.360   0.272   2.330
 9169TIP3   OH251701   3.799   0.637   2.957
 9169TIP3    H151702   3.858   0.657   2.882
 9169TIP3    H251703   3.783   0.724   2.994
 9170TIP3   OH251704   5.607   0.263   2.061
 9170TIP3    H151705   5.647   0.208   1.991
 9170TIP3    H251706   5.682   0.317   2.094
 9171TIP3   OH251707   3.810   0.242   2.369
 9171TIP3    H151708   3.715   0.260   2.352
 9171TIP3    H251709   3.849   0.289   2.292
 9172TIP3   OH251710   4.830   0.267   2.742
 9172TIP3    H151711   4.768   0.208   2.787
 9172TIP3    H251712   4.903   0.208   2.714
 9173TIP3   OH251713   5.346   0.048   2.730
 9173TIP3    H151714   5.389   0.126   2.690
 9173TIP3    H251715   5.288   0.087   2.797
 9174TIP3   OH251716   5.554   0.176   2.570
 9174TIP3    H151717   5.611   0.100   2.586
 9174TIP3    H251718   5.605   0.253   2.604
 9175TIP3   OH251719   5.034   0.094   2.687
 9175TIP3    H151720   5.094   0.033   2.642
 9175TIP3    H251721   5.057   0.072   2.780
 9176TIP3   OH251722   5.213   0.197   2.291
 9176TIP3    H151723   5.124   0.240   2.300
 9176TIP3    H251724   5.200   0.116   2.342
 9177TIP3   OH251725   4.094   0.200   2.021
 9177TIP3    H151726   4.166   0.172   1.961
 9177TIP3    H251727   4.141   0.253   2.088
 9178TIP3   OH251728   4.639   0.319   2.249
 9178TIP3    H151729   4.666   0.250   2.314
 9178TIP3    H251730   4.662   0.398   2.304
 9179TIP3   OH251731   4.822   1.796   2.103
 9179TIP3    H151732   4.918   1.795   2.087
 9179TIP3    H251733   4.794   1.745   2.025
 9180TIP3   OH251734   4.132   1.755   1.935
 9180TIP3    H151735   4.113   1.812   2.010
 9180TIP3    H251736   4.140   1.665   1.971
 9181TIP3   OH251737   6.875   1.008   2.550
 9181TIP3    H151738   6.843   1.100   2.555
 9181TIP3    H251739   6.825   0.975   2.472
 9182TIP3   OH251740   6.738   0.896   2.934
 9182TIP3    H151741   6.806   0.828   2.932
 9182TIP3    H251742   6.692   0.886   2.850
 9183TIP3   OH251743   5.769   0.672   2.463
 9183TIP3    H151744   5.724   0.758   2.462
 9183TIP3    H251745   5.706   0.621   2.411
 9184TIP3   OH251746   5.782   0.926   2.689
 9184TIP3    H151747   5.844   0.856   2.721
 9184TIP3    H251748   5.830   0.957   2.611
 9185TIP3   OH251749   6.821   1.763   2.793
 9185TIP3    H151750   6.882   1.714   2.735
 9185TIP3    H251751   6.802   1.689   2.853
 9186TIP3   OH251752   6.563   1.203   2.999
 9186TIP3    H151753   6.586   1.149   2.923
 9186TIP3    H251754   6.640   1.189   3.057
 9187TIP3   OH251755   6.231   0.410   2.705
 9187TIP3    H151756   6.233   0.501   2.671
 9187TIP3    H251757   6.184   0.362   2.635
 9188TIP3   OH251758   6.999   0.440   2.569
 9188TIP3    H151759   7.053   0.396   2.636
 9188TIP3    H251760   7.067   0.495   2.525
 9189TIP3   OH251761   5.908   0.688   2.772
 9189TIP3    H151762   5.921   0.619   2.838
 9189TIP3    H251763   5.931   0.642   2.688
 9190TIP3   OH251764   6.369   0.824   2.719
 9190TIP3    H151765   6.434   0.770   2.767
 9190TIP3    H251766   6.322   0.752   2.671
 9191TIP3   OH251767   6.800   1.264   2.452
 9191TIP3    H151768   6.783   1.258   2.356
 9191TIP3    H251769   6.760   1.349   2.476
 9192TIP3   OH251770   5.793   1.230   2.249
 9192TIP3    H151771   5.785   1.275   2.162
 9192TIP3    H251772   5.794   1.306   2.311
 9193TIP3   OH251773   6.963   1.591   2.629
 9193TIP3    H151774   6.987   1.504   2.589
 9193TIP3    H251775   7.047   1.637   2.610
 9194TIP3   OH251776   7.110   1.376   2.483
 9194TIP3    H151777   7.098   1.317   2.406
 9194TIP3    H251778   7.142   1.314   2.550
 9195TIP3   OH251779   6.744   0.927   2.328
 9195TIP3    H151780   6.671   0.989   2.310
 9195TIP3    H251781   6.809   0.942   2.257
 9196TIP3   OH251782   6.737   0.848   1.984
 9196TIP3    H151783   6.798   0.887   2.050
 9196TIP3    H251784   6.756   0.754   1.995
 9197TIP3   OH251785   7.074   0.892   2.405
 9197TIP3    H151786   7.012   0.941   2.463
 9197TIP3    H251787   7.149   0.879   2.467
 9198TIP3   OH251788   6.206   0.999   2.591
 9198TIP3    H151789   6.199   0.938   2.516
 9198TIP3    H251790   6.269   0.951   2.650
 9199TIP3   OH251791   6.375   1.364   2.863
 9199TIP3    H151792   6.362   1.312   2.783
 9199TIP3    H251793   6.447   1.317   2.910
 9200TIP3   OH251794   6.948   0.882   2.166
 9200TIP3    H151795   7.002   0.872   2.250
 9200TIP3    H251796   7.014   0.922   2.104
 9201TIP3   OH251797   6.691   1.579   2.543
 9201TIP3    H151798   6.787   1.582   2.561
 9201TIP3    H251799   6.686   1.609   2.451
 9202TIP3   OH251800   7.316   0.108   2.173
 9202TIP3    H151801   7.225   0.113   2.135
 9202TIP3    H251802   7.365   0.168   2.114
 9203TIP3   OH251803   6.155   0.884   2.321
 9203TIP3    H151804   6.116   0.974   2.318
 9203TIP3    H251805   6.087   0.829   2.280
 9204TIP3   OH251806   7.448   1.500   2.003
 9204TIP3    H151807   7.484   1.587   2.031
 9204TIP3    H251808   7.530   1.448   2.005
 9205TIP3   OH251809   6.705   1.805   2.367
 9205TIP3    H151810   6.704   1.812   2.270
 9205TIP3    H251811   6.689   1.897   2.394
 9206TIP3   OH251812   6.056   1.701   2.531
 9206TIP3    H151813   6.093   1.745   2.609
 9206TIP3    H251814   5.973   1.751   2.525
 9207TIP3   OH251815   6.991   1.747   2.051
 9207TIP3    H151816   7.043   1.672   2.014
 9207TIP3    H251817   6.994   1.730   2.148
 9208TIP3   OH251818   6.962   1.745   2.313
 9208TIP3    H151819   6.870   1.761   2.346
 9208TIP3    H251820   6.987   1.665   2.361
 9209TIP3   OH251821   7.118   1.000   2.011
 9209TIP3    H151822   7.106   0.987   1.914
 9209TIP3    H251823   7.215   1.008   2.016
 9210TIP3   OH251824   6.636   0.345   2.041
 9210TIP3    H151825   6.621   0.291   2.119
 9210TIP3    H251826   6.598   0.286   1.972
 9211TIP3   OH251827   6.268   0.643   2.544
 9211TIP3    H151828   6.173   0.618   2.536
 9211TIP3    H251829   6.303   0.627   2.453
 9212TIP3   OH251830   6.812   0.679   2.412
 9212TIP3    H151831   6.800   0.770   2.377
 9212TIP3    H251832   6.879   0.643   2.349
 9213TIP3   OH251833   6.860   0.689   2.718
 9213TIP3    H151834   6.871   0.731   2.631
 9213TIP3    H251835   6.904   0.603   2.703
 9214TIP3   OH251836   6.324   0.390   1.918
 9214TIP3    H151837   6.281   0.355   1.999
 9214TIP3    H251838   6.247   0.421   1.868
 9215TIP3   OH251839   5.715   0.399   2.637
 9215TIP3    H151840   5.803   0.385   2.670
 9215TIP3    H251841   5.730   0.389   2.541
 9216TIP3   OH251842   5.783   0.445   2.167
 9216TIP3    H151843   5.838   0.491   2.099
 9216TIP3    H251844   5.729   0.521   2.195
 9217TIP3   OH251845   6.009   0.563   2.530
 9217TIP3    H151846   5.926   0.607   2.500
 9217TIP3    H251847   6.012   0.482   2.475
 9218TIP3   OH251848   6.346   0.598   2.283
 9218TIP3    H151849   6.432   0.592   2.240
 9218TIP3    H251850   6.292   0.648   2.219
 9219TIP3   OH251851   6.218   0.708   2.037
 9219TIP3    H151852   6.179   0.654   1.967
 9219TIP3    H251853   6.301   0.735   1.992
 9220TIP3   OH251854   6.605   0.616   2.824
 9220TIP3    H151855   6.697   0.620   2.789
 9220TIP3    H251856   6.609   0.664   2.908
 9221TIP3   OH251857   6.102   0.299   2.459
 9221TIP3    H151858   6.024   0.253   2.498
 9221TIP3    H251859   6.155   0.222   2.431
 9222TIP3   OH251860   6.553   1.153   2.261
 9222TIP3    H151861   6.484   1.090   2.229
 9222TIP3    H251862   6.518   1.175   2.351
 9223TIP3   OH251863   6.887   0.393   2.092
 9223TIP3    H151864   6.790   0.387   2.070
 9223TIP3    H251865   6.904   0.489   2.094
 9224TIP3   OH251866   6.998   0.615   2.199
 9224TIP3    H151867   7.093   0.625   2.219
 9224TIP3    H251868   6.989   0.692   2.140
 9225TIP3   OH251869   6.764   1.271   2.162
 9225TIP3    H151870   6.724   1.361   2.177
 9225TIP3    H251871   6.687   1.214   2.181
 9226TIP3   OH251872   7.599   0.617   2.162
 9226TIP3    H151873   7.510   0.595   2.131
 9226TIP3    H251874   7.582   0.712   2.164
 9227TIP3   OH251875   7.313   1.500   2.244
 9227TIP3    H151876   7.259   1.422   2.258
 9227TIP3    H251877   7.359   1.484   2.159
 9228TIP3   OH251878   6.272   1.418   2.569
 9228TIP3    H151879   6.318   1.495   2.530
 9228TIP3    H251880   6.211   1.393   2.499
 9229TIP3   OH251881   5.929   0.941   2.025
 9229TIP3    H151882   5.971   0.988   2.100
 9229TIP3    H251883   5.833   0.942   2.042
 9230TIP3   OH251884   6.431   1.180   2.504
 9230TIP3    H151885   6.372   1.255   2.523
 9230TIP3    H251886   6.407   1.119   2.576
 9231TIP3   OH251887   6.337   1.666   2.451
 9231TIP3    H151888   6.239   1.672   2.458
 9231TIP3    H251889   6.366   1.747   2.499
 9232TIP3   OH251890   7.100   1.322   2.049
 9232TIP3    H151891   7.103   1.271   2.133
 9232TIP3    H251892   7.015   1.291   2.013
 9233TIP3   OH251893   7.517   1.752   2.061
 9233TIP3    H151894   7.567   1.811   2.003
 9233TIP3    H251895   7.430   1.796   2.058
 9234TIP3   OH251896   7.151   1.189   2.281
 9234TIP3    H151897   7.126   1.097   2.262
 9234TIP3    H251898   7.249   1.180   2.288
 9235TIP3   OH251899   6.488   1.437   1.887
 9235TIP3    H151900   6.464   1.388   1.807
 9235TIP3    H251901   6.425   1.401   1.952
 9236TIP3   OH251902   6.361   1.344   2.127
 9236TIP3    H151903   6.436   1.297   2.169
 9236TIP3    H251904   6.373   1.435   2.162
 9237TIP3   OH251905   6.033   1.112   2.204
 9237TIP3    H151906   5.944   1.143   2.234
 9237TIP3    H251907   6.056   1.182   2.140
 9238TIP3   OH251908   6.877   0.333   2.349
 9238TIP3    H151909   6.885   0.385   2.266
 9238TIP3    H251910   6.920   0.393   2.415
 9239TIP3   OH251911   6.667   1.523   2.191
 9239TIP3    H151912   6.577   1.555   2.211
 9239TIP3    H251913   6.712   1.607   2.171
 9240TIP3   OH251914   6.599   0.492   2.445
 9240TIP3    H151915   6.675   0.553   2.433
 9240TIP3    H251916   6.532   0.552   2.479
 9241TIP3   OH251917   6.678   0.213   2.492
 9241TIP3    H151918   6.650   0.306   2.483
 9241TIP3    H251919   6.771   0.225   2.465
 9242TIP3   OH251920   6.397   1.596   2.198
 9242TIP3    H151921   6.394   1.678   2.142
 9242TIP3    H251922   6.386   1.635   2.288
 9243TIP3   OH251923   6.221   0.324   2.155
 9243TIP3    H151924   6.200   0.396   2.217
 9243TIP3    H251925   6.312   0.305   2.187
 9244TIP3   OH251926   7.122   0.792   2.772
 9244TIP3    H151927   7.029   0.777   2.796
 9244TIP3    H251928   7.165   0.714   2.814
 9245TIP3   OH251929   6.073   1.351   2.044
 9245TIP3    H151930   6.145   1.375   2.105
 9245TIP3    H251931   6.125   1.311   1.973
 9246TIP3   OH251932   5.877   0.650   2.003
 9246TIP3    H151933   5.913   0.738   2.028
 9246TIP3    H251934   5.828   0.672   1.922
 9247TIP3   OH251935   6.012   0.023   2.843
 9247TIP3    H151936   5.993   0.111   2.806
 9247TIP3    H251937   5.976  -0.036   2.774
 9248TIP3   OH251938   5.839   1.457   2.393
 9248TIP3    H151939   5.787   1.526   2.437
 9248TIP3    H251940   5.927   1.495   2.395
 9249TIP3   OH251941   6.685   1.641   1.884
 9249TIP3    H151942   6.638   1.555   1.891
 9249TIP3    H251943   6.767   1.611   1.838
 9250TIP3   OH251944   7.137   1.561   1.899
 9250TIP3    H151945   7.167   1.499   1.968
 9250TIP3    H251946   7.217   1.571   1.844
 9251TIP3   OH251947   6.225   1.154   1.878
 9251TIP3    H151948   6.254   1.127   1.967
 9251TIP3    H251949   6.310   1.145   1.829
 9252TIP3   OH251950   6.783   1.306   1.853
 9252TIP3    H151951   6.752   1.289   1.944
 9252TIP3    H251952   6.781   1.213   1.819
 9253TIP3   OH251953   6.357   0.984   2.145
 9253TIP3    H151954   6.286   0.937   2.193
 9253TIP3    H251955   6.394   0.912   2.092
 9254TIP3   OH251956   6.478   0.792   1.942
 9254TIP3    H151957   6.454   0.815   1.850
 9254TIP3    H251958   6.571   0.826   1.944
 9255TIP3   OH251959   7.383   1.015   1.906
 9255TIP3    H151960   7.349   0.987   1.818
 9255TIP3    H251961   7.367   1.113   1.904
 9256TIP3   OH251962   6.428   1.833   2.080
 9256TIP3    H151963   6.520   1.829   2.108
 9256TIP3    H251964   6.436   1.900   2.009
 9257TIP3   OH251965   5.794   1.313   1.996
 9257TIP3    H151966   5.892   1.318   2.003
 9257TIP3    H251967   5.780   1.250   1.921
 9258TIP3   OH251968   7.408   1.121   2.290
 9258TIP3    H151969   7.504   1.126   2.279
 9258TIP3    H251970   7.403   1.072   2.375
 9259TIP3   OH251971   7.468   0.970   2.506
 9259TIP3    H151972   7.387   0.913   2.506
 9259TIP3    H251973   7.529   0.904   2.541
 9260TIP3   OH251974   7.546   0.914   2.104
 9260TIP3    H151975   7.484   0.932   2.030
 9260TIP3    H251976   7.498   0.951   2.180
 9261TIP3   OH251977   7.407   0.633   1.908
 9261TIP3    H151978   7.348   0.687   1.963
 9261TIP3    H251979   7.345   0.574   1.864
 9262TIP3   OH251980   7.269   0.801   2.563
 9262TIP3    H151981   7.238   0.719   2.518
 9262TIP3    H251982   7.216   0.795   2.645
 9263TIP3   OH251983   5.768   0.842   2.989
 9263TIP3    H151984   5.749   0.831   2.895
 9263TIP3    H251985   5.865   0.824   2.997
 9264TIP3   OH251986   7.266   0.382   1.857
 9264TIP3    H151987   7.283   0.374   1.951
 9264TIP3    H251988   7.169   0.367   1.855
 9265TIP3   OH251989   7.209   0.548   2.440
 9265TIP3    H151990   7.228   0.455   2.414
 9265TIP3    H251991   7.249   0.595   2.363
 9266TIP3   OH251992   7.260   0.593   2.888
 9266TIP3    H151993   7.350   0.624   2.910
 9266TIP3    H251994   7.242   0.534   2.962
 9267TIP3   OH251995   7.261   0.284   2.374
 9267TIP3    H151996   7.311   0.251   2.452
 9267TIP3    H251997   7.272   0.211   2.308
 9268TIP3   OH251998   7.481   0.288   2.050
 9268TIP3    H151999   7.535   0.236   1.989
 9268TIP3    H252000   7.492   0.377   2.013
 9269TIP3   OH252001   5.739   0.280   2.377
 9269TIP3    H152002   5.643   0.268   2.364
 9269TIP3    H252003   5.762   0.329   2.296
 9270TIP3   OH252004   7.176   1.737   2.556
 9270TIP3    H152005   7.245   1.730   2.486
 9270TIP3    H252006   7.190   1.827   2.588
 9271TIP3   OH252007   7.206   0.162   2.767
 9271TIP3    H152008   7.279   0.148   2.703
 9271TIP3    H252009   7.130   0.120   2.722
 9272TIP3   OH252010   7.401   0.174   2.590
 9272TIP3    H152011   7.456   0.095   2.571
 9272TIP3    H252012   7.470   0.244   2.598
 9273TIP3   OH252013   5.938   0.125   2.568
 9273TIP3    H152014   5.859   0.113   2.512
 9273TIP3    H252015   5.961   0.032   2.591
 9274TIP3   OH252016   5.863   0.112   2.186
 9274TIP3    H152017   5.888   0.156   2.102
 9274TIP3    H252018   5.777   0.150   2.207
 9275TIP3   OH252019   6.419   0.114   2.572
 9275TIP3    H152020   6.507   0.151   2.589
 9275TIP3    H252021   6.405   0.061   2.653
 9276TIP3   OH252022   6.962   0.062   2.694
 9276TIP3    H152023   6.909   0.049   2.615
 9276TIP3    H252024   6.970  -0.030   2.724
 9277TIP3   OH252025   7.053   0.152   2.212
 9277TIP3    H152026   7.011   0.238   2.231
 9277TIP3    H252027   7.084   0.126   2.301
 9278TIP3   OH252028   5.969   0.247   1.984
 9278TIP3    H152029   6.027   0.191   1.928
 9278TIP3    H252030   6.030   0.272   2.056
 9279TIP3   OH252031   6.492   0.281   2.284
 9279TIP3    H152032   6.526   0.237   2.364
 9279TIP3    H252033   6.540   0.365   2.291
 9280TIP3   OH252034   6.728   1.790   2.097
 9280TIP3    H152035   6.822   1.797   2.067
 9280TIP3    H252036   6.695   1.741   2.018
 9281TIP3   OH252037   7.360   1.737   2.351
 9281TIP3    H152038   7.349   1.649   2.308
 9281TIP3    H252039   7.376   1.792   2.272
 9282TIP3   OH252040   7.576   0.695   2.481
 9282TIP3    H152041   7.563   0.748   2.401
 9282TIP3    H252042   7.498   0.638   2.473
 9283TIP3   OH252043   7.566   0.390   2.637
 9283TIP3    H152044   7.661   0.391   2.660
 9283TIP3    H252045   7.575   0.375   2.540
 9284TIP3   OH252046   7.491   1.859   2.549
 9284TIP3    H152047   7.452   1.819   2.468
 9284TIP3    H252048   7.494   1.779   2.607
 9285TIP3   OH252049   7.564   1.645   2.692
 9285TIP3    H152050   7.575   1.551   2.675
 9285TIP3    H252051   7.657   1.672   2.685
 9286TIP3   OH252052   7.520   0.701   2.922
 9286TIP3    H152053   7.568   0.633   2.872
 9286TIP3    H252054   7.566   0.701   3.008
 9287TIP3   OH252055   7.542   0.296   2.384
 9287TIP3    H152056   7.453   0.290   2.348
 9287TIP3    H252057   7.593   0.305   2.303
 9288TIP3   OH252058   1.169   2.893   2.580
 9288TIP3    H152059   1.205   2.981   2.596
 9288TIP3    H252060   1.147   2.901   2.484
 9289TIP3   OH252061   1.104   2.766   2.900
 9289TIP3    H152062   1.103   2.767   2.997
 9289TIP3    H252063   1.201   2.763   2.887
 9290TIP3   OH252064   1.457   3.027   2.746
 9290TIP3    H152065   1.427   2.981   2.827
 9290TIP3    H252066   1.441   3.117   2.774
 9291TIP3   OH252067   0.138   2.497   2.356
 9291TIP3    H152068   0.189   2.576   2.379
 9291TIP3    H252069   0.054   2.508   2.405
 9292TIP3   OH252070   0.161   2.825   2.717
 9292TIP3    H152071   0.187   2.736   2.750
 9292TIP3    H252072   0.215   2.831   2.637
 9293TIP3   OH252073   1.153   3.578   2.759
 9293TIP3    H152074   1.242   3.547   2.730
 9293TIP3    H252075   1.169   3.625   2.842
 9294TIP3   OH252076   0.909   3.049   2.944
 9294TIP3    H152077   0.917   2.966   2.895
 9294TIP3    H252078   0.988   3.039   3.001
 9295TIP3   OH252079   1.296   2.307   2.545
 9295TIP3    H152080   1.363   2.246   2.577
 9295TIP3    H252081   1.334   2.393   2.572
 9296TIP3   OH252082   0.286   2.580   2.741
 9296TIP3    H152083   0.220   2.542   2.804
 9296TIP3    H252084   0.310   2.508   2.679
 9297TIP3   OH252085   0.767   2.703   2.715
 9297TIP3    H152086   0.759   2.631   2.782
 9297TIP3    H252087   0.714   2.660   2.644
 9298TIP3   OH252088   1.149   3.145   2.435
 9298TIP3    H152089   1.129   3.144   2.340
 9298TIP3    H252090   1.118   3.236   2.457
 9299TIP3   OH252091   0.105   3.124   2.277
 9299TIP3    H152092   0.110   3.176   2.193
 9299TIP3    H252093   0.136   3.187   2.344
 9300TIP3   OH252094   0.819   1.949   2.835
 9300TIP3    H152095   0.785   1.858   2.828
 9300TIP3    H252096   0.737   1.996   2.863
 9301TIP3   OH252097   1.351   3.462   2.617
 9301TIP3    H152098   1.371   3.377   2.572
 9301TIP3    H252099   1.433   3.512   2.599
 9302TIP3   OH252100   1.467   3.257   2.495
 9302TIP3    H152101   1.413   3.219   2.423
 9302TIP3    H252102   1.466   3.183   2.558
 9303TIP3   OH252103   1.084   2.848   2.318
 9303TIP3    H152104   1.031   2.930   2.310
 9303TIP3    H252105   1.149   2.858   2.246
 9304TIP3   OH252106   1.082   2.711   1.988
 9304TIP3    H152107   1.134   2.755   2.057
 9304TIP3    H252108   1.115   2.620   1.994
 9305TIP3   OH252109   1.435   2.829   2.409
 9305TIP3    H152110   1.379   2.825   2.489
 9305TIP3    H252111   1.518   2.790   2.448
 9306TIP3   OH252112   0.722   3.249   2.843
 9306TIP3    H152113   0.748   3.249   2.750
 9306TIP3    H252114   0.791   3.192   2.882
 9307TIP3   OH252115   1.297   2.789   2.175
 9307TIP3    H152116   1.353   2.804   2.255
 9307TIP3    H252117   1.350   2.833   2.104
 9308TIP3   OH252118   1.068   3.419   2.503
 9308TIP3    H152119   1.080   3.464   2.589
 9308TIP3    H252120   1.047   3.491   2.442
 9309TIP3   OH252121   1.672   1.888   2.202
 9309TIP3    H152122   1.587   1.891   2.253
 9309TIP3    H252123   1.639   1.923   2.119
 9310TIP3   OH252124   0.357   2.804   2.395
 9310TIP3    H152125   0.392   2.881   2.346
 9310TIP3    H252126   0.429   2.739   2.384
 9311TIP3   OH252127   1.802   3.349   2.023
 9311TIP3    H152128   1.827   3.443   2.033
 9311TIP3    H252129   1.890   3.307   2.036
 9312TIP3   OH252130   0.139   3.379   2.963
 9312TIP3    H152131   0.177   3.292   2.942
 9312TIP3    H252132   0.142   3.368   3.062
 9313TIP3   OH252133   1.033   3.688   2.354
 9313TIP3    H152134   1.028   3.705   2.258
 9313TIP3    H252135   1.030   3.780   2.388
 9314TIP3   OH252136   0.421   3.576   2.536
 9314TIP3    H152137   0.403   3.574   2.630
 9314TIP3    H252138   0.336   3.549   2.497
 9315TIP3   OH252139   1.349   3.630   2.042
 9315TIP3    H152140   1.403   3.559   1.998
 9315TIP3    H252141   1.353   3.607   2.137
 9316TIP3   OH252142   1.301   3.634   2.317
 9316TIP3    H152143   1.206   3.655   2.336
 9316TIP3    H252144   1.316   3.563   2.379
 9317TIP3   OH252145   0.577   2.056   2.955
 9317TIP3    H152146   0.487   2.032   2.926
 9317TIP3    H252147   0.553   2.128   3.016
 9318TIP3   OH252148   1.444   2.895   1.988
 9318TIP3    H152149   1.441   2.910   1.892
 9318TIP3    H252150   1.540   2.892   2.003
 9319TIP3   OH252151   1.015   2.222   2.004
 9319TIP3    H152152   0.988   2.194   2.094
 9319TIP3    H252153   0.945   2.176   1.952
 9320TIP3   OH252154   0.608   2.553   2.544
 9320TIP3    H152155   0.515   2.521   2.542
 9320TIP3    H252156   0.649   2.480   2.493
 9321TIP3   OH252157   1.149   2.628   2.452
 9321TIP3    H152158   1.126   2.709   2.400
 9321TIP3    H252159   1.207   2.586   2.387
 9322TIP3   OH252160   0.641   2.293   1.887
 9322TIP3    H152161   0.609   2.241   1.965
 9322TIP3    H252162   0.571   2.358   1.875
 9323TIP3   OH252163   0.117   2.253   2.633
 9323TIP3    H152164   0.211   2.239   2.652
 9323TIP3    H252165   0.115   2.249   2.536
 9324TIP3   OH252166   0.109   2.330   2.159
 9324TIP3    H152167   0.171   2.370   2.096
 9324TIP3    H252168   0.114   2.397   2.233
 9325TIP3   OH252169   0.881   2.287   2.618
 9325TIP3    H152170   0.787   2.263   2.613
 9325TIP3    H252171   0.920   2.229   2.687
 9326TIP3   OH252172   0.354   2.447   2.503
 9326TIP3    H152173   0.268   2.453   2.457
 9326TIP3    H252174   0.365   2.349   2.503
 9327TIP3   OH252175   0.760   2.560   2.246
 9327TIP3    H152176   0.783   2.475   2.289
 9327TIP3    H252177   0.664   2.552   2.245
 9328TIP3   OH252178   1.318   2.205   2.952
 9328TIP3    H152179   1.234   2.180   2.989
 9328TIP3    H252180   1.328   2.141   2.879
 9329TIP3   OH252181   0.549   2.607   2.032
 9329TIP3    H152182   0.521   2.522   1.998
 9329TIP3    H252183   0.645   2.606   2.016
 9330TIP3   OH252184   0.403   2.186   2.530
 9330TIP3    H152185   0.421   2.093   2.548
 9330TIP3    H252186   0.489   2.211   2.486
 9331TIP3   OH252187   0.890   3.032   2.280
 9331TIP3    H152188   0.819   2.986   2.231
 9331TIP3    H252189   0.843   3.055   2.364
 9332TIP3   OH252190   1.255   2.295   2.072
 9332TIP3    H152191   1.167   2.279   2.029
 9332TIP3    H252192   1.241   2.383   2.112
 9333TIP3   OH252193   1.310   2.526   2.219
 9333TIP3    H152194   1.399   2.524   2.257
 9333TIP3    H252195   1.319   2.596   2.151
 9334TIP3   OH252196   1.068   3.166   2.129
 9334TIP3    H152197   1.050   3.256   2.162
 9334TIP3    H252198   1.008   3.111   2.184
 9335TIP3   OH252199   1.609   3.403   2.226
 9335TIP3    H152200   1.581   3.339   2.293
 9335TIP3    H252201   1.672   3.350   2.173
 9336TIP3   OH252202   0.618   3.314   2.573
 9336TIP3    H152203   0.655   3.399   2.543
 9336TIP3    H252204   0.552   3.301   2.504
 9337TIP3   OH252205   0.256   2.789   2.041
 9337TIP3    H152206   0.329   2.839   2.085
 9337TIP3    H252207   0.181   2.805   2.100
 9338TIP3   OH252208   0.778   3.096   2.515
 9338TIP3    H152209   0.716   3.167   2.540
 9338TIP3    H252210   0.764   3.026   2.580
 9339TIP3   OH252211   0.666   3.557   2.428
 9339TIP3    H152212   0.570   3.571   2.447
 9339TIP3    H252213   0.701   3.627   2.484
 9340TIP3   OH252214   1.428   3.221   2.015
 9340TIP3    H152215   1.462   3.177   2.096
 9340TIP3    H252216   1.342   3.177   2.007
 9341TIP3   OH252217   1.855   3.619   2.070
 9341TIP3    H152218   1.915   3.687   2.037
 9341TIP3    H252219   1.778   3.674   2.095
 9342TIP3   OH252220   1.489   3.074   2.255
 9342TIP3    H152221   1.465   2.998   2.311
 9342TIP3    H252222   1.587   3.071   2.255
 9343TIP3   OH252223   0.827   3.327   1.890
 9343TIP3    H152224   0.816   3.275   1.809
 9343TIP3    H252225   0.768   3.279   1.950
 9344TIP3   OH252226   0.682   3.243   2.139
 9344TIP3    H152227   0.767   3.225   2.184
 9344TIP3    H252228   0.686   3.341   2.150
 9345TIP3   OH252229   0.371   3.013   2.188
 9345TIP3    H152230   0.280   3.034   2.219
 9345TIP3    H252231   0.392   3.090   2.131
 9346TIP3   OH252232   1.202   2.147   2.334
 9346TIP3    H152233   1.212   2.216   2.266
 9346TIP3    H252234   1.232   2.194   2.413
 9347TIP3   OH252235   1.001   3.430   2.198
 9347TIP3    H152236   0.909   3.463   2.198
 9347TIP3    H252237   1.049   3.509   2.168
 9348TIP3   OH252238   0.978   2.371   2.383
 9348TIP3    H152239   1.027   2.446   2.421
 9348TIP3    H252240   0.920   2.347   2.459
 9349TIP3   OH252241   0.968   2.079   2.475
 9349TIP3    H152242   0.935   2.166   2.504
 9349TIP3    H252243   1.047   2.105   2.424
 9350TIP3   OH252244   0.735   3.500   2.168
 9350TIP3    H152245   0.732   3.585   2.119
 9350TIP3    H252246   0.718   3.538   2.258
 9351TIP3   OH252247   0.571   2.174   2.121
 9351TIP3    H152248   0.574   2.238   2.195
 9351TIP3    H252249   0.660   2.135   2.137
 9352TIP3   OH252250   0.431   3.235   2.036
 9352TIP3    H152251   0.520   3.244   2.078
 9352TIP3    H252252   0.452   3.165   1.970
 9353TIP3   OH252253   0.249   2.501   1.988
 9353TIP3    H152254   0.284   2.586   2.018
 9353TIP3    H252255   0.181   2.525   1.923
 9354TIP3   OH252256   1.626   3.538   3.000
 9354TIP3    H152257   1.627   3.572   2.909
 9354TIP3    H252258   1.641   3.623   3.048
 9355TIP3   OH252259   0.314   2.000   2.892
 9355TIP3    H152260   0.301   2.007   2.795
 9355TIP3    H252261   0.311   1.902   2.898
 9356TIP3   OH252262   0.231   3.382   2.472
 9356TIP3    H152263   0.137   3.396   2.455
 9356TIP3    H252264   0.266   3.422   2.390
 9357TIP3   OH252265   1.034   3.523   1.886
 9357TIP3    H152266   0.978   3.443   1.898
 9357TIP3    H252267   1.113   3.484   1.841
 9358TIP3   OH252268   1.485   3.455   1.885
 9358TIP3    H152269   1.487   3.386   1.954
 9358TIP3    H252270   1.570   3.441   1.839
 9359TIP3   OH252271   0.562   3.039   1.898
 9359TIP3    H152272   0.580   2.995   1.983
 9359TIP3    H252273   0.651   3.037   1.857
 9360TIP3   OH252274   1.141   3.186   1.859
 9360TIP3    H152275   1.096   3.175   1.946
 9360TIP3    H252276   1.133   3.092   1.829
 9361TIP3   OH252277   0.701   2.866   2.142
 9361TIP3    H152278   0.683   2.802   2.212
 9361TIP3    H252279   0.739   2.803   2.076
 9362TIP3   OH252280   0.811   2.700   1.959
 9362TIP3    H152281   0.821   2.745   1.875
 9362TIP3    H252282   0.903   2.695   1.990
 9363TIP3   OH252283   1.734   2.909   1.895
 9363TIP3    H152284   1.714   2.884   1.802
 9363TIP3    H252285   1.732   3.008   1.887
 9364TIP3   OH252286   0.786   3.753   2.099
 9364TIP3    H152287   0.881   3.765   2.115
 9364TIP3    H252288   0.783   3.789   2.008
 9365TIP3   OH252289   0.164   3.250   2.044
 9365TIP3    H152290   0.262   3.258   2.041
 9365TIP3    H252291   0.150   3.194   1.965
 9366TIP3   OH252292   0.099   3.747   2.490
 9366TIP3    H152293   0.003   3.764   2.486
 9366TIP3    H252294   0.108   3.701   2.575
 9367TIP3   OH252295   0.156   3.571   2.709
 9367TIP3    H152296   0.163   3.476   2.695
 9367TIP3    H252297   0.062   3.576   2.740
 9368TIP3   OH252298   1.771   3.027   2.247
 9368TIP3    H152299   1.852   3.076   2.270
 9368TIP3    H252300   1.771   2.956   2.313
 9369TIP3   OH252301   1.858   2.803   2.105
 9369TIP3    H152302   1.804   2.822   2.024
 9369TIP3    H252303   1.847   2.888   2.150
 9370TIP3   OH252304   0.096   2.150   2.348
 9370TIP3    H152305  -0.002   2.147   2.342
 9370TIP3    H252306   0.113   2.196   2.263
 9371TIP3   OH252307   1.557   3.636   2.587
 9371TIP3    H152308   1.601   3.626   2.500
 9371TIP3    H252309   1.592   3.721   2.619
 9372TIP3   OH252310   0.525   3.504   2.835
 9372TIP3    H152311   0.470   3.446   2.782
 9372TIP3    H252312   0.609   3.454   2.832
 9373TIP3   OH252313   1.040   2.144   2.790
 9373TIP3    H152314   0.984   2.084   2.842
 9373TIP3    H252315   1.071   2.084   2.720
 9374TIP3   OH252316   1.746   2.066   2.557
 9374TIP3    H152317   1.812   1.997   2.536
 9374TIP3    H252318   1.808   2.136   2.588
 9375TIP3   OH252319   0.276   1.941   2.631
 9375TIP3    H152320   0.231   1.966   2.548
 9375TIP3    H252321   0.334   1.870   2.603
 9376TIP3   OH252322   0.230   1.936   2.166
 9376TIP3    H152323   0.257   1.998   2.095
 9376TIP3    H252324   0.191   1.999   2.231
 9377TIP3   OH252325   0.734   1.987   2.570
 9377TIP3    H152326   0.799   2.031   2.510
 9377TIP3    H252327   0.792   1.972   2.646
 9378TIP3   OH252328   1.436   1.947   2.302
 9378TIP3    H152329   1.369   2.010   2.332
 9378TIP3    H252330   1.445   1.887   2.382
 9379TIP3   OH252331   0.198   3.587   2.258
 9379TIP3    H152332   0.103   3.582   2.241
 9379TIP3    H252333   0.206   3.684   2.251
 9380TIP3   OH252334   0.329   2.124   2.000
 9380TIP3    H152335   0.407   2.086   1.955
 9380TIP3    H252336   0.374   2.166   2.075
 9381TIP3   OH252337   0.877   2.151   2.213
 9381TIP3    H152338   0.891   2.102   2.296
 9381TIP3    H252339   0.848   2.238   2.250
 9382TIP3   OH252340   1.075   3.694   2.092
 9382TIP3    H152341   1.170   3.692   2.071
 9382TIP3    H252342   1.045   3.641   2.015
 9383TIP3   OH252343   1.721   3.599   2.364
 9383TIP3    H152344   1.682   3.528   2.309
 9383TIP3    H252345   1.722   3.674   2.300
 9384TIP3   OH252346   0.322   3.630   1.947
 9384TIP3    H152347   0.308   3.676   2.032
 9384TIP3    H252348   0.388   3.564   1.974
 9385TIP3   OH252349   3.103   2.896   2.531
 9385TIP3    H152350   3.081   2.989   2.506
 9385TIP3    H252351   3.016   2.855   2.534
 9386TIP3   OH252352   1.985   2.570   2.471
 9386TIP3    H152353   1.968   2.664   2.473
 9386TIP3    H252354   1.921   2.542   2.542
 9387TIP3   OH252355   3.056   3.680   2.775
 9387TIP3    H152356   3.107   3.620   2.717
 9387TIP3    H252357   3.055   3.632   2.857
 9388TIP3   OH252358   3.202   2.317   2.561
 9388TIP3    H152359   3.274   2.275   2.608
 9388TIP3    H252360   3.252   2.388   2.515
 9389TIP3   OH252361   2.099   2.545   2.771
 9389TIP3    H152362   2.152   2.493   2.833
 9389TIP3    H252363   2.141   2.519   2.687
 9390TIP3   OH252364   2.568   2.683   2.723
 9390TIP3    H152365   2.656   2.643   2.722
 9390TIP3    H252366   2.520   2.622   2.661
 9391TIP3   OH252367   3.034   3.135   2.433
 9391TIP3    H152368   3.002   3.126   2.341
 9391TIP3    H252369   3.006   3.228   2.453
 9392TIP3   OH252370   2.028   3.114   2.294
 9392TIP3    H152371   2.029   3.167   2.210
 9392TIP3    H252372   2.052   3.184   2.359
 9393TIP3   OH252373   3.185   3.482   2.628
 9393TIP3    H152374   3.220   3.403   2.583
 9393TIP3    H252375   3.245   3.550   2.594
 9394TIP3   OH252376   3.325   3.232   2.483
 9394TIP3    H152377   3.300   3.195   2.396
 9394TIP3    H252378   3.373   3.155   2.517
 9395TIP3   OH252379   2.959   2.803   2.286
 9395TIP3    H152380   2.910   2.887   2.285
 9395TIP3    H252381   3.050   2.830   2.259
 9396TIP3   OH252382   2.951   2.698   1.988
 9396TIP3    H152383   2.983   2.735   2.072
 9396TIP3    H252384   3.003   2.615   1.986
 9397TIP3   OH252385   3.346   2.827   2.422
 9397TIP3    H152386   3.263   2.835   2.475
 9397TIP3    H252387   3.407   2.779   2.482
 9398TIP3   OH252388   2.454   2.902   2.594
 9398TIP3    H152389   2.408   2.842   2.533
 9398TIP3    H252390   2.479   2.842   2.667
 9399TIP3   OH252391   2.633   3.260   2.872
 9399TIP3    H152392   2.622   3.197   2.800
 9399TIP3    H252393   2.662   3.200   2.943
 9400TIP3   OH252394   2.470   2.819   2.933
 9400TIP3    H152395   2.498   2.754   2.866
 9400TIP3    H252396   2.554   2.843   2.974
 9401TIP3   OH252397   3.209   2.782   2.180
 9401TIP3    H152398   3.271   2.772   2.254
 9401TIP3    H252399   3.270   2.820   2.112
 9402TIP3   OH252400   2.954   3.390   2.485
 9402TIP3    H152401   3.003   3.451   2.543
 9402TIP3    H252402   2.886   3.447   2.448
 9403TIP3   OH252403   2.295   2.773   2.362
 9403TIP3    H152404   2.293   2.855   2.311
 9403TIP3    H252405   2.319   2.707   2.295
 9404TIP3   OH252406   3.686   3.336   2.015
 9404TIP3    H152407   3.726   3.424   2.022
 9404TIP3    H252408   3.766   3.279   2.019
 9405TIP3   OH252409   2.894   3.705   2.363
 9405TIP3    H152410   2.914   3.712   2.268
 9405TIP3    H252411   2.905   3.799   2.393
 9406TIP3   OH252412   2.287   3.597   2.526
 9406TIP3    H152413   2.305   3.570   2.618
 9406TIP3    H252414   2.195   3.569   2.513
 9407TIP3   OH252415   3.367   2.895   1.995
 9407TIP3    H152416   3.345   2.896   1.900
 9407TIP3    H252417   3.464   2.896   1.991
 9408TIP3   OH252418   2.898   2.244   1.973
 9408TIP3    H152419   2.894   2.222   2.067
 9408TIP3    H252420   2.829   2.179   1.943
 9409TIP3   OH252421   2.462   2.503   2.559
 9409TIP3    H152422   2.380   2.450   2.557
 9409TIP3    H252423   2.507   2.477   2.477
 9410TIP3   OH252424   3.032   2.596   2.439
 9410TIP3    H152425   3.003   2.680   2.396
 9410TIP3    H252426   3.089   2.566   2.364
 9411TIP3   OH252427   3.098   2.553   2.713
 9411TIP3    H152428   3.066   2.605   2.637
 9411TIP3    H252429   3.122   2.470   2.669
 9412TIP3   OH252430   2.543   2.267   1.901
 9412TIP3    H152431   2.498   2.232   1.981
 9412TIP3    H252432   2.494   2.348   1.882
 9413TIP3   OH252433   1.935   2.251   2.622
 9413TIP3    H152434   1.906   2.339   2.652
 9413TIP3    H252435   2.023   2.247   2.663
 9414TIP3   OH252436   2.758   2.314   2.664
 9414TIP3    H152437   2.689   2.259   2.625
 9414TIP3    H252438   2.818   2.250   2.707
 9415TIP3   OH252439   2.181   2.409   2.550
 9415TIP3    H152440   2.124   2.464   2.491
 9415TIP3    H252441   2.206   2.331   2.495
 9416TIP3   OH252442   2.545   2.456   2.296
 9416TIP3    H152443   2.638   2.454   2.271
 9416TIP3    H252444   2.508   2.525   2.238
 9417TIP3   OH252445   2.452   2.587   2.048
 9417TIP3    H152446   2.415   2.547   1.967
 9417TIP3    H252447   2.538   2.616   2.009
 9418TIP3   OH252448   2.310   2.181   2.466
 9418TIP3    H152449   2.260   2.113   2.516
 9418TIP3    H252450   2.376   2.127   2.422
 9419TIP3   OH252451   2.796   3.021   2.280
 9419TIP3    H152452   2.722   2.978   2.234
 9419TIP3    H252453   2.751   3.049   2.363
 9420TIP3   OH252454   3.158   2.292   2.053
 9420TIP3    H152455   3.069   2.332   2.052
 9420TIP3    H252456   3.211   2.369   2.082
 9421TIP3   OH252457   3.156   2.513   2.220
 9421TIP3    H152458   3.244   2.480   2.246
 9421TIP3    H252459   3.187   2.581   2.157
 9422TIP3   OH252460   2.977   3.169   2.129
 9422TIP3    H152461   2.939   3.254   2.160
 9422TIP3    H252462   2.915   3.107   2.172
 9423TIP3   OH252463   3.726   2.481   2.218
 9423TIP3    H152464   3.649   2.481   2.159
 9423TIP3    H252465   3.741   2.576   2.230
 9424TIP3   OH252466   3.530   3.409   2.225
 9424TIP3    H152467   3.488   3.338   2.276
 9424TIP3    H252468   3.586   3.360   2.161
 9425TIP3   OH252469   3.275   2.830   2.932
 9425TIP3    H152470   3.220   2.783   2.998
 9425TIP3    H252471   3.290   2.758   2.869
 9426TIP3   OH252472   2.515   3.304   2.588
 9426TIP3    H152473   2.572   3.383   2.585
 9426TIP3    H252474   2.457   3.318   2.512
 9427TIP3   OH252475   2.123   2.810   2.044
 9427TIP3    H152476   2.165   2.879   2.099
 9427TIP3    H252477   2.028   2.815   2.067
 9428TIP3   OH252478   2.656   3.078   2.500
 9428TIP3    H152479   2.610   3.156   2.536
 9428TIP3    H252480   2.611   3.007   2.549
 9429TIP3   OH252481   2.550   3.557   2.452
 9429TIP3    H152482   2.455   3.573   2.464
 9429TIP3    H252483   2.584   3.636   2.500
 9430TIP3   OH252484   3.316   3.200   2.049
 9430TIP3    H152485   3.330   3.150   2.133
 9430TIP3    H252486   3.225   3.172   2.031
 9431TIP3   OH252487   3.743   3.620   2.051
 9431TIP3    H152488   3.819   3.680   2.047
 9431TIP3    H252489   3.673   3.679   2.019
 9432TIP3   OH252490   3.388   3.049   2.271
 9432TIP3    H152491   3.370   2.962   2.312
 9432TIP3    H252492   3.486   3.046   2.266
 9433TIP3   OH252493   2.704   3.342   1.892
 9433TIP3    H152494   2.698   3.289   1.811
 9433TIP3    H252495   2.651   3.286   1.952
 9434TIP3   OH252496   2.583   3.245   2.134
 9434TIP3    H152497   2.651   3.211   2.194
 9434TIP3    H252498   2.596   3.342   2.152
 9435TIP3   OH252499   2.253   2.994   2.193
 9435TIP3    H152500   2.173   3.025   2.241
 9435TIP3    H252501   2.287   3.076   2.153
 9436TIP3   OH252502   3.092   2.209   2.313
 9436TIP3    H152503   3.140   2.231   2.230
 9436TIP3    H252504   3.136   2.263   2.380
 9437TIP3   OH252505   2.867   3.409   2.197
 9437TIP3    H152506   2.784   3.459   2.212
 9437TIP3    H252507   2.929   3.479   2.177
 9438TIP3   OH252508   2.838   2.372   2.406
 9438TIP3    H152509   2.901   2.447   2.404
 9438TIP3    H252510   2.809   2.371   2.499
 9439TIP3   OH252511   2.926   2.075   2.470
 9439TIP3    H152512   2.880   2.159   2.461
 9439TIP3    H252513   3.007   2.101   2.421
 9440TIP3   OH252514   2.610   3.503   2.195
 9440TIP3    H152515   2.613   3.587   2.144
 9440TIP3    H252516   2.592   3.538   2.286
 9441TIP3   OH252517   2.478   2.201   2.162
 9441TIP3    H152518   2.477   2.284   2.214
 9441TIP3    H252519   2.570   2.171   2.175
 9442TIP3   OH252520   3.352   2.610   2.778
 9442TIP3    H152521   3.253   2.611   2.777
 9442TIP3    H252522   3.364   2.563   2.862
 9443TIP3   OH252523   2.295   3.237   2.046
 9443TIP3    H152524   2.376   3.271   2.090
 9443TIP3    H252525   2.334   3.195   1.967
 9444TIP3   OH252526   2.100   2.515   1.964
 9444TIP3    H152527   2.154   2.573   2.019
 9444TIP3    H252528   2.052   2.581   1.912
 9445TIP3   OH252529   2.079   3.346   2.431
 9445TIP3    H152530   2.004   3.400   2.458
 9445TIP3    H252531   2.124   3.412   2.375
 9446TIP3   OH252532   2.930   3.520   1.893
 9446TIP3    H152533   2.865   3.448   1.913
 9446TIP3    H252534   2.990   3.473   1.832
 9447TIP3   OH252535   3.382   3.458   1.894
 9447TIP3    H152536   3.388   3.394   1.967
 9447TIP3    H252537   3.459   3.433   1.839
 9448TIP3   OH252538   2.449   3.054   1.877
 9448TIP3    H152539   2.483   3.042   1.968
 9448TIP3    H252540   2.527   3.026   1.825
 9449TIP3   OH252541   3.005   3.181   1.835
 9449TIP3    H152542   2.981   3.166   1.928
 9449TIP3    H252543   3.018   3.087   1.810
 9450TIP3   OH252544   2.592   2.872   2.144
 9450TIP3    H152545   2.517   2.829   2.187
 9450TIP3    H252546   2.619   2.805   2.079
 9451TIP3   OH252547   2.679   2.692   1.923
 9451TIP3    H152548   2.684   2.734   1.835
 9451TIP3    H252549   2.775   2.690   1.945
 9452TIP3   OH252550   3.625   2.916   1.896
 9452TIP3    H152551   3.604   2.875   1.808
 9452TIP3    H252552   3.600   3.010   1.880
 9453TIP3   OH252553   2.682   3.744   2.100
 9453TIP3    H152554   2.777   3.756   2.114
 9453TIP3    H252555   2.666   3.804   2.024
 9454TIP3   OH252556   2.027   3.207   2.029
 9454TIP3    H152557   2.124   3.214   2.027
 9454TIP3    H252558   2.008   3.155   1.948
 9455TIP3   OH252559   1.846   3.757   2.528
 9455TIP3    H152560   1.807   3.684   2.476
 9455TIP3    H252561   1.902   3.712   2.593
 9456TIP3   OH252562   2.001   3.559   2.696
 9456TIP3    H152563   1.930   3.494   2.703
 9456TIP3    H252564   2.022   3.582   2.788
 9457TIP3   OH252565   3.656   3.017   2.294
 9457TIP3    H152566   3.749   3.050   2.296
 9457TIP3    H252567   3.653   2.960   2.374
 9458TIP3   OH252568   3.699   2.829   2.508
 9458TIP3    H152569   3.627   2.769   2.538
 9458TIP3    H252570   3.777   2.798   2.559
 9459TIP3   OH252571   3.768   2.809   2.115
 9459TIP3    H152572   3.715   2.843   2.040
 9459TIP3    H252573   3.722   2.850   2.190
 9460TIP3   OH252574   3.667   2.523   1.896
 9460TIP3    H152575   3.645   2.609   1.933
 9460TIP3    H252576   3.586   2.479   1.928
 9461TIP3   OH252577   3.504   2.658   2.566
 9461TIP3    H152578   3.484   2.575   2.519
 9461TIP3    H252579   3.458   2.640   2.651
 9462TIP3   OH252580   3.511   2.216   1.884
 9462TIP3    H152581   3.495   2.273   1.963
 9462TIP3    H252582   3.423   2.217   1.845
 9463TIP3   OH252583   3.437   2.415   2.433
 9463TIP3    H152584   3.475   2.325   2.437
 9463TIP3    H252585   3.476   2.442   2.347
 9464TIP3   OH252586   3.544   2.136   2.430
 9464TIP3    H152587   3.563   2.066   2.494
 9464TIP3    H252588   3.480   2.090   2.372
 9465TIP3   OH252589   3.746   2.161   2.039
 9465TIP3    H152590   3.736   2.081   1.985
 9465TIP3    H252591   3.687   2.220   1.992
 9466TIP3   OH252592   2.155   3.618   2.932
 9466TIP3    H152593   2.184   3.553   2.999
 9466TIP3    H252594   2.216   3.594   2.858
 9467TIP3   OH252595   2.344   3.510   2.780
 9467TIP3    H152596   2.383   3.423   2.760
 9467TIP3    H252597   2.426   3.555   2.813
 9468TIP3   OH252598   2.591   3.551   2.867
 9468TIP3    H152599   2.606   3.454   2.879
 9468TIP3    H252600   2.596   3.581   2.959
 9469TIP3   OH252601   2.906   2.131   2.804
 9469TIP3    H152602   2.924   2.048   2.851
 9469TIP3    H252603   2.984   2.138   2.747
 9470TIP3   OH252604   2.192   1.965   2.563
 9470TIP3    H152605   2.105   1.940   2.528
 9470TIP3    H252606   2.230   1.877   2.576
 9471TIP3   OH252607   2.074   1.916   2.144
 9471TIP3    H152608   2.103   1.976   2.073
 9471TIP3    H252609   2.011   1.969   2.193
 9472TIP3   OH252610   2.624   1.930   2.573
 9472TIP3    H152611   2.708   1.892   2.543
 9472TIP3    H252612   2.632   1.924   2.668
 9473TIP3   OH252613   3.180   1.959   2.730
 9473TIP3    H152614   3.196   2.015   2.653
 9473TIP3    H252615   3.185   1.869   2.694
 9474TIP3   OH252616   3.352   1.960   2.326
 9474TIP3    H152617   3.314   1.989   2.243
 9474TIP3    H252618   3.300   1.881   2.350
 9475TIP3   OH252619   2.068   3.560   2.258
 9475TIP3    H152620   1.973   3.565   2.239
 9475TIP3    H252621   2.097   3.638   2.208
 9476TIP3   OH252622   2.255   2.178   2.014
 9476TIP3    H152623   2.282   2.099   1.965
 9476TIP3    H252624   2.326   2.184   2.081
 9477TIP3   OH252625   2.764   2.179   2.221
 9477TIP3    H152626   2.804   2.113   2.278
 9477TIP3    H252627   2.775   2.259   2.277
 9478TIP3   OH252628   2.963   3.685   2.103
 9478TIP3    H152629   3.024   3.730   2.044
 9478TIP3    H252630   2.926   3.625   2.034
 9479TIP3   OH252631   2.165   3.629   1.937
 9479TIP3    H152632   2.150   3.676   2.022
 9479TIP3    H252633   2.249   3.584   1.955
 9480TIP3   OH252634   5.010   2.888   2.567
 9480TIP3    H152635   4.984   2.981   2.580
 9480TIP3    H252636   4.951   2.867   2.491
 9481TIP3   OH252637   5.214   3.166   2.759
 9481TIP3    H152638   5.187   3.091   2.813
 9481TIP3    H252639   5.285   3.199   2.820
 9482TIP3   OH252640   4.267   3.221   2.922
 9482TIP3    H152641   4.182   3.187   2.893
 9482TIP3    H252642   4.330   3.183   2.858
 9483TIP3   OH252643   3.934   2.776   2.697
 9483TIP3    H152644   4.020   2.734   2.711
 9483TIP3    H252645   3.961   2.867   2.676
 9484TIP3   OH252646   4.939   3.600   2.773
 9484TIP3    H152647   5.011   3.565   2.717
 9484TIP3    H252648   4.959   3.551   2.856
 9485TIP3   OH252649   5.103   2.349   2.531
 9485TIP3    H152650   5.150   2.302   2.604
 9485TIP3    H252651   5.177   2.385   2.480
 9486TIP3   OH252652   4.437   2.717   2.712
 9486TIP3    H152653   4.515   2.662   2.707
 9486TIP3    H252654   4.370   2.657   2.670
 9487TIP3   OH252655   4.922   3.138   2.470
 9487TIP3    H152656   4.863   3.136   2.394
 9487TIP3    H252657   4.912   3.233   2.493
 9488TIP3   OH252658   5.248   2.271   2.745
 9488TIP3    H152659   5.223   2.185   2.784
 9488TIP3    H252660   5.299   2.310   2.818
 9489TIP3   OH252661   3.921   3.103   2.276
 9489TIP3    H152662   3.913   3.157   2.195
 9489TIP3    H252663   3.939   3.172   2.343
 9490TIP3   OH252664   5.104   3.513   2.587
 9490TIP3    H152665   5.141   3.423   2.571
 9490TIP3    H252666   5.180   3.569   2.561
 9491TIP3   OH252667   5.201   3.266   2.495
 9491TIP3    H152668   5.202   3.185   2.444
 9491TIP3    H252669   5.195   3.226   2.585
 9492TIP3   OH252670   4.865   2.854   2.349
 9492TIP3    H152671   4.812   2.934   2.331
 9492TIP3    H252672   4.926   2.848   2.273
 9493TIP3   OH252673   4.850   2.691   1.995
 9493TIP3    H152674   4.899   2.742   2.062
 9493TIP3    H252675   4.909   2.613   1.985
 9494TIP3   OH252676   5.212   2.795   2.409
 9494TIP3    H152677   5.145   2.830   2.472
 9494TIP3    H252678   5.277   2.754   2.471
 9495TIP3   OH252679   4.269   2.888   2.578
 9495TIP3    H152680   4.325   2.869   2.501
 9495TIP3    H252681   4.319   2.841   2.648
 9496TIP3   OH252682   5.058   2.780   2.176
 9496TIP3    H152683   5.117   2.790   2.254
 9496TIP3    H252684   5.115   2.818   2.104
 9497TIP3   OH252685   4.857   3.398   2.488
 9497TIP3    H152686   4.911   3.436   2.559
 9497TIP3    H252687   4.792   3.467   2.476
 9498TIP3   OH252688   4.268   2.794   2.304
 9498TIP3    H152689   4.217   2.873   2.274
 9498TIP3    H252690   4.210   2.754   2.371
 9499TIP3   OH252691   5.558   3.375   1.974
 9499TIP3    H152692   5.593   3.462   2.001
 9499TIP3    H252693   5.635   3.320   2.001
 9500TIP3   OH252694   4.846   3.726   2.355
 9500TIP3    H152695   4.822   3.725   2.261
 9500TIP3    H252696   4.819   3.817   2.380
 9501TIP3   OH252697   4.168   3.590   2.547
 9501TIP3    H152698   4.193   3.608   2.639
 9501TIP3    H252699   4.076   3.563   2.562
 9502TIP3   OH252700   5.118   3.646   2.037
 9502TIP3    H152701   5.156   3.560   2.011
 9502TIP3    H252702   5.116   3.636   2.135
 9503TIP3   OH252703   5.076   3.603   2.308
 9503TIP3    H152704   4.988   3.638   2.334
 9503TIP3    H252705   5.088   3.535   2.378
 9504TIP3   OH252706   4.369   2.006   2.991
 9504TIP3    H152707   4.332   1.989   2.904
 9504TIP3    H252708   4.381   2.101   2.990
 9505TIP3   OH252709   5.225   2.876   2.000
 9505TIP3    H152710   5.228   2.846   1.907
 9505TIP3    H252711   5.303   2.934   2.003
 9506TIP3   OH252712   4.764   2.254   1.977
 9506TIP3    H152713   4.747   2.249   2.073
 9506TIP3    H252714   4.749   2.161   1.955
 9507TIP3   OH252715   4.911   2.609   2.440
 9507TIP3    H152716   4.887   2.693   2.393
 9507TIP3    H252717   4.975   2.572   2.377
 9508TIP3   OH252718   5.003   2.548   2.709
 9508TIP3    H152719   4.968   2.616   2.649
 9508TIP3    H252720   5.013   2.475   2.645
 9509TIP3   OH252721   3.792   2.228   2.628
 9509TIP3    H152722   3.881   2.243   2.663
 9509TIP3    H252723   3.817   2.203   2.537
 9510TIP3   OH252724   4.685   3.046   2.276
 9510TIP3    H152725   4.621   2.995   2.220
 9510TIP3    H252726   4.628   3.058   2.356
 9511TIP3   OH252727   5.060   2.304   2.069
 9511TIP3    H152728   4.968   2.320   2.040
 9511TIP3    H252729   5.081   2.387   2.117
 9512TIP3   OH252730   5.115   2.517   2.215
 9512TIP3    H152731   5.194   2.500   2.270
 9512TIP3    H252732   5.132   2.605   2.177
 9513TIP3   OH252733   4.863   3.196   2.145
 9513TIP3    H152734   4.834   3.283   2.178
 9513TIP3    H252735   4.799   3.134   2.188
 9514TIP3   OH252736   5.602   2.548   2.195
 9514TIP3    H152737   5.579   2.519   2.105
 9514TIP3    H252738   5.611   2.645   2.178
 9515TIP3   OH252739   5.458   3.350   2.246
 9515TIP3    H152740   5.380   3.302   2.278
 9515TIP3    H252741   5.461   3.325   2.154
 9516TIP3   OH252742   5.136   2.848   2.941
 9516TIP3    H152743   5.094   2.901   2.871
 9516TIP3    H252744   5.174   2.773   2.892
 9517TIP3   OH252745   4.440   3.307   2.567
 9517TIP3    H152746   4.470   3.394   2.536
 9517TIP3    H252747   4.346   3.311   2.549
 9518TIP3   OH252748   4.019   2.830   2.020
 9518TIP3    H152749   4.057   2.895   2.084
 9518TIP3    H252750   3.924   2.830   2.044
 9519TIP3   OH252751   4.532   3.063   2.499
 9519TIP3    H152752   4.502   3.151   2.531
 9519TIP3    H252753   4.544   3.016   2.584
 9520TIP3   OH252754   4.444   3.557   2.455
 9520TIP3    H152755   4.348   3.566   2.468
 9520TIP3    H252756   4.478   3.637   2.501
 9521TIP3   OH252757   5.208   3.209   2.049
 9521TIP3    H152758   5.208   3.179   2.142
 9521TIP3    H252759   5.117   3.184   2.026
 9522TIP3   OH252760   5.625   3.633   2.043
 9522TIP3    H152761   5.646   3.709   1.985
 9522TIP3    H252762   5.553   3.672   2.097
 9523TIP3   OH252763   5.285   3.042   2.276
 9523TIP3    H152764   5.263   2.954   2.311
 9523TIP3    H252765   5.382   3.031   2.265
 9524TIP3   OH252766   4.600   3.324   1.886
 9524TIP3    H152767   4.582   3.266   1.811
 9524TIP3    H252768   4.547   3.279   1.955
 9525TIP3   OH252769   4.467   3.246   2.139
 9525TIP3    H152770   4.534   3.203   2.195
 9525TIP3    H252771   4.483   3.341   2.165
 9526TIP3   OH252772   4.149   2.997   2.183
 9526TIP3    H152773   4.069   3.039   2.223
 9526TIP3    H252774   4.189   3.072   2.136
 9527TIP3   OH252775   4.973   2.187   2.314
 9527TIP3    H152776   5.001   2.223   2.228
 9527TIP3    H252777   5.041   2.224   2.373
 9528TIP3   OH252778   4.768   3.447   2.196
 9528TIP3    H152779   4.680   3.479   2.222
 9528TIP3    H252780   4.812   3.530   2.172
 9529TIP3   OH252781   4.711   2.390   2.393
 9529TIP3    H152782   4.779   2.453   2.425
 9529TIP3    H252783   4.661   2.367   2.473
 9530TIP3   OH252784   4.768   2.074   2.460
 9530TIP3    H152785   4.793   2.111   2.546
 9530TIP3    H252786   4.837   2.111   2.401
 9531TIP3   OH252787   4.497   3.498   2.192
 9531TIP3    H152788   4.512   3.576   2.135
 9531TIP3    H252789   4.464   3.544   2.271
 9532TIP3   OH252790   5.233   2.645   2.789
 9532TIP3    H152791   5.148   2.600   2.770
 9532TIP3    H252792   5.284   2.578   2.840
 9533TIP3   OH252793   4.194   3.229   2.032
 9533TIP3    H152794   4.269   3.267   2.083
 9533TIP3    H252795   4.246   3.174   1.969
 9534TIP3   OH252796   4.024   2.528   1.988
 9534TIP3    H152797   4.045   2.621   2.004
 9534TIP3    H252798   3.930   2.533   1.966
 9535TIP3   OH252799   5.309   3.590   2.987
 9535TIP3    H152800   5.339   3.649   2.916
 9535TIP3    H252801   5.300   3.504   2.943
 9536TIP3   OH252802   3.962   3.334   2.421
 9536TIP3    H152803   3.954   3.396   2.495
 9536TIP3    H252804   3.971   3.400   2.349
 9537TIP3   OH252805   4.808   3.525   1.877
 9537TIP3    H152806   4.757   3.442   1.893
 9537TIP3    H252807   4.887   3.488   1.831
 9538TIP3   OH252808   5.246   3.440   1.896
 9538TIP3    H152809   5.259   3.368   1.962
 9538TIP3    H252810   5.336   3.458   1.864
 9539TIP3   OH252811   4.345   3.045   1.883
 9539TIP3    H152812   4.367   2.998   1.965
 9539TIP3    H252813   4.424   3.021   1.829
 9540TIP3   OH252814   4.918   3.182   1.873
 9540TIP3    H152815   4.880   3.179   1.963
 9540TIP3    H252816   4.911   3.086   1.848
 9541TIP3   OH252817   4.475   2.890   2.139
 9541TIP3    H152818   4.413   2.836   2.193
 9541TIP3    H252819   4.517   2.822   2.082
 9542TIP3   OH252820   4.583   2.711   1.951
 9542TIP3    H152821   4.579   2.719   1.854
 9542TIP3    H252822   4.677   2.688   1.966
 9543TIP3   OH252823   5.500   2.889   1.888
 9543TIP3    H152824   5.484   2.876   1.792
 9543TIP3    H252825   5.498   2.987   1.892
 9544TIP3   OH252826   4.565   3.735   2.102
 9544TIP3    H152827   4.663   3.731   2.097
 9544TIP3    H252828   4.546   3.794   2.027
 9545TIP3   OH252829   3.912   3.198   2.022
 9545TIP3    H152830   4.010   3.208   2.020
 9545TIP3    H252831   3.896   3.145   1.940
 9546TIP3   OH252832   3.889   3.537   2.685
 9546TIP3    H152833   3.818   3.474   2.703
 9546TIP3    H252834   3.903   3.571   2.775
 9547TIP3   OH252835   5.550   2.983   2.278
 9547TIP3    H152836   5.636   3.029   2.285
 9547TIP3    H252837   5.554   2.919   2.353
 9548TIP3   OH252838   5.576   2.798   2.479
 9548TIP3    H152839   5.507   2.736   2.511
 9548TIP3    H252840   5.634   2.801   2.558
 9549TIP3   OH252841   5.648   2.798   2.096
 9549TIP3    H152842   5.584   2.817   2.024
 9549TIP3    H252843   5.631   2.873   2.157
 9550TIP3   OH252844   5.525   2.496   1.930
 9550TIP3    H152845   5.490   2.576   1.887
 9550TIP3    H252846   5.455   2.432   1.901
 9551TIP3   OH252847   5.373   2.630   2.557
 9551TIP3    H152848   5.408   2.541   2.553
 9551TIP3    H252849   5.328   2.633   2.644
 9552TIP3   OH252850   5.352   2.302   1.875
 9552TIP3    H152851   5.408   2.242   1.925
 9552TIP3    H252852   5.269   2.250   1.870
 9553TIP3   OH252853   5.330   2.401   2.373
 9553TIP3    H152854   5.367   2.319   2.409
 9553TIP3    H252855   5.409   2.452   2.347
 9554TIP3   OH252856   5.373   2.452   2.915
 9554TIP3    H152857   5.464   2.426   2.932
 9554TIP3    H252858   5.327   2.413   2.995
 9555TIP3   OH252859   3.822   2.199   2.348
 9555TIP3    H152860   3.738   2.171   2.389
 9555TIP3    H252861   3.787   2.226   2.261
 9556TIP3   OH252862   5.306   3.666   2.530
 9556TIP3    H152863   5.395   3.627   2.516
 9556TIP3    H252864   5.311   3.698   2.623
 9557TIP3   OH252865   4.423   3.541   2.878
 9557TIP3    H152866   4.389   3.453   2.853
 9557TIP3    H252867   4.471   3.518   2.959
 9558TIP3   OH252868   4.840   2.103   2.747
 9558TIP3    H152869   4.794   2.040   2.805
 9558TIP3    H252870   4.918   2.050   2.716
 9559TIP3   OH252871   4.494   1.986   2.530
 9559TIP3    H152872   4.585   1.999   2.501
 9559TIP3    H252873   4.504   1.929   2.606
 9560TIP3   OH252874   5.058   1.973   2.657
 9560TIP3    H152875   5.151   1.972   2.629
 9560TIP3    H252876   5.046   1.881   2.683
 9561TIP3   OH252877   5.188   1.958   2.281
 9561TIP3    H152878   5.105   2.000   2.304
 9561TIP3    H252879   5.205   1.896   2.355
 9562TIP3   OH252880   3.952   3.541   2.250
 9562TIP3    H152881   3.859   3.535   2.222
 9562TIP3    H252882   3.970   3.636   2.229
 9563TIP3   OH252883   4.633   2.182   2.231
 9563TIP3    H152884   4.670   2.122   2.299
 9563TIP3    H252885   4.647   2.268   2.276
 9564TIP3   OH252886   4.833   3.691   2.083
 9564TIP3    H152887   4.925   3.702   2.052
 9564TIP3    H252888   4.803   3.632   2.009
 9565TIP3   OH252889   5.524   3.584   2.395
 9565TIP3    H152890   5.494   3.509   2.340
 9565TIP3    H252891   5.492   3.661   2.344
 9566TIP3   OH252892   4.118   3.631   1.942
 9566TIP3    H152893   4.094   3.651   2.033
 9566TIP3    H252894   4.190   3.566   1.954
 9567TIP3   OH252895   6.894   2.888   2.563
 9567TIP3    H152896   6.860   2.979   2.568
 9567TIP3    H252897   6.822   2.843   2.516
 9568TIP3   OH252898   7.120   3.155   2.759
 9568TIP3    H152899   7.147   3.064   2.776
 9568TIP3    H252900   7.139   3.198   2.843
 9569TIP3   OH252901   6.079   3.229   2.926
 9569TIP3    H152902   6.014   3.172   2.886
 9569TIP3    H252903   6.093   3.185   3.012
 9570TIP3   OH252904   5.792   2.758   2.677
 9570TIP3    H152905   5.824   2.667   2.662
 9570TIP3    H252906   5.843   2.809   2.615
 9571TIP3   OH252907   7.027   2.303   2.524
 9571TIP3    H152908   7.059   2.288   2.616
 9571TIP3    H252909   7.028   2.400   2.523
 9572TIP3   OH252910   6.806   3.141   2.443
 9572TIP3    H152911   6.822   3.140   2.346
 9572TIP3    H252912   6.802   3.237   2.463
 9573TIP3   OH252913   7.133   2.276   2.776
 9573TIP3    H152914   7.108   2.194   2.821
 9573TIP3    H252915   7.229   2.269   2.780
 9574TIP3   OH252916   5.809   3.107   2.267
 9574TIP3    H152917   5.811   3.161   2.185
 9574TIP3    H252918   5.785   3.172   2.333
 9575TIP3   OH252919   7.148   3.245   2.460
 9575TIP3    H152920   7.083   3.177   2.436
 9575TIP3    H252921   7.155   3.232   2.556
 9576TIP3   OH252922   6.746   2.821   2.315
 9576TIP3    H152923   6.688   2.895   2.290
 9576TIP3    H252924   6.823   2.833   2.256
 9577TIP3   OH252925   6.750   2.701   2.012
 9577TIP3    H152926   6.821   2.737   2.069
 9577TIP3    H252927   6.771   2.607   2.019
 9578TIP3   OH252928   7.111   2.825   2.413
 9578TIP3    H152929   7.040   2.853   2.476
 9578TIP3    H252930   7.172   2.776   2.474
 9579TIP3   OH252931   6.265   2.917   2.632
 9579TIP3    H152932   6.244   2.905   2.539
 9579TIP3    H252933   6.270   2.827   2.667
 9580TIP3   OH252934   6.971   2.772   2.169
 9580TIP3    H152935   7.030   2.801   2.242
 9580TIP3    H252936   7.017   2.818   2.094
 9581TIP3   OH252937   6.760   3.401   2.522
 9581TIP3    H152938   6.805   3.462   2.582
 9581TIP3    H252939   6.686   3.452   2.486
 9582TIP3   OH252940   7.311   1.927   2.149
 9582TIP3    H152941   7.217   1.929   2.174
 9582TIP3    H252942   7.342   2.016   2.173
 9583TIP3   OH252943   7.457   3.384   1.968
 9583TIP3    H152944   7.479   3.476   1.994
 9583TIP3    H252945   7.544   3.345   1.983
 9584TIP3   OH252946   6.264   2.041   2.885
 9584TIP3    H152947   6.170   2.020   2.867
 9584TIP3    H252948   6.263   2.083   2.972
 9585TIP3   OH252949   7.101   2.902   1.985
 9585TIP3    H152950   7.086   2.902   1.888
 9585TIP3    H252951   7.193   2.932   1.991
 9586TIP3   OH252952   6.688   2.268   1.994
 9586TIP3    H152953   6.652   2.267   2.084
 9586TIP3    H252954   6.658   2.179   1.967
 9587TIP3   OH252955   6.805   2.584   2.399
 9587TIP3    H152956   6.783   2.670   2.357
 9587TIP3    H252957   6.890   2.564   2.354
 9588TIP3   OH252958   6.333   2.277   1.903
 9588TIP3    H152959   6.295   2.243   1.988
 9588TIP3    H252960   6.258   2.331   1.871
 9589TIP3   OH252961   5.781   2.301   2.143
 9589TIP3    H152962   5.741   2.373   2.093
 9589TIP3    H252963   5.752   2.320   2.233
 9590TIP3   OH252964   6.521   2.300   2.651
 9590TIP3    H152965   6.435   2.335   2.677
 9590TIP3    H252966   6.556   2.273   2.737
 9591TIP3   OH252967   6.622   2.485   2.852
 9591TIP3    H152968   6.638   2.533   2.770
 9591TIP3    H252969   6.683   2.524   2.916
 9592TIP3   OH252970   6.563   3.004   2.234
 9592TIP3    H152971   6.494   2.973   2.174
 9592TIP3    H252972   6.510   3.021   2.316
 9593TIP3   OH252973   6.938   2.303   2.093
 9593TIP3    H152974   6.852   2.326   2.052
 9593TIP3    H252975   6.968   2.390   2.128
 9594TIP3   OH252976   7.023   2.511   2.223
 9594TIP3    H152977   7.101   2.502   2.281
 9594TIP3    H252978   7.034   2.599   2.183
 9595TIP3   OH252979   6.056   2.932   2.846
 9595TIP3    H152980   6.102   2.960   2.765
 9595TIP3    H252981   6.122   2.874   2.886
 9596TIP3   OH252982   6.775   3.152   2.143
 9596TIP3    H152983   6.738   3.241   2.159
 9596TIP3    H252984   6.702   3.094   2.174
 9597TIP3   OH252985   7.455   2.524   2.205
 9597TIP3    H152986   7.403   2.489   2.129
 9597TIP3    H252987   7.460   2.618   2.176
 9598TIP3   OH252988   7.301   3.397   2.241
 9598TIP3    H152989   7.256   3.327   2.291
 9598TIP3    H252990   7.362   3.349   2.183
 9599TIP3   OH252991   6.422   3.046   2.460
 9599TIP3    H152992   6.430   3.138   2.488
 9599TIP3    H252993   6.390   3.004   2.542
 9600TIP3   OH252994   6.287   3.623   2.435
 9600TIP3    H152995   6.280   3.596   2.528
 9600TIP3    H252996   6.333   3.709   2.442
 9601TIP3   OH252997   7.096   3.204   2.045
 9601TIP3    H152998   7.098   3.179   2.139
 9601TIP3    H252999   7.024   3.145   2.017
 9602TIP3   OH253000   7.552   3.627   2.058
 9602TIP3    H153001   7.574   3.715   2.023
 9602TIP3    H253002   7.463   3.646   2.088
 9603TIP3   OH253003   7.172   3.039   2.269
 9603TIP3    H153004   7.161   2.955   2.318
 9603TIP3    H253005   7.262   3.067   2.295
 9604TIP3   OH253006   6.496   3.319   1.876
 9604TIP3    H153007   6.480   3.265   1.797
 9604TIP3    H253008   6.435   3.275   1.938
 9605TIP3   OH253009   6.371   3.257   2.140
 9605TIP3    H153010   6.454   3.217   2.171
 9605TIP3    H253011   6.386   3.350   2.163
 9606TIP3   OH253012   6.862   2.199   2.327
 9606TIP3    H153013   6.888   2.245   2.245
 9606TIP3    H253014   6.923   2.238   2.392
 9607TIP3   OH253015   6.644   3.405   2.171
 9607TIP3    H153016   6.557   3.445   2.189
 9607TIP3    H253017   6.670   3.454   2.090
 9608TIP3   OH253018   6.616   2.377   2.413
 9608TIP3    H153019   6.674   2.455   2.427
 9608TIP3    H253020   6.590   2.350   2.505
 9609TIP3   OH253021   6.670   2.057   2.452
 9609TIP3    H153022   6.669   2.085   2.545
 9609TIP3    H253023   6.720   2.131   2.409
 9610TIP3   OH253024   6.402   3.516   2.216
 9610TIP3    H153025   6.411   3.592   2.154
 9610TIP3    H253026   6.348   3.555   2.287
 9611TIP3   OH253027   6.260   2.174   2.143
 9611TIP3    H153028   6.261   2.232   2.220
 9611TIP3    H253029   6.350   2.137   2.147
 9612TIP3   OH253030   6.072   3.233   2.021
 9612TIP3    H153031   6.148   3.264   2.072
 9612TIP3    H253032   6.121   3.180   1.955
 9613TIP3   OH253033   7.243   3.578   2.948
 9613TIP3    H153034   7.184   3.601   2.874
 9613TIP3    H253035   7.316   3.640   2.942
 9614TIP3   OH253036   6.024   1.988   2.776
 9614TIP3    H153037   5.973   2.068   2.759
 9614TIP3    H253038   5.954   1.919   2.776
 9615TIP3   OH253039   6.710   3.502   1.920
 9615TIP3    H153040   6.644   3.432   1.899
 9615TIP3    H253041   6.781   3.478   1.857
 9616TIP3   OH253042   7.153   3.471   1.903
 9616TIP3    H153043   7.174   3.399   1.967
 9616TIP3    H253044   7.227   3.461   1.839
 9617TIP3   OH253045   6.245   3.057   1.877
 9617TIP3    H153046   6.256   2.988   1.944
 9617TIP3    H253047   6.319   3.035   1.816
 9618TIP3   OH253048   6.790   3.178   1.843
 9618TIP3    H153049   6.767   3.164   1.937
 9618TIP3    H253050   6.788   3.084   1.815
 9619TIP3   OH253051   6.421   2.715   1.936
 9619TIP3    H153052   6.423   2.722   1.839
 9619TIP3    H253053   6.511   2.689   1.959
 9620TIP3   OH253054   7.376   2.914   1.889
 9620TIP3    H153055   7.338   2.889   1.802
 9620TIP3    H253056   7.384   3.013   1.882
 9621TIP3   OH253057   6.484   3.736   2.106
 9621TIP3    H153058   6.568   3.780   2.116
 9621TIP3    H253059   6.447   3.783   2.029
 9622TIP3   OH253060   5.790   3.210   2.007
 9622TIP3    H153061   5.888   3.211   2.007
 9622TIP3    H253062   5.771   3.153   1.929
 9623TIP3   OH253063   7.464   3.028   2.297
 9623TIP3    H153064   7.556   3.044   2.272
 9623TIP3    H253065   7.477   2.959   2.366
 9624TIP3   OH253066   7.485   2.821   2.473
 9624TIP3    H153067   7.405   2.772   2.502
 9624TIP3    H253068   7.529   2.836   2.558
 9625TIP3   OH253069   7.417   3.053   2.961
 9625TIP3    H153070   7.501   3.013   2.932
 9625TIP3    H253071   7.426   3.142   2.928
 9626TIP3   OH253072   7.472   2.808   2.134
 9626TIP3    H153073   7.438   2.829   2.045
 9626TIP3    H253074   7.446   2.889   2.183
 9627TIP3   OH253075   7.316   2.488   1.945
 9627TIP3    H153076   7.324   2.542   1.865
 9627TIP3    H253077   7.292   2.403   1.902
 9628TIP3   OH253078   7.272   2.656   2.543
 9628TIP3    H153079   7.267   2.575   2.487
 9628TIP3    H253080   7.240   2.627   2.630
 9629TIP3   OH253081   7.266   2.239   1.856
 9629TIP3    H153082   7.258   2.223   1.951
 9629TIP3    H253083   7.172   2.226   1.828
 9630TIP3   OH253084   7.241   2.450   2.370
 9630TIP3    H153085   7.229   2.354   2.384
 9630TIP3    H253086   7.334   2.451   2.338
 9631TIP3   OH253087   7.260   2.176   2.403
 9631TIP3    H153088   7.267   2.145   2.495
 9631TIP3    H253089   7.198   2.112   2.364
 9632TIP3   OH253090   7.473   2.147   2.070
 9632TIP3    H153091   7.514   2.083   2.009
 9632TIP3    H253092   7.493   2.233   2.029
 9633TIP3   OH253093   6.168   3.472   2.786
 9633TIP3    H153094   6.118   3.397   2.824
 9633TIP3    H253095   6.167   3.536   2.858
 9634TIP3   OH253096   6.718   2.064   2.756
 9634TIP3    H153097   6.709   1.995   2.823
 9634TIP3    H253098   6.815   2.064   2.743
 9635TIP3   OH253099   7.341   2.055   2.652
 9635TIP3    H153100   7.399   1.985   2.616
 9635TIP3    H253101   7.403   2.131   2.648
 9636TIP3   OH253102   6.402   1.902   2.574
 9636TIP3    H153103   6.478   1.926   2.520
 9636TIP3    H253104   6.344   1.978   2.559
 9637TIP3   OH253105   6.978   2.008   2.728
 9637TIP3    H153106   6.999   2.024   2.636
 9637TIP3    H253107   6.932   1.922   2.728
 9638TIP3   OH253108   7.080   1.987   2.314
 9638TIP3    H153109   6.999   2.041   2.314
 9638TIP3    H253110   7.048   1.896   2.331
 9639TIP3   OH253111   5.992   2.143   1.989
 9639TIP3    H153112   6.048   2.087   1.932
 9639TIP3    H253113   6.048   2.152   2.067
 9640TIP3   OH253114   6.527   2.192   2.212
 9640TIP3    H153115   6.571   2.128   2.269
 9640TIP3    H253116   6.544   2.273   2.266
 9641TIP3   OH253117   7.366   3.616   2.377
 9641TIP3    H153118   7.333   3.542   2.320
 9641TIP3    H253119   7.360   3.693   2.318
 9642TIP3   OH253120   5.969   3.590   1.883
 9642TIP3    H153121   5.938   3.650   1.950
 9642TIP3    H253122   6.053   3.554   1.916
 9643TIP3   OH253123   7.572   2.549   2.459
 9643TIP3    H153124   7.573   2.646   2.461
 9643TIP3    H253125   7.536   2.531   2.370
 9644TIP3   OH253126   7.530   3.325   2.920
 9644TIP3    H153127   7.621   3.357   2.921
 9644TIP3    H253128   7.492   3.369   2.997
 9645TIP3   OH253129   7.522   2.242   2.614
 9645TIP3    H153130   7.608   2.287   2.629
 9645TIP3    H253131   7.535   2.215   2.520
 9646TIP3   OH253132   7.521   3.722   2.568
 9646TIP3    H153133   7.453   3.682   2.509
 9646TIP3    H253134   7.541   3.645   2.623
 9647TIP3   OH253135   7.571   3.543   2.765
 9647TIP3    H153136   7.517   3.466   2.794
 9647TIP3    H253137   7.538   3.613   2.825
 9648TIP3   OH253138   7.653   2.910   2.885
 9648TIP3    H153139   7.710   2.884   2.809
 9648TIP3    H253140   7.686   2.847   2.950
 9649TIP3   OH253141   7.499   2.610   2.797
 9649TIP3    H153142   7.588   2.575   2.789
 9649TIP3    H253143   7.499   2.642   2.887
 9650TIP3   OH253144   7.515   2.169   2.331
 9650TIP3    H153145   7.419   2.182   2.347
 9650TIP3    H253146   7.512   2.158   2.233
 9651TIP3   OH253147   1.205   4.763   2.562
 9651TIP3    H153148   1.189   4.860   2.558
 9651TIP3    H253149   1.148   4.731   2.490
 9652TIP3   OH253150   1.434   4.995   2.754
 9652TIP3    H153151   1.383   4.936   2.811
 9652TIP3    H253152   1.473   5.058   2.818
 9653TIP3   OH253153   0.136   4.418   2.354
 9653TIP3    H153154   0.155   4.498   2.404
 9653TIP3    H253155   0.045   4.399   2.382
 9654TIP3   OH253156   0.133   4.694   2.652
 9654TIP3    H153157   0.157   4.606   2.681
 9654TIP3    H253158   0.219   4.740   2.650
 9655TIP3   OH253159   1.188   5.505   2.756
 9655TIP3    H153160   1.252   5.452   2.704
 9655TIP3    H253161   1.179   5.453   2.837
 9656TIP3   OH253162   0.569   4.191   2.738
 9656TIP3    H153163   0.601   4.269   2.687
 9656TIP3    H253164   0.511   4.150   2.671
 9657TIP3   OH253165   1.334   4.195   2.542
 9657TIP3    H153166   1.370   4.170   2.630
 9657TIP3    H253167   1.364   4.287   2.536
 9658TIP3   OH253168   0.717   4.583   2.729
 9658TIP3    H153169   0.774   4.530   2.787
 9658TIP3    H253170   0.701   4.521   2.656
 9659TIP3   OH253171   1.165   5.005   2.458
 9659TIP3    H153172   1.151   5.011   2.363
 9659TIP3    H253173   1.121   5.089   2.486
 9660TIP3   OH253174   1.495   4.162   2.755
 9660TIP3    H153175   1.462   4.125   2.840
 9660TIP3    H253176   1.583   4.121   2.750
 9661TIP3   OH253177   0.121   5.000   2.289
 9661TIP3    H153178   0.127   5.063   2.213
 9661TIP3    H253179   0.168   5.047   2.359
 9662TIP3   OH253180   1.343   5.347   2.592
 9662TIP3    H153181   1.392   5.264   2.573
 9662TIP3    H253182   1.416   5.411   2.601
 9663TIP3   OH253183   1.500   5.131   2.517
 9663TIP3    H153184   1.444   5.079   2.458
 9663TIP3    H253185   1.491   5.076   2.598
 9664TIP3   OH253186   1.074   4.693   2.321
 9664TIP3    H153187   1.027   4.776   2.301
 9664TIP3    H253188   1.154   4.701   2.265
 9665TIP3   OH253189   1.096   4.592   1.984
 9665TIP3    H153190   1.139   4.624   2.065
 9665TIP3    H253191   1.124   4.499   1.982
 9666TIP3   OH253192   1.464   4.721   2.431
 9666TIP3    H153193   1.380   4.732   2.479
 9666TIP3    H253194   1.522   4.683   2.500
 9667TIP3   OH253195   0.574   4.799   2.629
 9667TIP3    H153196   0.543   4.747   2.552
 9667TIP3    H253197   0.632   4.733   2.675
 9668TIP3   OH253198   1.307   4.676   2.181
 9668TIP3    H153199   1.374   4.708   2.245
 9668TIP3    H253200   1.351   4.705   2.097
 9669TIP3   OH253201   1.060   5.254   2.482
 9669TIP3    H153202   1.090   5.291   2.566
 9669TIP3    H253203   1.025   5.332   2.438
 9670TIP3   OH253204   1.683   3.794   2.185
 9670TIP3    H153205   1.600   3.809   2.236
 9670TIP3    H253206   1.714   3.885   2.172
 9671TIP3   OH253207   0.431   4.672   2.418
 9671TIP3    H153208   0.415   4.749   2.359
 9671TIP3    H253209   0.446   4.598   2.357
 9672TIP3   OH253210   1.787   5.250   1.993
 9672TIP3    H153211   1.816   5.339   2.022
 9672TIP3    H253212   1.870   5.201   2.013
 9673TIP3   OH253213   1.049   5.581   2.354
 9673TIP3    H153214   1.035   5.586   2.257
 9673TIP3    H253215   1.036   5.675   2.380
 9674TIP3   OH253216   0.412   5.449   2.555
 9674TIP3    H153217   0.424   5.417   2.648
 9674TIP3    H253218   0.320   5.423   2.536
 9675TIP3   OH253219   1.361   5.525   2.037
 9675TIP3    H153220   1.402   5.445   1.995
 9675TIP3    H253221   1.355   5.504   2.132
 9676TIP3   OH253222   1.303   5.510   2.317
 9676TIP3    H153223   1.208   5.528   2.336
 9676TIP3    H253224   1.318   5.437   2.379
 9677TIP3   OH253225   1.460   4.773   1.992
 9677TIP3    H153226   1.438   4.783   1.897
 9677TIP3    H253227   1.556   4.788   1.990
 9678TIP3   OH253228   1.039   4.141   1.997
 9678TIP3    H153229   0.989   4.143   2.081
 9678TIP3    H253230   0.989   4.068   1.955
 9679TIP3   OH253231   0.633   4.370   2.554
 9679TIP3    H153232   0.537   4.367   2.534
 9679TIP3    H253233   0.671   4.357   2.464
 9680TIP3   OH253234   1.174   4.479   2.435
 9680TIP3    H153235   1.136   4.558   2.390
 9680TIP3    H253236   1.236   4.449   2.366
 9681TIP3   OH253237   1.342   4.460   2.667
 9681TIP3    H153238   1.286   4.535   2.641
 9681TIP3    H253239   1.281   4.386   2.659
 9682TIP3   OH253240   0.684   4.161   1.932
 9682TIP3    H153241   0.619   4.117   1.990
 9682TIP3    H253242   0.624   4.221   1.882
 9683TIP3   OH253243   0.125   4.100   2.690
 9683TIP3    H153244   0.051   4.039   2.711
 9683TIP3    H253245   0.125   4.105   2.594
 9684TIP3   OH253246   0.129   4.222   2.147
 9684TIP3    H153247   0.183   4.280   2.087
 9684TIP3    H253248   0.085   4.289   2.201
 9685TIP3   OH253249   0.848   4.151   2.651
 9685TIP3    H153250   0.754   4.169   2.655
 9685TIP3    H253251   0.877   4.197   2.732
 9686TIP3   OH253252   0.370   4.344   2.487
 9686TIP3    H153253   0.285   4.370   2.446
 9686TIP3    H253254   0.354   4.249   2.507
 9687TIP3   OH253255   0.712   4.332   2.282
 9687TIP3    H153256   0.785   4.299   2.228
 9687TIP3    H253257   0.660   4.380   2.212
 9688TIP3   OH253258   1.297   4.145   2.951
 9688TIP3    H153259   1.250   4.200   3.018
 9688TIP3    H253260   1.249   4.061   2.959
 9689TIP3   OH253261   0.595   4.432   2.066
 9689TIP3    H153262   0.521   4.440   2.004
 9689TIP3    H253263   0.656   4.494   2.020
 9690TIP3   OH253264   0.947   4.364   2.832
 9690TIP3    H153265   1.016   4.360   2.764
 9690TIP3    H253266   1.002   4.362   2.912
 9691TIP3   OH253267   0.415   4.083   2.533
 9691TIP3    H153268   0.358   4.008   2.561
 9691TIP3    H253269   0.459   4.044   2.455
 9692TIP3   OH253270   0.906   4.901   2.276
 9692TIP3    H153271   0.834   4.852   2.229
 9692TIP3    H253272   0.859   4.924   2.360
 9693TIP3   OH253273   1.282   4.179   2.092
 9693TIP3    H153274   1.193   4.174   2.052
 9693TIP3    H253275   1.287   4.274   2.115
 9694TIP3   OH253276   1.329   4.408   2.218
 9694TIP3    H153277   1.401   4.377   2.276
 9694TIP3    H253278   1.372   4.485   2.176
 9695TIP3   OH253279   0.389   4.847   2.819
 9695TIP3    H153280   0.446   4.848   2.740
 9695TIP3    H253281   0.446   4.800   2.880
 9696TIP3   OH253282   1.095   5.040   2.148
 9696TIP3    H153283   1.057   5.128   2.171
 9696TIP3    H253284   1.029   4.980   2.189
 9697TIP3   OH253285   1.819   4.380   2.199
 9697TIP3    H153286   1.767   4.371   2.115
 9697TIP3    H253287   1.837   4.476   2.199
 9698TIP3   OH253288   1.650   5.263   2.253
 9698TIP3    H153289   1.597   5.196   2.298
 9698TIP3    H253290   1.684   5.218   2.174
 9699TIP3   OH253291   0.645   5.202   2.571
 9699TIP3    H153292   0.681   5.287   2.536
 9699TIP3    H253293   0.556   5.205   2.534
 9700TIP3   OH253294   0.155   4.719   2.005
 9700TIP3    H153295   0.250   4.735   2.013
 9700TIP3    H253296   0.134   4.683   2.092
 9701TIP3   OH253297   0.772   4.953   2.509
 9701TIP3    H153298   0.743   5.043   2.532
 9701TIP3    H253299   0.721   4.902   2.576
 9702TIP3   OH253300   0.662   5.443   2.447
 9702TIP3    H153301   0.568   5.440   2.475
 9702TIP3    H253302   0.692   5.522   2.495
 9703TIP3   OH253303   1.430   5.086   2.043
 9703TIP3    H153304   1.427   5.047   2.133
 9703TIP3    H253305   1.343   5.057   2.012
 9704TIP3   OH253306   1.855   5.508   2.079
 9704TIP3    H153307   1.915   5.570   2.036
 9704TIP3    H253308   1.789   5.571   2.117
 9705TIP3   OH253309   1.498   4.944   2.278
 9705TIP3    H153310   1.480   4.860   2.326
 9705TIP3    H253311   1.596   4.944   2.275
 9706TIP3   OH253312   0.812   5.216   1.879
 9706TIP3    H153313   0.798   5.173   1.793
 9706TIP3    H253314   0.756   5.160   1.936
 9707TIP3   OH253315   0.689   5.125   2.138
 9707TIP3    H153316   0.757   5.082   2.192
 9707TIP3    H253317   0.703   5.220   2.160
 9708TIP3   OH253318   0.362   4.872   2.223
 9708TIP3    H153319   0.275   4.915   2.233
 9708TIP3    H253320   0.404   4.921   2.151
 9709TIP3   OH253321   1.221   4.086   2.339
 9709TIP3    H153322   1.249   4.138   2.262
 9709TIP3    H253323   1.253   4.140   2.414
 9710TIP3   OH253324   1.006   5.318   2.194
 9710TIP3    H153325   0.920   5.349   2.228
 9710TIP3    H253326   1.041   5.401   2.156
 9711TIP3   OH253327   0.956   4.248   2.395
 9711TIP3    H153328   0.998   4.335   2.402
 9711TIP3    H253329   0.913   4.238   2.481
 9712TIP3   OH253330   1.028   3.942   2.444
 9712TIP3    H153331   0.995   4.003   2.511
 9712TIP3    H253332   1.109   3.992   2.413
 9713TIP3   OH253333   0.730   5.381   2.191
 9713TIP3    H153334   0.742   5.465   2.139
 9713TIP3    H253335   0.697   5.421   2.274
 9714TIP3   OH253336   0.572   4.069   2.173
 9714TIP3    H153337   0.572   4.155   2.217
 9714TIP3    H253338   0.667   4.047   2.178
 9715TIP3   OH253339   0.427   5.129   2.050
 9715TIP3    H153340   0.516   5.132   2.092
 9715TIP3    H253341   0.450   5.066   1.978
 9716TIP3   OH253342   0.241   4.412   1.985
 9716TIP3    H153343   0.302   4.486   1.997
 9716TIP3    H253344   0.197   4.433   1.900
 9717TIP3   OH253345   0.352   3.854   2.843
 9717TIP3    H153346   0.352   3.840   2.746
 9717TIP3    H253347   0.267   3.900   2.852
 9718TIP3   OH253348   0.211   5.258   2.465
 9718TIP3    H153349   0.121   5.280   2.436
 9718TIP3    H253350   0.258   5.298   2.390
 9719TIP3   OH253351   1.029   5.408   1.879
 9719TIP3    H153352   0.980   5.327   1.903
 9719TIP3    H253353   1.109   5.370   1.838
 9720TIP3   OH253354   1.475   5.329   1.884
 9720TIP3    H153355   1.488   5.256   1.949
 9720TIP3    H253356   1.564   5.338   1.844
 9721TIP3   OH253357   0.561   4.956   1.887
 9721TIP3    H153358   0.531   4.864   1.906
 9721TIP3    H253359   0.655   4.944   1.862
 9722TIP3   OH253360   1.138   5.071   1.866
 9722TIP3    H153361   1.106   5.057   1.958
 9722TIP3    H253362   1.134   4.978   1.833
 9723TIP3   OH253363   0.713   4.750   2.158
 9723TIP3    H153364   0.631   4.707   2.186
 9723TIP3    H253365   0.734   4.699   2.077
 9724TIP3   OH253366   0.808   4.577   1.951
 9724TIP3    H153367   0.792   4.588   1.855
 9724TIP3    H253368   0.905   4.579   1.959
 9725TIP3   OH253369   1.740   4.790   1.894
 9725TIP3    H153370   1.713   4.762   1.803
 9725TIP3    H253371   1.727   4.889   1.884
 9726TIP3   OH253372   0.800   5.615   2.104
 9726TIP3    H153373   0.897   5.622   2.095
 9726TIP3    H253374   0.771   5.675   2.032
 9727TIP3   OH253375   0.152   5.137   2.056
 9727TIP3    H153376   0.242   5.175   2.047
 9727TIP3    H253377   0.149   5.085   1.975
 9728TIP3   OH253378   0.060   5.621   2.450
 9728TIP3    H153379  -0.017   5.676   2.471
 9728TIP3    H253380   0.072   5.571   2.532
 9729TIP3   OH253381   0.143   5.464   2.664
 9729TIP3    H153382   0.159   5.373   2.632
 9729TIP3    H253383   0.182   5.464   2.754
 9730TIP3   OH253384   1.784   4.899   2.255
 9730TIP3    H153385   1.873   4.935   2.268
 9730TIP3    H253386   1.780   4.837   2.331
 9731TIP3   OH253387   1.796   4.710   2.484
 9731TIP3    H153388   1.742   4.665   2.551
 9731TIP3    H253389   1.878   4.722   2.537
 9732TIP3   OH253390   1.874   4.679   2.100
 9732TIP3    H153391   1.816   4.692   2.022
 9732TIP3    H253392   1.846   4.756   2.154
 9733TIP3   OH253393   1.666   4.394   1.958
 9733TIP3    H153394   1.687   4.453   1.884
 9733TIP3    H253395   1.642   4.313   1.910
 9734TIP3   OH253396   1.583   4.532   2.589
 9734TIP3    H153397   1.583   4.495   2.498
 9734TIP3    H253398   1.494   4.497   2.615
 9735TIP3   OH253399   0.154   4.763   2.943
 9735TIP3    H153400   0.189   4.756   2.853
 9735TIP3    H253401   0.237   4.753   2.991
 9736TIP3   OH253402   1.624   4.133   1.864
 9736TIP3    H153403   1.662   4.097   1.947
 9736TIP3    H253404   1.530   4.115   1.871
 9737TIP3   OH253405   1.547   4.330   2.382
 9737TIP3    H153406   1.555   4.235   2.403
 9737TIP3    H253407   1.636   4.344   2.347
 9738TIP3   OH253408   1.638   4.046   2.364
 9738TIP3    H153409   1.665   4.033   2.456
 9738TIP3    H253410   1.572   3.975   2.354
 9739TIP3   OH253411   0.035   4.405   2.924
 9739TIP3    H153412  -0.024   4.427   2.850
 9739TIP3    H253413  -0.026   4.436   2.997
 9740TIP3   OH253414   1.814   4.019   2.052
 9740TIP3    H153415   1.851   3.965   1.979
 9740TIP3    H253416   1.895   4.045   2.099
 9741TIP3   OH253417   0.116   4.044   2.341
 9741TIP3    H153418   0.018   4.040   2.345
 9741TIP3    H253419   0.126   4.103   2.264
 9742TIP3   OH253420   1.551   5.532   2.607
 9742TIP3    H153421   1.593   5.488   2.530
 9742TIP3    H253422   1.586   5.622   2.597
 9743TIP3   OH253423   0.243   5.482   2.917
 9743TIP3    H153424   0.239   5.466   3.013
 9743TIP3    H253425   0.332   5.447   2.896
 9744TIP3   OH253426   0.463   5.368   2.804
 9744TIP3    H153427   0.484   5.273   2.815
 9744TIP3    H253428   0.546   5.399   2.845
 9745TIP3   OH253429   0.343   3.834   2.565
 9745TIP3    H153430   0.269   3.830   2.500
 9745TIP3    H253431   0.367   3.740   2.568
 9746TIP3   OH253432   0.197   3.842   2.160
 9746TIP3    H153433   0.220   3.880   2.073
 9746TIP3    H253434   0.164   3.922   2.206
 9747TIP3   OH253435   0.726   3.842   2.578
 9747TIP3    H153436   0.777   3.819   2.500
 9747TIP3    H253437   0.747   3.936   2.591
 9748TIP3   OH253438   1.248   3.866   2.729
 9748TIP3    H153439   1.318   3.874   2.663
 9748TIP3    H253440   1.206   3.781   2.711
 9749TIP3   OH253441   1.464   3.843   2.324
 9749TIP3    H153442   1.399   3.893   2.273
 9749TIP3    H253443   1.415   3.758   2.339
 9750TIP3   OH253444   0.191   5.447   2.263
 9750TIP3    H153445   0.103   5.439   2.223
 9750TIP3    H253446   0.208   5.541   2.238
 9751TIP3   OH253447   0.326   4.001   1.989
 9751TIP3    H153448   0.404   3.953   1.955
 9751TIP3    H253449   0.353   4.021   2.080
 9752TIP3   OH253450   0.878   4.076   2.207
 9752TIP3    H153451   0.932   4.013   2.257
 9752TIP3    H253452   0.890   4.153   2.268
 9753TIP3   OH253453   1.074   5.570   2.083
 9753TIP3    H153454   1.165   5.584   2.055
 9753TIP3    H253455   1.047   5.509   2.010
 9754TIP3   OH253456   1.721   5.481   2.390
 9754TIP3    H153457   1.706   5.403   2.331
 9754TIP3    H253458   1.709   5.554   2.326
 9755TIP3   OH253459   0.309   5.514   1.952
 9755TIP3    H153460   0.300   5.551   2.041
 9755TIP3    H253461   0.380   5.449   1.967
 9756TIP3   OH253462   3.082   4.790   2.566
 9756TIP3    H153463   3.067   4.880   2.528
 9756TIP3    H253464   3.015   4.738   2.520
 9757TIP3   OH253465   3.334   4.963   2.717
 9757TIP3    H153466   3.246   4.927   2.732
 9757TIP3    H253467   3.329   5.046   2.765
 9758TIP3   OH253468   1.994   4.411   2.459
 9758TIP3    H153469   1.975   4.495   2.503
 9758TIP3    H253470   1.932   4.409   2.385
 9759TIP3   OH253471   1.991   4.683   2.677
 9759TIP3    H153472   2.027   4.648   2.761
 9759TIP3    H253473   2.057   4.750   2.655
 9760TIP3   OH253474   3.066   5.480   2.778
 9760TIP3    H153475   3.131   5.438   2.719
 9760TIP3    H253476   2.987   5.429   2.759
 9761TIP3   OH253477   2.853   4.950   3.034
 9761TIP3    H153478   2.860   4.896   2.955
 9761TIP3    H253479   2.847   4.879   3.101
 9762TIP3   OH253480   2.476   4.166   2.721
 9762TIP3    H153481   2.497   4.247   2.668
 9762TIP3    H253482   2.421   4.123   2.652
 9763TIP3   OH253483   3.222   4.214   2.555
 9763TIP3    H153484   3.290   4.144   2.573
 9763TIP3    H253485   3.274   4.287   2.519
 9764TIP3   OH253486   2.573   4.572   2.702
 9764TIP3    H153487   2.651   4.524   2.737
 9764TIP3    H253488   2.533   4.501   2.646
 9765TIP3   OH253489   3.023   5.009   2.441
 9765TIP3    H153490   3.010   5.011   2.345
 9765TIP3    H253491   2.994   5.100   2.466
 9766TIP3   OH253492   2.038   4.987   2.300
 9766TIP3    H153493   2.028   5.038   2.217
 9766TIP3    H253494   2.045   5.059   2.367
 9767TIP3   OH253495   2.727   3.838   2.811
 9767TIP3    H153496   2.751   3.745   2.819
 9767TIP3    H253497   2.652   3.845   2.874
 9768TIP3   OH253498   3.221   5.353   2.572
 9768TIP3    H153499   3.267   5.269   2.546
 9768TIP3    H253500   3.296   5.414   2.588
 9769TIP3   OH253501   3.343   5.133   2.470
 9769TIP3    H153502   3.324   5.079   2.390
 9769TIP3    H253503   3.356   5.060   2.534
 9770TIP3   OH253504   2.944   4.693   2.298
 9770TIP3    H153505   2.889   4.773   2.285
 9770TIP3    H253506   3.024   4.716   2.246
 9771TIP3   OH253507   2.975   4.592   1.996
 9771TIP3    H153508   3.039   4.623   2.064
 9771TIP3    H253509   2.990   4.497   1.998
 9772TIP3   OH253510   3.294   4.726   2.401
 9772TIP3    H153511   3.227   4.737   2.472
 9772TIP3    H253512   3.360   4.671   2.449
 9773TIP3   OH253513   2.449   4.768   2.584
 9773TIP3    H153514   2.417   4.716   2.507
 9773TIP3    H253515   2.500   4.700   2.633
 9774TIP3   OH253516   2.526   4.702   2.925
 9774TIP3    H153517   2.526   4.647   2.843
 9774TIP3    H253518   2.594   4.659   2.979
 9775TIP3   OH253519   3.178   4.667   2.165
 9775TIP3    H153520   3.222   4.694   2.249
 9775TIP3    H253521   3.238   4.709   2.098
 9776TIP3   OH253522   2.943   5.273   2.518
 9776TIP3    H153523   3.034   5.302   2.533
 9776TIP3    H253524   2.911   5.336   2.451
 9777TIP3   OH253525   2.326   4.660   2.354
 9777TIP3    H153526   2.298   4.743   2.312
 9777TIP3    H253527   2.296   4.594   2.290
 9778TIP3   OH253528   3.685   5.258   1.994
 9778TIP3    H153529   3.718   5.346   2.023
 9778TIP3    H253530   3.763   5.202   2.018
 9779TIP3   OH253531   2.929   5.576   2.338
 9779TIP3    H153532   2.912   5.588   2.242
 9779TIP3    H253533   2.918   5.668   2.369
 9780TIP3   OH253534   2.296   5.474   2.538
 9780TIP3    H153535   2.301   5.431   2.625
 9780TIP3    H253536   2.202   5.466   2.516
 9781TIP3   OH253537   3.224   5.526   2.048
 9781TIP3    H153538   3.277   5.453   2.007
 9781TIP3    H253539   3.238   5.509   2.143
 9782TIP3   OH253540   3.198   5.509   2.331
 9782TIP3    H153541   3.103   5.534   2.341
 9782TIP3    H253542   3.202   5.436   2.396
 9783TIP3   OH253543   2.494   3.906   2.944
 9783TIP3    H153544   2.411   3.875   2.903
 9783TIP3    H253545   2.477   4.001   2.945
 9784TIP3   OH253546   3.341   4.776   1.989
 9784TIP3    H153547   3.343   4.753   1.894
 9784TIP3    H253548   3.418   4.836   1.989
 9785TIP3   OH253549   2.911   4.100   2.007
 9785TIP3    H153550   2.868   4.096   2.094
 9785TIP3    H253551   2.840   4.058   1.955
 9786TIP3   OH253552   2.495   4.371   2.561
 9786TIP3    H153553   2.398   4.382   2.540
 9786TIP3    H253554   2.531   4.368   2.469
 9787TIP3   OH253555   3.052   4.473   2.390
 9787TIP3    H153556   3.010   4.552   2.349
 9787TIP3    H253557   3.113   4.448   2.318
 9788TIP3   OH253558   2.553   4.169   1.930
 9788TIP3    H153559   2.497   4.123   1.997
 9788TIP3    H253560   2.489   4.226   1.883
 9789TIP3   OH253561   1.833   4.125   2.626
 9789TIP3    H153562   1.918   4.147   2.669
 9789TIP3    H253563   1.864   4.069   2.553
 9790TIP3   OH253564   2.008   4.192   2.153
 9790TIP3    H153565   2.067   4.227   2.085
 9790TIP3    H253566   1.944   4.267   2.159
 9791TIP3   OH253567   2.764   4.184   2.635
 9791TIP3    H153568   2.680   4.142   2.663
 9791TIP3    H253569   2.829   4.129   2.684
 9792TIP3   OH253570   2.246   4.360   2.501
 9792TIP3    H153571   2.151   4.388   2.499
 9792TIP3    H253572   2.233   4.264   2.491
 9793TIP3   OH253573   2.570   4.351   2.300
 9793TIP3    H153574   2.663   4.349   2.274
 9793TIP3    H253575   2.527   4.404   2.231
 9794TIP3   OH253576   2.448   4.462   2.052
 9794TIP3    H153577   2.404   4.405   1.987
 9794TIP3    H253578   2.529   4.485   2.003
 9795TIP3   OH253579   2.751   4.429   2.831
 9795TIP3    H153580   2.798   4.379   2.762
 9795TIP3    H253581   2.822   4.471   2.881
 9796TIP3   OH253582   2.306   4.080   2.507
 9796TIP3    H153583   2.259   4.000   2.541
 9796TIP3    H253584   2.364   4.041   2.442
 9797TIP3   OH253585   2.770   4.923   2.257
 9797TIP3    H153586   2.695   4.871   2.222
 9797TIP3    H253587   2.742   4.933   2.351
 9798TIP3   OH253588   3.153   4.170   2.084
 9798TIP3    H153589   3.057   4.166   2.059
 9798TIP3    H253590   3.166   4.265   2.106
 9799TIP3   OH253591   3.220   4.395   2.200
 9799TIP3    H153592   3.292   4.382   2.266
 9799TIP3    H253593   3.240   4.482   2.161
 9800TIP3   OH253594   2.315   4.850   2.821
 9800TIP3    H153595   2.340   4.846   2.728
 9800TIP3    H253596   2.383   4.795   2.863
 9801TIP3   OH253597   2.982   5.029   2.139
 9801TIP3    H153598   2.962   5.120   2.171
 9801TIP3    H253599   2.905   4.978   2.172
 9802TIP3   OH253600   3.483   5.305   2.217
 9802TIP3    H153601   3.469   5.248   2.294
 9802TIP3    H253602   3.547   5.255   2.163
 9803TIP3   OH253603   2.536   5.188   2.574
 9803TIP3    H153604   2.570   5.279   2.566
 9803TIP3    H253605   2.463   5.190   2.511
 9804TIP3   OH253606   2.150   4.715   2.024
 9804TIP3    H153607   2.187   4.775   2.092
 9804TIP3    H253608   2.054   4.711   2.043
 9805TIP3   OH253609   2.647   4.943   2.490
 9805TIP3    H153610   2.617   5.032   2.517
 9805TIP3    H253611   2.588   4.888   2.545
 9806TIP3   OH253612   2.553   5.459   2.468
 9806TIP3    H153613   2.455   5.472   2.473
 9806TIP3    H253614   2.583   5.548   2.494
 9807TIP3   OH253615   3.296   5.098   2.026
 9807TIP3    H153616   3.296   5.070   2.120
 9807TIP3    H253617   3.221   5.046   1.994
 9808TIP3   OH253618   3.745   5.509   2.081
 9808TIP3    H153619   3.808   5.574   2.045
 9808TIP3    H253620   3.675   5.570   2.115
 9809TIP3   OH253621   3.361   4.959   2.263
 9809TIP3    H153622   3.338   4.875   2.309
 9809TIP3    H253623   3.458   4.959   2.266
 9810TIP3   OH253624   2.709   5.220   1.886
 9810TIP3    H153625   2.697   5.173   1.802
 9810TIP3    H253626   2.655   5.162   1.945
 9811TIP3   OH253627   2.580   5.135   2.128
 9811TIP3    H153628   2.655   5.092   2.174
 9811TIP3    H253629   2.594   5.228   2.158
 9812TIP3   OH253630   2.268   4.876   2.197
 9812TIP3    H153631   2.188   4.918   2.236
 9812TIP3    H253632   2.306   4.950   2.146
 9813TIP3   OH253633   3.094   4.100   2.348
 9813TIP3    H153634   3.113   4.144   2.263
 9813TIP3    H253635   3.142   4.154   2.414
 9814TIP3   OH253636   2.896   5.295   2.210
 9814TIP3    H153637   2.811   5.343   2.220
 9814TIP3    H253638   2.952   5.359   2.165
 9815TIP3   OH253639   2.836   4.272   2.384
 9815TIP3    H153640   2.903   4.342   2.400
 9815TIP3    H253641   2.809   4.246   2.476
 9816TIP3   OH253642   2.897   3.957   2.455
 9816TIP3    H153643   2.873   4.013   2.530
 9816TIP3    H253644   2.975   4.008   2.418
 9817TIP3   OH253645   2.624   5.381   2.208
 9817TIP3    H153646   2.625   5.455   2.143
 9817TIP3    H253647   2.595   5.430   2.288
 9818TIP3   OH253648   2.453   4.079   2.172
 9818TIP3    H153649   2.444   4.164   2.217
 9818TIP3    H253650   2.549   4.066   2.182
 9819TIP3   OH253651   2.304   5.116   2.045
 9819TIP3    H153652   2.379   5.146   2.101
 9819TIP3    H253653   2.354   5.071   1.975
 9820TIP3   OH253654   2.125   4.409   1.967
 9820TIP3    H153655   2.174   4.483   2.007
 9820TIP3    H253656   2.055   4.456   1.917
 9821TIP3   OH253657   2.240   3.886   2.865
 9821TIP3    H153658   2.209   3.883   2.773
 9821TIP3    H253659   2.197   3.807   2.902
 9822TIP3   OH253660   2.086   5.230   2.437
 9822TIP3    H153661   2.021   5.297   2.463
 9822TIP3    H253662   2.127   5.280   2.364
 9823TIP3   OH253663   2.921   5.404   1.884
 9823TIP3    H153664   2.868   5.322   1.890
 9823TIP3    H253665   3.004   5.370   1.843
 9824TIP3   OH253666   3.365   5.339   1.893
 9824TIP3    H153667   3.378   5.271   1.962
 9824TIP3    H253668   3.456   5.351   1.860
 9825TIP3   OH253669   2.454   4.944   1.873
 9825TIP3    H153670   2.471   4.876   1.939
 9825TIP3    H253671   2.542   4.952   1.829
 9826TIP3   OH253672   3.020   5.070   1.856
 9826TIP3    H153673   2.987   5.056   1.946
 9826TIP3    H253674   3.021   4.975   1.826
 9827TIP3   OH253675   2.586   4.757   2.138
 9827TIP3    H153676   2.521   4.698   2.179
 9827TIP3    H253677   2.626   4.697   2.072
 9828TIP3   OH253678   2.702   4.577   1.944
 9828TIP3    H153679   2.698   4.606   1.850
 9828TIP3    H253680   2.799   4.581   1.960
 9829TIP3   OH253681   3.616   4.795   1.897
 9829TIP3    H153682   3.601   4.772   1.803
 9829TIP3    H253683   3.616   4.893   1.891
 9830TIP3   OH253684   2.669   5.616   2.079
 9830TIP3    H153685   2.764   5.639   2.089
 9830TIP3    H253686   2.654   5.665   1.997
 9831TIP3   OH253687   2.018   5.097   2.031
 9831TIP3    H153688   2.116   5.101   2.026
 9831TIP3    H253689   1.998   5.043   1.951
 9832TIP3   OH253690   1.922   5.592   2.534
 9832TIP3    H153691   1.850   5.538   2.495
 9832TIP3    H253692   1.962   5.531   2.598
 9833TIP3   OH253693   1.990   5.408   2.724
 9833TIP3    H153694   1.951   5.320   2.711
 9833TIP3    H253695   1.943   5.432   2.806
 9834TIP3   OH253696   3.775   4.673   2.105
 9834TIP3    H153697   3.700   4.701   2.049
 9834TIP3    H253698   3.773   4.736   2.179
 9835TIP3   OH253699   3.503   4.387   1.961
 9835TIP3    H153700   3.560   4.451   1.917
 9835TIP3    H253701   3.529   4.305   1.918
 9836TIP3   OH253702   3.465   4.576   2.561
 9836TIP3    H153703   3.494   4.484   2.556
 9836TIP3    H253704   3.540   4.622   2.599
 9837TIP3   OH253705   3.508   4.094   1.921
 9837TIP3    H153706   3.527   4.094   2.016
 9837TIP3    H253707   3.414   4.119   1.914
 9838TIP3   OH253708   3.418   4.330   2.385
 9838TIP3    H153709   3.455   4.243   2.409
 9838TIP3    H253710   3.498   4.378   2.359
 9839TIP3   OH253711   2.056   4.141   2.809
 9839TIP3    H153712   2.089   4.059   2.848
 9839TIP3    H253713   2.080   4.209   2.872
 9840TIP3   OH253714   3.742   4.057   2.051
 9840TIP3    H153715   3.755   3.976   1.996
 9840TIP3    H253716   3.714   4.114   1.978
 9841TIP3   OH253717   1.929   4.049   2.373
 9841TIP3    H153718   1.835   4.070   2.365
 9841TIP3    H253719   1.962   4.102   2.298
 9842TIP3   OH253720   3.431   5.544   2.597
 9842TIP3    H153721   3.475   5.515   2.515
 9842TIP3    H253722   3.487   5.619   2.623
 9843TIP3   OH253723   2.922   4.006   2.753
 9843TIP3    H153724   2.846   3.964   2.799
 9843TIP3    H253725   2.971   3.925   2.731
 9844TIP3   OH253726   2.179   3.857   2.569
 9844TIP3    H153727   2.095   3.863   2.519
 9844TIP3    H253728   2.217   3.770   2.543
 9845TIP3   OH253729   2.069   3.826   2.157
 9845TIP3    H153730   2.095   3.893   2.091
 9845TIP3    H253731   2.002   3.875   2.209
 9846TIP3   OH253732   2.593   3.783   2.579
 9846TIP3    H153733   2.645   3.824   2.510
 9846TIP3    H253734   2.636   3.813   2.662
 9847TIP3   OH253735   2.066   5.435   2.269
 9847TIP3    H153736   1.971   5.451   2.254
 9847TIP3    H253737   2.101   5.515   2.227
 9848TIP3   OH253738   2.192   4.032   1.995
 9848TIP3    H153739   2.259   3.983   1.945
 9848TIP3    H253740   2.237   4.041   2.081
 9849TIP3   OH253741   2.738   4.086   2.219
 9849TIP3    H153742   2.769   4.022   2.284
 9849TIP3    H253743   2.776   4.166   2.264
 9850TIP3   OH253744   2.952   5.591   2.071
 9850TIP3    H153745   3.049   5.581   2.058
 9850TIP3    H253746   2.921   5.523   2.007
 9851TIP3   OH253747   3.589   5.485   2.376
 9851TIP3    H153748   3.556   5.423   2.307
 9851TIP3    H253749   3.593   5.567   2.323
 9852TIP3   OH253750   2.194   5.514   1.950
 9852TIP3    H153751   2.170   5.553   2.036
 9852TIP3    H253752   2.267   5.455   1.973
 9853TIP3   OH253753   5.223   5.045   2.783
 9853TIP3    H153754   5.230   4.951   2.763
 9853TIP3    H253755   5.178   5.045   2.871
 9854TIP3   OH253756   4.942   5.531   2.809
 9854TIP3    H153757   4.989   5.481   2.739
 9854TIP3    H253758   4.905   5.459   2.860
 9855TIP3   OH253759   4.722   4.989   3.018
 9855TIP3    H153760   4.714   4.975   2.924
 9855TIP3    H253761   4.816   4.979   3.036
 9856TIP3   OH253762   4.333   4.209   2.703
 9856TIP3    H153763   4.330   4.279   2.635
 9856TIP3    H253764   4.292   4.135   2.653
 9857TIP3   OH253765   5.137   4.227   2.511
 9857TIP3    H153766   5.172   4.179   2.588
 9857TIP3    H253767   5.218   4.277   2.485
 9858TIP3   OH253768   4.952   5.041   2.462
 9858TIP3    H153769   4.928   5.006   2.375
 9858TIP3    H253770   4.922   5.135   2.454
 9859TIP3   OH253771   4.175   4.259   2.923
 9859TIP3    H153772   4.212   4.347   2.932
 9859TIP3    H253773   4.233   4.220   2.855
 9860TIP3   OH253774   5.089   5.375   2.640
 9860TIP3    H153775   5.099   5.288   2.595
 9860TIP3    H253776   5.164   5.421   2.600
 9861TIP3   OH253777   5.245   5.170   2.528
 9861TIP3    H153778   5.238   5.100   2.461
 9861TIP3    H253779   5.225   5.119   2.608
 9862TIP3   OH253780   5.172   4.713   2.450
 9862TIP3    H153781   5.105   4.683   2.513
 9862TIP3    H253782   5.249   4.660   2.481
 9863TIP3   OH253783   4.341   4.778   2.557
 9863TIP3    H153784   4.261   4.769   2.502
 9863TIP3    H253785   4.329   4.709   2.622
 9864TIP3   OH253786   4.864   5.290   2.481
 9864TIP3    H153787   4.884   5.323   2.570
 9864TIP3    H253788   4.787   5.341   2.456
 9865TIP3   OH253789   5.458   3.802   2.199
 9865TIP3    H153790   5.364   3.818   2.226
 9865TIP3    H253791   5.486   3.890   2.166
 9866TIP3   OH253792   5.571   5.232   2.026
 9866TIP3    H153793   5.605   5.323   2.041
 9866TIP3    H253794   5.655   5.180   2.030
 9867TIP3   OH253795   4.817   5.596   2.351
 9867TIP3    H153796   4.803   5.603   2.255
 9867TIP3    H253797   4.805   5.689   2.379
 9868TIP3   OH253798   4.165   5.472   2.541
 9868TIP3    H153799   4.197   5.441   2.629
 9868TIP3    H253800   4.080   5.424   2.533
 9869TIP3   OH253801   5.124   5.523   2.058
 9869TIP3    H153802   5.155   5.442   2.012
 9869TIP3    H253803   5.130   5.499   2.153
 9870TIP3   OH253804   5.072   5.503   2.339
 9870TIP3    H153805   4.980   5.536   2.344
 9870TIP3    H253806   5.060   5.419   2.387
 9871TIP3   OH253807   5.236   4.776   2.005
 9871TIP3    H153808   5.222   4.757   1.911
 9871TIP3    H253809   5.331   4.797   2.007
 9872TIP3   OH253810   4.811   4.157   1.985
 9872TIP3    H153811   4.770   4.164   2.072
 9872TIP3    H253812   4.754   4.087   1.947
 9873TIP3   OH253813   4.475   4.161   1.946
 9873TIP3    H153814   4.387   4.134   1.974
 9873TIP3    H253815   4.466   4.251   1.909
 9874TIP3   OH253816   3.807   4.194   2.600
 9874TIP3    H153817   3.859   4.185   2.683
 9874TIP3    H253818   3.761   4.110   2.595
 9875TIP3   OH253819   4.590   4.116   2.695
 9875TIP3    H153820   4.511   4.170   2.707
 9875TIP3    H253821   4.659   4.184   2.672
 9876TIP3   OH253822   4.492   4.336   2.295
 9876TIP3    H153823   4.522   4.371   2.384
 9876TIP3    H253824   4.434   4.409   2.271
 9877TIP3   OH253825   4.312   4.449   2.056
 9877TIP3    H153826   4.245   4.454   1.986
 9877TIP3    H253827   4.395   4.458   2.004
 9878TIP3   OH253828   4.218   4.071   2.503
 9878TIP3    H153829   4.155   3.994   2.502
 9878TIP3    H253830   4.280   4.051   2.431
 9879TIP3   OH253831   4.643   4.921   2.274
 9879TIP3    H153832   4.569   4.870   2.236
 9879TIP3    H253833   4.607   4.950   2.361
 9880TIP3   OH253834   5.050   4.234   2.098
 9880TIP3    H153835   4.963   4.208   2.061
 9880TIP3    H253836   5.078   4.289   2.021
 9881TIP3   OH253837   4.852   5.046   2.151
 9881TIP3    H153838   4.824   5.138   2.171
 9881TIP3    H253839   4.786   4.993   2.199
 9882TIP3   OH253840   5.614   4.418   2.193
 9882TIP3    H153841   5.571   4.382   2.113
 9882TIP3    H253842   5.614   4.514   2.174
 9883TIP3   OH253843   5.416   5.248   2.250
 9883TIP3    H153844   5.372   5.168   2.283
 9883TIP3    H253845   5.463   5.216   2.170
 9884TIP3   OH253846   4.422   5.206   2.546
 9884TIP3    H153847   4.423   5.294   2.503
 9884TIP3    H253848   4.329   5.186   2.541
 9885TIP3   OH253849   4.041   4.733   2.042
 9885TIP3    H153850   4.062   4.751   2.135
 9885TIP3    H253851   3.946   4.708   2.049
 9886TIP3   OH253852   4.554   4.971   2.554
 9886TIP3    H153853   4.499   5.052   2.555
 9886TIP3    H253854   4.487   4.901   2.568
 9887TIP3   OH253855   4.417   5.447   2.424
 9887TIP3    H153856   4.323   5.465   2.446
 9887TIP3    H253857   4.458   5.517   2.479
 9888TIP3   OH253858   5.202   5.099   2.024
 9888TIP3    H153859   5.241   5.062   2.106
 9888TIP3    H253860   5.113   5.062   2.033
 9889TIP3   OH253861   5.619   5.511   2.084
 9889TIP3    H153862   5.684   5.577   2.056
 9889TIP3    H253863   5.547   5.570   2.117
 9890TIP3   OH253864   5.269   4.959   2.253
 9890TIP3    H153865   5.220   4.882   2.286
 9890TIP3    H253866   5.362   4.926   2.259
 9891TIP3   OH253867   4.596   5.227   1.879
 9891TIP3    H153868   4.582   5.173   1.800
 9891TIP3    H253869   4.536   5.183   1.941
 9892TIP3   OH253870   4.482   5.119   2.133
 9892TIP3    H153871   4.567   5.092   2.174
 9892TIP3    H253872   4.480   5.214   2.158
 9893TIP3   OH253873   5.032   4.057   2.320
 9893TIP3    H153874   5.061   4.115   2.247
 9893TIP3    H253875   5.063   4.111   2.396
 9894TIP3   OH253876   4.771   5.315   2.187
 9894TIP3    H153877   4.676   5.339   2.192
 9894TIP3    H253878   4.808   5.406   2.181
 9895TIP3   OH253879   4.791   3.984   2.420
 9895TIP3    H153880   4.784   4.012   2.513
 9895TIP3    H253881   4.877   4.020   2.390
 9896TIP3   OH253882   4.516   5.380   2.181
 9896TIP3    H153883   4.518   5.462   2.126
 9896TIP3    H253884   4.473   5.417   2.262
 9897TIP3   OH253885   4.339   4.059   2.171
 9897TIP3    H153886   4.374   4.148   2.185
 9897TIP3    H253887   4.423   4.009   2.179
 9898TIP3   OH253888   4.179   5.135   2.045
 9898TIP3    H153889   4.240   5.138   2.119
 9898TIP3    H253890   4.223   5.070   1.987
 9899TIP3   OH253891   4.010   5.255   2.476
 9899TIP3    H153892   3.917   5.240   2.493
 9899TIP3    H253893   4.009   5.296   2.387
 9900TIP3   OH253894   4.809   5.408   1.884
 9900TIP3    H153895   4.756   5.328   1.903
 9900TIP3    H253896   4.889   5.371   1.842
 9901TIP3   OH253897   5.258   5.340   1.896
 9901TIP3    H153898   5.260   5.261   1.955
 9901TIP3    H253899   5.343   5.332   1.850
 9902TIP3   OH253900   4.332   4.969   1.880
 9902TIP3    H153901   4.334   4.886   1.927
 9902TIP3    H253902   4.418   4.967   1.834
 9903TIP3   OH253903   4.910   5.057   1.869
 9903TIP3    H153904   4.869   5.054   1.958
 9903TIP3    H253905   4.903   4.963   1.845
 9904TIP3   OH253906   4.487   4.731   2.153
 9904TIP3    H153907   4.395   4.703   2.159
 9904TIP3    H253908   4.511   4.699   2.066
 9905TIP3   OH253909   5.499   4.783   1.893
 9905TIP3    H153910   5.474   4.761   1.800
 9905TIP3    H253911   5.510   4.881   1.888
 9906TIP3   OH253912   4.542   5.626   2.086
 9906TIP3    H153913   4.633   5.660   2.095
 9906TIP3    H253914   4.518   5.666   2.001
 9907TIP3   OH253915   3.896   5.092   2.025
 9907TIP3    H153916   3.991   5.105   2.034
 9907TIP3    H253917   3.892   5.026   1.952
 9908TIP3   OH253918   3.792   5.603   2.495
 9908TIP3    H153919   3.726   5.539   2.462
 9908TIP3    H253920   3.834   5.548   2.565
 9909TIP3   OH253921   3.877   5.419   2.673
 9909TIP3    H153922   3.849   5.336   2.714
 9909TIP3    H253923   3.919   5.462   2.750
 9910TIP3   OH253924   5.524   4.881   2.295
 9910TIP3    H153925   5.605   4.936   2.291
 9910TIP3    H253926   5.541   4.830   2.378
 9911TIP3   OH253927   5.583   4.725   2.512
 9911TIP3    H153928   5.517   4.665   2.552
 9911TIP3    H253929   5.658   4.715   2.576
 9912TIP3   OH253930   5.644   4.694   2.110
 9912TIP3    H153931   5.576   4.702   2.041
 9912TIP3    H253932   5.605   4.749   2.181
 9913TIP3   OH253933   5.460   4.398   1.955
 9913TIP3    H153934   5.473   4.466   1.887
 9913TIP3    H253935   5.437   4.318   1.902
 9914TIP3   OH253936   5.370   4.547   2.545
 9914TIP3    H153937   5.380   4.460   2.499
 9914TIP3    H253938   5.379   4.523   2.639
 9915TIP3   OH253939   5.400   4.153   1.857
 9915TIP3    H153940   5.444   4.124   1.939
 9915TIP3    H253941   5.308   4.130   1.874
 9916TIP3   OH253942   5.369   4.312   2.411
 9916TIP3    H153943   5.378   4.214   2.416
 9916TIP3    H253944   5.411   4.331   2.326
 9917TIP3   OH253945   5.345   4.044   2.424
 9917TIP3    H153946   5.433   4.018   2.457
 9917TIP3    H253947   5.307   3.959   2.394
 9918TIP3   OH253948   3.962   4.099   2.821
 9918TIP3    H153949   3.961   4.028   2.886
 9918TIP3    H253950   3.982   4.177   2.876
 9919TIP3   OH253951   5.595   4.011   2.069
 9919TIP3    H153952   5.644   3.977   1.991
 9919TIP3    H253953   5.669   4.015   2.132
 9920TIP3   OH253954   5.330   5.517   2.593
 9920TIP3    H153955   5.372   5.472   2.517
 9920TIP3    H253956   5.322   5.606   2.553
 9921TIP3   OH253957   4.045   5.500   2.880
 9921TIP3    H153958   4.022   5.453   2.961
 9921TIP3    H253959   4.133   5.462   2.857
 9922TIP3   OH253960   4.270   5.371   2.779
 9922TIP3    H153961   4.269   5.275   2.770
 9922TIP3    H253962   4.344   5.381   2.841
 9923TIP3   OH253963   4.842   3.965   2.750
 9923TIP3    H153964   4.823   3.956   2.844
 9923TIP3    H253965   4.932   3.928   2.747
 9924TIP3   OH253966   5.321   3.814   2.760
 9924TIP3    H153967   5.364   3.887   2.712
 9924TIP3    H253968   5.226   3.841   2.757
 9925TIP3   OH253969   5.530   3.943   2.594
 9925TIP3    H153970   5.561   3.852   2.584
 9925TIP3    H253971   5.607   3.995   2.563
 9926TIP3   OH253972   4.070   3.848   2.499
 9926TIP3    H153973   3.976   3.828   2.514
 9926TIP3    H253974   4.115   3.762   2.505
 9927TIP3   OH253975   3.971   3.808   2.154
 9927TIP3    H153976   4.011   3.879   2.100
 9927TIP3    H253977   3.909   3.860   2.207
 9928TIP3   OH253978   4.521   3.808   2.580
 9928TIP3    H153979   4.570   3.871   2.526
 9928TIP3    H253980   4.523   3.852   2.666
 9929TIP3   OH253981   5.078   3.861   2.681
 9929TIP3    H153982   5.052   3.864   2.588
 9929TIP3    H253983   5.035   3.778   2.713
 9930TIP3   OH253984   5.208   3.848   2.300
 9930TIP3    H153985   5.140   3.917   2.318
 9930TIP3    H253986   5.167   3.767   2.336
 9931TIP3   OH253987   3.963   5.441   2.266
 9931TIP3    H153988   3.884   5.420   2.214
 9931TIP3    H253989   3.975   5.535   2.239
 9932TIP3   OH253990   4.103   4.060   2.016
 9932TIP3    H153991   4.154   3.992   1.969
 9932TIP3    H253992   4.172   4.094   2.076
 9933TIP3   OH253993   4.624   4.055   2.233
 9933TIP3    H153994   4.681   4.013   2.301
 9933TIP3    H253995   4.610   4.143   2.273
 9934TIP3   OH253996   4.839   5.578   2.088
 9934TIP3    H153997   4.932   5.588   2.061
 9934TIP3    H253998   4.808   5.521   2.013
 9935TIP3   OH253999   5.491   5.475   2.381
 9935TIP3    H154000   5.465   5.399   2.323
 9935TIP3    H254001   5.480   5.550   2.320
 9936TIP3   OH254002   4.074   5.518   1.946
 9936TIP3    H154003   4.041   5.558   2.029
 9936TIP3    H254004   4.137   5.452   1.979
 9937TIP3   OH254005   6.853   4.773   2.560
 9937TIP3    H154006   6.832   4.868   2.541
 9937TIP3    H254007   6.771   4.733   2.531
 9938TIP3   OH254008   7.067   4.977   2.804
 9938TIP3    H154009   6.981   4.982   2.760
 9938TIP3    H254010   7.086   5.069   2.825
 9939TIP3   OH254011   5.732   4.463   2.489
 9939TIP3    H154012   5.741   4.529   2.419
 9939TIP3    H254013   5.708   4.383   2.438
 9940TIP3   OH254014   5.845   4.720   2.654
 9940TIP3    H154015   5.817   4.692   2.743
 9940TIP3    H254016   5.864   4.635   2.612
 9941TIP3   OH254017   6.817   5.508   2.755
 9941TIP3    H154018   6.895   5.464   2.798
 9941TIP3    H254019   6.795   5.579   2.821
 9942TIP3   OH254020   6.931   4.371   3.002
 9942TIP3    H154021   7.006   4.318   3.035
 9942TIP3    H254022   6.903   4.326   2.922
 9943TIP3   OH254023   5.901   4.468   2.772
 9943TIP3    H154024   5.981   4.435   2.729
 9943TIP3    H254025   5.834   4.465   2.702
 9944TIP3   OH254026   6.799   5.018   2.462
 9944TIP3    H154027   6.833   5.032   2.374
 9944TIP3    H254028   6.780   5.112   2.486
 9945TIP3   OH254029   5.767   5.004   2.283
 9945TIP3    H154030   5.792   5.039   2.196
 9945TIP3    H254031   5.818   5.055   2.346
 9946TIP3   OH254032   6.486   3.826   2.835
 9946TIP3    H154033   6.524   3.761   2.895
 9946TIP3    H254034   6.402   3.847   2.881
 9947TIP3   OH254035   7.014   5.350   2.538
 9947TIP3    H154036   7.074   5.271   2.538
 9947TIP3    H254037   7.073   5.418   2.577
 9948TIP3   OH254038   7.159   5.128   2.498
 9948TIP3    H154039   7.147   5.084   2.412
 9948TIP3    H254040   7.142   5.056   2.560
 9949TIP3   OH254041   7.060   4.731   2.390
 9949TIP3    H154042   6.983   4.731   2.452
 9949TIP3    H254043   7.122   4.670   2.435
 9950TIP3   OH254044   6.341   5.099   2.838
 9950TIP3    H154045   6.306   5.123   2.750
 9950TIP3    H254046   6.381   5.013   2.819
 9951TIP3   OH254047   6.980   4.614   2.157
 9951TIP3    H154048   7.006   4.651   2.244
 9951TIP3    H254049   7.014   4.682   2.094
 9952TIP3   OH254050   6.738   5.292   2.478
 9952TIP3    H154051   6.803   5.330   2.541
 9952TIP3    H254052   6.701   5.373   2.439
 9953TIP3   OH254053   7.340   3.818   2.149
 9953TIP3    H154054   7.251   3.821   2.113
 9953TIP3    H254055   7.348   3.904   2.192
 9954TIP3   OH254056   7.449   5.268   1.995
 9954TIP3    H154057   7.486   5.358   2.008
 9954TIP3    H254058   7.532   5.218   2.001
 9955TIP3   OH254059   6.679   5.579   2.354
 9955TIP3    H154060   6.686   5.588   2.256
 9955TIP3    H254061   6.674   5.673   2.381
 9956TIP3   OH254062   6.050   5.482   2.548
 9956TIP3    H154063   6.094   5.431   2.617
 9956TIP3    H254064   5.975   5.423   2.524
 9957TIP3   OH254065   6.980   5.503   2.060
 9957TIP3    H154066   7.045   5.439   2.024
 9957TIP3    H254067   6.999   5.503   2.156
 9958TIP3   OH254068   6.951   5.513   2.326
 9958TIP3    H154069   6.856   5.521   2.350
 9958TIP3    H254070   6.979   5.443   2.388
 9959TIP3   OH254071   6.242   3.865   2.958
 9959TIP3    H154072   6.153   3.863   2.921
 9959TIP3    H254073   6.250   3.957   2.987
 9960TIP3   OH254074   7.092   4.793   1.990
 9960TIP3    H154075   7.073   4.781   1.894
 9960TIP3    H254076   7.190   4.801   1.989
 9961TIP3   OH254077   6.676   4.098   2.018
 9961TIP3    H154078   6.610   4.106   2.087
 9961TIP3    H254079   6.621   4.078   1.941
 9962TIP3   OH254080   6.373   4.186   1.939
 9962TIP3    H154081   6.310   4.141   1.999
 9962TIP3    H254082   6.309   4.245   1.895
 9963TIP3   OH254083   6.463   4.222   2.622
 9963TIP3    H154084   6.383   4.187   2.663
 9963TIP3    H254085   6.531   4.156   2.644
 9964TIP3   OH254086   6.208   4.388   2.081
 9964TIP3    H154087   6.139   4.382   2.012
 9964TIP3    H254088   6.268   4.451   2.040
 9965TIP3   OH254089   6.684   4.425   2.776
 9965TIP3    H154090   6.654   4.335   2.764
 9965TIP3    H254091   6.650   4.451   2.862
 9966TIP3   OH254092   6.951   4.134   2.101
 9966TIP3    H154093   6.859   4.164   2.084
 9966TIP3    H254094   6.984   4.209   2.157
 9967TIP3   OH254095   7.018   4.358   2.212
 9967TIP3    H154096   7.097   4.377   2.267
 9967TIP3    H254097   7.002   4.445   2.170
 9968TIP3   OH254098   6.737   5.073   2.094
 9968TIP3    H154099   6.728   5.151   2.153
 9968TIP3    H254100   6.710   5.000   2.151
 9969TIP3   OH254101   7.499   4.395   2.189
 9969TIP3    H154102   7.437   4.372   2.117
 9969TIP3    H254103   7.514   4.489   2.169
 9970TIP3   OH254104   7.284   5.296   2.238
 9970TIP3    H154105   7.251   5.206   2.254
 9970TIP3    H254106   7.335   5.286   2.155
 9971TIP3   OH254107   6.246   5.209   2.602
 9971TIP3    H154108   6.327   5.261   2.596
 9971TIP3    H254109   6.234   5.184   2.509
 9972TIP3   OH254110   5.903   4.690   2.015
 9972TIP3    H154111   5.952   4.746   2.080
 9972TIP3    H254112   5.810   4.703   2.045
 9973TIP3   OH254113   6.302   5.497   2.449
 9973TIP3    H154114   6.208   5.505   2.474
 9973TIP3    H254115   6.343   5.564   2.507
 9974TIP3   OH254116   7.103   5.115   2.036
 9974TIP3    H154117   7.117   5.060   2.117
 9974TIP3    H254118   7.012   5.089   2.016
 9975TIP3   OH254119   7.546   5.515   2.069
 9975TIP3    H154120   7.565   5.593   2.012
 9975TIP3    H254121   7.463   5.547   2.108
 9976TIP3   OH254122   7.176   4.964   2.265
 9976TIP3    H154123   7.140   4.876   2.288
 9976TIP3    H254124   7.272   4.945   2.256
 9977TIP3   OH254125   6.486   5.211   1.885
 9977TIP3    H154126   6.472   5.180   1.794
 9977TIP3    H254127   6.437   5.144   1.935
 9978TIP3   OH254128   6.338   5.116   2.141
 9978TIP3    H154129   6.411   5.059   2.172
 9978TIP3    H254130   6.367   5.205   2.171
 9979TIP3   OH254131   6.035   4.865   2.163
 9979TIP3    H154132   5.986   4.870   2.246
 9979TIP3    H254133   6.125   4.877   2.195
 9980TIP3   OH254134   6.669   5.320   2.206
 9980TIP3    H154135   6.578   5.336   2.242
 9980TIP3    H254136   6.690   5.405   2.165
 9981TIP3   OH254137   6.397   5.377   2.210
 9981TIP3    H154138   6.405   5.450   2.145
 9981TIP3    H254139   6.357   5.428   2.284
 9982TIP3   OH254140   6.196   4.087   2.135
 9982TIP3    H154141   6.176   4.180   2.156
 9982TIP3    H254142   6.257   4.067   2.206
 9983TIP3   OH254143   7.146   4.560   2.790
 9983TIP3    H154144   7.068   4.542   2.844
 9983TIP3    H254145   7.212   4.503   2.834
 9984TIP3   OH254146   6.063   5.134   2.037
 9984TIP3    H154147   6.138   5.161   2.092
 9984TIP3    H254148   6.106   5.061   1.989
 9985TIP3   OH254149   5.933   4.407   1.963
 9985TIP3    H154150   5.948   4.488   2.015
 9985TIP3    H254151   5.848   4.376   1.997
 9986TIP3   OH254152   5.875   5.291   2.489
 9986TIP3    H154153   5.795   5.323   2.444
 9986TIP3    H254154   5.926   5.269   2.409
 9987TIP3   OH254155   6.686   5.420   1.893
 9987TIP3    H154156   6.643   5.332   1.906
 9987TIP3    H254157   6.772   5.397   1.851
 9988TIP3   OH254158   7.152   5.351   1.912
 9988TIP3    H154159   7.166   5.272   1.968
 9988TIP3    H254160   7.233   5.351   1.858
 9989TIP3   OH254161   6.199   4.947   1.863
 9989TIP3    H154162   6.166   4.867   1.906
 9989TIP3    H254163   6.290   4.924   1.836
 9990TIP3   OH254164   6.799   5.064   1.840
 9990TIP3    H154165   6.768   5.059   1.934
 9990TIP3    H254166   6.790   4.970   1.818
 9991TIP3   OH254167   6.482   4.553   1.955
 9991TIP3    H154168   6.409   4.554   1.890
 9991TIP3    H254169   6.550   4.600   1.905
 9992TIP3   OH254170   7.371   4.789   1.901
 9992TIP3    H154171   7.349   4.766   1.808
 9992TIP3    H254172   7.380   4.887   1.896
 9993TIP3   OH254173   6.434   5.607   2.069
 9993TIP3    H154174   6.524   5.618   2.103
 9993TIP3    H254175   6.435   5.671   1.995
 9994TIP3   OH254176   5.788   5.086   2.016
 9994TIP3    H154177   5.885   5.094   2.017
 9994TIP3    H254178   5.774   5.034   1.933
 9995TIP3   OH254179   5.704   5.577   2.508
 9995TIP3    H154180   5.622   5.543   2.466
 9995TIP3    H254181   5.703   5.535   2.594
 9996TIP3   OH254182   7.440   4.904   2.289
 9996TIP3    H154183   7.523   4.945   2.315
 9996TIP3    H254184   7.439   4.824   2.347
 9997TIP3   OH254185   7.475   4.711   2.479
 9997TIP3    H154186   7.392   4.661   2.499
 9997TIP3    H254187   7.498   4.738   2.569
 9998TIP3   OH254188   7.390   4.959   3.018
 9998TIP3    H154189   7.471   4.907   3.041
 9998TIP3    H254190   7.421   5.050   3.010
 9999TIP3   OH254191   7.497   4.683   2.133
 9999TIP3    H154192   7.452   4.708   2.050
 9999TIP3    H254193   7.503   4.770   2.176
10000TIP3   OH254194   7.323   4.388   1.963
10000TIP3    H154195   7.345   4.458   1.900
10000TIP3    H254196   7.295   4.315   1.904
10001TIP3   OH254197   7.250   4.558   2.531
10001TIP3    H154198   7.243   4.474   2.479
10001TIP3    H254199   7.197   4.540   2.611
10002TIP3   OH254200   7.256   4.147   1.855
10002TIP3    H154201   7.327   4.114   1.911
10002TIP3    H254202   7.176   4.135   1.908
10003TIP3   OH254203   7.247   4.341   2.355
10003TIP3    H154204   7.248   4.259   2.406
10003TIP3    H254205   7.337   4.337   2.318
10004TIP3   OH254206   7.273   4.069   2.401
10004TIP3    H154207   7.285   4.027   2.490
10004TIP3    H254208   7.176   4.077   2.399
10005TIP3   OH254209   7.517   4.041   2.053
10005TIP3    H154210   7.543   3.962   2.002
10005TIP3    H254211   7.564   4.113   2.008
10006TIP3   OH254212   7.190   5.548   2.576
10006TIP3    H154213   7.248   5.535   2.499
10006TIP3    H254214   7.244   5.607   2.632
10007TIP3   OH254215   6.344   5.379   2.871
10007TIP3    H154216   6.351   5.282   2.869
10007TIP3    H254217   6.343   5.396   2.966
10008TIP3   OH254218   7.339   3.922   2.626
10008TIP3    H154219   7.405   3.852   2.612
10008TIP3    H254220   7.392   3.981   2.681
10009TIP3   OH254221   6.497   3.858   2.537
10009TIP3    H154222   6.587   3.891   2.561
10009TIP3    H254223   6.453   3.863   2.623
10010TIP3   OH254224   5.808   5.406   2.249
10010TIP3    H154225   5.714   5.419   2.230
10010TIP3    H254226   5.841   5.494   2.223
10011TIP3   OH254227   5.973   4.053   1.970
10011TIP3    H154228   6.030   3.985   1.930
10011TIP3    H254229   6.006   4.058   2.061
10012TIP3   OH254230   6.719   5.583   2.093
10012TIP3    H154231   6.815   5.568   2.076
10012TIP3    H254232   6.685   5.530   2.017
10013TIP3   OH254233   7.382   5.500   2.392
10013TIP3    H154234   7.348   5.418   2.351
10013TIP3    H254235   7.390   5.554   2.311
10014TIP3   OH254236   5.967   5.505   1.950
10014TIP3    H154237   5.947   5.539   2.039
10014TIP3    H254238   6.046   5.451   1.968
10015TIP3   OH254239   7.588   4.453   2.485
10015TIP3    H154240   7.564   4.547   2.484
10015TIP3    H254241   7.535   4.419   2.412
10016TIP3   OH254242   7.615   5.262   2.633
10016TIP3    H154243   7.656   5.178   2.659
10016TIP3    H254244   7.531   5.236   2.590
10017TIP3   OH254245   7.542   4.133   2.614
10017TIP3    H154246   7.621   4.175   2.652
10017TIP3    H254247   7.560   4.130   2.519
10018TIP3   OH254248   7.479   5.690   2.564
10018TIP3    H154249   7.452   5.629   2.493
10018TIP3    H254250   7.489   5.624   2.636
10019TIP3   OH254251   7.560   5.508   2.733
10019TIP3    H154252   7.577   5.421   2.691
10019TIP3    H254253   7.652   5.537   2.745
10020TIP3   OH254254   7.572   4.770   3.017
10020TIP3    H154255   7.536   4.698   2.963
10020TIP3    H254256   7.640   4.717   3.063
10021TIP3   OH254257   7.531   4.071   2.322
10021TIP3    H154258   7.436   4.070   2.350
10021TIP3    H254259   7.524   4.058   2.225
10022TIP3   OH254260   1.223   6.653   2.561
10022TIP3    H154261   1.228   6.749   2.569
10022TIP3    H254262   1.152   6.645   2.495
10023TIP3   OH254263   1.442   6.918   2.765
10023TIP3    H154264   1.419   6.828   2.795
10023TIP3    H254265   1.516   6.937   2.825
10024TIP3   OH254266   0.141   6.334   2.389
10024TIP3    H154267   0.159   6.394   2.465
10024TIP3    H254268   0.044   6.324   2.399
10025TIP3   OH254269   0.177   6.515   2.598
10025TIP3    H154270   0.208   6.442   2.658
10025TIP3    H254271   0.189   6.592   2.656
10026TIP3   OH254272   1.290   6.255   2.995
10026TIP3    H154273   1.285   6.156   3.008
10026TIP3    H254274   1.210   6.266   2.943
10027TIP3   OH254275   0.566   6.074   2.706
10027TIP3    H154276   0.530   6.154   2.665
10027TIP3    H254277   0.524   6.005   2.654
10028TIP3   OH254278   1.368   6.096   2.494
10028TIP3    H154279   1.425   6.063   2.565
10028TIP3    H254280   1.416   6.179   2.476
10029TIP3   OH254281   0.240   6.294   2.742
10029TIP3    H154282   0.301   6.273   2.814
10029TIP3    H254283   0.282   6.251   2.664
10030TIP3   OH254284   1.163   6.902   2.454
10030TIP3    H154285   1.144   6.898   2.360
10030TIP3    H254286   1.184   6.996   2.468
10031TIP3   OH254287   1.509   6.058   2.719
10031TIP3    H154288   1.428   6.030   2.765
10031TIP3    H254289   1.549   5.972   2.699
10032TIP3   OH254290   0.416   6.147   2.924
10032TIP3    H154291   0.446   6.113   3.010
10032TIP3    H254292   0.476   6.096   2.866
10033TIP3   OH254293   0.186   6.919   2.279
10033TIP3    H154294   0.162   6.998   2.226
10033TIP3    H254295   0.184   6.955   2.371
10034TIP3   OH254296   1.476   7.018   2.501
10034TIP3    H154297   1.446   6.945   2.444
10034TIP3    H254298   1.456   6.985   2.591
10035TIP3   OH254299   1.090   6.596   2.320
10035TIP3    H154300   1.019   6.658   2.292
10035TIP3    H254301   1.161   6.618   2.257
10036TIP3   OH254302   1.055   6.488   2.002
10036TIP3    H154303   1.121   6.534   2.058
10036TIP3    H254304   1.083   6.396   2.015
10037TIP3   OH254305   1.448   6.562   2.398
10037TIP3    H154306   1.379   6.602   2.455
10037TIP3    H254307   1.513   6.529   2.463
10038TIP3   OH254308   0.628   6.655   2.574
10038TIP3    H154309   0.558   6.644   2.505
10038TIP3    H254310   0.662   6.565   2.574
10039TIP3   OH254311   1.301   6.562   2.154
10039TIP3    H154312   1.354   6.546   2.235
10039TIP3    H254313   1.371   6.585   2.088
10040TIP3   OH254314   1.098   7.276   2.512
10040TIP3    H154315   1.049   7.239   2.587
10040TIP3    H254316   1.035   7.347   2.483
10041TIP3   OH254317   1.693   5.686   2.196
10041TIP3    H154318   1.596   5.699   2.203
10041TIP3    H254319   1.724   5.770   2.155
10042TIP3   OH254320   0.492   6.563   2.364
10042TIP3    H154321   0.433   6.626   2.317
10042TIP3    H254322   0.445   6.479   2.358
10043TIP3   OH254323   1.795   7.128   2.016
10043TIP3    H154324   1.823   7.222   2.020
10043TIP3    H254325   1.880   7.081   2.033
10044TIP3   OH254326   0.078   6.996   2.879
10044TIP3    H154327   0.154   7.043   2.914
10044TIP3    H254328   0.008   7.042   2.928
10045TIP3   OH254329   1.337   7.393   2.077
10045TIP3    H154330   1.411   7.334   2.049
10045TIP3    H254331   1.329   7.371   2.173
10046TIP3   OH254332   1.283   7.369   2.331
10046TIP3    H154333   1.192   7.369   2.366
10046TIP3    H254334   1.325   7.307   2.393
10047TIP3   OH254335   1.491   6.661   1.995
10047TIP3    H154336   1.461   6.684   1.904
10047TIP3    H254337   1.588   6.674   1.989
10048TIP3   OH254338   1.029   6.022   1.983
10048TIP3    H154339   0.998   6.016   2.076
10048TIP3    H254340   0.981   5.945   1.949
10049TIP3   OH254341   0.569   6.310   2.546
10049TIP3    H154342   0.485   6.279   2.506
10049TIP3    H254343   0.630   6.286   2.474
10050TIP3   OH254344   1.144   6.362   2.413
10050TIP3    H154345   1.123   6.452   2.375
10050TIP3    H254346   1.213   6.334   2.350
10051TIP3   OH254347   1.164   6.381   2.720
10051TIP3    H154348   1.197   6.450   2.659
10051TIP3    H254349   1.198   6.304   2.674
10052TIP3   OH254350   0.652   6.045   1.911
10052TIP3    H154351   0.615   5.995   1.987
10052TIP3    H254352   0.584   6.109   1.889
10053TIP3   OH254353   0.062   6.010   2.656
10053TIP3    H154354   0.140   6.008   2.715
10053TIP3    H254355   0.095   6.035   2.569
10054TIP3   OH254356   0.090   6.155   2.186
10054TIP3    H154357   0.127   6.187   2.102
10054TIP3    H254358   0.130   6.219   2.250
10055TIP3   OH254359   0.863   6.079   2.648
10055TIP3    H154360   0.766   6.062   2.653
10055TIP3    H254361   0.883   6.039   2.735
10056TIP3   OH254362   0.327   6.194   2.509
10056TIP3    H154363   0.260   6.224   2.444
10056TIP3    H254364   0.343   6.100   2.482
10057TIP3   OH254365   0.666   6.219   2.307
10057TIP3    H154366   0.760   6.213   2.283
10057TIP3    H254367   0.634   6.272   2.230
10058TIP3   OH254368   0.598   6.338   2.077
10058TIP3    H154369   0.536   6.287   2.024
10058TIP3    H254370   0.661   6.371   2.008
10059TIP3   OH254371   0.429   5.954   2.483
10059TIP3    H154372   0.388   5.869   2.508
10059TIP3    H254373   0.514   5.926   2.448
10060TIP3   OH254374   0.902   6.770   2.267
10060TIP3    H154375   0.830   6.722   2.221
10060TIP3    H254376   0.851   6.823   2.332
10061TIP3   OH254377   1.272   6.081   2.071
10061TIP3    H154378   1.190   6.082   2.017
10061TIP3    H254379   1.280   6.175   2.096
10062TIP3   OH254380   1.319   6.301   2.213
10062TIP3    H154381   1.397   6.265   2.257
10062TIP3    H254382   1.358   6.363   2.149
10063TIP3   OH254383   1.070   6.931   2.135
10063TIP3    H154384   1.032   7.019   2.157
10063TIP3    H254385   1.012   6.873   2.189
10064TIP3   OH254386   1.826   6.270   2.207
10064TIP3    H154387   1.816   6.239   2.115
10064TIP3    H254388   1.845   6.365   2.192
10065TIP3   OH254389   1.620   7.158   2.239
10065TIP3    H154390   1.585   7.090   2.298
10065TIP3    H254391   1.674   7.111   2.174
10066TIP3   OH254392   1.386   6.643   2.905
10066TIP3    H154393   1.304   6.697   2.913
10066TIP3    H254394   1.406   6.632   2.999
10067TIP3   OH254395   0.213   6.568   2.029
10067TIP3    H154396   0.275   6.614   2.090
10067TIP3    H254397   0.134   6.559   2.085
10068TIP3   OH254398   0.745   6.895   2.459
10068TIP3    H154399   0.755   6.964   2.525
10068TIP3    H254400   0.691   6.827   2.505
10069TIP3   OH254401   1.444   6.967   2.028
10069TIP3    H154402   1.458   6.921   2.114
10069TIP3    H254403   1.352   6.941   2.012
10070TIP3   OH254404   1.871   7.387   2.043
10070TIP3    H154405   1.936   7.458   2.055
10070TIP3    H254406   1.786   7.435   2.060
10071TIP3   OH254407   1.491   6.830   2.269
10071TIP3    H154408   1.479   6.733   2.269
10071TIP3    H254409   1.588   6.835   2.270
10072TIP3   OH254410   0.822   7.081   1.867
10072TIP3    H154411   0.811   7.030   1.786
10072TIP3    H254412   0.773   7.026   1.928
10073TIP3   OH254413   0.354   6.721   2.201
10073TIP3    H154414   0.281   6.776   2.237
10073TIP3    H254415   0.390   6.779   2.132
10074TIP3   OH254416   1.221   5.979   2.311
10074TIP3    H154417   1.242   6.011   2.220
10074TIP3    H254418   1.276   6.040   2.368
10075TIP3   OH254419   0.985   7.173   2.208
10075TIP3    H154420   0.939   7.218   2.280
10075TIP3    H254421   1.043   7.244   2.177
10076TIP3   OH254422   0.947   6.154   2.381
10076TIP3    H154423   1.005   6.232   2.390
10076TIP3    H254424   0.928   6.127   2.474
10077TIP3   OH254425   1.036   5.837   2.433
10077TIP3    H154426   0.998   5.895   2.499
10077TIP3    H254427   1.105   5.898   2.395
10078TIP3   OH254428   0.597   5.964   2.164
10078TIP3    H154429   0.588   6.049   2.212
10078TIP3    H254430   0.689   5.940   2.184
10079TIP3   OH254431   1.456   6.342   2.787
10079TIP3    H154432   1.416   6.431   2.781
10079TIP3    H254433   1.398   6.299   2.854
10080TIP3   OH254434   0.216   6.279   1.979
10080TIP3    H154435   0.246   6.367   2.006
10080TIP3    H254436   0.179   6.297   1.892
10081TIP3   OH254437   0.258   5.765   2.765
10081TIP3    H154438   0.272   5.758   2.669
10081TIP3    H254439   0.289   5.677   2.792
10082TIP3   OH254440   0.225   7.104   2.466
10082TIP3    H154441   0.215   7.158   2.548
10082TIP3    H254442   0.191   7.169   2.402
10083TIP3   OH254443   1.036   7.256   1.896
10083TIP3    H154444   0.977   7.178   1.897
10083TIP3    H254445   1.111   7.225   1.840
10084TIP3   OH254446   1.509   7.239   1.937
10084TIP3    H154447   1.521   7.150   1.975
10084TIP3    H254448   1.574   7.241   1.864
10085TIP3   OH254449   0.581   6.843   1.905
10085TIP3    H154450   0.582   6.763   1.960
10085TIP3    H254451   0.670   6.833   1.866
10086TIP3   OH254452   1.140   6.939   1.861
10086TIP3    H154453   1.104   6.932   1.952
10086TIP3    H254454   1.139   6.843   1.837
10087TIP3   OH254455   0.687   6.627   2.127
10087TIP3    H154456   0.636   6.563   2.181
10087TIP3    H254457   0.737   6.567   2.068
10088TIP3   OH254458   0.792   6.463   1.929
10088TIP3    H154459   0.806   6.508   1.842
10088TIP3    H254460   0.885   6.460   1.960
10089TIP3   OH254461   1.747   6.691   1.885
10089TIP3    H154462   1.710   6.659   1.800
10089TIP3    H254463   1.732   6.788   1.877
10090TIP3   OH254464   0.786   7.511   2.057
10090TIP3    H154465   0.858   7.501   2.121
10090TIP3    H254466   0.812   7.591   2.009
10091TIP3   OH254467   0.162   7.022   2.030
10091TIP3    H154468   0.232   6.957   2.044
10091TIP3    H254469   0.122   6.977   1.954
10092TIP3   OH254470   0.059   7.466   2.447
10092TIP3    H154471  -0.027   7.506   2.466
10092TIP3    H254472   0.110   7.501   2.524
10093TIP3   OH254473   0.144   7.265   2.668
10093TIP3    H154474   0.051   7.280   2.692
10093TIP3    H254475   0.191   7.346   2.691
10094TIP3   OH254476   1.780   6.775   2.275
10094TIP3    H154477   1.870   6.813   2.281
10094TIP3    H254478   1.788   6.701   2.339
10095TIP3   OH254479   1.813   6.564   2.467
10095TIP3    H154480   1.737   6.522   2.514
10095TIP3    H254481   1.868   6.592   2.543
10096TIP3   OH254482   1.866   6.538   2.101
10096TIP3    H154483   1.797   6.538   2.032
10096TIP3    H254484   1.841   6.620   2.147
10097TIP3   OH254485   1.601   6.283   1.989
10097TIP3    H154486   1.686   6.324   1.971
10097TIP3    H254487   1.607   6.202   1.935
10098TIP3   OH254488   1.615   6.420   2.576
10098TIP3    H154489   1.587   6.349   2.514
10098TIP3    H254490   1.566   6.393   2.657
10099TIP3   OH254491   1.618   6.033   1.867
10099TIP3    H154492   1.662   5.990   1.943
10099TIP3    H254493   1.526   6.006   1.878
10100TIP3   OH254494   1.584   6.227   2.395
10100TIP3    H154495   1.591   6.128   2.393
10100TIP3    H254496   1.643   6.245   2.320
10101TIP3   OH254497   1.616   5.962   2.381
10101TIP3    H154498   1.639   5.911   2.460
10101TIP3    H254499   1.566   5.892   2.333
10102TIP3   OH254500   0.198   5.990   2.900
10102TIP3    H154501   0.220   5.904   2.856
10102TIP3    H254502   0.283   6.039   2.897
10103TIP3   OH254503   0.120   6.390   2.988
10103TIP3    H154504   0.146   6.300   2.963
10103TIP3    H254505   0.080   6.428   2.909
10104TIP3   OH254506   1.811   5.924   2.045
10104TIP3    H154507   1.865   5.866   1.985
10104TIP3    H254508   1.834   6.012   2.006
10105TIP3   OH254509   0.111   5.932   2.333
10105TIP3    H154510   0.019   5.918   2.365
10105TIP3    H254511   0.093   6.011   2.278
10106TIP3   OH254512   1.501   7.392   2.513
10106TIP3    H154513   1.588   7.375   2.473
10106TIP3    H254514   1.521   7.430   2.600
10107TIP3   OH254515   1.568   5.770   2.783
10107TIP3    H154516   1.645   5.765   2.723
10107TIP3    H254517   1.516   5.690   2.764
10108TIP3   OH254518   1.751   5.800   2.592
10108TIP3    H154519   1.812   5.732   2.553
10108TIP3    H254520   1.810   5.877   2.588
10109TIP3   OH254521   0.324   5.704   2.515
10109TIP3    H154522   0.240   5.681   2.467
10109TIP3    H254523   0.367   5.615   2.521
10110TIP3   OH254524   0.215   5.710   2.167
10110TIP3    H154525   0.213   5.759   2.084
10110TIP3    H254526   0.177   5.775   2.231
10111TIP3   OH254527   0.742   5.689   2.584
10111TIP3    H154528   0.829   5.689   2.541
10111TIP3    H254529   0.763   5.730   2.670
10112TIP3   OH254530   1.454   5.752   2.310
10112TIP3    H154531   1.377   5.809   2.328
10112TIP3    H254532   1.417   5.664   2.332
10113TIP3   OH254533   0.157   7.281   2.272
10113TIP3    H154534   0.080   7.322   2.229
10113TIP3    H254535   0.172   7.349   2.342
10114TIP3   OH254536   0.318   5.915   1.983
10114TIP3    H154537   0.390   5.863   1.943
10114TIP3    H254538   0.349   5.922   2.075
10115TIP3   OH254539   0.895   5.947   2.209
10115TIP3    H154540   0.938   5.888   2.272
10115TIP3    H254541   0.903   6.031   2.260
10116TIP3   OH254542   1.066   7.426   2.111
10116TIP3    H154543   1.158   7.424   2.078
10116TIP3    H254544   1.020   7.389   2.034
10117TIP3   OH254545   1.728   7.374   2.347
10117TIP3    H154546   1.695   7.288   2.311
10117TIP3    H254547   1.717   7.429   2.267
10118TIP3   OH254548   0.312   7.393   1.936
10118TIP3    H154549   0.260   7.430   2.010
10118TIP3    H254550   0.384   7.350   1.982
10119TIP3   OH254551   3.108   6.662   2.550
10119TIP3    H154552   3.077   6.755   2.549
10119TIP3    H254553   3.055   6.628   2.476
10120TIP3   OH254554   3.320   6.896   2.755
10120TIP3    H154555   3.291   6.815   2.802
10120TIP3    H254556   3.347   6.953   2.829
10121TIP3   OH254557   1.978   6.319   2.475
10121TIP3    H154558   1.966   6.414   2.491
10121TIP3    H254559   1.914   6.305   2.402
10122TIP3   OH254560   1.994   6.590   2.684
10122TIP3    H154561   2.045   6.529   2.739
10122TIP3    H254562   2.043   6.671   2.702
10123TIP3   OH254563   3.056   7.343   2.787
10123TIP3    H154564   3.137   7.314   2.742
10123TIP3    H254565   3.093   7.352   2.879
10124TIP3   OH254566   3.161   6.278   3.008
10124TIP3    H154567   3.092   6.216   3.032
10124TIP3    H254568   3.154   6.283   2.911
10125TIP3   OH254569   2.487   6.066   2.684
10125TIP3    H154570   2.494   6.150   2.633
10125TIP3    H254571   2.412   6.024   2.638
10126TIP3   OH254572   3.220   6.073   2.535
10126TIP3    H154573   3.258   6.042   2.620
10126TIP3    H254574   3.262   6.159   2.526
10127TIP3   OH254575   2.067   6.326   2.808
10127TIP3    H154576   2.139   6.286   2.864
10127TIP3    H254577   2.104   6.304   2.721
10128TIP3   OH254578   2.578   6.458   2.721
10128TIP3    H154579   2.660   6.419   2.755
10128TIP3    H254580   2.534   6.382   2.678
10129TIP3   OH254581   3.016   6.906   2.436
10129TIP3    H154582   3.005   6.910   2.339
10129TIP3    H254583   2.999   7.001   2.457
10130TIP3   OH254584   3.390   6.010   2.749
10130TIP3    H154585   3.474   5.968   2.726
10130TIP3    H254586   3.419   6.083   2.806
10131TIP3   OH254587   2.274   6.174   2.877
10131TIP3    H154588   2.295   6.122   2.957
10131TIP3    H254589   2.351   6.160   2.820
10132TIP3   OH254590   2.041   6.866   2.281
10132TIP3    H154591   2.040   6.927   2.204
10132TIP3    H254592   2.068   6.927   2.352
10133TIP3   OH254593   3.229   7.244   2.577
10133TIP3    H154594   3.267   7.156   2.559
10133TIP3    H254595   3.303   7.306   2.557
10134TIP3   OH254596   3.375   6.991   2.481
10134TIP3    H154597   3.343   6.930   2.412
10134TIP3    H254598   3.361   6.942   2.565
10135TIP3   OH254599   2.967   6.588   2.323
10135TIP3    H154600   2.905   6.661   2.300
10135TIP3    H254601   3.044   6.607   2.265
10136TIP3   OH254602   2.979   6.464   1.998
10136TIP3    H154603   3.030   6.508   2.070
10136TIP3    H254604   2.993   6.373   2.027
10137TIP3   OH254605   3.338   6.586   2.423
10137TIP3    H154606   3.263   6.609   2.483
10137TIP3    H254607   3.397   6.538   2.483
10138TIP3   OH254608   2.476   6.659   2.585
10138TIP3    H154609   2.438   6.603   2.515
10138TIP3    H254610   2.507   6.592   2.650
10139TIP3   OH254611   3.186   6.557   2.184
10139TIP3    H154612   3.249   6.567   2.258
10139TIP3    H254613   3.241   6.590   2.108
10140TIP3   OH254614   2.959   7.176   2.486
10140TIP3    H154615   3.017   7.222   2.550
10140TIP3    H254616   2.924   7.248   2.430
10141TIP3   OH254617   3.582   5.687   2.190
10141TIP3    H154618   3.490   5.698   2.222
10141TIP3    H254619   3.609   5.779   2.171
10142TIP3   OH254620   2.351   6.549   2.359
10142TIP3    H154621   2.329   6.635   2.316
10142TIP3    H254622   2.304   6.485   2.305
10143TIP3   OH254623   3.679   7.128   1.995
10143TIP3    H154624   3.701   7.222   2.008
10143TIP3    H254625   3.763   7.084   2.019
10144TIP3   OH254626   1.986   7.108   2.872
10144TIP3    H154627   2.074   7.115   2.912
10144TIP3    H254628   1.926   7.146   2.939
10145TIP3   OH254629   2.937   7.490   2.351
10145TIP3    H154630   2.940   7.516   2.257
10145TIP3    H254631   2.887   7.565   2.390
10146TIP3   OH254632   2.313   7.328   2.549
10146TIP3    H154633   2.351   7.395   2.610
10146TIP3    H254634   2.275   7.265   2.612
10147TIP3   OH254635   3.197   7.381   2.083
10147TIP3    H154636   3.276   7.329   2.056
10147TIP3    H254637   3.193   7.358   2.180
10148TIP3   OH254638   3.174   7.357   2.344
10148TIP3    H154639   3.092   7.403   2.367
10148TIP3    H254640   3.190   7.304   2.425
10149TIP3   OH254641   3.338   6.657   1.995
10149TIP3    H154642   3.328   6.671   1.898
10149TIP3    H254643   3.432   6.680   2.005
10150TIP3   OH254644   2.911   6.019   2.009
10150TIP3    H154645   2.886   5.995   2.100
10150TIP3    H254646   2.860   5.948   1.964
10151TIP3   OH254647   2.464   6.284   2.540
10151TIP3    H154648   2.373   6.257   2.516
10151TIP3    H254649   2.507   6.289   2.451
10152TIP3   OH254650   3.037   6.360   2.424
10152TIP3    H154651   3.006   6.444   2.381
10152TIP3    H254652   3.097   6.329   2.354
10153TIP3   OH254653   3.139   6.330   2.723
10153TIP3    H154654   3.111   6.410   2.673
10153TIP3    H254655   3.107   6.261   2.664
10154TIP3   OH254656   2.510   6.020   1.897
10154TIP3    H154657   2.482   5.981   1.982
10154TIP3    H254658   2.436   6.079   1.873
10155TIP3   OH254659   1.938   6.014   2.644
10155TIP3    H154660   1.990   6.095   2.655
10155TIP3    H254661   1.960   5.992   2.551
10156TIP3   OH254662   2.029   6.071   2.192
10156TIP3    H154663   2.072   6.103   2.111
10156TIP3    H254664   1.955   6.135   2.198
10157TIP3   OH254665   2.763   6.056   2.646
10157TIP3    H154666   2.666   6.045   2.652
10157TIP3    H254667   2.784   6.056   2.741
10158TIP3   OH254668   2.192   6.171   2.532
10158TIP3    H154669   2.129   6.224   2.479
10158TIP3    H254670   2.186   6.081   2.496
10159TIP3   OH254671   2.563   6.238   2.299
10159TIP3    H154672   2.659   6.230   2.286
10159TIP3    H254673   2.536   6.296   2.226
10160TIP3   OH254674   2.479   6.351   2.068
10160TIP3    H154675   2.429   6.293   2.008
10160TIP3    H254676   2.548   6.384   2.005
10161TIP3   OH254677   2.328   5.926   2.490
10161TIP3    H154678   2.373   5.839   2.488
10161TIP3    H254679   2.360   5.963   2.407
10162TIP3   OH254680   2.796   6.790   2.265
10162TIP3    H154681   2.718   6.746   2.224
10162TIP3    H254682   2.752   6.823   2.348
10163TIP3   OH254683   3.168   6.077   2.068
10163TIP3    H154684   3.070   6.081   2.058
10163TIP3    H254685   3.188   6.162   2.112
10164TIP3   OH254686   3.206   6.295   2.212
10164TIP3    H154687   3.278   6.258   2.268
10164TIP3    H254688   3.251   6.373   2.175
10165TIP3   OH254689   2.976   6.932   2.135
10165TIP3    H154690   2.930   7.015   2.164
10165TIP3    H254691   2.915   6.865   2.170
10166TIP3   OH254692   3.704   6.274   2.213
10166TIP3    H154693   3.651   6.266   2.131
10166TIP3    H254694   3.729   6.369   2.209
10167TIP3   OH254695   3.532   7.138   2.237
10167TIP3    H154696   3.496   7.069   2.296
10167TIP3    H254697   3.566   7.089   2.161
10168TIP3   OH254698   3.300   6.666   2.922
10168TIP3    H154699   3.264   6.628   3.004
10168TIP3    H254700   3.379   6.611   2.908
10169TIP3   OH254701   2.530   7.102   2.573
10169TIP3    H154702   2.558   7.186   2.531
10169TIP3    H254703   2.437   7.097   2.544
10170TIP3   OH254704   2.152   6.571   2.022
10170TIP3    H154705   2.195   6.628   2.090
10170TIP3    H254706   2.057   6.574   2.043
10171TIP3   OH254707   2.643   6.853   2.469
10171TIP3    H154708   2.609   6.928   2.518
10171TIP3    H254709   2.605   6.778   2.518
10172TIP3   OH254710   2.574   7.353   2.447
10172TIP3    H154711   2.476   7.349   2.440
10172TIP3    H254712   2.583   7.438   2.496
10173TIP3   OH254713   3.319   6.979   2.039
10173TIP3    H154714   3.322   6.940   2.129
10173TIP3    H254715   3.232   6.948   2.011
10174TIP3   OH254716   3.746   7.394   2.056
10174TIP3    H154717   3.796   7.479   2.064
10174TIP3    H254718   3.653   7.427   2.061
10175TIP3   OH254719   3.385   6.821   2.260
10175TIP3    H154720   3.366   6.738   2.307
10175TIP3    H254721   3.482   6.821   2.259
10176TIP3   OH254722   2.722   7.075   1.874
10176TIP3    H154723   2.695   7.008   1.810
10176TIP3    H254724   2.656   7.064   1.945
10177TIP3   OH254725   2.598   7.028   2.126
10177TIP3    H154726   2.658   6.985   2.188
10177TIP3    H254727   2.606   7.121   2.156
10178TIP3   OH254728   2.274   6.750   2.187
10178TIP3    H154729   2.190   6.790   2.218
10178TIP3    H254730   2.317   6.827   2.145
10179TIP3   OH254731   3.099   5.969   2.306
10179TIP3    H154732   3.149   6.001   2.229
10179TIP3    H254733   3.153   5.995   2.383
10180TIP3   OH254734   2.866   7.169   2.219
10180TIP3    H154735   2.778   7.203   2.242
10180TIP3    H254736   2.917   7.250   2.206
10181TIP3   OH254737   2.818   6.161   2.391
10181TIP3    H154738   2.888   6.227   2.408
10181TIP3    H254739   2.804   6.122   2.479
10182TIP3   OH254740   2.902   5.844   2.443
10182TIP3    H154741   2.891   5.898   2.523
10182TIP3    H254742   2.972   5.896   2.398
10183TIP3   OH254743   2.619   7.288   2.193
10183TIP3    H154744   2.634   7.374   2.146
10183TIP3    H254745   2.595   7.325   2.281
10184TIP3   OH254746   2.475   5.960   2.164
10184TIP3    H154747   2.469   6.049   2.201
10184TIP3    H254748   2.570   5.942   2.182
10185TIP3   OH254749   3.386   6.429   2.764
10185TIP3    H154750   3.293   6.401   2.773
10185TIP3    H254751   3.431   6.374   2.831
10186TIP3   OH254752   2.294   6.995   2.052
10186TIP3    H154753   2.364   7.052   2.087
10186TIP3    H254754   2.347   6.941   1.987
10187TIP3   OH254755   2.181   6.269   2.010
10187TIP3    H154756   2.179   6.365   2.027
10187TIP3    H254757   2.089   6.250   1.983
10188TIP3   OH254758   2.098   7.107   2.443
10188TIP3    H154759   2.026   7.138   2.499
10188TIP3    H254760   2.105   7.179   2.378
10189TIP3   OH254761   2.916   7.273   1.895
10189TIP3    H154762   2.869   7.187   1.902
10189TIP3    H254763   2.997   7.249   1.844
10190TIP3   OH254764   3.389   7.240   1.939
10190TIP3    H154765   3.400   7.151   1.976
10190TIP3    H254766   3.459   7.242   1.870
10191TIP3   OH254767   2.449   6.829   1.883
10191TIP3    H154768   2.471   6.775   1.960
10191TIP3    H254769   2.533   6.820   1.833
10192TIP3   OH254770   3.027   6.937   1.839
10192TIP3    H154771   2.981   6.937   1.923
10192TIP3    H254772   3.026   6.841   1.818
10193TIP3   OH254773   2.584   6.650   2.151
10193TIP3    H154774   2.525   6.595   2.207
10193TIP3    H254775   2.615   6.585   2.086
10194TIP3   OH254776   2.696   6.477   1.944
10194TIP3    H154777   2.684   6.503   1.851
10194TIP3    H254778   2.793   6.480   1.953
10195TIP3   OH254779   3.615   6.680   1.897
10195TIP3    H154780   3.597   6.650   1.805
10195TIP3    H254781   3.611   6.778   1.886
10196TIP3   OH254782   2.669   7.527   2.089
10196TIP3    H154783   2.767   7.535   2.089
10196TIP3    H254784   2.643   7.584   2.017
10197TIP3   OH254785   2.018   6.963   2.025
10197TIP3    H154786   2.116   6.966   2.018
10197TIP3    H254787   1.993   6.918   1.942
10198TIP3   OH254788   1.896   7.519   2.491
10198TIP3    H154789   1.834   7.459   2.443
10198TIP3    H254790   1.890   7.487   2.581
10199TIP3   OH254791   3.662   6.768   2.280
10199TIP3    H154792   3.751   6.806   2.291
10199TIP3    H254793   3.658   6.703   2.354
10200TIP3   OH254794   3.699   6.584   2.482
10200TIP3    H154795   3.628   6.528   2.521
10200TIP3    H254796   3.753   6.602   2.562
10201TIP3   OH254797   3.687   6.843   2.993
10201TIP3    H154798   3.756   6.776   2.994
10201TIP3    H254799   3.724   6.911   3.052
10202TIP3   OH254800   3.740   6.559   2.114
10202TIP3    H154801   3.679   6.574   2.039
10202TIP3    H254802   3.712   6.633   2.173
10203TIP3   OH254803   3.551   6.274   1.956
10203TIP3    H154804   3.575   6.333   1.884
10203TIP3    H254805   3.539   6.191   1.909
10204TIP3   OH254806   3.524   6.389   2.543
10204TIP3    H154807   3.474   6.316   2.501
10204TIP3    H254808   3.475   6.401   2.627
10205TIP3   OH254809   3.513   6.017   1.860
10205TIP3    H154810   3.550   5.981   1.943
10205TIP3    H254811   3.420   5.991   1.861
10206TIP3   OH254812   3.429   6.207   2.354
10206TIP3    H154813   3.456   6.116   2.375
10206TIP3    H254814   3.518   6.243   2.338
10207TIP3   OH254815   3.497   6.234   2.925
10207TIP3    H154816   3.592   6.260   2.917
10207TIP3    H254817   3.493   6.235   3.022
10208TIP3   OH254818   3.525   5.946   2.391
10208TIP3    H154819   3.553   5.906   2.475
10208TIP3    H254820   3.464   5.877   2.360
10209TIP3   OH254821   3.702   5.920   2.059
10209TIP3    H154822   3.738   5.866   1.985
10209TIP3    H254823   3.776   5.982   2.077
10210TIP3   OH254824   1.917   5.937   2.383
10210TIP3    H154825   1.828   5.937   2.346
10210TIP3    H254826   1.965   5.972   2.304
10211TIP3   OH254827   3.409   7.423   2.511
10211TIP3    H154828   3.490   7.412   2.459
10211TIP3    H254829   3.435   7.456   2.599
10212TIP3   OH254830   3.629   5.802   2.608
10212TIP3    H154831   3.687   5.736   2.565
10212TIP3    H254832   3.694   5.874   2.624
10213TIP3   OH254833   2.063   5.721   2.138
10213TIP3    H154834   2.114   5.770   2.072
10213TIP3    H254835   2.004   5.792   2.169
10214TIP3   OH254836   2.595   5.730   2.530
10214TIP3    H154837   2.681   5.753   2.493
10214TIP3    H254838   2.613   5.734   2.625
10215TIP3   OH254839   3.354   5.732   2.316
10215TIP3    H154840   3.288   5.768   2.255
10215TIP3    H254841   3.310   5.650   2.348
10216TIP3   OH254842   2.057   7.297   2.256
10216TIP3    H154843   1.962   7.302   2.240
10216TIP3    H254844   2.087   7.378   2.210
10217TIP3   OH254845   2.201   5.930   1.981
10217TIP3    H154846   2.268   5.872   1.940
10217TIP3    H254847   2.244   5.957   2.063
10218TIP3   OH254848   2.749   5.960   2.224
10218TIP3    H154849   2.804   5.902   2.277
10218TIP3    H254850   2.763   6.043   2.274
10219TIP3   OH254851   2.934   7.481   2.075
10219TIP3    H154852   3.026   7.453   2.056
10219TIP3    H254853   2.890   7.409   2.025
10220TIP3   OH254854   3.600   7.376   2.325
10220TIP3    H154855   3.578   7.285   2.291
10220TIP3    H254856   3.582   7.429   2.244
10221TIP3   OH254857   2.234   7.418   1.949
10221TIP3    H154858   2.178   7.438   2.026
10221TIP3    H254859   2.287   7.346   1.984
10222TIP3   OH254860   4.978   6.662   2.548
10222TIP3    H154861   4.983   6.757   2.570
10222TIP3    H254862   4.884   6.649   2.542
10223TIP3   OH254863   4.204   6.990   2.884
10223TIP3    H154864   4.162   6.903   2.882
10223TIP3    H254865   4.295   6.969   2.854
10224TIP3   OH254866   3.877   6.328   2.465
10224TIP3    H154867   3.837   6.413   2.488
10224TIP3    H254868   3.798   6.275   2.448
10225TIP3   OH254869   3.876   6.587   2.689
10225TIP3    H154870   3.921   6.508   2.725
10225TIP3    H254871   3.941   6.627   2.630
10226TIP3   OH254872   4.345   6.096   2.734
10226TIP3    H154873   4.351   6.170   2.671
10226TIP3    H254874   4.284   6.036   2.688
10227TIP3   OH254875   5.129   6.078   2.505
10227TIP3    H154876   5.160   6.043   2.591
10227TIP3    H254877   5.182   6.158   2.498
10228TIP3   OH254878   3.976   6.329   2.795
10228TIP3    H154879   3.980   6.242   2.843
10228TIP3    H254880   3.999   6.295   2.707
10229TIP3   OH254881   4.414   6.454   2.740
10229TIP3    H154882   4.501   6.419   2.764
10229TIP3    H254883   4.386   6.389   2.672
10230TIP3   OH254884   4.937   6.938   2.467
10230TIP3    H154885   4.841   6.932   2.471
10230TIP3    H254886   4.951   7.032   2.449
10231TIP3   OH254887   5.268   6.031   2.737
10231TIP3    H154888   5.299   5.960   2.795
10231TIP3    H254889   5.348   6.084   2.736
10232TIP3   OH254890   3.931   6.881   2.274
10232TIP3    H154891   3.919   6.936   2.193
10232TIP3    H254892   3.938   6.951   2.343
10233TIP3   OH254893   4.599   5.713   2.826
10233TIP3    H154894   4.608   5.620   2.850
10233TIP3    H254895   4.506   5.731   2.855
10234TIP3   OH254896   5.094   7.180   2.637
10234TIP3    H154897   5.161   7.122   2.601
10234TIP3    H254898   5.137   7.267   2.636
10235TIP3   OH254899   4.855   6.431   2.003
10235TIP3    H154900   4.889   6.408   2.090
10235TIP3    H254901   4.904   6.366   1.949
10236TIP3   OH254902   4.343   6.683   2.611
10236TIP3    H154903   4.330   6.622   2.537
10236TIP3    H254904   4.374   6.620   2.680
10237TIP3   OH254905   4.744   7.207   2.676
10237TIP3    H154906   4.838   7.189   2.693
10237TIP3    H254907   4.749   7.220   2.580
10238TIP3   OH254908   5.450   5.685   2.186
10238TIP3    H154909   5.359   5.698   2.221
10238TIP3    H254910   5.479   5.777   2.172
10239TIP3   OH254911   4.228   6.544   2.332
10239TIP3    H154912   4.203   6.629   2.290
10239TIP3    H254913   4.177   6.481   2.281
10240TIP3   OH254914   5.568   7.134   2.008
10240TIP3    H154915   5.602   7.227   2.013
10240TIP3    H254916   5.651   7.083   2.022
10241TIP3   OH254917   4.720   7.537   2.308
10241TIP3    H154918   4.744   7.443   2.308
10241TIP3    H254919   4.745   7.556   2.399
10242TIP3   OH254920   4.187   7.327   2.526
10242TIP3    H154921   4.194   7.310   2.623
10242TIP3    H254922   4.091   7.323   2.517
10243TIP3   OH254923   5.092   7.350   2.056
10243TIP3    H154924   5.158   7.296   2.009
10243TIP3    H254925   5.128   7.354   2.147
10244TIP3   OH254926   5.123   7.395   2.315
10244TIP3    H154927   5.027   7.376   2.333
10244TIP3    H254928   5.159   7.355   2.395
10245TIP3   OH254929   4.322   5.794   2.898
10245TIP3    H154930   4.237   5.766   2.864
10245TIP3    H254931   4.293   5.859   2.964
10246TIP3   OH254932   4.801   6.015   1.989
10246TIP3    H154933   4.776   6.008   2.082
10246TIP3    H254934   4.741   5.949   1.950
10247TIP3   OH254935   4.360   6.274   2.539
10247TIP3    H154936   4.264   6.256   2.524
10247TIP3    H254937   4.398   6.245   2.453
10248TIP3   OH254938   4.894   6.368   2.424
10248TIP3    H154939   4.881   6.446   2.368
10248TIP3    H254940   4.982   6.339   2.394
10249TIP3   OH254941   4.407   6.014   1.898
10249TIP3    H154942   4.369   5.997   1.987
10249TIP3    H254943   4.371   6.100   1.870
10250TIP3   OH254944   3.808   6.012   2.637
10250TIP3    H154945   3.883   6.017   2.698
10250TIP3    H254946   3.850   5.993   2.552
10251TIP3   OH254947   3.885   6.087   2.150
10251TIP3    H154948   3.940   6.131   2.082
10251TIP3    H254949   3.825   6.160   2.174
10252TIP3   OH254950   4.658   6.021   2.615
10252TIP3    H154951   4.567   6.048   2.638
10252TIP3    H254952   4.686   5.983   2.699
10253TIP3   OH254953   4.101   6.199   2.519
10253TIP3    H154954   4.019   6.229   2.473
10253TIP3    H254955   4.112   6.104   2.490
10254TIP3   OH254956   4.457   6.222   2.291
10254TIP3    H154957   4.548   6.222   2.257
10254TIP3    H254958   4.413   6.289   2.235
10255TIP3   OH254959   4.343   6.344   2.050
10255TIP3    H154960   4.297   6.294   1.981
10255TIP3    H254961   4.416   6.383   1.999
10256TIP3   OH254962   4.690   6.324   2.847
10256TIP3    H154963   4.764   6.326   2.786
10256TIP3    H254964   4.724   6.354   2.932
10257TIP3   OH254965   4.181   5.954   2.477
10257TIP3    H154966   4.137   5.882   2.529
10257TIP3    H254967   4.245   5.903   2.427
10258TIP3   OH254968   4.677   6.758   2.294
10258TIP3    H154969   4.602   6.712   2.250
10258TIP3    H254970   4.629   6.804   2.367
10259TIP3   OH254971   5.032   6.097   2.091
10259TIP3    H154972   4.951   6.078   2.039
10259TIP3    H254973   5.020   6.191   2.116
10260TIP3   OH254974   5.080   6.324   2.210
10260TIP3    H154975   5.145   6.267   2.259
10260TIP3    H254976   5.140   6.357   2.142
10261TIP3   OH254977   4.164   6.698   2.823
10261TIP3    H154978   4.213   6.729   2.745
10261TIP3    H254979   4.142   6.609   2.793
10262TIP3   OH254980   4.862   6.906   2.159
10262TIP3    H154981   4.828   6.998   2.163
10262TIP3    H254982   4.794   6.854   2.208
10263TIP3   OH254983   5.600   6.279   2.215
10263TIP3    H154984   5.531   6.275   2.147
10263TIP3    H254985   5.611   6.375   2.227
10264TIP3   OH254986   5.392   7.163   2.229
10264TIP3    H154987   5.389   7.131   2.321
10264TIP3    H254988   5.463   7.111   2.187
10265TIP3   OH254989   4.397   7.055   2.609
10265TIP3    H154990   4.435   7.144   2.608
10265TIP3    H254991   4.310   7.064   2.567
10266TIP3   OH254992   4.024   6.576   2.040
10266TIP3    H154993   4.067   6.650   2.087
10266TIP3    H254994   3.928   6.591   2.055
10267TIP3   OH254995   4.545   6.844   2.506
10267TIP3    H154996   4.499   6.926   2.535
10267TIP3    H254997   4.511   6.784   2.575
10268TIP3   OH254998   4.483   7.320   2.469
10268TIP3    H154999   4.392   7.323   2.504
10268TIP3    H255000   4.526   7.399   2.510
10269TIP3   OH255001   5.660   7.380   2.043
10269TIP3    H155002   5.725   7.453   2.035
10269TIP3    H255003   5.575   7.429   2.054
10270TIP3   OH255004   4.587   7.085   1.871
10270TIP3    H155005   4.592   7.022   1.798
10270TIP3    H255006   4.540   7.033   1.937
10271TIP3   OH255007   4.481   7.027   2.139
10271TIP3    H155008   4.553   6.979   2.182
10271TIP3    H255009   4.508   7.120   2.160
10272TIP3   OH255010   4.154   6.760   2.185
10272TIP3    H155011   4.070   6.799   2.218
10272TIP3    H255012   4.204   6.839   2.159
10273TIP3   OH255013   5.010   5.931   2.307
10273TIP3    H155014   5.037   5.987   2.232
10273TIP3    H255015   5.057   5.973   2.383
10274TIP3   OH255016   4.755   7.153   2.142
10274TIP3    H155017   4.674   7.200   2.168
10274TIP3    H255018   4.815   7.196   2.207
10275TIP3   OH255019   4.723   6.157   2.361
10275TIP3    H155020   4.771   6.239   2.388
10275TIP3    H255021   4.686   6.128   2.447
10276TIP3   OH255022   4.781   5.851   2.443
10276TIP3    H155023   4.735   5.914   2.503
10276TIP3    H255024   4.854   5.904   2.402
10277TIP3   OH255025   4.530   7.293   2.209
10277TIP3    H155026   4.566   7.377   2.174
10277TIP3    H255027   4.530   7.308   2.307
10278TIP3   OH255028   4.350   5.958   2.157
10278TIP3    H155029   4.346   6.036   2.215
10278TIP3    H255030   4.443   5.930   2.174
10279TIP3   OH255031   4.197   7.008   2.045
10279TIP3    H155032   4.278   7.034   2.095
10279TIP3    H255033   4.239   6.956   1.974
10280TIP3   OH255034   4.011   6.290   1.974
10280TIP3    H155035   4.053   6.372   2.006
10280TIP3    H255036   3.942   6.327   1.916
10281TIP3   OH255037   3.961   7.110   2.431
10281TIP3    H155038   3.897   7.177   2.460
10281TIP3    H255039   4.008   7.162   2.364
10282TIP3   OH255040   4.797   7.263   1.883
10282TIP3    H155041   4.734   7.193   1.913
10282TIP3    H255042   4.880   7.213   1.880
10283TIP3   OH255043   5.263   7.209   1.905
10283TIP3    H155044   5.328   7.169   1.965
10283TIP3    H255045   5.317   7.227   1.825
10284TIP3   OH255046   4.363   6.818   1.893
10284TIP3    H155047   4.407   6.810   1.980
10284TIP3    H255048   4.435   6.791   1.833
10285TIP3   OH255049   4.924   6.940   1.899
10285TIP3    H155050   4.885   6.933   1.989
10285TIP3    H255051   4.911   6.848   1.868
10286TIP3   OH255052   4.466   6.638   2.159
10286TIP3    H155053   4.398   6.584   2.204
10286TIP3    H255054   4.499   6.575   2.092
10287TIP3   OH255055   4.579   6.468   1.950
10287TIP3    H155056   4.561   6.480   1.854
10287TIP3    H255057   4.675   6.453   1.952
10288TIP3   OH255058   5.505   6.677   1.898
10288TIP3    H155059   5.486   6.645   1.807
10288TIP3    H255060   5.494   6.774   1.885
10289TIP3   OH255061   4.582   7.503   2.025
10289TIP3    H155062   4.679   7.508   2.043
10289TIP3    H255063   4.564   7.597   2.021
10290TIP3   OH255064   3.911   6.969   2.022
10290TIP3    H155065   4.009   6.970   2.018
10290TIP3    H255066   3.888   6.920   1.939
10291TIP3   OH255067   3.772   7.497   2.475
10291TIP3    H155068   3.698   7.455   2.426
10291TIP3    H255069   3.776   7.440   2.555
10292TIP3   OH255070   3.864   7.319   2.669
10292TIP3    H155071   3.921   7.245   2.694
10292TIP3    H255072   3.837   7.346   2.757
10293TIP3   OH255073   5.627   6.555   2.122
10293TIP3    H155074   5.565   6.586   2.052
10293TIP3    H255075   5.614   6.617   2.195
10294TIP3   OH255076   5.435   6.265   1.961
10294TIP3    H155077   5.466   6.325   1.893
10294TIP3    H255078   5.420   6.186   1.906
10295TIP3   OH255079   3.901   6.661   2.960
10295TIP3    H155080   3.840   6.648   2.885
10295TIP3    H255081   3.968   6.595   2.939
10296TIP3   OH255082   5.405   6.010   1.847
10296TIP3    H155083   5.444   5.974   1.929
10296TIP3    H255084   5.310   5.997   1.860
10297TIP3   OH255085   5.314   6.218   2.327
10297TIP3    H155086   5.351   6.128   2.328
10297TIP3    H255087   5.388   6.268   2.364
10298TIP3   OH255088   5.442   5.943   2.373
10298TIP3    H155089   5.452   5.902   2.461
10298TIP3    H255090   5.367   5.893   2.338
10299TIP3   OH255091   3.757   6.272   2.960
10299TIP3    H155092   3.804   6.186   2.970
10299TIP3    H255093   3.824   6.318   2.907
10300TIP3   OH255094   5.573   5.916   2.063
10300TIP3    H155095   5.611   5.866   1.988
10300TIP3    H255096   5.639   5.987   2.078
10301TIP3   OH255097   3.822   5.933   2.368
10301TIP3    H155098   3.726   5.942   2.361
10301TIP3    H255099   3.848   5.979   2.285
10302TIP3   OH255100   5.315   7.394   2.565
10302TIP3    H155101   5.375   7.407   2.490
10302TIP3    H255102   5.338   7.470   2.621
10303TIP3   OH255103   4.178   7.237   2.773
10303TIP3    H155104   4.182   7.142   2.800
10303TIP3    H255105   4.256   7.269   2.822
10304TIP3   OH255106   4.457   7.283   2.837
10304TIP3    H155107   4.515   7.205   2.828
10304TIP3    H255108   4.496   7.325   2.916
10305TIP3   OH255109   5.530   5.783   2.612
10305TIP3    H155110   5.598   5.730   2.569
10305TIP3    H255111   5.583   5.863   2.632
10306TIP3   OH255112   4.081   5.731   2.564
10306TIP3    H155113   4.003   5.714   2.510
10306TIP3    H255114   4.115   5.641   2.580
10307TIP3   OH255115   3.948   5.709   2.137
10307TIP3    H155116   3.978   5.780   2.076
10307TIP3    H255117   3.880   5.756   2.189
10308TIP3   OH255118   4.496   5.681   2.568
10308TIP3    H155119   4.582   5.685   2.525
10308TIP3    H255120   4.518   5.698   2.661
10309TIP3   OH255121   5.223   5.754   2.330
10309TIP3    H155122   5.143   5.807   2.312
10309TIP3    H255123   5.182   5.667   2.354
10310TIP3   OH255124   3.918   7.308   2.244
10310TIP3    H155125   3.850   7.318   2.174
10310TIP3    H255126   3.890   7.382   2.300
10311TIP3   OH255127   4.082   5.920   1.988
10311TIP3    H155128   4.152   5.871   1.940
10311TIP3    H255129   4.127   5.938   2.072
10312TIP3   OH255130   4.626   5.933   2.237
10312TIP3    H155131   4.673   5.878   2.304
10312TIP3    H255132   4.656   6.022   2.264
10313TIP3   OH255133   4.849   7.487   2.020
10313TIP3    H155134   4.937   7.448   2.038
10313TIP3    H255135   4.806   7.407   1.981
10314TIP3   OH255136   5.509   7.397   2.328
10314TIP3    H155137   5.482   7.313   2.285
10314TIP3    H255138   5.496   7.462   2.256
10315TIP3   OH255139   4.052   7.361   1.913
10315TIP3    H155140   4.022   7.361   2.006
10315TIP3    H255141   4.144   7.333   1.922
10316TIP3   OH255142   6.881   6.713   2.534
10316TIP3    H155143   6.847   6.765   2.607
10316TIP3    H255144   6.813   6.721   2.466
10317TIP3   OH255145   6.746   6.551   2.875
10317TIP3    H155146   6.756   6.531   2.969
10317TIP3    H255147   6.781   6.469   2.838
10318TIP3   OH255148   5.900   6.556   2.648
10318TIP3    H155149   5.849   6.485   2.692
10318TIP3    H255150   5.832   6.596   2.591
10319TIP3   OH255151   6.255   6.061   2.719
10319TIP3    H155152   6.237   6.141   2.665
10319TIP3    H255153   6.192   5.997   2.680
10320TIP3   OH255154   7.010   6.120   2.537
10320TIP3    H155155   7.055   6.065   2.605
10320TIP3    H255156   7.083   6.170   2.496
10321TIP3   OH255157   5.886   6.298   2.776
10321TIP3    H155158   5.960   6.256   2.821
10321TIP3    H255159   5.900   6.267   2.684
10322TIP3   OH255160   7.134   5.993   2.737
10322TIP3    H155161   7.063   5.963   2.797
10322TIP3    H255162   7.185   6.052   2.797
10323TIP3   OH255163   5.816   6.853   2.281
10323TIP3    H155164   5.778   6.891   2.200
10323TIP3    H255165   5.830   6.931   2.338
10324TIP3   OH255166   6.707   6.579   2.297
10324TIP3    H155167   6.655   6.659   2.273
10324TIP3    H255168   6.794   6.601   2.254
10325TIP3   OH255169   6.724   6.495   2.000
10325TIP3    H155170   6.805   6.533   2.040
10325TIP3    H255171   6.747   6.400   2.001
10326TIP3   OH255172   7.089   6.566   2.417
10326TIP3    H155173   7.031   6.638   2.449
10326TIP3    H255174   7.150   6.551   2.491
10327TIP3   OH255175   6.368   7.053   2.855
10327TIP3    H155176   6.381   6.990   2.783
10327TIP3    H255177   6.414   7.010   2.929
10328TIP3   OH255178   6.946   6.560   2.172
10328TIP3    H155179   7.014   6.527   2.234
10328TIP3    H255180   7.002   6.584   2.093
10329TIP3   OH255181   7.355   5.679   2.178
10329TIP3    H155182   7.267   5.696   2.219
10329TIP3    H255183   7.379   5.769   2.149
10330TIP3   OH255184   6.117   6.548   2.355
10330TIP3    H155185   6.088   6.634   2.316
10330TIP3    H255186   6.042   6.493   2.331
10331TIP3   OH255187   7.463   7.127   2.005
10331TIP3    H155188   7.475   7.224   2.018
10331TIP3    H255189   7.552   7.100   2.033
10332TIP3   OH255190   5.700   7.131   2.942
10332TIP3    H155191   5.790   7.094   2.927
10332TIP3    H255192   5.718   7.164   3.032
10333TIP3   OH255193   6.057   7.343   2.531
10333TIP3    H155194   6.046   7.334   2.627
10333TIP3    H255195   6.023   7.259   2.495
10334TIP3   OH255196   6.981   7.391   2.085
10334TIP3    H155197   7.022   7.325   2.025
10334TIP3    H255198   6.976   7.338   2.166
10335TIP3   OH255199   7.071   6.680   1.973
10335TIP3    H155200   7.060   6.659   1.878
10335TIP3    H255201   7.169   6.676   1.974
10336TIP3   OH255202   6.687   6.010   2.002
10336TIP3    H155203   6.659   5.985   2.091
10336TIP3    H255204   6.623   5.956   1.952
10337TIP3   OH255205   6.228   6.288   2.566
10337TIP3    H155206   6.142   6.283   2.522
10337TIP3    H255207   6.287   6.276   2.488
10338TIP3   OH255208   6.813   6.389   2.430
10338TIP3    H155209   6.795   6.465   2.369
10338TIP3    H255210   6.881   6.345   2.375
10339TIP3   OH255211   6.826   6.306   2.675
10339TIP3    H155212   6.828   6.340   2.584
10339TIP3    H255213   6.895   6.238   2.665
10340TIP3   OH255214   6.319   6.051   1.927
10340TIP3    H155215   6.272   6.006   2.000
10340TIP3    H255216   6.246   6.092   1.877
10341TIP3   OH255217   5.712   5.988   2.628
10341TIP3    H155218   5.733   6.082   2.641
10341TIP3    H255219   5.747   5.971   2.538
10342TIP3   OH255220   5.775   6.089   2.160
10342TIP3    H155221   5.829   6.128   2.088
10342TIP3    H255222   5.714   6.165   2.176
10343TIP3   OH255223   6.541   6.044   2.638
10343TIP3    H155224   6.450   6.023   2.667
10343TIP3    H255225   6.575   6.083   2.721
10344TIP3   OH255226   5.933   6.200   2.516
10344TIP3    H155227   5.882   6.201   2.434
10344TIP3    H255228   5.981   6.114   2.506
10345TIP3   OH255229   6.347   6.252   2.320
10345TIP3    H155230   6.428   6.225   2.275
10345TIP3    H255231   6.295   6.290   2.247
10346TIP3   OH255232   6.219   6.342   2.055
10346TIP3    H155233   6.191   6.282   1.984
10346TIP3    H255234   6.302   6.375   2.016
10347TIP3   OH255235   6.615   6.272   2.838
10347TIP3    H155236   6.698   6.273   2.785
10347TIP3    H255237   6.656   6.274   2.927
10348TIP3   OH255238   6.069   5.974   2.499
10348TIP3    H155239   6.014   5.904   2.541
10348TIP3    H255240   6.131   5.918   2.450
10349TIP3   OH255241   6.558   6.803   2.274
10349TIP3    H155242   6.482   6.764   2.225
10349TIP3    H255243   6.515   6.820   2.362
10350TIP3   OH255244   6.943   6.067   2.094
10350TIP3    H155245   6.858   6.080   2.048
10350TIP3    H255246   6.978   6.158   2.096
10351TIP3   OH255247   6.994   6.297   2.241
10351TIP3    H155248   7.082   6.274   2.276
10351TIP3    H255249   7.023   6.347   2.161
10352TIP3   OH255250   6.731   6.948   2.106
10352TIP3    H155251   6.750   7.022   2.166
10352TIP3    H255252   6.678   6.893   2.167
10353TIP3   OH255253   7.461   6.337   2.207
10353TIP3    H155254   7.449   6.288   2.123
10353TIP3    H255255   7.478   6.426   2.167
10354TIP3   OH255256   7.289   7.119   2.244
10354TIP3    H155257   7.223   7.050   2.260
10354TIP3    H255258   7.339   7.087   2.167
10355TIP3   OH255259   6.305   7.101   2.527
10355TIP3    H155260   6.319   7.177   2.584
10355TIP3    H255261   6.210   7.104   2.512
10356TIP3   OH255262   5.907   6.583   2.025
10356TIP3    H155263   5.954   6.640   2.090
10356TIP3    H255264   5.814   6.591   2.053
10357TIP3   OH255265   6.420   6.852   2.497
10357TIP3    H155266   6.406   6.949   2.487
10357TIP3    H255267   6.370   6.835   2.576
10358TIP3   OH255268   7.087   6.970   2.040
10358TIP3    H155269   7.102   6.938   2.132
10358TIP3    H255270   6.997   6.937   2.032
10359TIP3   OH255271   7.540   7.373   2.068
10359TIP3    H155272   7.604   7.444   2.064
10359TIP3    H255273   7.456   7.422   2.054
10360TIP3   OH255274   7.157   6.849   2.262
10360TIP3    H155275   7.111   6.766   2.243
10360TIP3    H255276   7.249   6.822   2.241
10361TIP3   OH255277   6.484   7.070   1.867
10361TIP3    H155278   6.491   6.986   1.820
10361TIP3    H255279   6.421   7.046   1.937
10362TIP3   OH255280   6.374   7.043   2.146
10362TIP3    H155281   6.446   6.986   2.177
10362TIP3    H255282   6.401   7.126   2.188
10363TIP3   OH255283   6.037   6.744   2.182
10363TIP3    H155284   5.954   6.788   2.211
10363TIP3    H255285   6.083   6.816   2.137
10364TIP3   OH255286   6.868   5.987   2.340
10364TIP3    H155287   6.901   6.014   2.252
10364TIP3    H255288   6.928   6.036   2.401
10365TIP3   OH255289   6.632   6.173   2.427
10365TIP3    H155290   6.724   6.142   2.442
10365TIP3    H255291   6.589   6.123   2.501
10366TIP3   OH255292   6.665   5.842   2.454
10366TIP3    H155293   6.633   5.900   2.526
10366TIP3    H255294   6.740   5.894   2.419
10367TIP3   OH255295   6.240   5.955   2.158
10367TIP3    H155296   6.219   6.027   2.219
10367TIP3    H255297   6.335   5.940   2.175
10368TIP3   OH255298   6.058   6.995   2.045
10368TIP3    H155299   6.115   7.036   2.112
10368TIP3    H255300   6.124   6.957   1.983
10369TIP3   OH255301   5.896   6.291   1.976
10369TIP3    H155302   5.938   6.375   2.004
10369TIP3    H255303   5.818   6.321   1.927
10370TIP3   OH255304   6.011   5.748   2.854
10370TIP3    H155305   5.995   5.754   2.759
10370TIP3    H255306   5.994   5.656   2.874
10371TIP3   OH255307   5.904   7.109   2.419
10371TIP3    H155308   5.846   7.119   2.495
10371TIP3    H255309   5.860   7.168   2.353
10372TIP3   OH255310   6.680   7.263   1.894
10372TIP3    H155311   6.630   7.178   1.900
10372TIP3    H255312   6.771   7.231   1.874
10373TIP3   OH255313   7.128   7.222   1.917
10373TIP3    H155314   7.175   7.155   1.969
10373TIP3    H255315   7.175   7.215   1.831
10374TIP3   OH255316   6.232   6.834   1.884
10374TIP3    H155317   6.265   6.780   1.958
10374TIP3    H255318   6.308   6.822   1.822
10375TIP3   OH255319   6.762   6.939   1.820
10375TIP3    H155320   6.737   6.942   1.914
10375TIP3    H255321   6.771   6.842   1.811
10376TIP3   OH255322   6.353   6.642   2.142
10376TIP3    H155323   6.285   6.582   2.179
10376TIP3    H255324   6.398   6.583   2.079
10377TIP3   OH255325   6.462   6.474   1.951
10377TIP3    H155326   6.427   6.508   1.867
10377TIP3    H255327   6.558   6.496   1.940
10378TIP3   OH255328   7.348   6.670   1.895
10378TIP3    H155329   7.330   6.630   1.808
10378TIP3    H255330   7.373   6.761   1.874
10379TIP3   OH255331   5.789   6.961   2.025
10379TIP3    H155332   5.887   6.972   2.024
10379TIP3    H255333   5.774   6.905   1.946
10380TIP3   OH255334   5.670   7.547   2.504
10380TIP3    H155335   5.611   7.521   2.430
10380TIP3    H255336   5.675   7.461   2.550
10381TIP3   OH255337   5.760   7.297   2.683
10381TIP3    H155338   5.739   7.217   2.735
10381TIP3    H255339   5.787   7.357   2.753
10382TIP3   OH255340   7.441   6.787   2.255
10382TIP3    H155341   7.495   6.858   2.292
10382TIP3    H255342   7.448   6.715   2.321
10383TIP3   OH255343   7.468   6.594   2.485
10383TIP3    H155344   7.384   6.550   2.510
10383TIP3    H255345   7.499   6.625   2.572
10384TIP3   OH255346   7.526   6.568   2.099
10384TIP3    H155347   7.456   6.578   2.032
10384TIP3    H255348   7.507   6.644   2.157
10385TIP3   OH255349   7.416   6.211   1.959
10385TIP3    H155350   7.347   6.279   1.984
10385TIP3    H255351   7.365   6.166   1.888
10386TIP3   OH255352   7.264   6.434   2.585
10386TIP3    H155353   7.274   6.368   2.512
10386TIP3    H255354   7.222   6.381   2.654
10387TIP3   OH255355   5.822   6.610   2.935
10387TIP3    H155356   5.759   6.637   2.868
10387TIP3    H255357   5.825   6.684   2.997
10388TIP3   OH255358   7.259   5.993   1.857
10388TIP3    H155359   7.254   6.000   1.954
10388TIP3    H255360   7.164   5.993   1.836
10389TIP3   OH255361   7.239   6.214   2.383
10389TIP3    H155362   7.252   6.117   2.374
10389TIP3    H255363   7.304   6.243   2.316
10390TIP3   OH255364   7.235   6.221   2.896
10390TIP3    H155365   7.329   6.241   2.916
10390TIP3    H255366   7.196   6.219   2.986
10391TIP3   OH255367   7.256   5.924   2.399
10391TIP3    H155368   7.281   5.927   2.492
10391TIP3    H255369   7.233   5.829   2.391
10392TIP3   OH255370   7.492   5.919   2.062
10392TIP3    H155371   7.544   5.867   1.998
10392TIP3    H255372   7.490   6.008   2.021
10393TIP3   OH255373   5.715   5.910   2.355
10393TIP3    H155374   5.617   5.912   2.353
10393TIP3    H255375   5.732   5.971   2.280
10394TIP3   OH255376   6.412   7.321   2.870
10394TIP3    H155377   6.414   7.224   2.860
10394TIP3    H255378   6.333   7.335   2.924
10395TIP3   OH255379   7.247   5.744   2.756
10395TIP3    H155380   7.171   5.786   2.710
10395TIP3    H255381   7.200   5.698   2.827
10396TIP3   OH255382   5.968   5.739   2.576
10396TIP3    H155383   5.887   5.739   2.522
10396TIP3    H255384   5.999   5.647   2.563
10397TIP3   OH255385   5.835   5.715   2.139
10397TIP3    H155386   5.871   5.775   2.071
10397TIP3    H255387   5.796   5.778   2.202
10398TIP3   OH255388   6.401   5.709   2.600
10398TIP3    H155389   6.484   5.704   2.551
10398TIP3    H255390   6.430   5.723   2.691
10399TIP3   OH255391   6.962   5.730   2.613
10399TIP3    H155392   6.919   5.704   2.530
10399TIP3    H255393   6.939   5.657   2.673
10400TIP3   OH255394   7.119   5.711   2.302
10400TIP3    H155395   7.034   5.757   2.297
10400TIP3    H255396   7.088   5.623   2.335
10401TIP3   OH255397   5.815   7.296   2.249
10401TIP3    H155398   5.734   7.315   2.197
10401TIP3    H255399   5.860   7.381   2.236
10402TIP3   OH255400   5.969   5.926   2.007
10402TIP3    H155401   6.029   5.867   1.957
10402TIP3    H255402   6.024   5.948   2.085
10403TIP3   OH255403   6.521   5.950   2.243
10403TIP3    H155404   6.570   5.896   2.308
10403TIP3    H255405   6.547   6.039   2.269
10404TIP3   OH255406   7.407   7.387   2.329
10404TIP3    H155407   7.375   7.295   2.321
10404TIP3    H255408   7.361   7.430   2.255
10405TIP3   OH255409   6.019   7.444   1.937
10405TIP3    H155410   5.943   7.458   1.996
10405TIP3    H255411   6.061   7.368   1.980
10406TIP3   OH255412   7.561   6.321   2.463
10406TIP3    H155413   7.542   6.415   2.473
10406TIP3    H255414   7.526   6.307   2.372
10407TIP3   OH255415   7.507   7.575   2.532
10407TIP3    H155416   7.458   7.554   2.450
10407TIP3    H255417   7.500   7.486   2.572
10408TIP3   OH255418   7.537   7.318   2.694
10408TIP3    H155419   7.533   7.246   2.762
10408TIP3    H255420   7.553   7.393   2.751
10409TIP3   OH255421  -0.025   6.625   2.923
10409TIP3    H155422   0.001   6.677   2.847
10409TIP3    H255423   0.034   6.661   2.992
10410TIP3   OH255424   7.520   6.310   2.907
10410TIP3    H155425   7.580   6.316   2.832
10410TIP3    H255426   7.554   6.379   2.967
10411TIP3   OH255427   7.526   5.959   2.335
10411TIP3    H155428   7.428   5.960   2.335
10411TIP3    H255429   7.547   5.953   2.240
10412TIP3   OH255430   1.656   7.525   2.103
10412TIP3    H155431   1.584   7.522   2.168
10412TIP3    H255432   1.675   7.621   2.110
10413TIP3   OH255433   0.240   7.567   2.605
10413TIP3    H155434   0.210   7.660   2.598
10413TIP3    H255435   0.308   7.571   2.675
10414TIP3   OH255436   1.576   7.514   2.747
10414TIP3    H155437   1.662   7.478   2.770
10414TIP3    H255438   1.587   7.609   2.762
10415TIP3   OH255439   0.322   7.503   2.348
10415TIP3    H155440   0.252   7.522   2.414
10415TIP3    H255441   0.402   7.531   2.395
10416TIP3   OH255442   0.193   7.568   2.116
10416TIP3    H155443   0.260   7.636   2.099
10416TIP3    H255444   0.213   7.548   2.210
10417TIP3   OH255445   1.455   7.580   2.288
10417TIP3    H155446   1.376   7.559   2.236
10417TIP3    H255447   1.440   7.518   2.362
10418TIP3   OH255448   2.655   7.471   2.787
10418TIP3    H155449   2.721   7.529   2.829
10418TIP3    H255450   2.574   7.475   2.842
10419TIP3   OH255451   3.514   7.522   2.120
10419TIP3    H155452   3.437   7.538   2.178
10419TIP3    H255453   3.539   7.616   2.105
10420TIP3   OH255454   3.469   7.477   2.787
10420TIP3    H155455   3.509   7.564   2.805
10420TIP3    H255456   3.375   7.504   2.792
10421TIP3   OH255457   2.164   7.554   2.459
10421TIP3    H155458   2.070   7.524   2.460
10421TIP3    H255459   2.205   7.485   2.513
10422TIP3   OH255460   2.073   7.543   2.151
10422TIP3    H155461   2.138   7.614   2.141
10422TIP3    H255462   2.017   7.589   2.215
10423TIP3   OH255463   2.534   7.592   2.560
10423TIP3    H155464   2.604   7.649   2.521
10423TIP3    H255465   2.578   7.562   2.642
10424TIP3   OH255466   3.232   7.575   2.726
10424TIP3    H155467   3.171   7.602   2.655
10424TIP3    H255468   3.178   7.515   2.781
10425TIP3   OH255469   3.287   7.588   2.272
10425TIP3    H155470   3.214   7.556   2.216
10425TIP3    H255471   3.292   7.516   2.339
10426TIP3   OH255472   4.663   7.567   2.802
10426TIP3    H155473   4.691   7.503   2.734
10426TIP3    H255474   4.637   7.508   2.874
10427TIP3   OH255475   5.442   7.524   2.080
10427TIP3    H155476   5.368   7.518   2.143
10427TIP3    H255477   5.472   7.615   2.100
10428TIP3   OH255478   4.490   7.488   3.028
10428TIP3    H155479   4.413   7.461   2.975
10428TIP3    H255480   4.446   7.551   3.086
10429TIP3   OH255481   3.903   7.606   2.894
10429TIP3    H155482   3.915   7.623   2.799
10429TIP3    H255483   3.951   7.523   2.903
10430TIP3   OH255484   3.968   7.603   2.627
10430TIP3    H155485   3.894   7.578   2.567
10430TIP3    H255486   4.042   7.614   2.567
10431TIP3   OH255487   3.862   7.632   2.145
10431TIP3    H155488   3.862   7.693   2.070
10431TIP3    H255489   3.840   7.691   2.219
10432TIP3   OH255490   4.581   7.575   2.540
10432TIP3    H155491   4.592   7.664   2.498
10432TIP3    H255492   4.567   7.601   2.632
10433TIP3   OH255493   5.275   7.609   2.288
10433TIP3    H155494   5.218   7.642   2.216
10433TIP3    H255495   5.215   7.539   2.323
10434TIP3   OH255496   6.472   7.645   2.796
10434TIP3    H155497   6.510   7.555   2.793
10434TIP3    H255498   6.395   7.628   2.853
10435TIP3   OH255499   7.308   7.524   2.090
10435TIP3    H155500   7.233   7.505   2.151
10435TIP3    H255501   7.327   7.615   2.118
10436TIP3   OH255502   6.248   7.606   2.973
10436TIP3    H155503   6.164   7.587   2.926
10436TIP3    H255504   6.209   7.640   3.054
10437TIP3   OH255505   5.908   7.550   2.645
10437TIP3    H155506   5.823   7.555   2.597
10437TIP3    H255507   5.956   7.486   2.589
10438TIP3   OH255508   5.853   7.541   2.134
10438TIP3    H155509   5.903   7.615   2.096
10438TIP3    H255510   5.816   7.597   2.205
10439TIP3   OH255511   7.129   7.551   2.290
10439TIP3    H155512   7.071   7.619   2.253
10439TIP3    H255513   7.068   7.501   2.347
   7.68049   7.68049  10.00000   0.00000   0.00000   0.00000   0.00000   0.00000   0.00000
