Generated by CHARMM-GUI FF-Converter
55513
    1DOPE     N    1   4.223   4.270  16.765
    1DOPE   HN1    2   4.231   4.261  16.868
    1DOPE   HN2    3   4.240   4.378  16.735
    1DOPE   HN3    4   4.118   4.234  16.738
    1DOPE   C12    5   4.331   4.165  16.706
    1DOPE  H12A    6   4.442   4.199  16.741
    1DOPE  H12B    7   4.327   4.173  16.596
    1DOPE   C11    8   4.293   4.007  16.753
    1DOPE  H11A    9   4.379   3.928  16.719
    1DOPE  H11B   10   4.189   3.972  16.703
    1DOPE     P   11   4.403   3.997  16.999
    1DOPE   O13   12   4.432   3.845  17.043
    1DOPE   O14   13   4.363   4.109  17.101
    1DOPE   O11   14   4.531   4.050  16.904
    1DOPE   O12   15   4.272   4.000  16.894
    1DOPE    C1   16   4.679   4.084  16.933
    1DOPE    HA   17   4.729   4.007  17.006
    1DOPE    HB   18   4.685   4.198  16.975
    1DOPE    C2   19   4.771   4.082  16.802
    1DOPE    HS   20   4.885   4.117  16.828
    1DOPE   O21   21   4.708   4.186  16.712
    1DOPE   C21   22   4.776   4.215  16.601
    1DOPE   O22   23   4.891   4.162  16.560
    1DOPE   C22   24   4.683   4.334  16.535
    1DOPE   H2R   25   4.601   4.377  16.608
    1DOPE   H2S   26   4.622   4.279  16.453
    1DOPE    C3   27   4.781   3.927  16.736
    1DOPE    HX   28   4.807   3.854  16.821
    1DOPE    HY   29   4.878   3.930  16.671
    1DOPE   O31   30   4.651   3.874  16.666
    1DOPE   C31   31   4.671   3.739  16.612
    1DOPE   O32   32   4.788   3.676  16.605
    1DOPE   C32   33   4.529   3.667  16.566
    1DOPE   H2X   34   4.544   3.546  16.577
    1DOPE   H2Y   35   4.437   3.700  16.633
    1DOPE   C23   36   4.782   4.459  16.489
    1DOPE   H3R   37   4.869   4.483  16.565
    1DOPE   H3S   38   4.716   4.562  16.475
    1DOPE   C24   39   4.849   4.415  16.356
    1DOPE   H4R   40   4.890   4.301  16.363
    1DOPE   H4S   41   4.948   4.476  16.327
    1DOPE   C25   42   4.738   4.436  16.245
    1DOPE   H5R   43   4.725   4.557  16.226
    1DOPE   H5S   44   4.629   4.396  16.278
    1DOPE   C26   45   4.787   4.356  16.120
    1DOPE   H6R   46   4.902   4.392  16.101
    1DOPE   H6S   47   4.722   4.391  16.034
    1DOPE   C27   48   4.788   4.188  16.133
    1DOPE   H7R   49   4.828   4.151  16.233
    1DOPE   H7S   50   4.866   4.144  16.059
    1DOPE   C28   51   4.645   4.110  16.097
    1DOPE   H8R   52   4.620   4.131  15.990
    1DOPE   H8S   53   4.558   4.159  16.159
    1DOPE   C29   54   4.667   3.949  16.130
    1DOPE   H9R   55   4.707   3.934  16.233
    1DOPE  C210   56   4.652   3.829  16.052
    1DOPE  H10R   57   4.668   3.720  16.098
    1DOPE  C211   58   4.607   3.821  15.908
    1DOPE  H11R   59   4.597   3.937  15.868
    1DOPE  H11S   60   4.494   3.780  15.905
    1DOPE  C212   61   4.698   3.742  15.795
    1DOPE  H12R   62   4.754   3.843  15.768
    1DOPE  H12S   63   4.620   3.709  15.718
    1DOPE  C213   64   4.815   3.617  15.806
    1DOPE  H13R   65   4.755   3.513  15.830
    1DOPE  H13S   66   4.874   3.643  15.897
    1DOPE  C214   67   4.930   3.549  15.698
    1DOPE  H14R   68   4.909   3.432  15.712
    1DOPE  H14S   69   5.022   3.555  15.771
    1DOPE  C215   70   5.046   3.588  15.573
    1DOPE  H15R   71   5.070   3.476  15.562
    1DOPE  H15S   72   5.150   3.621  15.621
    1DOPE  C216   73   5.043   3.669  15.422
    1DOPE  H16R   74   5.105   3.772  15.423
    1DOPE  H16S   75   4.939   3.699  15.387
    1DOPE  C217   76   5.068   3.617  15.272
    1DOPE  H17R   77   5.093   3.501  15.269
    1DOPE  H17S   78   5.163   3.680  15.233
    1DOPE  C218   79   4.940   3.642  15.169
    1DOPE  H18R   80   4.906   3.759  15.163
    1DOPE  H18S   81   4.839   3.581  15.192
    1DOPE  H18T   82   4.973   3.605  15.068
    1DOPE   C33   83   4.491   3.702  16.419
    1DOPE   H3X   84   4.394   3.632  16.390
    1DOPE   H3Y   85   4.582   3.671  16.349
    1DOPE   C34   86   4.450   3.863  16.404
    1DOPE   H4X   87   4.402   3.903  16.500
    1DOPE   H4Y   88   4.550   3.930  16.385
    1DOPE   C35   89   4.335   3.891  16.295
    1DOPE   H5X   90   4.233   3.828  16.318
    1DOPE   H5Y   91   4.379   3.848  16.199
    1DOPE   C36   92   4.301   4.055  16.282
    1DOPE   H6X   93   4.393   4.118  16.327
    1DOPE   H6Y   94   4.199   4.081  16.339
    1DOPE   C37   95   4.280   4.103  16.137
    1DOPE   H7X   96   4.372   4.069  16.073
    1DOPE   H7Y   97   4.182   4.044  16.097
    1DOPE   C38   98   4.250   4.270  16.124
    1DOPE   H8X   99   4.176   4.297  16.208
    1DOPE   H8Y  100   4.187   4.282  16.030
    1DOPE   C39  101   4.374   4.380  16.128
    1DOPE   H9X  102   4.426   4.391  16.226
    1DOPE  C310  103   4.420   4.466  16.026
    1DOPE  H10X  104   4.516   4.539  16.040
    1DOPE  C311  105   4.355   4.466  15.888
    1DOPE  H11X  106   4.236   4.438  15.886
    1DOPE  H11Y  107   4.369   4.576  15.842
    1DOPE  C312  108   4.437   4.361  15.797
    1DOPE  H12X  109   4.375   4.353  15.702
    1DOPE  H12Y  110   4.446   4.248  15.840
    1DOPE  C313  111   4.589   4.424  15.767
    1DOPE  H13X  112   4.580   4.543  15.742
    1DOPE  H13Y  113   4.666   4.414  15.851
    1DOPE  C314  114   4.651   4.347  15.647
    1DOPE  H14X  115   4.560   4.343  15.572
    1DOPE  H14Y  116   4.674   4.228  15.666
    1DOPE  C315  117   4.770   4.438  15.574
    1DOPE  H15X  118   4.706   4.526  15.530
    1DOPE  H15Y  119   4.777   4.368  15.490
    1DOPE  C316  120   4.919   4.502  15.639
    1DOPE  H16X  121   4.903   4.507  15.746
    1DOPE  H16Y  122   4.903   4.613  15.606
    1DOPE  C317  123   5.091   4.529  15.596
    1DOPE  H17X  124   5.092   4.618  15.520
    1DOPE  H17Y  125   5.145   4.575  15.686
    1DOPE  C318  126   5.212   4.426  15.539
    1DOPE  H18X  127   5.300   4.506  15.508
    1DOPE  H18Y  128   5.254   4.341  15.609
    1DOPE  H18Z  129   5.177   4.367  15.449
    2DOPE     N  130   4.966   4.862  16.880
    2DOPE   HN1  131   4.969   4.965  16.926
    2DOPE   HN2  132   5.059   4.849  16.819
    2DOPE   HN3  133   4.873   4.854  16.821
    2DOPE   C12  134   4.970   4.740  16.985
    2DOPE  H12A  135   4.858   4.731  17.028
    2DOPE  H12B  136   5.046   4.773  17.065
    2DOPE   C11  137   5.019   4.588  16.929
    2DOPE  H11A  138   4.973   4.567  16.828
    2DOPE  H11B  139   4.973   4.503  16.998
    2DOPE     P  140   5.258   4.430  16.883
    2DOPE   O13  141   5.155   4.304  16.890
    2DOPE   O14  142   5.400   4.419  16.957
    2DOPE   O11  143   5.292   4.475  16.731
    2DOPE   O12  144   5.177   4.578  16.930
    2DOPE    C1  145   5.350   4.621  16.714
    2DOPE    HA  146   5.449   4.637  16.779
    2DOPE    HB  147   5.268   4.705  16.746
    2DOPE    C2  148   5.403   4.663  16.570
    2DOPE    HS  149   5.455   4.774  16.578
    2DOPE   O21  150   5.290   4.672  16.472
    2DOPE   C21  151   5.173   4.751  16.491
    2DOPE   O22  152   5.149   4.839  16.581
    2DOPE   C22  153   5.061   4.708  16.387
    2DOPE   H2R  154   4.978   4.650  16.447
    2DOPE   H2S  155   5.112   4.631  16.314
    2DOPE    C3  156   5.522   4.555  16.514
    2DOPE    HX  157   5.609   4.545  16.592
    2DOPE    HY  158   5.576   4.606  16.425
    2DOPE   O31  159   5.464   4.411  16.485
    2DOPE   C31  160   5.392   4.397  16.368
    2DOPE   O32  161   5.397   4.485  16.277
    2DOPE   C32  162   5.307   4.249  16.364
    2DOPE   H2X  163   5.367   4.170  16.429
    2DOPE   H2Y  164   5.199   4.270  16.410
    2DOPE   C23  165   4.979   4.833  16.313
    2DOPE   H3R  166   4.957   4.927  16.381
    2DOPE   H3S  167   4.870   4.787  16.282
    2DOPE   C24  168   5.053   4.886  16.185
    2DOPE   H4R  169   5.165   4.930  16.206
    2DOPE   H4S  170   4.986   4.976  16.142
    2DOPE   C25  171   5.066   4.765  16.079
    2DOPE   H5R  172   4.960   4.703  16.078
    2DOPE   H5S  173   5.152   4.684  16.106
    2DOPE   C26  174   5.093   4.830  15.938
    2DOPE   H6R  175   5.209   4.800  15.909
    2DOPE   H6S  176   5.076   4.951  15.935
    2DOPE   C27  177   4.991   4.760  15.835
    2DOPE   H7R  178   5.003   4.643  15.868
    2DOPE   H7S  179   5.031   4.772  15.731
    2DOPE   C28  180   4.827   4.805  15.837
    2DOPE   H8R  181   4.798   4.831  15.943
    2DOPE   H8S  182   4.762   4.704  15.815
    2DOPE   C29  183   4.783   4.934  15.747
    2DOPE   H9R  184   4.799   5.039  15.797
    2DOPE  C210  185   4.752   4.938  15.613
    2DOPE  H10R  186   4.739   5.045  15.561
    2DOPE  C211  187   4.759   4.806  15.524
    2DOPE  H11R  188   4.730   4.717  15.594
    2DOPE  H11S  189   4.877   4.801  15.497
    2DOPE  C212  190   4.692   4.755  15.389
    2DOPE  H12R  191   4.573   4.727  15.397
    2DOPE  H12S  192   4.743   4.648  15.362
    2DOPE  C213  193   4.729   4.860  15.275
    2DOPE  H13R  194   4.695   4.973  15.303
    2DOPE  H13S  195   4.668   4.821  15.185
    2DOPE  C214  196   4.887   4.865  15.225
    2DOPE  H14R  197   4.914   4.755  15.183
    2DOPE  H14S  198   4.968   4.891  15.305
    2DOPE  C215  199   4.896   4.980  15.113
    2DOPE  H15R  200   4.882   5.089  15.160
    2DOPE  H15S  201   4.801   4.963  15.043
    2DOPE  C216  202   5.039   4.971  15.034
    2DOPE  H16R  203   5.130   4.954  15.107
    2DOPE  H16S  204   5.060   5.076  14.981
    2DOPE  C217  205   5.038   4.844  14.932
    2DOPE  H17R  206   5.002   4.888  14.834
    2DOPE  H17S  207   4.957   4.760  14.963
    2DOPE  C218  208   5.187   4.767  14.915
    2DOPE  H18R  209   5.189   4.703  14.822
    2DOPE  H18S  210   5.215   4.699  15.003
    2DOPE  H18T  211   5.276   4.844  14.898
    2DOPE   C33  212   5.283   4.181  16.221
    2DOPE   H3X  213   5.253   4.063  16.236
    2DOPE   H3Y  214   5.387   4.179  16.165
    2DOPE   C34  215   5.162   4.259  16.136
    2DOPE   H4X  216   5.063   4.260  16.201
    2DOPE   H4Y  217   5.200   4.374  16.117
    2DOPE   C35  218   5.124   4.189  15.999
    2DOPE   H5X  219   5.073   4.079  16.013
    2DOPE   H5Y  220   5.232   4.170  15.949
    2DOPE   C36  221   5.032   4.278  15.891
    2DOPE   H6X  222   5.128   4.301  15.825
    2DOPE   H6Y  223   4.997   4.390  15.917
    2DOPE   C37  224   4.914   4.195  15.801
    2DOPE   H7X  225   4.917   4.083  15.842
    2DOPE   H7Y  226   4.800   4.228  15.822
    2DOPE   C38  227   4.965   4.202  15.646
    2DOPE   H8X  228   5.039   4.117  15.669
    2DOPE   H8Y  229   5.042   4.287  15.654
    2DOPE   C39  230   4.953   4.170  15.492
    2DOPE   H9X  231   4.952   4.054  15.473
    2DOPE  C310  232   4.947   4.242  15.370
    2DOPE  H10X  233   4.942   4.169  15.283
    2DOPE  C311  234   4.949   4.404  15.323
    2DOPE  H11X  235   4.839   4.426  15.278
    2DOPE  H11Y  236   4.947   4.488  15.401
    2DOPE  C312  237   5.067   4.465  15.228
    2DOPE  H12X  238   5.173   4.489  15.275
    2DOPE  H12Y  239   5.028   4.573  15.186
    2DOPE  C313  240   5.076   4.363  15.111
    2DOPE  H13X  241   5.159   4.410  15.043
    2DOPE  H13Y  242   5.117   4.254  15.144
    2DOPE  C314  243   4.919   4.355  15.055
    2DOPE  H14X  244   4.864   4.464  15.057
    2DOPE  H14Y  245   4.855   4.278  15.119
    2DOPE  C315  246   4.905   4.289  14.918
    2DOPE  H15X  247   4.793   4.239  14.911
    2DOPE  H15Y  248   4.986   4.200  14.923
    2DOPE  C316  249   4.921   4.398  14.802
    2DOPE  H16X  250   4.843   4.490  14.819
    2DOPE  H16Y  251   4.886   4.348  14.706
    2DOPE  C317  252   5.074   4.467  14.791
    2DOPE  H17X  253   5.079   4.544  14.704
    2DOPE  H17Y  254   5.073   4.532  14.885
    2DOPE  C318  255   5.217   4.376  14.796
    2DOPE  H18X  256   5.311   4.451  14.819
    2DOPE  H18Y  257   5.214   4.292  14.876
    2DOPE  H18Z  258   5.240   4.319  14.700
    3DOPE     N  259   3.978   5.649  16.705
    3DOPE   HN1  260   4.068   5.649  16.769
    3DOPE   HN2  261   3.978   5.548  16.654
    3DOPE   HN3  262   3.999   5.732  16.637
    3DOPE   C12  263   3.832   5.671  16.777
    3DOPE  H12A  264   3.743   5.666  16.701
    3DOPE  H12B  265   3.833   5.781  16.824
    3DOPE   C11  266   3.805   5.551  16.884
    3DOPE  H11A  267   3.900   5.553  16.955
    3DOPE  H11B  268   3.808   5.441  16.834
    3DOPE     P  269   3.529   5.476  16.928
    3DOPE   O13  270   3.414   5.504  17.030
    3DOPE   O14  271   3.577   5.323  16.907
    3DOPE   O11  272   3.479   5.547  16.791
    3DOPE   O12  273   3.672   5.574  16.957
    3DOPE    C1  274   3.363   5.485  16.714
    3DOPE    HA  275   3.297   5.575  16.671
    3DOPE    HB  276   3.288   5.414  16.776
    3DOPE    C2  277   3.423   5.393  16.595
    3DOPE    HS  278   3.488   5.302  16.642
    3DOPE   O21  279   3.513   5.487  16.512
    3DOPE   C21  280   3.616   5.410  16.447
    3DOPE   O22  281   3.629   5.278  16.452
    3DOPE   C22  282   3.726   5.514  16.381
    3DOPE   H2R  283   3.747   5.608  16.449
    3DOPE   H2S  284   3.675   5.556  16.289
    3DOPE    C3  285   3.294   5.328  16.513
    3DOPE    HX  286   3.228   5.260  16.583
    3DOPE    HY  287   3.340   5.253  16.435
    3DOPE   O31  288   3.204   5.446  16.462
    3DOPE   C31  289   3.209   5.467  16.330
    3DOPE   O32  290   3.253   5.379  16.248
    3DOPE   C32  291   3.157   5.624  16.299
    3DOPE   H2X  292   3.036   5.622  16.290
    3DOPE   H2Y  293   3.189   5.696  16.385
    3DOPE   C23  294   3.869   5.431  16.348
    3DOPE   H3R  295   3.897   5.355  16.432
    3DOPE   H3S  296   3.962   5.509  16.335
    3DOPE   C24  297   3.852   5.342  16.219
    3DOPE   H4R  298   3.736   5.307  16.206
    3DOPE   H4S  299   3.917   5.238  16.225
    3DOPE   C25  300   3.902   5.429  16.095
    3DOPE   H5R  301   4.024   5.426  16.091
    3DOPE   H5S  302   3.868   5.545  16.103
    3DOPE   C26  303   3.838   5.366  15.965
    3DOPE   H6R  304   3.847   5.244  15.966
    3DOPE   H6S  305   3.907   5.408  15.881
    3DOPE   C27  306   3.677   5.409  15.940
    3DOPE   H7R  307   3.674   5.507  15.874
    3DOPE   H7S  308   3.628   5.441  16.038
    3DOPE   C28  309   3.581   5.291  15.873
    3DOPE   H8R  310   3.594   5.184  15.927
    3DOPE   H8S  311   3.619   5.273  15.769
    3DOPE   C29  312   3.422   5.341  15.878
    3DOPE   H9R  313   3.358   5.301  15.964
    3DOPE  C210  314   3.357   5.433  15.791
    3DOPE  H10R  315   3.241   5.462  15.807
    3DOPE  C211  316   3.427   5.506  15.671
    3DOPE  H11R  317   3.502   5.430  15.618
    3DOPE  H11S  318   3.495   5.601  15.703
    3DOPE  C212  319   3.308   5.562  15.572
    3DOPE  H12R  320   3.366   5.603  15.481
    3DOPE  H12S  321   3.249   5.656  15.618
    3DOPE  C213  322   3.194   5.445  15.529
    3DOPE  H13R  323   3.109   5.498  15.465
    3DOPE  H13S  324   3.137   5.396  15.617
    3DOPE  C214  325   3.267   5.323  15.447
    3DOPE  H14R  326   3.366   5.281  15.499
    3DOPE  H14S  327   3.302   5.378  15.354
    3DOPE  C215  328   3.168   5.191  15.413
    3DOPE  H15R  329   3.071   5.228  15.354
    3DOPE  H15S  330   3.127   5.140  15.507
    3DOPE  C216  331   3.255   5.075  15.335
    3DOPE  H16R  332   3.351   5.040  15.397
    3DOPE  H16S  333   3.298   5.124  15.241
    3DOPE  C217  334   3.171   4.939  15.291
    3DOPE  H17R  335   3.122   4.881  15.378
    3DOPE  H17S  336   3.258   4.868  15.248
    3DOPE  C218  337   3.058   4.965  15.181
    3DOPE  H18R  338   3.110   5.029  15.098
    3DOPE  H18S  339   2.962   5.027  15.220
    3DOPE  H18T  340   3.018   4.859  15.139
    3DOPE   C33  341   3.230   5.684  16.171
    3DOPE   H3X  342   3.180   5.792  16.143
    3DOPE   H3Y  343   3.211   5.608  16.086
    3DOPE   C34  344   3.396   5.707  16.191
    3DOPE   H4X  345   3.414   5.803  16.260
    3DOPE   H4Y  346   3.445   5.609  16.239
    3DOPE   C35  347   3.477   5.733  16.060
    3DOPE   H5X  348   3.420   5.820  16.002
    3DOPE   H5Y  349   3.473   5.630  15.999
    3DOPE   C36  350   3.638   5.778  16.081
    3DOPE   H6X  351   3.698   5.689  16.131
    3DOPE   H6Y  352   3.640   5.876  16.148
    3DOPE   C37  353   3.714   5.815  15.950
    3DOPE   H7X  354   3.726   5.715  15.888
    3DOPE   H7Y  355   3.638   5.886  15.894
    3DOPE   C38  356   3.864   5.892  15.966
    3DOPE   H8X  357   3.872   5.935  16.070
    3DOPE   H8Y  358   3.862   5.991  15.900
    3DOPE   C39  359   3.997   5.800  15.931
    3DOPE   H9X  360   4.074   5.777  16.013
    3DOPE  C310  361   4.027   5.749  15.808
    3DOPE  H10X  362   4.133   5.691  15.791
    3DOPE  C311  363   3.935   5.772  15.684
    3DOPE  H11X  364   3.833   5.837  15.707
    3DOPE  H11Y  365   3.995   5.841  15.612
    3DOPE  C312  366   3.882   5.631  15.611
    3DOPE  H12X  367   3.845   5.662  15.508
    3DOPE  H12Y  368   3.782   5.592  15.665
    3DOPE  C313  369   3.991   5.501  15.601
    3DOPE  H13X  370   4.058   5.509  15.509
    3DOPE  H13Y  371   4.068   5.502  15.687
    3DOPE  C314  372   3.912   5.352  15.610
    3DOPE  H14X  373   3.831   5.358  15.693
    3DOPE  H14Y  374   3.991   5.262  15.633
    3DOPE  C315  375   3.824   5.310  15.485
    3DOPE  H15X  376   3.748   5.402  15.462
    3DOPE  H15Y  377   3.753   5.213  15.510
    3DOPE  C316  378   3.919   5.272  15.364
    3DOPE  H16X  379   3.872   5.173  15.314
    3DOPE  H16Y  380   4.031   5.241  15.396
    3DOPE  C317  381   3.927   5.400  15.264
    3DOPE  H17X  382   3.820   5.460  15.263
    3DOPE  H17Y  383   4.012   5.478  15.300
    3DOPE  C318  384   3.966   5.357  15.120
    3DOPE  H18X  385   4.062   5.284  15.120
    3DOPE  H18Y  386   3.884   5.294  15.065
    3DOPE  H18Z  387   3.983   5.458  15.062
    4DOPE     N  388   4.770   2.734  16.719
    4DOPE   HN1  389   4.697   2.822  16.734
    4DOPE   HN2  390   4.829   2.753  16.632
    4DOPE   HN3  391   4.708   2.638  16.707
    4DOPE   C12  392   4.875   2.714  16.833
    4DOPE  H12A  393   4.906   2.597  16.832
    4DOPE  H12B  394   4.815   2.731  16.926
    4DOPE   C11  395   5.014   2.813  16.824
    4DOPE  H11A  396   4.981   2.928  16.804
    4DOPE  H11B  397   5.085   2.779  16.739
    4DOPE     P  398   5.129   2.677  17.037
    4DOPE   O13  399   4.992   2.669  17.118
    4DOPE   O14  400   5.271   2.696  17.108
    4DOPE   O11  401   5.134   2.553  16.928
    4DOPE   O12  402   5.100   2.813  16.943
    4DOPE    C1  403   5.094   2.402  16.934
    4DOPE    HA  404   4.994   2.387  16.997
    4DOPE    HB  405   5.185   2.339  16.983
    4DOPE    C2  406   5.068   2.336  16.790
    4DOPE    HS  407   5.172   2.284  16.760
    4DOPE   O21  408   5.025   2.447  16.693
    4DOPE   C21  409   5.133   2.517  16.635
    4DOPE   O22  410   5.253   2.544  16.678
    4DOPE   C22  411   5.094   2.555  16.493
    4DOPE   H2R  412   4.975   2.573  16.479
    4DOPE   H2S  413   5.129   2.456  16.434
    4DOPE    C3  414   4.943   2.218  16.783
    4DOPE    HX  415   4.839   2.279  16.778
    4DOPE    HY  416   4.938   2.156  16.878
    4DOPE   O31  417   4.954   2.112  16.672
    4DOPE   C31  418   4.917   2.165  16.551
    4DOPE   O32  419   4.882   2.291  16.529
    4DOPE   C32  420   4.921   2.046  16.441
    4DOPE   H2X  421   5.019   1.977  16.452
    4DOPE   H2Y  422   4.821   1.978  16.451
    4DOPE   C23  423   5.190   2.686  16.450
    4DOPE   H3R  424   5.309   2.671  16.475
    4DOPE   H3S  425   5.157   2.791  16.500
    4DOPE   C24  426   5.182   2.702  16.301
    4DOPE   H4R  427   5.070   2.744  16.278
    4DOPE   H4S  428   5.191   2.592  16.250
    4DOPE   C25  429   5.298   2.802  16.240
    4DOPE   H5R  430   5.403   2.743  16.220
    4DOPE   H5S  431   5.322   2.898  16.305
    4DOPE   C26  432   5.226   2.849  16.112
    4DOPE   H6R  433   5.123   2.906  16.143
    4DOPE   H6S  434   5.195   2.750  16.053
    4DOPE   C27  435   5.307   2.954  16.021
    4DOPE   H7R  436   5.411   2.905  15.980
    4DOPE   H7S  437   5.336   3.055  16.077
    4DOPE   C28  438   5.200   2.978  15.906
    4DOPE   H8R  439   5.187   2.865  15.864
    4DOPE   H8S  440   5.254   3.044  15.825
    4DOPE   C29  441   5.049   3.045  15.938
    4DOPE   H9R  442   5.052   3.151  15.990
    4DOPE  C210  443   4.917   2.984  15.913
    4DOPE  H10R  444   4.819   3.051  15.931
    4DOPE  C211  445   4.886   2.837  15.849
    4DOPE  H11R  446   4.774   2.796  15.878
    4DOPE  H11S  447   4.964   2.754  15.892
    4DOPE  C212  448   4.900   2.834  15.695
    4DOPE  H12R  449   4.820   2.913  15.652
    4DOPE  H12S  450   4.868   2.724  15.657
    4DOPE  C213  451   5.057   2.875  15.650
    4DOPE  H13R  452   5.146   2.795  15.666
    4DOPE  H13S  453   5.081   2.979  15.703
    4DOPE  C214  454   5.075   2.941  15.515
    4DOPE  H14R  455   5.187   2.993  15.504
    4DOPE  H14S  456   4.991   3.028  15.518
    4DOPE  C215  457   5.040   2.835  15.406
    4DOPE  H15R  458   4.972   2.896  15.334
    4DOPE  H15S  459   4.970   2.749  15.450
    4DOPE  C216  460   5.175   2.770  15.338
    4DOPE  H16R  461   5.141   2.661  15.298
    4DOPE  H16S  462   5.265   2.750  15.413
    4DOPE  C217  463   5.227   2.877  15.230
    4DOPE  H17R  464   5.322   2.938  15.274
    4DOPE  H17S  465   5.138   2.958  15.212
    4DOPE  C218  466   5.268   2.818  15.092
    4DOPE  H18R  467   5.172   2.776  15.036
    4DOPE  H18S  468   5.349   2.728  15.103
    4DOPE  H18T  469   5.317   2.910  15.033
    4DOPE   C33  470   4.921   2.128  16.305
    4DOPE   H3X  471   5.015   2.209  16.307
    4DOPE   H3Y  472   4.819   2.194  16.302
    4DOPE   C34  473   4.929   2.048  16.170
    4DOPE   H4X  474   5.042   2.004  16.154
    4DOPE   H4Y  475   4.851   1.954  16.166
    4DOPE   C35  476   4.891   2.156  16.054
    4DOPE   H5X  477   4.771   2.179  16.057
    4DOPE   H5Y  478   4.916   2.104  15.956
    4DOPE   C36  479   4.971   2.305  16.066
    4DOPE   H6X  480   5.092   2.284  16.070
    4DOPE   H6Y  481   4.940   2.362  16.160
    4DOPE   C37  482   4.940   2.414  15.952
    4DOPE   H7X  483   4.836   2.386  15.899
    4DOPE   H7Y  484   4.927   2.527  15.996
    4DOPE   C38  485   5.071   2.412  15.857
    4DOPE   H8X  486   5.080   2.298  15.821
    4DOPE   H8Y  487   5.170   2.433  15.920
    4DOPE   C39  488   5.074   2.522  15.746
    4DOPE   H9X  489   5.096   2.633  15.781
    4DOPE  C310  490   5.067   2.494  15.614
    4DOPE  H10X  491   5.068   2.585  15.542
    4DOPE  C311  492   5.051   2.343  15.556
    4DOPE  H11X  493   5.035   2.258  15.634
    4DOPE  H11Y  494   4.949   2.339  15.497
    4DOPE  C312  495   5.189   2.291  15.477
    4DOPE  H12X  496   5.204   2.174  15.503
    4DOPE  H12Y  497   5.290   2.353  15.505
    4DOPE  C313  498   5.181   2.302  15.326
    4DOPE  H13X  499   5.163   2.420  15.298
    4DOPE  H13Y  500   5.287   2.266  15.281
    4DOPE  C314  501   5.057   2.210  15.270
    4DOPE  H14X  502   4.959   2.239  15.328
    4DOPE  H14Y  503   5.075   2.089  15.283
    4DOPE  C315  504   5.028   2.250  15.126
    4DOPE  H15X  505   5.071   2.160  15.063
    4DOPE  H15Y  506   5.096   2.349  15.103
    4DOPE  C316  507   4.868   2.292  15.101
    4DOPE  H16X  508   4.863   2.386  15.031
    4DOPE  H16Y  509   4.815   2.324  15.196
    4DOPE  C317  510   4.766   2.180  15.038
    4DOPE  H17X  511   4.811   2.147  14.940
    4DOPE  H17Y  512   4.763   2.082  15.104
    4DOPE  C318  513   4.613   2.247  15.018
    4DOPE  H18X  514   4.530   2.161  14.996
    4DOPE  H18Y  515   4.579   2.309  15.109
    4DOPE  H18Z  516   4.617   2.327  14.934
    5DOPE     N  517   1.842   4.671  16.742
    5DOPE   HN1  518   1.763   4.590  16.730
    5DOPE   HN2  519   1.796   4.773  16.765
    5DOPE   HN3  520   1.902   4.683  16.653
    5DOPE   C12  521   1.947   4.642  16.852
    5DOPE  H12A  522   1.882   4.621  16.943
    5DOPE  H12B  523   2.012   4.745  16.865
    5DOPE   C11  524   2.045   4.510  16.821
    5DOPE  H11A  525   2.122   4.526  16.736
    5DOPE  H11B  526   1.979   4.412  16.793
    5DOPE     P  527   2.246   4.590  16.993
    5DOPE   O13  528   2.368   4.491  17.032
    5DOPE   O14  529   2.175   4.685  17.095
    5DOPE   O11  530   2.275   4.679  16.856
    5DOPE   O12  531   2.126   4.479  16.937
    5DOPE    C1  532   2.412   4.735  16.812
    5DOPE    HA  533   2.504   4.655  16.829
    5DOPE    HB  534   2.440   4.837  16.870
    5DOPE    C2  535   2.423   4.775  16.657
    5DOPE    HS  536   2.529   4.836  16.644
    5DOPE   O21  537   2.301   4.865  16.612
    5DOPE   C21  538   2.231   4.829  16.500
    5DOPE   O22  539   2.281   4.820  16.387
    5DOPE   C22  540   2.078   4.772  16.544
    5DOPE   H2R  541   2.036   4.853  16.617
    5DOPE   H2S  542   2.100   4.673  16.602
    5DOPE    C3  543   2.437   4.630  16.572
    5DOPE    HX  544   2.516   4.556  16.624
    5DOPE    HY  545   2.489   4.668  16.477
    5DOPE   O31  546   2.301   4.547  16.551
    5DOPE   C31  547   2.302   4.472  16.436
    5DOPE   O32  548   2.400   4.476  16.354
    5DOPE   C32  549   2.160   4.382  16.423
    5DOPE   H2X  550   2.174   4.289  16.492
    5DOPE   H2Y  551   2.066   4.446  16.459
    5DOPE   C23  552   1.969   4.739  16.427
    5DOPE   H3R  553   1.964   4.621  16.401
    5DOPE   H3S  554   2.008   4.797  16.335
    5DOPE   C24  555   1.811   4.791  16.448
    5DOPE   H4R  556   1.811   4.910  16.441
    5DOPE   H4S  557   1.769   4.766  16.546
    5DOPE   C25  558   1.695   4.732  16.349
    5DOPE   H5R  559   1.588   4.788  16.365
    5DOPE   H5S  560   1.680   4.612  16.371
    5DOPE   C26  561   1.735   4.740  16.201
    5DOPE   H6R  562   1.668   4.651  16.154
    5DOPE   H6S  563   1.851   4.709  16.184
    5DOPE   C27  564   1.701   4.882  16.124
    5DOPE   H7R  565   1.766   4.972  16.167
    5DOPE   H7S  566   1.585   4.915  16.135
    5DOPE   C28  567   1.740   4.874  15.975
    5DOPE   H8R  568   1.855   4.831  15.964
    5DOPE   H8S  569   1.737   4.984  15.928
    5DOPE   C29  570   1.628   4.774  15.914
    5DOPE   H9R  571   1.516   4.820  15.903
    5DOPE  C210  572   1.651   4.633  15.889
    5DOPE  H10R  573   1.552   4.566  15.877
    5DOPE  C211  574   1.791   4.547  15.915
    5DOPE  H11R  575   1.769   4.437  15.957
    5DOPE  H11S  576   1.860   4.601  15.992
    5DOPE  C212  577   1.888   4.530  15.791
    5DOPE  H12R  578   1.978   4.453  15.819
    5DOPE  H12S  579   1.939   4.635  15.763
    5DOPE  C213  580   1.811   4.466  15.668
    5DOPE  H13R  581   1.775   4.557  15.602
    5DOPE  H13S  582   1.711   4.406  15.698
    5DOPE  C214  583   1.915   4.359  15.596
    5DOPE  H14R  584   1.951   4.273  15.669
    5DOPE  H14S  585   2.015   4.421  15.565
    5DOPE  C215  586   1.846   4.285  15.475
    5DOPE  H15R  587   1.763   4.203  15.510
    5DOPE  H15S  588   1.933   4.223  15.420
    5DOPE  C216  589   1.769   4.392  15.379
    5DOPE  H16R  590   1.666   4.433  15.428
    5DOPE  H16S  591   1.735   4.332  15.287
    5DOPE  C217  592   1.863   4.523  15.338
    5DOPE  H17R  593   1.917   4.575  15.426
    5DOPE  H17S  594   1.795   4.610  15.292
    5DOPE  C218  595   1.980   4.481  15.237
    5DOPE  H18R  596   2.064   4.569  15.229
    5DOPE  H18S  597   1.933   4.462  15.137
    5DOPE  H18T  598   2.034   4.379  15.270
    5DOPE   C33  599   2.132   4.327  16.279
    5DOPE   H3X  600   2.062   4.227  16.289
    5DOPE   H3Y  601   2.236   4.292  16.229
    5DOPE   C34  602   2.046   4.434  16.188
    5DOPE   H4X  603   2.016   4.379  16.093
    5DOPE   H4Y  604   1.939   4.459  16.238
    5DOPE   C35  605   2.123   4.582  16.157
    5DOPE   H5X  606   2.157   4.632  16.253
    5DOPE   H5Y  607   2.046   4.659  16.108
    5DOPE   C36  608   2.261   4.576  16.068
    5DOPE   H6X  609   2.343   4.506  16.118
    5DOPE   H6Y  610   2.307   4.689  16.062
    5DOPE   C37  611   2.232   4.520  15.926
    5DOPE   H7X  612   2.167   4.415  15.932
    5DOPE   H7Y  613   2.167   4.599  15.866
    5DOPE   C38  614   2.376   4.481  15.855
    5DOPE   H8X  615   2.359   4.378  15.798
    5DOPE   H8Y  616   2.456   4.453  15.934
    5DOPE   C39  617   2.438   4.602  15.769
    5DOPE   H9X  618   2.425   4.715  15.811
    5DOPE  C310  619   2.498   4.584  15.648
    5DOPE  H10X  620   2.533   4.682  15.592
    5DOPE  C311  621   2.517   4.440  15.576
    5DOPE  H11X  622   2.602   4.448  15.496
    5DOPE  H11Y  623   2.556   4.351  15.643
    5DOPE  C312  624   2.372   4.384  15.516
    5DOPE  H12X  625   2.286   4.379  15.595
    5DOPE  H12Y  626   2.386   4.268  15.480
    5DOPE  C313  627   2.318   4.478  15.401
    5DOPE  H13X  628   2.200   4.451  15.387
    5DOPE  H13Y  629   2.321   4.596  15.430
    5DOPE  C314  630   2.404   4.451  15.272
    5DOPE  H14X  631   2.409   4.330  15.253
    5DOPE  H14Y  632   2.518   4.490  15.288
    5DOPE  C315  633   2.338   4.528  15.150
    5DOPE  H15X  634   2.296   4.638  15.183
    5DOPE  H15Y  635   2.241   4.465  15.112
    5DOPE  C316  636   2.447   4.552  15.036
    5DOPE  H16X  637   2.452   4.453  14.971
    5DOPE  H16Y  638   2.559   4.567  15.080
    5DOPE  C317  639   2.412   4.692  14.956
    5DOPE  H17X  640   2.396   4.785  15.026
    5DOPE  H17Y  641   2.509   4.719  14.894
    5DOPE  C318  642   2.281   4.683  14.861
    5DOPE  H18X  643   2.179   4.652  14.915
    5DOPE  H18Y  644   2.264   4.791  14.812
    5DOPE  H18Z  645   2.303   4.601  14.781
    6DOPE     N  646   2.056   5.718  17.052
    6DOPE   HN1  647   2.017   5.610  17.058
    6DOPE   HN2  648   2.048   5.772  17.144
    6DOPE   HN3  649   2.002   5.774  16.975
    6DOPE   C12  650   2.210   5.701  17.003
    6DOPE  H12A  651   2.270   5.634  17.077
    6DOPE  H12B  652   2.259   5.812  16.995
    6DOPE   C11  653   2.204   5.621  16.867
    6DOPE  H11A  654   2.317   5.580  16.841
    6DOPE  H11B  655   2.174   5.702  16.790
    6DOPE     P  656   2.142   5.346  16.905
    6DOPE   O13  657   2.235   5.360  17.026
    6DOPE   O14  658   2.200   5.269  16.788
    6DOPE   O11  659   2.000   5.269  16.956
    6DOPE   O12  660   2.094   5.509  16.865
    6DOPE    C1  661   1.876   5.336  17.012
    6DOPE    HA  662   1.883   5.458  17.010
    6DOPE    HB  663   1.863   5.304  17.119
    6DOPE    C2  664   1.737   5.291  16.934
    6DOPE    HS  665   1.681   5.201  16.990
    6DOPE   O21  666   1.769   5.245  16.799
    6DOPE   C21  667   1.799   5.112  16.767
    6DOPE   O22  668   1.802   5.001  16.836
    6DOPE   C22  669   1.813   5.097  16.615
    6DOPE   H2R  670   1.707   5.080  16.564
    6DOPE   H2S  671   1.874   4.994  16.608
    6DOPE    C3  672   1.636   5.429  16.928
    6DOPE    HX  673   1.626   5.471  17.033
    6DOPE    HY  674   1.525   5.400  16.893
    6DOPE   O31  675   1.696   5.543  16.845
    6DOPE   C31  676   1.676   5.515  16.717
    6DOPE   O32  677   1.591   5.426  16.670
    6DOPE   C32  678   1.788   5.604  16.638
    6DOPE   H2X  679   1.802   5.713  16.687
    6DOPE   H2Y  680   1.893   5.544  16.644
    6DOPE   C23  681   1.904   5.212  16.537
    6DOPE   H3R  682   1.965   5.283  16.609
    6DOPE   H3S  683   1.826   5.280  16.484
    6DOPE   C24  684   2.019   5.146  16.439
    6DOPE   H4R  685   2.048   5.037  16.478
    6DOPE   H4S  686   2.120   5.211  16.459
    6DOPE   C25  687   1.983   5.126  16.285
    6DOPE   H5R  688   1.917   5.026  16.281
    6DOPE   H5S  689   2.090   5.104  16.234
    6DOPE   C26  690   1.906   5.256  16.210
    6DOPE   H6R  691   1.993   5.327  16.172
    6DOPE   H6S  692   1.837   5.301  16.287
    6DOPE   C27  693   1.795   5.261  16.092
    6DOPE   H7R  694   1.717   5.171  16.102
    6DOPE   H7S  695   1.848   5.247  15.995
    6DOPE   C28  696   1.717   5.415  16.089
    6DOPE   H8R  697   1.804   5.501  16.083
    6DOPE   H8S  698   1.662   5.432  16.186
    6DOPE   C29  699   1.605   5.452  15.985
    6DOPE   H9R  700   1.491   5.460  16.020
    6DOPE  C210  701   1.631   5.492  15.860
    6DOPE  H10R  702   1.536   5.507  15.793
    6DOPE  C211  703   1.778   5.510  15.795
    6DOPE  H11R  704   1.871   5.490  15.864
    6DOPE  H11S  705   1.793   5.623  15.752
    6DOPE  C212  706   1.774   5.399  15.681
    6DOPE  H12R  707   1.745   5.288  15.720
    6DOPE  H12S  708   1.885   5.391  15.635
    6DOPE  C213  709   1.661   5.443  15.574
    6DOPE  H13R  710   1.670   5.564  15.558
    6DOPE  H13S  711   1.548   5.418  15.608
    6DOPE  C214  712   1.685   5.366  15.442
    6DOPE  H14R  713   1.666   5.246  15.454
    6DOPE  H14S  714   1.802   5.382  15.411
    6DOPE  C215  715   1.586   5.429  15.333
    6DOPE  H15R  716   1.607   5.548  15.322
    6DOPE  H15S  717   1.469   5.416  15.362
    6DOPE  C216  718   1.614   5.352  15.201
    6DOPE  H16R  719   1.733   5.355  15.177
    6DOPE  H16S  720   1.554   5.413  15.121
    6DOPE  C217  721   1.560   5.192  15.201
    6DOPE  H17R  722   1.487   5.172  15.289
    6DOPE  H17S  723   1.656   5.117  15.212
    6DOPE  C218  724   1.474   5.157  15.074
    6DOPE  H18R  725   1.433   5.042  15.074
    6DOPE  H18S  726   1.546   5.173  14.985
    6DOPE  H18T  727   1.376   5.226  15.064
    6DOPE   C33  728   1.735   5.626  16.493
    6DOPE   H3X  729   1.735   5.745  16.474
    6DOPE   H3Y  730   1.618   5.594  16.482
    6DOPE   C34  731   1.821   5.542  16.384
    6DOPE   H4X  732   1.757   5.441  16.390
    6DOPE   H4Y  733   1.796   5.594  16.286
    6DOPE   C35  734   1.991   5.528  16.396
    6DOPE   H5X  735   2.038   5.491  16.493
    6DOPE   H5Y  736   1.990   5.643  16.405
    6DOPE   C36  737   2.106   5.532  16.278
    6DOPE   H6X  738   2.161   5.640  16.269
    6DOPE   H6Y  739   2.053   5.524  16.180
    6DOPE   C37  740   2.240   5.431  16.295
    6DOPE   H7X  741   2.308   5.467  16.382
    6DOPE   H7Y  742   2.200   5.321  16.324
    6DOPE   C38  743   2.340   5.420  16.171
    6DOPE   H8X  744   2.455   5.432  16.205
    6DOPE   H8Y  745   2.319   5.509  16.097
    6DOPE   C39  746   2.313   5.267  16.118
    6DOPE   H9X  747   2.331   5.182  16.195
    6DOPE  C310  748   2.281   5.221  15.996
    6DOPE  H10X  749   2.267   5.101  15.982
    6DOPE  C311  750   2.262   5.311  15.872
    6DOPE  H11X  751   2.198   5.412  15.893
    6DOPE  H11Y  752   2.371   5.342  15.829
    6DOPE  C312  753   2.181   5.212  15.772
    6DOPE  H12X  754   2.248   5.112  15.751
    6DOPE  H12Y  755   2.167   5.271  15.676
    6DOPE  C313  756   2.030   5.170  15.825
    6DOPE  H13X  757   2.033   5.106  15.921
    6DOPE  H13Y  758   1.976   5.278  15.844
    6DOPE  C314  759   1.937   5.083  15.726
    6DOPE  H14X  760   1.929   5.149  15.633
    6DOPE  H14Y  761   1.823   5.071  15.763
    6DOPE  C315  762   2.001   4.931  15.699
    6DOPE  H15X  763   1.967   4.857  15.781
    6DOPE  H15Y  764   2.123   4.932  15.698
    6DOPE  C316  765   1.950   4.877  15.564
    6DOPE  H16X  766   1.830   4.902  15.553
    6DOPE  H16Y  767   1.965   4.756  15.555
    6DOPE  C317  768   2.037   4.953  15.452
    6DOPE  H17X  769   2.050   5.073  15.472
    6DOPE  H17Y  770   2.149   4.905  15.446
    6DOPE  C318  771   1.956   4.935  15.322
    6DOPE  H18X  772   1.844   4.983  15.332
    6DOPE  H18Y  773   2.011   4.992  15.239
    6DOPE  H18Z  774   1.946   4.816  15.298
    7DOPE     N  775   5.387   6.369  17.194
    7DOPE   HN1  776   5.499   6.384  17.177
    7DOPE   HN2  777   5.344   6.469  17.227
    7DOPE   HN3  778   5.374   6.290  17.270
    7DOPE   C12  779   5.304   6.321  17.070
    7DOPE  H12A  780   5.187   6.333  17.094
    7DOPE  H12B  781   5.332   6.203  17.051
    7DOPE   C11  782   5.334   6.413  16.943
    7DOPE  H11A  783   5.449   6.397  16.911
    7DOPE  H11B  784   5.317   6.532  16.964
    7DOPE     P  785   5.081   6.432  16.809
    7DOPE   O13  786   5.093   6.586  16.764
    7DOPE   O14  787   4.985   6.400  16.925
    7DOPE   O11  788   5.020   6.344  16.687
    7DOPE   O12  789   5.240   6.365  16.837
    7DOPE    C1  790   5.066   6.197  16.658
    7DOPE    HA  791   4.963   6.130  16.649
    7DOPE    HB  792   5.134   6.146  16.738
    7DOPE    C2  793   5.147   6.188  16.523
    7DOPE    HS  794   5.129   6.070  16.494
    7DOPE   O21  795   5.303   6.226  16.534
    7DOPE   C21  796   5.369   6.178  16.423
    7DOPE   O22  797   5.307   6.093  16.347
    7DOPE   C22  798   5.520   6.249  16.400
    7DOPE   H2R  799   5.590   6.224  16.487
    7DOPE   H2S  800   5.504   6.369  16.393
    7DOPE    C3  801   5.073   6.288  16.415
    7DOPE    HX  802   4.958   6.310  16.447
    7DOPE    HY  803   5.071   6.226  16.319
    7DOPE   O31  804   5.145   6.427  16.404
    7DOPE   C31  805   5.194   6.477  16.290
    7DOPE   O32  806   5.213   6.409  16.187
    7DOPE   C32  807   5.220   6.642  16.312
    7DOPE   H2X  808   5.190   6.669  16.416
    7DOPE   H2Y  809   5.336   6.669  16.294
    7DOPE   C23  810   5.599   6.194  16.271
    7DOPE   H3R  811   5.638   6.080  16.285
    7DOPE   H3S  812   5.700   6.261  16.255
    7DOPE   C24  813   5.504   6.201  16.145
    7DOPE   H4R  814   5.471   6.315  16.120
    7DOPE   H4S  815   5.402   6.136  16.154
    7DOPE   C25  816   5.575   6.129  16.025
    7DOPE   H5R  817   5.595   6.010  16.046
    7DOPE   H5S  818   5.684   6.181  16.009
    7DOPE   C26  819   5.467   6.141  15.908
    7DOPE   H6R  820   5.444   6.258  15.882
    7DOPE   H6S  821   5.361   6.100  15.946
    7DOPE   C27  822   5.520   6.057  15.784
    7DOPE   H7R  823   5.442   6.043  15.701
    7DOPE   H7S  824   5.552   5.943  15.819
    7DOPE   C28  825   5.653   6.132  15.728
    7DOPE   H8R  826   5.715   6.059  15.659
    7DOPE   H8S  827   5.717   6.146  15.820
    7DOPE   C29  828   5.650   6.288  15.683
    7DOPE   H9R  829   5.600   6.367  15.754
    7DOPE  C210  830   5.695   6.336  15.565
    7DOPE  H10R  831   5.691   6.455  15.549
    7DOPE  C211  832   5.755   6.255  15.446
    7DOPE  H11R  833   5.873   6.225  15.454
    7DOPE  H11S  834   5.755   6.335  15.363
    7DOPE  C212  835   5.654   6.137  15.383
    7DOPE  H12R  836   5.625   6.048  15.455
    7DOPE  H12S  837   5.726   6.092  15.304
    7DOPE  C213  838   5.515   6.214  15.322
    7DOPE  H13R  839   5.557   6.321  15.285
    7DOPE  H13S  840   5.442   6.233  15.409
    7DOPE  C214  841   5.422   6.182  15.193
    7DOPE  H14R  842   5.327   6.257  15.212
    7DOPE  H14S  843   5.365   6.075  15.190
    7DOPE  C215  844   5.490   6.238  15.057
    7DOPE  H15R  845   5.589   6.178  15.034
    7DOPE  H15S  846   5.538   6.349  15.065
    7DOPE  C216  847   5.409   6.216  14.922
    7DOPE  H16R  848   5.292   6.250  14.932
    7DOPE  H16S  849   5.409   6.095  14.908
    7DOPE  C217  850   5.482   6.288  14.796
    7DOPE  H17R  851   5.486   6.406  14.812
    7DOPE  H17S  852   5.419   6.288  14.702
    7DOPE  C218  853   5.630   6.225  14.748
    7DOPE  H18R  854   5.686   6.315  14.693
    7DOPE  H18S  855   5.614   6.130  14.678
    7DOPE  H18T  856   5.701   6.185  14.829
    7DOPE   C33  857   5.118   6.731  16.220
    7DOPE   H3X  858   5.118   6.849  16.253
    7DOPE   H3Y  859   5.002   6.691  16.225
    7DOPE   C34  860   5.173   6.720  16.078
    7DOPE   H4X  861   5.289   6.678  16.075
    7DOPE   H4Y  862   5.104   6.636  16.026
    7DOPE   C35  863   5.171   6.865  16.004
    7DOPE   H5X  864   5.279   6.922  16.019
    7DOPE   H5Y  865   5.084   6.941  16.040
    7DOPE   C36  866   5.148   6.830  15.858
    7DOPE   H6X  867   5.034   6.851  15.828
    7DOPE   H6Y  868   5.171   6.711  15.840
    7DOPE   C37  869   5.251   6.917  15.771
    7DOPE   H7X  870   5.259   7.031  15.807
    7DOPE   H7Y  871   5.364   6.874  15.784
    7DOPE   C38  872   5.202   6.920  15.624
    7DOPE   H8X  873   5.302   6.948  15.570
    7DOPE   H8Y  874   5.127   7.011  15.607
    7DOPE   C39  875   5.128   6.788  15.564
    7DOPE   H9X  876   5.104   6.703  15.638
    7DOPE  C310  877   5.107   6.753  15.435
    7DOPE  H10X  878   5.060   6.643  15.421
    7DOPE  C311  879   5.147   6.828  15.304
    7DOPE  H11X  880   5.198   6.938  15.314
    7DOPE  H11Y  881   5.239   6.773  15.256
    7DOPE  C312  882   5.023   6.834  15.199
    7DOPE  H12X  883   5.062   6.864  15.097
    7DOPE  H12Y  884   4.954   6.923  15.236
    7DOPE  C313  885   4.910   6.710  15.191
    7DOPE  H13X  886   4.891   6.659  15.290
    7DOPE  H13Y  887   4.801   6.755  15.159
    7DOPE  C314  888   4.960   6.598  15.089
    7DOPE  H14X  889   5.080   6.608  15.073
    7DOPE  H14Y  890   4.916   6.625  14.990
    7DOPE  C315  891   4.921   6.443  15.129
    7DOPE  H15X  892   4.800   6.428  15.136
    7DOPE  H15Y  893   4.966   6.414  15.228
    7DOPE  C316  894   4.982   6.341  15.021
    7DOPE  H16X  895   5.101   6.368  15.006
    7DOPE  H16Y  896   4.923   6.368  14.927
    7DOPE  C317  897   4.964   6.181  15.057
    7DOPE  H17X  898   5.075   6.130  15.065
    7DOPE  H17Y  899   4.919   6.175  15.159
    7DOPE  C318  900   4.868   6.097  14.959
    7DOPE  H18X  901   4.898   6.116  14.854
    7DOPE  H18Y  902   4.868   5.977  14.982
    7DOPE  H18Z  903   4.754   6.136  14.955
    8DOPE     N  904   6.028   6.080  17.184
    8DOPE   HN1  905   5.944   6.013  17.223
    8DOPE   HN2  906   6.089   6.003  17.127
    8DOPE   HN3  907   6.091   6.123  17.262
    8DOPE   C12  908   5.970   6.194  17.091
    8DOPE  H12A  909   6.065   6.251  17.045
    8DOPE  H12B  910   5.901   6.272  17.148
    8DOPE   C11  911   5.884   6.119  16.978
    8DOPE  H11A  912   5.832   6.202  16.911
    8DOPE  H11B  913   5.796   6.051  17.022
    8DOPE     P  914   5.917   5.908  16.814
    8DOPE   O13  915   5.792   5.965  16.737
    8DOPE   O14  916   5.899   5.784  16.908
    8DOPE   O11  917   6.053   5.884  16.723
    8DOPE   O12  918   5.985   6.032  16.904
    8DOPE    C1  919   6.179   5.823  16.788
    8DOPE    HA  920   6.153   5.746  16.871
    8DOPE    HB  921   6.249   5.914  16.826
    8DOPE    C2  922   6.257   5.724  16.688
    8DOPE    HS  923   6.364   5.691  16.728
    8DOPE   O21  924   6.281   5.801  16.568
    8DOPE   C21  925   6.378   5.905  16.583
    8DOPE   O22  926   6.449   5.936  16.682
    8DOPE   C22  927   6.385   5.987  16.454
    8DOPE   H2R  928   6.503   6.014  16.441
    8DOPE   H2S  929   6.317   6.089  16.462
    8DOPE    C3  930   6.170   5.581  16.660
    8DOPE    HX  931   6.148   5.525  16.757
    8DOPE    HY  932   6.245   5.509  16.603
    8DOPE   O31  933   6.032   5.603  16.594
    8DOPE   C31  934   6.040   5.601  16.463
    8DOPE   O32  935   6.149   5.577  16.395
    8DOPE   C32  936   5.887   5.606  16.406
    8DOPE   H2X  937   5.872   5.492  16.370
    8DOPE   H2Y  938   5.806   5.634  16.484
    8DOPE   C23  939   6.343   5.898  16.331
    8DOPE   H3R  940   6.225   5.866  16.332
    8DOPE   H3S  941   6.404   5.796  16.324
    8DOPE   C24  942   6.391   5.981  16.209
    8DOPE   H4R  943   6.511   6.002  16.210
    8DOPE   H4S  944   6.336   6.086  16.219
    8DOPE   C25  945   6.349   5.903  16.081
    8DOPE   H5R  946   6.335   5.985  16.000
    8DOPE   H5S  947   6.243   5.843  16.096
    8DOPE   C26  948   6.470   5.797  16.041
    8DOPE   H6R  949   6.550   5.789  16.124
    8DOPE   H6S  950   6.530   5.842  15.954
    8DOPE   C27  951   6.414   5.643  16.010
    8DOPE   H7R  952   6.322   5.614  16.078
    8DOPE   H7S  953   6.505   5.564  16.031
    8DOPE   C28  954   6.370   5.636  15.864
    8DOPE   H8R  955   6.463   5.672  15.800
    8DOPE   H8S  956   6.278   5.716  15.849
    8DOPE   C29  957   6.327   5.485  15.824
    8DOPE   H9R  958   6.417   5.416  15.793
    8DOPE  C210  959   6.193   5.429  15.832
    8DOPE  H10R  960   6.170   5.322  15.784
    8DOPE  C211  961   6.063   5.512  15.884
    8DOPE  H11R  962   6.094   5.598  15.958
    8DOPE  H11S  963   5.983   5.436  15.931
    8DOPE  C212  964   5.996   5.586  15.762
    8DOPE  H12R  965   6.071   5.673  15.720
    8DOPE  H12S  966   5.893   5.642  15.793
    8DOPE  C213  967   5.963   5.474  15.654
    8DOPE  H13R  968   5.936   5.365  15.698
    8DOPE  H13S  969   6.060   5.457  15.587
    8DOPE  C214  970   5.835   5.526  15.572
    8DOPE  H14R  971   5.733   5.534  15.634
    8DOPE  H14S  972   5.820   5.436  15.498
    8DOPE  C215  973   5.871   5.676  15.511
    8DOPE  H15R  974   5.983   5.671  15.467
    8DOPE  H15S  975   5.873   5.764  15.588
    8DOPE  C216  976   5.763   5.717  15.401
    8DOPE  H16R  977   5.815   5.809  15.346
    8DOPE  H16S  978   5.660   5.757  15.446
    8DOPE  C217  979   5.737   5.586  15.307
    8DOPE  H17R  980   5.835   5.514  15.311
    8DOPE  H17S  981   5.733   5.620  15.201
    8DOPE  C218  982   5.603   5.489  15.340
    8DOPE  H18R  983   5.500   5.548  15.321
    8DOPE  H18S  984   5.600   5.449  15.444
    8DOPE  H18T  985   5.610   5.389  15.276
    8DOPE   C33  986   5.879   5.709  16.286
    8DOPE   H3X  987   5.775   5.689  16.230
    8DOPE   H3Y  988   5.973   5.680  16.218
    8DOPE   C34  989   5.884   5.870  16.329
    8DOPE   H4X  990   5.769   5.905  16.352
    8DOPE   H4Y  991   5.948   5.884  16.423
    8DOPE   C35  992   5.950   5.972  16.223
    8DOPE   H5X  993   6.070   5.983  16.239
    8DOPE   H5Y  994   5.903   6.084  16.236
    8DOPE   C36  995   5.928   5.921  16.079
    8DOPE   H6X  996   5.808   5.914  16.056
    8DOPE   H6Y  997   5.977   5.812  16.057
    8DOPE   C37  998   6.002   6.031  15.987
    8DOPE   H7X  999   5.980   6.142  16.029
    8DOPE   H7Y 1000   6.122   6.015  15.988
    8DOPE   C38 1001   5.954   6.014  15.843
    8DOPE   H8X 1002   5.839   5.974  15.843
    8DOPE   H8Y 1003   6.016   5.921  15.797
    8DOPE   C39 1004   5.976   6.163  15.780
    8DOPE   H9X 1005   5.916   6.253  15.829
    8DOPE  C310 1006   6.068   6.195  15.681
    8DOPE  H10X 1007   6.079   6.310  15.647
    8DOPE  C311 1008   6.163   6.078  15.621
    8DOPE  H11X 1009   6.109   5.968  15.625
    8DOPE  H11Y 1010   6.179   6.098  15.515
    8DOPE  C312 1011   6.312   6.072  15.695
    8DOPE  H12X 1012   6.285   6.078  15.804
    8DOPE  H12Y 1013   6.378   6.171  15.670
    8DOPE  C313 1014   6.400   5.928  15.677
    8DOPE  H13X 1015   6.460   5.909  15.772
    8DOPE  H13Y 1016   6.319   5.838  15.665
    8DOPE  C314 1017   6.511   5.920  15.560
    8DOPE  H14X 1018   6.619   5.965  15.591
    8DOPE  H14Y 1019   6.474   5.997  15.481
    8DOPE  C315 1020   6.524   5.771  15.487
    8DOPE  H15X 1021   6.586   5.684  15.542
    8DOPE  H15Y 1022   6.591   5.792  15.396
    8DOPE  C316 1023   6.377   5.706  15.443
    8DOPE  H16X 1024   6.318   5.654  15.529
    8DOPE  H16Y 1025   6.399   5.615  15.373
    8DOPE  C317 1026   6.277   5.816  15.372
    8DOPE  H17X 1027   6.169   5.764  15.348
    8DOPE  H17Y 1028   6.251   5.906  15.441
    8DOPE  C318 1029   6.344   5.874  15.242
    8DOPE  H18X 1030   6.458   5.835  15.226
    8DOPE  H18Y 1031   6.339   5.993  15.232
    8DOPE  H18Z 1032   6.274   5.843  15.156
    9DOPE     N 1033   1.444   5.150  16.644
    9DOPE   HN1 1034   1.558   5.144  16.638
    9DOPE   HN2 1035   1.397   5.173  16.551
    9DOPE   HN3 1036   1.424   5.240  16.706
    9DOPE   C12 1037   1.372   5.019  16.708
    9DOPE  H12A 1038   1.386   4.923  16.643
    9DOPE  H12B 1039   1.253   5.045  16.713
    9DOPE   C11 1040   1.424   4.995  16.853
    9DOPE  H11A 1041   1.531   4.936  16.847
    9DOPE  H11B 1042   1.345   4.920  16.904
    9DOPE     P 1043   1.338   5.192  17.033
    9DOPE   O13 1044   1.378   5.346  17.065
    9DOPE   O14 1045   1.324   5.089  17.146
    9DOPE   O11 1046   1.196   5.194  16.947
    9DOPE   O12 1047   1.448   5.129  16.923
    9DOPE    C1 1048   1.049   5.173  16.991
    9DOPE    HA 1049   1.010   5.276  17.041
    9DOPE    HB 1050   1.039   5.080  17.062
    9DOPE    C2 1051   0.954   5.145  16.867
    9DOPE    HS 1052   0.841   5.107  16.898
    9DOPE   O21 1053   1.022   5.042  16.778
    9DOPE   C21 1054   0.968   4.910  16.768
    9DOPE   O22 1055   0.878   4.854  16.842
    9DOPE   C22 1056   1.034   4.838  16.644
    9DOPE   H2R 1057   0.963   4.743  16.628
    9DOPE   H2S 1058   1.145   4.799  16.668
    9DOPE    C3 1059   0.933   5.288  16.785
    9DOPE    HX 1060   0.849   5.353  16.841
    9DOPE    HY 1061   0.883   5.258  16.687
    9DOPE   O31 1062   1.061   5.381  16.769
    9DOPE   C31 1063   1.150   5.350  16.669
    9DOPE   O32 1064   1.153   5.240  16.602
    9DOPE   C32 1065   1.236   5.486  16.630
    9DOPE   H2X 1066   1.155   5.575  16.616
    9DOPE   H2Y 1067   1.311   5.515  16.713
    9DOPE   C23 1068   1.027   4.932  16.514
    9DOPE   H3R 1069   1.105   5.024  16.526
    9DOPE   H3S 1070   0.915   4.979  16.501
    9DOPE   C24 1071   1.077   4.859  16.383
    9DOPE   H4R 1072   1.080   4.943  16.303
    9DOPE   H4S 1073   0.995   4.775  16.352
    9DOPE   C25 1074   1.229   4.789  16.395
    9DOPE   H5R 1075   1.231   4.719  16.486
    9DOPE   H5S 1076   1.316   4.875  16.407
    9DOPE   C26 1077   1.269   4.686  16.281
    9DOPE   H6R 1078   1.184   4.603  16.259
    9DOPE   H6S 1079   1.366   4.627  16.322
    9DOPE   C27 1080   1.327   4.760  16.153
    9DOPE   H7R 1081   1.416   4.692  16.108
    9DOPE   H7S 1082   1.379   4.862  16.187
    9DOPE   C28 1083   1.210   4.793  16.045
    9DOPE   H8R 1084   1.268   4.858  15.967
    9DOPE   H8S 1085   1.129   4.870  16.089
    9DOPE   C29 1086   1.132   4.663  15.984
    9DOPE   H9R 1087   1.046   4.615  16.049
    9DOPE  C210 1088   1.162   4.598  15.865
    9DOPE  H10R 1089   1.098   4.501  15.835
    9DOPE  C211 1090   1.281   4.646  15.770
    9DOPE  H11R 1091   1.372   4.566  15.782
    9DOPE  H11S 1092   1.326   4.755  15.798
    9DOPE  C212 1093   1.260   4.652  15.617
    9DOPE  H12R 1094   1.186   4.745  15.591
    9DOPE  H12S 1095   1.208   4.549  15.581
    9DOPE  C213 1096   1.409   4.672  15.546
    9DOPE  H13R 1097   1.469   4.564  15.548
    9DOPE  H13S 1098   1.477   4.751  15.603
    9DOPE  C214 1099   1.396   4.728  15.401
    9DOPE  H14R 1100   1.368   4.847  15.406
    9DOPE  H14S 1101   1.305   4.669  15.350
    9DOPE  C215 1102   1.537   4.710  15.317
    9DOPE  H15R 1103   1.560   4.591  15.297
    9DOPE  H15S 1104   1.631   4.756  15.374
    9DOPE  C216 1105   1.526   4.792  15.184
    9DOPE  H16R 1106   1.481   4.899  15.213
    9DOPE  H16S 1107   1.444   4.738  15.116
    9DOPE  C217 1108   1.672   4.821  15.112
    9DOPE  H17R 1109   1.756   4.847  15.187
    9DOPE  H17S 1110   1.661   4.921  15.049
    9DOPE  C218 1111   1.729   4.698  15.023
    9DOPE  H18R 1112   1.788   4.613  15.081
    9DOPE  H18S 1113   1.806   4.740  14.945
    9DOPE  H18T 1114   1.632   4.646  14.975
    9DOPE   C33 1115   1.324   5.460  16.499
    9DOPE   H3X 1116   1.403   5.368  16.508
    9DOPE   H3Y 1117   1.396   5.558  16.483
    9DOPE   C34 1118   1.234   5.433  16.373
    9DOPE   H4X 1119   1.159   5.338  16.386
    9DOPE   H4Y 1120   1.160   5.528  16.349
    9DOPE   C35 1121   1.331   5.401  16.251
    9DOPE   H5X 1122   1.432   5.468  16.251
    9DOPE   H5Y 1123   1.264   5.437  16.165
    9DOPE   C36 1124   1.365   5.236  16.242
    9DOPE   H6X 1125   1.273   5.172  16.285
    9DOPE   H6Y 1126   1.464   5.213  16.304
    9DOPE   C37 1127   1.396   5.174  16.101
    9DOPE   H7X 1128   1.514   5.188  16.082
    9DOPE   H7Y 1129   1.377   5.055  16.101
    9DOPE   C38 1130   1.317   5.240  15.980
    9DOPE   H8X 1131   1.397   5.233  15.896
    9DOPE   H8Y 1132   1.295   5.359  15.989
    9DOPE   C39 1133   1.178   5.162  15.946
    9DOPE   H9X 1134   1.118   5.112  16.030
    9DOPE  C310 1135   1.118   5.163  15.824
    9DOPE  H10X 1136   1.011   5.109  15.808
    9DOPE  C311 1137   1.180   5.244  15.705
    9DOPE  H11X 1138   1.134   5.357  15.696
    9DOPE  H11Y 1139   1.302   5.256  15.709
    9DOPE  C312 1140   1.143   5.159  15.578
    9DOPE  H12X 1141   1.022   5.162  15.558
    9DOPE  H12Y 1142   1.175   5.041  15.589
    9DOPE  C313 1143   1.228   5.221  15.458
    9DOPE  H13X 1144   1.348   5.218  15.477
    9DOPE  H13Y 1145   1.209   5.137  15.380
    9DOPE  C314 1146   1.181   5.374  15.406
    9DOPE  H14X 1147   1.257   5.456  15.448
    9DOPE  H14Y 1148   1.068   5.403  15.439
    9DOPE  C315 1149   1.186   5.374  15.252
    9DOPE  H15X 1150   1.079   5.332  15.214
    9DOPE  H15Y 1151   1.270   5.293  15.223
    9DOPE  C316 1152   1.222   5.520  15.184
    9DOPE  H16X 1153   1.337   5.549  15.208
    9DOPE  H16Y 1154   1.147   5.604  15.228
    9DOPE  C317 1155   1.200   5.522  15.031
    9DOPE  H17X 1156   1.118   5.436  15.002
    9DOPE  H17Y 1157   1.151   5.631  15.005
    9DOPE  C318 1158   1.339   5.507  14.944
    9DOPE  H18X 1159   1.430   5.574  14.985
    9DOPE  H18Y 1160   1.376   5.391  14.937
    9DOPE  H18Z 1161   1.317   5.543  14.840
   10DOPE     N 1162   2.261   6.797  16.986
   10DOPE   HN1 1163   2.191   6.811  17.067
   10DOPE   HN2 1164   2.349   6.729  17.014
   10DOPE   HN3 1165   2.287   6.897  16.941
   10DOPE   C12 1166   2.177   6.709  16.888
   10DOPE  H12A 1167   2.169   6.771  16.793
   10DOPE  H12B 1168   2.066   6.694  16.932
   10DOPE   C11 1169   2.254   6.563  16.871
   10DOPE  H11A 1170   2.375   6.573  16.866
   10DOPE  H11B 1171   2.219   6.526  16.769
   10DOPE     P 1172   2.160   6.306  16.945
   10DOPE   O13 1173   2.230   6.192  17.029
   10DOPE   O14 1174   2.164   6.295  16.801
   10DOPE   O11 1175   1.991   6.319  16.984
   10DOPE   O12 1176   2.214   6.467  16.981
   10DOPE    C1 1177   1.905   6.188  16.990
   10DOPE    HA 1178   1.824   6.196  17.073
   10DOPE    HB 1179   1.973   6.091  17.020
   10DOPE    C2 1180   1.819   6.140  16.859
   10DOPE    HS 1181   1.768   6.032  16.884
   10DOPE   O21 1182   1.921   6.124  16.748
   10DOPE   C21 1183   2.030   6.020  16.762
   10DOPE   O22 1184   2.027   5.922  16.846
   10DOPE   C22 1185   2.151   6.040  16.654
   10DOPE   H2R 1186   2.244   6.102  16.693
   10DOPE   H2S 1187   2.106   6.107  16.573
   10DOPE    C3 1188   1.681   6.248  16.817
   10DOPE    HX 1189   1.620   6.278  16.908
   10DOPE    HY 1190   1.623   6.160  16.767
   10DOPE   O31 1191   1.685   6.376  16.729
   10DOPE   C31 1192   1.578   6.427  16.641
   10DOPE   O32 1193   1.454   6.377  16.637
   10DOPE   C32 1194   1.626   6.560  16.533
   10DOPE   H2X 1195   1.521   6.616  16.511
   10DOPE   H2Y 1196   1.685   6.623  16.599
   10DOPE   C23 1197   2.217   5.898  16.599
   10DOPE   H3R 1198   2.286   5.842  16.673
   10DOPE   H3S 1199   2.288   5.926  16.512
   10DOPE   C24 1200   2.099   5.803  16.541
   10DOPE   H4R 1201   2.033   5.746  16.618
   10DOPE   H4S 1202   2.163   5.716  16.487
   10DOPE   C25 1203   2.004   5.887  16.439
   10DOPE   H5R 1204   1.960   5.985  16.485
   10DOPE   H5S 1205   1.903   5.835  16.403
   10DOPE   C26 1206   2.094   5.912  16.314
   10DOPE   H6R 1207   2.201   5.854  16.320
   10DOPE   H6S 1208   2.122   6.030  16.323
   10DOPE   C27 1209   2.016   5.871  16.182
   10DOPE   H7R 1210   1.988   5.752  16.184
   10DOPE   H7S 1211   2.092   5.885  16.096
   10DOPE   C28 1212   1.873   5.954  16.159
   10DOPE   H8R 1213   1.793   5.932  16.240
   10DOPE   H8S 1214   1.817   5.912  16.068
   10DOPE   C29 1215   1.916   6.114  16.152
   10DOPE   H9R 1216   1.978   6.153  16.239
   10DOPE  C210 1217   1.871   6.215  16.066
   10DOPE  H10R 1218   1.916   6.327  16.076
   10DOPE  C211 1219   1.763   6.190  15.956
   10DOPE  H11R 1220   1.739   6.295  15.906
   10DOPE  H11S 1221   1.659   6.151  16.001
   10DOPE  C212 1222   1.826   6.082  15.850
   10DOPE  H12R 1223   1.740   6.053  15.777
   10DOPE  H12S 1224   1.865   5.977  15.894
   10DOPE  C213 1225   1.957   6.151  15.779
   10DOPE  H13R 1226   2.036   6.188  15.856
   10DOPE  H13S 1227   1.917   6.250  15.725
   10DOPE  C214 1228   2.039   6.051  15.681
   10DOPE  H14R 1229   2.094   5.960  15.734
   10DOPE  H14S 1230   2.127   6.119  15.634
   10DOPE  C215 1231   1.938   5.991  15.571
   10DOPE  H15R 1232   1.852   6.074  15.549
   10DOPE  H15S 1233   1.882   5.891  15.609
   10DOPE  C216 1234   2.021   5.957  15.440
   10DOPE  H16R 1235   2.141   5.969  15.456
   10DOPE  H16S 1236   1.987   6.039  15.363
   10DOPE  C217 1237   1.987   5.806  15.381
   10DOPE  H17R 1238   1.977   5.723  15.463
   10DOPE  H17S 1239   2.080   5.772  15.317
   10DOPE  C218 1240   1.847   5.808  15.296
   10DOPE  H18R 1241   1.750   5.834  15.359
   10DOPE  H18S 1242   1.828   5.699  15.247
   10DOPE  H18T 1243   1.856   5.894  15.217
   10DOPE   C33 1244   1.737   6.580  16.399
   10DOPE   H3X 1245   1.658   6.606  16.318
   10DOPE   H3Y 1246   1.796   6.483  16.371
   10DOPE   C34 1247   1.874   6.689  16.376
   10DOPE   H4X 1248   1.877   6.707  16.265
   10DOPE   H4Y 1249   1.856   6.800  16.412
   10DOPE   C35 1250   2.042   6.654  16.404
   10DOPE   H5X 1251   2.066   6.619  16.507
   10DOPE   H5Y 1252   2.102   6.761  16.396
   10DOPE   C36 1253   2.131   6.546  16.314
   10DOPE   H6X 1254   2.143   6.592  16.212
   10DOPE   H6Y 1255   2.070   6.441  16.306
   10DOPE   C37 1256   2.286   6.512  16.373
   10DOPE   H7X 1257   2.350   6.615  16.380
   10DOPE   H7Y 1258   2.275   6.470  16.477
   10DOPE   C38 1259   2.380   6.400  16.295
   10DOPE   H8X 1260   2.486   6.392  16.350
   10DOPE   H8Y 1261   2.407   6.450  16.197
   10DOPE   C39 1262   2.329   6.243  16.281
   10DOPE   H9X 1263   2.325   6.181  16.375
   10DOPE  C310 1264   2.278   6.175  16.170
   10DOPE  H10X 1265   2.264   6.056  16.173
   10DOPE  C311 1266   2.257   6.235  16.033
   10DOPE  H11X 1267   2.219   6.142  15.969
   10DOPE  H11Y 1268   2.169   6.321  16.032
   10DOPE  C312 1269   2.398   6.294  15.971
   10DOPE  H12X 1270   2.490   6.219  15.997
   10DOPE  H12Y 1271   2.424   6.406  16.007
   10DOPE  C313 1272   2.384   6.301  15.820
   10DOPE  H13X 1273   2.490   6.338  15.776
   10DOPE  H13Y 1274   2.359   6.189  15.782
   10DOPE  C314 1275   2.265   6.404  15.768
   10DOPE  H14X 1276   2.280   6.518  15.807
   10DOPE  H14Y 1277   2.154   6.367  15.799
   10DOPE  C315 1278   2.279   6.400  15.616
   10DOPE  H15X 1279   2.301   6.283  15.586
   10DOPE  H15Y 1280   2.378   6.465  15.587
   10DOPE  C316 1281   2.145   6.453  15.540
   10DOPE  H16X 1282   2.121   6.568  15.567
   10DOPE  H16Y 1283   2.047   6.384  15.566
   10DOPE  C317 1284   2.177   6.438  15.392
   10DOPE  H17X 1285   2.099   6.511  15.339
   10DOPE  H17Y 1286   2.291   6.477  15.371
   10DOPE  C318 1287   2.158   6.283  15.337
   10DOPE  H18X 1288   2.229   6.203  15.391
   10DOPE  H18Y 1289   2.041   6.251  15.349
   10DOPE  H18Z 1290   2.185   6.278  15.229
   11DOPE     N 1291   1.608   3.292  17.141
   11DOPE   HN1 1292   1.634   3.293  17.242
   11DOPE   HN2 1293   1.646   3.385  17.091
   11DOPE   HN3 1294   1.494   3.292  17.123
   11DOPE   C12 1295   1.672   3.165  17.061
   11DOPE  H12A 1296   1.640   3.060  17.111
   11DOPE  H12B 1297   1.793   3.176  17.059
   11DOPE   C11 1298   1.606   3.170  16.921
   11DOPE  H11A 1299   1.613   3.060  16.872
   11DOPE  H11B 1300   1.669   3.245  16.854
   11DOPE     P 1301   1.365   3.253  16.804
   11DOPE   O13 1302   1.448   3.368  16.734
   11DOPE   O14 1303   1.212   3.274  16.844
   11DOPE   O11 1304   1.386   3.103  16.728
   11DOPE   O12 1305   1.458   3.221  16.933
   11DOPE    C1 1306   1.335   2.974  16.799
   11DOPE    HA 1307   1.239   2.995  16.868
   11DOPE    HB 1308   1.424   2.927  16.862
   11DOPE    C2 1309   1.285   2.856  16.700
   11DOPE    HS 1310   1.274   2.752  16.759
   11DOPE   O21 1311   1.382   2.831  16.588
   11DOPE   C21 1312   1.520   2.817  16.599
   11DOPE   O22 1313   1.592   2.812  16.704
   11DOPE   C22 1314   1.594   2.814  16.456
   11DOPE   H2R 1315   1.702   2.825  16.502
   11DOPE   H2S 1316   1.573   2.915  16.399
   11DOPE    C3 1317   1.131   2.891  16.641
   11DOPE    HX 1318   1.049   2.881  16.723
   11DOPE    HY 1319   1.110   2.801  16.568
   11DOPE   O31 1320   1.115   3.034  16.579
   11DOPE   C31 1321   1.190   3.059  16.468
   11DOPE   O32 1322   1.261   2.971  16.403
   11DOPE   C32 1323   1.158   3.211  16.413
   11DOPE   H2X 1324   1.038   3.216  16.394
   11DOPE   H2Y 1325   1.188   3.297  16.487
   11DOPE   C23 1326   1.634   2.672  16.369
   11DOPE   H3R 1327   1.567   2.580  16.406
   11DOPE   H3S 1328   1.749   2.643  16.393
   11DOPE   C24 1329   1.631   2.664  16.213
   11DOPE   H4R 1330   1.556   2.580  16.170
   11DOPE   H4S 1331   1.740   2.615  16.184
   11DOPE   C25 1332   1.620   2.808  16.136
   11DOPE   H5R 1333   1.692   2.803  16.046
   11DOPE   H5S 1334   1.662   2.896  16.201
   11DOPE   C26 1335   1.469   2.858  16.087
   11DOPE   H6R 1336   1.416   2.929  16.164
   11DOPE   H6S 1337   1.403   2.759  16.080
   11DOPE   C27 1338   1.487   2.935  15.951
   11DOPE   H7R 1339   1.528   2.853  15.877
   11DOPE   H7S 1340   1.580   3.013  15.969
   11DOPE   C28 1341   1.362   3.028  15.890
   11DOPE   H8R 1342   1.418   3.097  15.814
   11DOPE   H8S 1343   1.326   3.105  15.970
   11DOPE   C29 1344   1.224   2.962  15.828
   11DOPE   H9R 1345   1.137   2.937  15.901
   11DOPE  C210 1346   1.200   2.934  15.697
   11DOPE  H10R 1347   1.089   2.896  15.667
   11DOPE  C211 1348   1.306   2.961  15.584
   11DOPE  H11R 1349   1.363   3.068  15.602
   11DOPE  H11S 1350   1.246   2.972  15.487
   11DOPE  C212 1351   1.426   2.841  15.572
   11DOPE  H12R 1352   1.378   2.742  15.523
   11DOPE  H12S 1353   1.462   2.811  15.674
   11DOPE  C213 1354   1.566   2.892  15.498
   11DOPE  H13R 1355   1.608   2.996  15.543
   11DOPE  H13S 1356   1.536   2.921  15.393
   11DOPE  C214 1357   1.691   2.775  15.496
   11DOPE  H14R 1358   1.651   2.673  15.545
   11DOPE  H14S 1359   1.788   2.813  15.555
   11DOPE  C215 1360   1.731   2.746  15.350
   11DOPE  H15R 1361   1.839   2.693  15.330
   11DOPE  H15S 1362   1.736   2.855  15.301
   11DOPE  C216 1363   1.612   2.655  15.284
   11DOPE  H16R 1364   1.514   2.651  15.351
   11DOPE  H16S 1365   1.652   2.541  15.273
   11DOPE  C217 1366   1.569   2.710  15.146
   11DOPE  H17R 1367   1.543   2.830  15.146
   11DOPE  H17S 1368   1.467   2.653  15.112
   11DOPE  C218 1369   1.694   2.676  15.050
   11DOPE  H18R 1370   1.783   2.759  15.056
   11DOPE  H18S 1371   1.656   2.663  14.947
   11DOPE  H18T 1372   1.746   2.572  15.082
   11DOPE   C33 1373   1.245   3.228  16.280
   11DOPE   H3X 1374   1.221   3.136  16.210
   11DOPE   H3Y 1375   1.365   3.228  16.300
   11DOPE   C34 1376   1.197   3.370  16.213
   11DOPE   H4X 1377   1.078   3.354  16.192
   11DOPE   H4Y 1378   1.211   3.457  16.290
   11DOPE   C35 1379   1.270   3.420  16.083
   11DOPE   H5X 1380   1.180   3.462  16.018
   11DOPE   H5Y 1381   1.319   3.324  16.030
   11DOPE   C36 1382   1.382   3.546  16.097
   11DOPE   H6X 1383   1.438   3.544  16.195
   11DOPE   H6Y 1384   1.333   3.658  16.091
   11DOPE   C37 1385   1.491   3.546  15.981
   11DOPE   H7X 1386   1.599   3.584  16.019
   11DOPE   H7Y 1387   1.496   3.433  15.943
   11DOPE   C38 1388   1.450   3.642  15.861
   11DOPE   H8X 1389   1.531   3.626  15.779
   11DOPE   H8Y 1390   1.459   3.758  15.897
   11DOPE   C39 1391   1.295   3.611  15.818
   11DOPE   H9X 1392   1.227   3.710  15.821
   11DOPE  C310 1393   1.234   3.496  15.758
   11DOPE  H10X 1394   1.120   3.508  15.725
   11DOPE  C311 1395   1.305   3.354  15.710
   11DOPE  H11X 1396   1.420   3.337  15.742
   11DOPE  H11Y 1397   1.238   3.255  15.731
   11DOPE  C312 1398   1.293   3.400  15.565
   11DOPE  H12X 1399   1.355   3.506  15.550
   11DOPE  H12Y 1400   1.173   3.412  15.541
   11DOPE  C313 1401   1.345   3.314  15.445
   11DOPE  H13X 1402   1.465   3.290  15.444
   11DOPE  H13Y 1403   1.284   3.210  15.431
   11DOPE  C314 1404   1.305   3.427  15.338
   11DOPE  H14X 1405   1.397   3.507  15.328
   11DOPE  H14Y 1406   1.206   3.490  15.367
   11DOPE  C315 1407   1.262   3.364  15.207
   11DOPE  H15X 1408   1.343   3.279  15.190
   11DOPE  H15Y 1409   1.268   3.454  15.132
   11DOPE  C316 1410   1.114   3.286  15.196
   11DOPE  H16X 1411   1.037   3.367  15.159
   11DOPE  H16Y 1412   1.078   3.237  15.291
   11DOPE  C317 1413   1.119   3.172  15.086
   11DOPE  H17X 1414   1.176   3.073  15.123
   11DOPE  H17Y 1415   1.007   3.141  15.051
   11DOPE  C318 1416   1.203   3.243  14.971
   11DOPE  H18X 1417   1.157   3.351  14.950
   11DOPE  H18Y 1418   1.320   3.263  14.995
   11DOPE  H18Z 1419   1.200   3.178  14.880
   12DOPE     N 1420   3.416   7.134  16.905
   12DOPE   HN1 1421   3.314   7.120  16.859
   12DOPE   HN2 1422   3.502   7.115  16.837
   12DOPE   HN3 1423   3.425   7.056  16.982
   12DOPE   C12 1424   3.438   7.284  16.959
   12DOPE  H12A 1425   3.363   7.301  17.044
   12DOPE  H12B 1426   3.412   7.365  16.878
   12DOPE   C11 1427   3.599   7.303  16.999
   12DOPE  H11A 1428   3.631   7.224  17.078
   12DOPE  H11B 1429   3.608   7.416  17.043
   12DOPE     P 1430   3.824   7.391  16.863
   12DOPE   O13 1431   3.887   7.359  16.730
   12DOPE   O14 1432   3.923   7.380  16.981
   12DOPE   O11 1433   3.725   7.537  16.857
   12DOPE   O12 1434   3.693   7.278  16.887
   12DOPE    C1 1435   3.741   7.647  16.754
   12DOPE    HA 1436   3.826   7.614  16.679
   12DOPE    HB 1437   3.789   7.747  16.801
   12DOPE    C2 1438   3.598   7.701  16.673
   12DOPE    HS 1439   3.596   7.823  16.688
   12DOPE   O21 1440   3.457   7.638  16.713
   12DOPE   C21 1441   3.342   7.706  16.653
   12DOPE   O22 1442   3.348   7.823  16.596
   12DOPE   C22 1443   3.198   7.619  16.668
   12DOPE   H2R 1444   3.106   7.698  16.654
   12DOPE   H2S 1445   3.193   7.576  16.771
   12DOPE    C3 1446   3.621   7.670  16.520
   12DOPE    HX 1447   3.720   7.732  16.486
   12DOPE    HY 1448   3.527   7.711  16.459
   12DOPE   O31 1449   3.641   7.516  16.501
   12DOPE   C31 1450   3.667   7.466  16.381
   12DOPE   O32 1451   3.655   7.531  16.275
   12DOPE   C32 1452   3.726   7.308  16.403
   12DOPE   H2X 1453   3.804   7.314  16.489
   12DOPE   H2Y 1454   3.631   7.242  16.437
   12DOPE   C23 1455   3.170   7.491  16.569
   12DOPE   H3R 1456   3.154   7.535  16.466
   12DOPE   H3S 1457   3.066   7.436  16.599
   12DOPE   C24 1458   3.297   7.380  16.572
   12DOPE   H4R 1459   3.317   7.346  16.677
   12DOPE   H4S 1460   3.397   7.436  16.535
   12DOPE   C25 1461   3.270   7.244  16.486
   12DOPE   H5R 1462   3.181   7.178  16.535
   12DOPE   H5S 1463   3.372   7.174  16.484
   12DOPE   C26 1464   3.220   7.275  16.342
   12DOPE   H6R 1465   3.111   7.329  16.348
   12DOPE   H6S 1466   3.209   7.167  16.293
   12DOPE   C27 1467   3.308   7.377  16.248
   12DOPE   H7R 1468   3.420   7.333  16.231
   12DOPE   H7S 1469   3.321   7.488  16.294
   12DOPE   C28 1470   3.226   7.389  16.113
   12DOPE   H8R 1471   3.117   7.439  16.130
   12DOPE   H8S 1472   3.205   7.274  16.078
   12DOPE   C29 1473   3.310   7.475  16.009
   12DOPE   H9R 1474   3.351   7.582  16.045
   12DOPE  C210 1475   3.340   7.433  15.883
   12DOPE  H10R 1476   3.408   7.506  15.821
   12DOPE  C211 1477   3.297   7.293  15.812
   12DOPE  H11R 1478   3.225   7.220  15.874
   12DOPE  H11S 1479   3.398   7.229  15.790
   12DOPE  C212 1480   3.217   7.321  15.678
   12DOPE  H12R 1481   3.108   7.371  15.694
   12DOPE  H12S 1482   3.199   7.212  15.629
   12DOPE  C213 1483   3.306   7.418  15.583
   12DOPE  H13R 1484   3.423   7.383  15.581
   12DOPE  H13S 1485   3.303   7.534  15.620
   12DOPE  C214 1486   3.243   7.414  15.442
   12DOPE  H14R 1487   3.123   7.436  15.446
   12DOPE  H14S 1488   3.258   7.303  15.398
   12DOPE  C215 1489   3.317   7.530  15.355
   12DOPE  H15R 1490   3.436   7.506  15.350
   12DOPE  H15S 1491   3.302   7.640  15.402
   12DOPE  C216 1492   3.252   7.531  15.216
   12DOPE  H16R 1493   3.135   7.568  15.221
   12DOPE  H16S 1494   3.249   7.417  15.174
   12DOPE  C217 1495   3.334   7.630  15.119
   12DOPE  H17R 1496   3.333   7.746  15.145
   12DOPE  H17S 1497   3.261   7.630  15.032
   12DOPE  C218 1498   3.493   7.586  15.087
   12DOPE  H18R 1499   3.547   7.665  15.020
   12DOPE  H18S 1500   3.491   7.479  15.035
   12DOPE  H18T 1501   3.561   7.577  15.179
   12DOPE   C33 1502   3.804   7.237  16.282
   12DOPE   H3X 1503   3.924   7.235  16.302
   12DOPE   H3Y 1504   3.785   7.302  16.189
   12DOPE   C34 1505   3.750   7.080  16.259
   12DOPE   H4X 1506   3.821   7.024  16.186
   12DOPE   H4Y 1507   3.767   7.020  16.354
   12DOPE   C35 1508   3.587   7.075  16.215
   12DOPE   H5X 1509   3.522   7.151  16.277
   12DOPE   H5Y 1510   3.536   6.967  16.236
   12DOPE   C36 1511   3.563   7.108  16.066
   12DOPE   H6X 1512   3.597   7.224  16.045
   12DOPE   H6Y 1513   3.444   7.099  16.042
   12DOPE   C37 1514   3.651   7.002  15.979
   12DOPE   H7X 1515   3.770   7.026  15.991
   12DOPE   H7Y 1516   3.630   6.889  16.018
   12DOPE   C38 1517   3.617   7.009  15.830
   12DOPE   H8X 1518   3.643   7.121  15.793
   12DOPE   H8Y 1519   3.498   6.993  15.810
   12DOPE   C39 1520   3.708   6.889  15.767
   12DOPE   H9X 1521   3.672   6.777  15.792
   12DOPE  C310 1522   3.826   6.907  15.687
   12DOPE  H10X 1523   3.884   6.809  15.650
   12DOPE  C311 1524   3.889   7.052  15.644
   12DOPE  H11X 1525   3.870   7.139  15.721
   12DOPE  H11Y 1526   4.010   7.042  15.633
   12DOPE  C312 1527   3.826   7.106  15.510
   12DOPE  H12X 1528   3.843   7.021  15.432
   12DOPE  H12Y 1529   3.890   7.206  15.480
   12DOPE  C313 1530   3.663   7.150  15.511
   12DOPE  H13X 1531   3.593   7.049  15.514
   12DOPE  H13Y 1532   3.638   7.214  15.603
   12DOPE  C314 1533   3.620   7.242  15.389
   12DOPE  H14X 1534   3.681   7.349  15.393
   12DOPE  H14Y 1535   3.501   7.269  15.394
   12DOPE  C315 1536   3.652   7.164  15.256
   12DOPE  H15X 1537   3.595   7.056  15.257
   12DOPE  H15Y 1538   3.772   7.146  15.246
   12DOPE  C316 1539   3.598   7.253  15.136
   12DOPE  H16X 1540   3.665   7.356  15.130
   12DOPE  H16Y 1541   3.482   7.284  15.153
   12DOPE  C317 1542   3.611   7.170  15.003
   12DOPE  H17X 1543   3.728   7.136  14.989
   12DOPE  H17Y 1544   3.543   7.069  15.010
   12DOPE  C318 1545   3.562   7.259  14.880
   12DOPE  H18X 1546   3.579   7.195  14.787
   12DOPE  H18Y 1547   3.443   7.288  14.887
   12DOPE  H18Z 1548   3.626   7.363  14.872
   13DOPE     N 1549   2.743   1.201  17.177
   13DOPE   HN1 1550   2.709   1.309  17.195
   13DOPE   HN2 1551   2.717   1.134  17.257
   13DOPE   HN3 1552   2.858   1.208  17.170
   13DOPE   C12 1553   2.680   1.140  17.051
   13DOPE  H12A 1554   2.562   1.115  17.066
   13DOPE  H12B 1555   2.739   1.035  17.027
   13DOPE   C11 1556   2.703   1.246  16.936
   13DOPE  H11A 1557   2.637   1.348  16.952
   13DOPE  H11B 1558   2.658   1.190  16.844
   13DOPE     P 1559   2.906   1.328  16.778
   13DOPE   O13 1560   3.044   1.413  16.778
   13DOPE   O14 1561   2.778   1.394  16.713
   13DOPE   O11 1562   2.939   1.167  16.723
   13DOPE   O12 1563   2.856   1.281  16.925
   13DOPE    C1 1564   3.065   1.097  16.785
   13DOPE    HA 1565   3.040   1.071  16.891
   13DOPE    HB 1566   3.163   1.170  16.784
   13DOPE    C2 1567   3.114   0.950  16.716
   13DOPE    HS 1568   3.216   0.916  16.767
   13DOPE   O21 1569   3.139   0.964  16.574
   13DOPE   C21 1570   3.257   1.041  16.543
   13DOPE   O22 1571   3.347   1.088  16.622
   13DOPE   C22 1572   3.266   1.068  16.395
   13DOPE   H2R 1573   3.171   1.016  16.342
   13DOPE   H2S 1574   3.370   1.022  16.356
   13DOPE    C3 1575   3.002   0.824  16.737
   13DOPE    HX 1576   3.013   0.781  16.840
   13DOPE    HY 1577   3.037   0.734  16.671
   13DOPE   O31 1578   2.851   0.864  16.713
   13DOPE   C31 1579   2.818   0.891  16.586
   13DOPE   O32 1580   2.886   0.851  16.488
   13DOPE   C32 1581   2.674   0.976  16.581
   13DOPE   H2X 1582   2.586   0.895  16.605
   13DOPE   H2Y 1583   2.677   1.060  16.660
   13DOPE   C23 1584   3.264   1.236  16.383
   13DOPE   H3R 1585   3.269   1.268  16.276
   13DOPE   H3S 1586   3.363   1.283  16.434
   13DOPE   C24 1587   3.126   1.300  16.450
   13DOPE   H4R 1588   3.114   1.266  16.555
   13DOPE   H4S 1589   3.029   1.260  16.394
   13DOPE   C25 1590   3.118   1.467  16.451
   13DOPE   H5R 1591   3.216   1.514  16.501
   13DOPE   H5S 1592   3.021   1.502  16.510
   13DOPE   C26 1593   3.104   1.520  16.308
   13DOPE   H6R 1594   3.103   1.422  16.241
   13DOPE   H6S 1595   3.205   1.580  16.281
   13DOPE   C27 1596   2.961   1.605  16.279
   13DOPE   H7R 1597   2.978   1.725  16.295
   13DOPE   H7S 1598   2.874   1.571  16.351
   13DOPE   C28 1599   2.914   1.566  16.136
   13DOPE   H8R 1600   2.904   1.445  16.131
   13DOPE   H8S 1601   3.005   1.594  16.068
   13DOPE   C29 1602   2.773   1.629  16.083
   13DOPE   H9R 1603   2.698   1.683  16.155
   13DOPE  C210 1604   2.737   1.616  15.953
   13DOPE  H10R 1605   2.632   1.661  15.918
   13DOPE  C211 1606   2.828   1.539  15.848
   13DOPE  H11R 1607   2.793   1.422  15.841
   13DOPE  H11S 1608   2.948   1.538  15.870
   13DOPE  C212 1609   2.804   1.613  15.713
   13DOPE  H12R 1610   2.849   1.726  15.712
   13DOPE  H12S 1611   2.683   1.621  15.695
   13DOPE  C213 1612   2.868   1.528  15.593
   13DOPE  H13R 1613   2.842   1.408  15.603
   13DOPE  H13S 1614   2.989   1.540  15.586
   13DOPE  C214 1615   2.793   1.591  15.470
   13DOPE  H14R 1616   2.807   1.712  15.468
   13DOPE  H14S 1617   2.674   1.565  15.482
   13DOPE  C215 1618   2.836   1.529  15.334
   13DOPE  H15R 1619   2.820   1.407  15.332
   13DOPE  H15S 1620   2.952   1.553  15.310
   13DOPE  C216 1621   2.734   1.602  15.232
   13DOPE  H16R 1622   2.759   1.720  15.228
   13DOPE  H16S 1623   2.622   1.596  15.276
   13DOPE  C217 1624   2.744   1.532  15.093
   13DOPE  H17R 1625   2.707   1.416  15.092
   13DOPE  H17S 1626   2.863   1.530  15.083
   13DOPE  C218 1627   2.686   1.618  14.972
   13DOPE  H18R 1628   2.569   1.598  14.953
   13DOPE  H18S 1629   2.746   1.587  14.879
   13DOPE  H18T 1630   2.699   1.738  14.985
   13DOPE   C33 1631   2.648   1.049  16.444
   13DOPE   H3X 1632   2.537   1.100  16.442
   13DOPE   H3Y 1633   2.657   0.969  16.361
   13DOPE   C34 1634   2.760   1.172  16.423
   13DOPE   H4X 1635   2.764   1.243  16.514
   13DOPE   H4Y 1636   2.870   1.120  16.414
   13DOPE   C35 1637   2.730   1.272  16.304
   13DOPE   H5X 1638   2.809   1.363  16.311
   13DOPE   H5Y 1639   2.619   1.321  16.313
   13DOPE   C36 1640   2.747   1.201  16.166
   13DOPE   H6X 1641   2.726   1.286  16.089
   13DOPE   H6Y 1642   2.662   1.114  16.153
   13DOPE   C37 1643   2.902   1.138  16.144
   13DOPE   H7X 1644   2.984   1.223  16.174
   13DOPE   H7Y 1645   2.919   1.042  16.211
   13DOPE   C38 1646   2.930   1.097  15.998
   13DOPE   H8X 1647   3.046   1.060  15.985
   13DOPE   H8Y 1648   2.914   1.196  15.934
   13DOPE   C39 1649   2.827   0.974  15.962
   13DOPE   H9X 1650   2.834   0.878  16.029
   13DOPE  C310 1651   2.730   0.971  15.861
   13DOPE  H10X 1652   2.664   0.871  15.847
   13DOPE  C311 1653   2.702   1.090  15.759
   13DOPE  H11X 1654   2.582   1.100  15.740
   13DOPE  H11Y 1655   2.738   1.200  15.794
   13DOPE  C312 1656   2.782   1.048  15.629
   13DOPE  H12X 1657   2.779   0.926  15.617
   13DOPE  H12Y 1658   2.900   1.080  15.636
   13DOPE  C313 1659   2.713   1.112  15.501
   13DOPE  H13X 1660   2.591   1.114  15.514
   13DOPE  H13Y 1661   2.749   1.228  15.486
   13DOPE  C314 1662   2.748   1.019  15.376
   13DOPE  H14X 1663   2.661   1.036  15.299
   13DOPE  H14Y 1664   2.746   0.900  15.404
   13DOPE  C315 1665   2.897   1.060  15.315
   13DOPE  H15X 1666   2.958   1.126  15.392
   13DOPE  H15Y 1667   2.881   1.132  15.227
   13DOPE  C316 1668   3.001   0.933  15.277
   13DOPE  H16X 1669   2.960   0.879  15.185
   13DOPE  H16Y 1670   3.001   0.848  15.358
   13DOPE  C317 1671   3.158   0.994  15.261
   13DOPE  H17X 1672   3.147   1.117  15.251
   13DOPE  H17Y 1673   3.222   0.972  15.354
   13DOPE  C318 1674   3.249   0.943  15.141
   13DOPE  H18X 1675   3.351   0.887  15.174
   13DOPE  H18Y 1676   3.188   0.866  15.076
   13DOPE  H18Z 1677   3.287   1.037  15.080
   14DOPE     N 1678   7.456   4.997  17.191
   14DOPE   HN1 1679   7.482   4.982  17.292
   14DOPE   HN2 1680   7.456   5.109  17.168
   14DOPE   HN3 1681   7.351   4.956  17.169
   14DOPE   C12 1682   7.567   4.924  17.101
   14DOPE  H12A 1683   7.541   4.805  17.097
   14DOPE  H12B 1684   7.677   4.938  17.145
   14DOPE   C11 1685   7.566   4.986  16.959
   14DOPE  H11A 1686   7.640   4.917  16.895
   14DOPE  H11B 1687   7.615   5.099  16.963
   14DOPE     P 1688   7.405   5.067  16.763
   14DOPE   O13 1689   7.247   5.069  16.731
   14DOPE   O14 1690   7.510   5.002  16.668
   14DOPE   O11 1691   7.459   5.227  16.804
   14DOPE   O12 1692   7.419   4.987  16.907
   14DOPE    C1 1693   7.388   5.316  16.903
   14DOPE    HA 1694   7.467   5.350  16.982
   14DOPE    HB 1695   7.297   5.255  16.954
   14DOPE    C2 1696   7.313   5.456  16.842
   14DOPE    HS 1697   7.233   5.492  16.919
   14DOPE   O21 1698   7.245   5.423  16.719
   14DOPE   C21 1699   7.107   5.385  16.725
   14DOPE   O22 1700   7.042   5.350  16.827
   14DOPE   C22 1701   7.054   5.412  16.583
   14DOPE   H2R 1702   7.107   5.514  16.546
   14DOPE   H2S 1703   6.934   5.430  16.580
   14DOPE    C3 1704   7.407   5.594  16.807
   14DOPE    HX 1705   7.462   5.630  16.900
   14DOPE    HY 1706   7.329   5.685  16.783
   14DOPE   O31 1707   7.510   5.566  16.698
   14DOPE   C31 1708   7.466   5.607  16.576
   14DOPE   O32 1709   7.363   5.687  16.550
   14DOPE   C32 1710   7.570   5.548  16.466
   14DOPE   H2X 1711   7.603   5.646  16.407
   14DOPE   H2Y 1712   7.668   5.497  16.510
   14DOPE   C23 1713   7.093   5.284  16.491
   14DOPE   H3R 1714   7.007   5.199  16.503
   14DOPE   H3S 1715   7.200   5.232  16.518
   14DOPE   C24 1716   7.099   5.334  16.345
   14DOPE   H4R 1717   7.210   5.370  16.317
   14DOPE   H4S 1718   7.021   5.425  16.324
   14DOPE   C25 1719   7.065   5.201  16.263
   14DOPE   H5R 1720   6.948   5.175  16.278
   14DOPE   H5S 1721   7.126   5.105  16.308
   14DOPE   C26 1722   7.104   5.206  16.116
   14DOPE   H6R 1723   7.031   5.118  16.082
   14DOPE   H6S 1724   7.217   5.173  16.094
   14DOPE   C27 1725   7.068   5.341  16.029
   14DOPE   H7R 1726   7.159   5.421  16.040
   14DOPE   H7S 1727   6.965   5.394  16.065
   14DOPE   C28 1728   7.056   5.287  15.881
   14DOPE   H8R 1729   7.163   5.243  15.851
   14DOPE   H8S 1730   7.030   5.383  15.819
   14DOPE   C29 1731   6.944   5.167  15.865
   14DOPE   H9R 1732   6.859   5.189  15.937
   14DOPE  C210 1733   6.932   5.036  15.805
   14DOPE  H10R 1734   6.827   4.978  15.818
   14DOPE  C211 1735   7.033   4.947  15.722
   14DOPE  H11R 1736   7.084   4.866  15.790
   14DOPE  H11S 1737   7.128   5.009  15.682
   14DOPE  C212 1738   6.942   4.861  15.616
   14DOPE  H12R 1739   6.828   4.843  15.651
   14DOPE  H12S 1740   6.982   4.745  15.609
   14DOPE  C213 1741   6.937   4.934  15.476
   14DOPE  H13R 1742   6.824   4.978  15.470
   14DOPE  H13S 1743   6.940   4.848  15.398
   14DOPE  C214 1744   7.055   5.055  15.452
   14DOPE  H14R 1745   7.165   5.003  15.464
   14DOPE  H14S 1746   7.041   5.138  15.533
   14DOPE  C215 1747   7.061   5.149  15.323
   14DOPE  H15R 1748   7.169   5.209  15.323
   14DOPE  H15S 1749   6.978   5.239  15.330
   14DOPE  C216 1750   7.046   5.068  15.189
   14DOPE  H16R 1751   6.954   4.987  15.195
   14DOPE  H16S 1752   7.150   5.006  15.173
   14DOPE  C217 1753   7.018   5.171  15.069
   14DOPE  H17R 1754   7.053   5.115  14.976
   14DOPE  H17S 1755   7.087   5.272  15.078
   14DOPE  C218 1756   6.856   5.211  15.050
   14DOPE  H18R 1757   6.821   5.293  15.123
   14DOPE  H18S 1758   6.788   5.114  15.069
   14DOPE  H18T 1759   6.833   5.254  14.948
   14DOPE   C33 1760   7.493   5.435  16.374
   14DOPE   H3X 1761   7.532   5.437  16.268
   14DOPE   H3Y 1762   7.378   5.470  16.372
   14DOPE   C34 1763   7.512   5.279  16.432
   14DOPE   H4X 1764   7.627   5.261  16.464
   14DOPE   H4Y 1765   7.444   5.281  16.525
   14DOPE   C35 1766   7.461   5.144  16.351
   14DOPE   H5X 1767   7.348   5.159  16.316
   14DOPE   H5Y 1768   7.460   5.048  16.422
   14DOPE   C36 1769   7.559   5.099  16.231
   14DOPE   H6X 1770   7.659   5.046  16.272
   14DOPE   H6Y 1771   7.586   5.199  16.173
   14DOPE   C37 1772   7.484   4.991  16.136
   14DOPE   H7X 1773   7.449   4.896  16.199
   14DOPE   H7Y 1774   7.387   5.045  16.094
   14DOPE   C38 1775   7.574   4.932  16.015
   14DOPE   H8X 1776   7.500   4.869  15.948
   14DOPE   H8Y 1777   7.657   4.853  16.052
   14DOPE   C39 1778   7.649   5.048  15.933
   14DOPE   H9X 1779   7.768   5.045  15.952
   14DOPE  C310 1780   7.596   5.138  15.838
   14DOPE  H10X 1781   7.670   5.222  15.795
   14DOPE  C311 1782   7.440   5.147  15.788
   14DOPE  H11X 1783   7.382   5.040  15.802
   14DOPE  H11Y 1784   7.381   5.231  15.849
   14DOPE  C312 1785   7.425   5.195  15.639
   14DOPE  H12X 1786   7.449   5.315  15.632
   14DOPE  H12Y 1787   7.307   5.180  15.609
   14DOPE  C313 1788   7.523   5.114  15.538
   14DOPE  H13X 1789   7.640   5.123  15.571
   14DOPE  H13Y 1790   7.493   4.995  15.535
   14DOPE  C314 1791   7.512   5.180  15.397
   14DOPE  H14X 1792   7.515   5.302  15.406
   14DOPE  H14Y 1793   7.404   5.149  15.351
   14DOPE  C315 1794   7.638   5.136  15.302
   14DOPE  H15X 1795   7.745   5.137  15.355
   14DOPE  H15Y 1796   7.644   5.221  15.222
   14DOPE  C316 1797   7.615   4.985  15.236
   14DOPE  H16X 1798   7.500   4.976  15.201
   14DOPE  H16Y 1799   7.635   4.898  15.312
   14DOPE  C317 1800   7.715   4.962  15.114
   14DOPE  H17X 1801   7.829   5.001  15.138
   14DOPE  H17Y 1802   7.722   4.841  15.095
   14DOPE  C318 1803   7.658   5.040  14.989
   14DOPE  H18X 1804   7.656   5.161  15.002
   14DOPE  H18Y 1805   7.730   5.018  14.901
   14DOPE  H18Z 1806   7.545   5.002  14.965
   15DOPE     N 1807   1.305   1.954  16.819
   15DOPE   HN1 1808   1.196   1.925  16.836
   15DOPE   HN2 1809   1.305   2.067  16.796
   15DOPE   HN3 1810   1.346   1.893  16.740
   15DOPE   C12 1811   1.399   1.946  16.942
   15DOPE  H12A 1812   1.517   1.951  16.911
   15DOPE  H12B 1813   1.381   1.845  16.998
   15DOPE   C11 1814   1.361   2.080  17.026
   15DOPE  H11A 1815   1.423   2.087  17.121
   15DOPE  H11B 1816   1.240   2.086  17.046
   15DOPE     P 1817   1.326   2.347  16.937
   15DOPE   O13 1818   1.412   2.447  17.023
   15DOPE   O14 1819   1.166   2.329  16.955
   15DOPE   O11 1820   1.361   2.358  16.786
   15DOPE   O12 1821   1.403   2.194  16.944
   15DOPE    C1 1822   1.510   2.331  16.748
   15DOPE    HA 1823   1.523   2.213  16.723
   15DOPE    HB 1824   1.590   2.362  16.829
   15DOPE    C2 1825   1.558   2.420  16.625
   15DOPE    HS 1826   1.559   2.540  16.653
   15DOPE   O21 1827   1.461   2.388  16.512
   15DOPE   C21 1828   1.338   2.471  16.525
   15DOPE   O22 1829   1.315   2.556  16.615
   15DOPE   C22 1830   1.236   2.469  16.404
   15DOPE   H2R 1831   1.121   2.485  16.440
   15DOPE   H2S 1832   1.245   2.367  16.345
   15DOPE    C3 1833   1.722   2.382  16.595
   15DOPE    HX 1834   1.782   2.384  16.692
   15DOPE    HY 1835   1.771   2.471  16.535
   15DOPE   O31 1836   1.731   2.235  16.538
   15DOPE   C31 1837   1.747   2.240  16.405
   15DOPE   O32 1838   1.796   2.342  16.341
   15DOPE   C32 1839   1.693   2.100  16.342
   15DOPE   H2X 1840   1.794   2.044  16.305
   15DOPE   H2Y 1841   1.638   2.027  16.415
   15DOPE   C23 1842   1.283   2.608  16.325
   15DOPE   H3R 1843   1.387   2.575  16.280
   15DOPE   H3S 1844   1.303   2.704  16.392
   15DOPE   C24 1845   1.183   2.658  16.212
   15DOPE   H4R 1846   1.206   2.774  16.186
   15DOPE   H4S 1847   1.067   2.653  16.247
   15DOPE   C25 1848   1.210   2.554  16.093
   15DOPE   H5R 1849   1.118   2.477  16.108
   15DOPE   H5S 1850   1.310   2.486  16.107
   15DOPE   C26 1851   1.221   2.620  15.951
   15DOPE   H6R 1852   1.332   2.661  15.924
   15DOPE   H6S 1853   1.145   2.715  15.943
   15DOPE   C27 1854   1.185   2.507  15.844
   15DOPE   H7R 1855   1.276   2.425  15.838
   15DOPE   H7S 1856   1.176   2.561  15.744
   15DOPE   C28 1857   1.043   2.427  15.880
   15DOPE   H8R 1858   1.065   2.345  15.961
   15DOPE   H8S 1859   1.014   2.357  15.794
   15DOPE   C29 1860   0.924   2.533  15.923
   15DOPE   H9R 1861   0.947   2.605  16.009
   15DOPE  C210 1862   0.792   2.540  15.869
   15DOPE  H10R 1863   0.707   2.611  15.913
   15DOPE  C211 1864   0.745   2.441  15.759
   15DOPE  H11R 1865   0.628   2.412  15.776
   15DOPE  H11S 1866   0.807   2.340  15.764
   15DOPE  C212 1867   0.769   2.477  15.614
   15DOPE  H12R 1868   0.704   2.575  15.597
   15DOPE  H12S 1869   0.720   2.386  15.554
   15DOPE  C213 1870   0.928   2.489  15.571
   15DOPE  H13R 1871   0.987   2.387  15.602
   15DOPE  H13S 1872   0.983   2.585  15.618
   15DOPE  C214 1873   0.943   2.494  15.421
   15DOPE  H14R 1874   0.953   2.610  15.389
   15DOPE  H14S 1875   0.847   2.442  15.375
   15DOPE  C215 1876   1.067   2.402  15.367
   15DOPE  H15R 1877   1.035   2.356  15.268
   15DOPE  H15S 1878   1.089   2.307  15.431
   15DOPE  C216 1879   1.201   2.498  15.355
   15DOPE  H16R 1880   1.253   2.509  15.455
   15DOPE  H16S 1881   1.170   2.611  15.322
   15DOPE  C217 1882   1.299   2.430  15.251
   15DOPE  H17R 1883   1.316   2.312  15.276
   15DOPE  H17S 1884   1.406   2.485  15.257
   15DOPE  C218 1885   1.236   2.447  15.110
   15DOPE  H18R 1886   1.174   2.346  15.082
   15DOPE  H18S 1887   1.323   2.467  15.036
   15DOPE  H18T 1888   1.160   2.543  15.105
   15DOPE   C33 1889   1.592   2.135  16.223
   15DOPE   H3X 1890   1.626   2.240  16.171
   15DOPE   H3Y 1891   1.475   2.147  16.253
   15DOPE   C34 1892   1.618   2.013  16.122
   15DOPE   H4X 1893   1.734   2.039  16.092
   15DOPE   H4Y 1894   1.613   1.902  16.169
   15DOPE   C35 1895   1.527   2.017  15.996
   15DOPE   H5X 1896   1.595   1.989  15.907
   15DOPE   H5Y 1897   1.494   2.134  15.984
   15DOPE   C36 1898   1.398   1.910  16.003
   15DOPE   H6X 1899   1.338   1.931  16.098
   15DOPE   H6Y 1900   1.440   1.794  16.006
   15DOPE   C37 1901   1.289   1.926  15.888
   15DOPE   H7X 1902   1.335   1.874  15.795
   15DOPE   H7Y 1903   1.186   1.866  15.913
   15DOPE   C38 1904   1.257   2.088  15.861
   15DOPE   H8X 1905   1.360   2.144  15.830
   15DOPE   H8Y 1906   1.221   2.142  15.956
   15DOPE   C39 1907   1.145   2.108  15.754
   15DOPE   H9X 1908   1.031   2.103  15.789
   15DOPE  C310 1909   1.173   2.122  15.624
   15DOPE  H10X 1910   1.079   2.137  15.555
   15DOPE  C311 1911   1.323   2.122  15.563
   15DOPE  H11X 1912   1.384   2.026  15.604
   15DOPE  H11Y 1913   1.316   2.104  15.453
   15DOPE  C312 1914   1.422   2.257  15.587
   15DOPE  H12X 1915   1.401   2.307  15.687
   15DOPE  H12Y 1916   1.397   2.343  15.512
   15DOPE  C313 1917   1.586   2.215  15.580
   15DOPE  H13X 1918   1.653   2.317  15.592
   15DOPE  H13Y 1919   1.610   2.142  15.666
   15DOPE  C314 1920   1.631   2.138  15.448
   15DOPE  H14X 1921   1.560   2.041  15.431
   15DOPE  H14Y 1922   1.746   2.095  15.462
   15DOPE  C315 1923   1.631   2.247  15.330
   15DOPE  H15X 1924   1.746   2.289  15.322
   15DOPE  H15Y 1925   1.562   2.342  15.359
   15DOPE  C316 1926   1.583   2.199  15.189
   15DOPE  H16X 1927   1.463   2.173  15.186
   15DOPE  H16Y 1928   1.645   2.100  15.159
   15DOPE  C317 1929   1.613   2.322  15.086
   15DOPE  H17X 1930   1.553   2.421  15.120
   15DOPE  H17Y 1931   1.731   2.349  15.092
   15DOPE  C318 1932   1.566   2.300  14.940
   15DOPE  H18X 1933   1.632   2.371  14.872
   15DOPE  H18Y 1934   1.583   2.185  14.912
   15DOPE  H18Z 1935   1.449   2.327  14.925
   16DOPE     N 1936   0.519   4.061  17.127
   16DOPE   HN1 1937   0.540   4.110  17.034
   16DOPE   HN2 1938   0.427   4.111  17.173
   16DOPE   HN3 1939   0.613   4.068  17.185
   16DOPE   C12 1940   0.497   3.902  17.097
   16DOPE  H12A 1941   0.397   3.887  17.036
   16DOPE  H12B 1942   0.486   3.840  17.192
   16DOPE   C11 1943   0.632   3.852  17.018
   16DOPE  H11A 1944   0.627   3.729  17.012
   16DOPE  H11B 1945   0.737   3.876  17.072
   16DOPE     P 1946   0.645   3.825  16.764
   16DOPE   O13 1947   0.765   3.716  16.781
   16DOPE   O14 1948   0.631   3.912  16.641
   16DOPE   O11 1949   0.491   3.748  16.792
   16DOPE   O12 1950   0.639   3.927  16.892
   16DOPE    C1 1951   0.453   3.604  16.747
   16DOPE    HA 1952   0.363   3.560  16.810
   16DOPE    HB 1953   0.548   3.526  16.755
   16DOPE    C2 1954   0.403   3.605  16.600
   16DOPE    HS 1955   0.338   3.502  16.586
   16DOPE   O21 1956   0.536   3.595  16.529
   16DOPE   C21 1957   0.521   3.581  16.402
   16DOPE   O22 1958   0.431   3.506  16.342
   16DOPE   C22 1959   0.643   3.660  16.339
   16DOPE   H2R 1960   0.693   3.741  16.409
   16DOPE   H2S 1961   0.602   3.718  16.250
   16DOPE    C3 1962   0.314   3.743  16.553
   16DOPE    HX 1963   0.385   3.842  16.563
   16DOPE    HY 1964   0.228   3.758  16.627
   16DOPE   O31 1965   0.250   3.738  16.419
   16DOPE   C31 1966   0.171   3.619  16.388
   16DOPE   O32 1967   0.139   3.519  16.463
   16DOPE   C32 1968   0.130   3.605  16.236
   16DOPE   H2X 1969   0.167   3.493  16.210
   16DOPE   H2Y 1970   0.008   3.606  16.234
   16DOPE   C23 1971   0.746   3.533  16.305
   16DOPE   H3R 1972   0.796   3.478  16.392
   16DOPE   H3S 1973   0.829   3.593  16.252
   16DOPE   C24 1974   0.681   3.430  16.200
   16DOPE   H4R 1975   0.594   3.498  16.152
   16DOPE   H4S 1976   0.624   3.334  16.246
   16DOPE   C25 1977   0.792   3.384  16.094
   16DOPE   H5R 1978   0.815   3.265  16.103
   16DOPE   H5S 1979   0.899   3.442  16.107
   16DOPE   C26 1980   0.743   3.423  15.952
   16DOPE   H6R 1981   0.806   3.354  15.881
   16DOPE   H6S 1982   0.773   3.538  15.931
   16DOPE   C27 1983   0.577   3.402  15.926
   16DOPE   H7R 1984   0.510   3.497  15.961
   16DOPE   H7S 1985   0.540   3.303  15.984
   16DOPE   C28 1986   0.549   3.367  15.779
   16DOPE   H8R 1987   0.432   3.331  15.770
   16DOPE   H8S 1988   0.622   3.271  15.765
   16DOPE   C29 1989   0.579   3.480  15.671
   16DOPE   H9R 1990   0.493   3.565  15.665
   16DOPE  C210 1991   0.693   3.495  15.585
   16DOPE  H10R 1992   0.682   3.578  15.508
   16DOPE  C211 1993   0.833   3.411  15.562
   16DOPE  H11R 1994   0.861   3.335  15.645
   16DOPE  H11S 1995   0.925   3.490  15.553
   16DOPE  C212 1996   0.825   3.332  15.425
   16DOPE  H12R 1997   0.744   3.243  15.418
   16DOPE  H12S 1998   0.934   3.278  15.417
   16DOPE  C213 1999   0.799   3.432  15.305
   16DOPE  H13R 2000   0.847   3.381  15.215
   16DOPE  H13S 2001   0.851   3.540  15.323
   16DOPE  C214 2002   0.640   3.449  15.255
   16DOPE  H14R 2003   0.639   3.553  15.197
   16DOPE  H14S 2004   0.559   3.458  15.337
   16DOPE  C215 2005   0.596   3.326  15.155
   16DOPE  H15R 2006   0.582   3.222  15.212
   16DOPE  H15S 2007   0.686   3.307  15.082
   16DOPE  C216 2008   0.455   3.366  15.080
   16DOPE  H16R 2009   0.376   3.408  15.157
   16DOPE  H16S 2010   0.403   3.267  15.038
   16DOPE  C217 2011   0.473   3.485  14.971
   16DOPE  H17R 2012   0.524   3.584  15.017
   16DOPE  H17S 2013   0.361   3.518  14.936
   16DOPE  C218 2014   0.562   3.443  14.846
   16DOPE  H18R 2015   0.586   3.544  14.787
   16DOPE  H18S 2016   0.499   3.369  14.779
   16DOPE  H18T 2017   0.668   3.391  14.873
   16DOPE   C33 2018   0.184   3.711  16.123
   16DOPE   H3X 2019   0.125   3.677  16.030
   16DOPE   H3Y 2020   0.301   3.694  16.101
   16DOPE   C34 2021   0.133   3.869  16.155
   16DOPE   H4X 2022   0.013   3.860  16.138
   16DOPE   H4Y 2023   0.155   3.891  16.262
   16DOPE   C35 2024   0.183   4.008  16.080
   16DOPE   H5X 2025   0.107   4.096  16.116
   16DOPE   H5Y 2026   0.161   3.994  15.972
   16DOPE   C36 2027   0.342   4.062  16.104
   16DOPE   H6X 2028   0.359   4.097  16.210
   16DOPE   H6Y 2029   0.360   4.160  16.039
   16DOPE   C37 2030   0.447   3.936  16.069
   16DOPE   H7X 2031   0.431   3.856  16.152
   16DOPE   H7Y 2032   0.397   3.893  15.975
   16DOPE   C38 2033   0.615   3.951  16.054
   16DOPE   H8X 2034   0.670   3.952  16.154
   16DOPE   H8Y 2035   0.651   4.049  15.998
   16DOPE   C39 2036   0.646   3.808  15.981
   16DOPE   H9X 2037   0.655   3.710  16.045
   16DOPE  C310 2038   0.667   3.793  15.849
   16DOPE  H10X 2039   0.671   3.682  15.808
   16DOPE  C311 2040   0.666   3.913  15.745
   16DOPE  H11X 2041   0.674   4.022  15.794
   16DOPE  H11Y 2042   0.770   3.897  15.690
   16DOPE  C312 2043   0.546   3.924  15.637
   16DOPE  H12X 2044   0.550   4.040  15.605
   16DOPE  H12Y 2045   0.435   3.905  15.677
   16DOPE  C313 2046   0.582   3.833  15.512
   16DOPE  H13X 2047   0.695   3.789  15.523
   16DOPE  H13Y 2048   0.504   3.741  15.499
   16DOPE  C314 2049   0.590   3.928  15.386
   16DOPE  H14X 2050   0.667   4.021  15.408
   16DOPE  H14Y 2051   0.479   3.975  15.364
   16DOPE  C315 2052   0.647   3.852  15.261
   16DOPE  H15X 2053   0.565   3.769  15.228
   16DOPE  H15Y 2054   0.754   3.796  15.281
   16DOPE  C316 2055   0.667   3.970  15.154
   16DOPE  H16X 2056   0.763   4.039  15.179
   16DOPE  H16Y 2057   0.567   4.040  15.156
   16DOPE  C317 2058   0.682   3.917  15.010
   16DOPE  H17X 2059   0.786   3.857  15.002
   16DOPE  H17Y 2060   0.590   3.842  14.984
   16DOPE  C318 2061   0.685   4.049  14.915
   16DOPE  H18X 2062   0.672   4.013  14.810
   16DOPE  H18Y 2063   0.594   4.125  14.939
   16DOPE  H18Z 2064   0.789   4.112  14.926
   17DOPE     N 2065   3.025   7.909  17.131
   17DOPE   HN1 2066   2.924   7.890  17.084
   17DOPE   HN2 2067   3.057   7.809  17.174
   17DOPE   HN3 2068   3.012   7.990  17.203
   17DOPE   C12 2069   3.132   7.950  17.022
   17DOPE  H12A 2070   3.242   7.906  17.048
   17DOPE  H12B 2071   3.138   8.071  17.013
   17DOPE   C11 2072   3.076   7.885  16.891
   17DOPE  H11A 2073   3.159   7.906  16.810
   17DOPE  H11B 2074   2.973   7.942  16.860
   17DOPE     P 2075   2.903   7.649  16.917
   17DOPE   O13 2076   2.924   7.500  16.970
   17DOPE   O14 2077   2.840   7.663  16.783
   17DOPE   O11 2078   2.802   7.736  17.024
   17DOPE   O12 2079   3.056   7.732  16.913
   17DOPE    C1 2080   2.661   7.666  17.050
   17DOPE    HA 2081   2.611   7.718  17.141
   17DOPE    HB 2082   2.671   7.547  17.076
   17DOPE    C2 2083   2.542   7.690  16.936
   17DOPE    HS 2084   2.432   7.664  16.979
   17DOPE   O21 2085   2.559   7.601  16.816
   17DOPE   C21 2086   2.564   7.455  16.832
   17DOPE   O22 2087   2.529   7.394  16.936
   17DOPE   C22 2088   2.618   7.374  16.703
   17DOPE   H2R 2089   2.556   7.271  16.694
   17DOPE   H2S 2090   2.734   7.343  16.723
   17DOPE    C3 2091   2.538   7.855  16.894
   17DOPE    HX 2092   2.519   7.921  16.984
   17DOPE    HY 2093   2.441   7.866  16.825
   17DOPE   O31 2094   2.672   7.901  16.832
   17DOPE   C31 2095   2.657   7.999  16.736
   17DOPE   O32 2096   2.553   8.084  16.728
   17DOPE   C32 2097   2.785   7.987  16.638
   17DOPE   H2X 2098   2.830   8.099  16.625
   17DOPE   H2Y 2099   2.871   7.916  16.681
   17DOPE   C23 2100   2.603   7.469  16.573
   17DOPE   H3R 2101   2.702   7.542  16.573
   17DOPE   H3S 2102   2.506   7.541  16.591
   17DOPE   C24 2103   2.577   7.412  16.426
   17DOPE   H4R 2104   2.671   7.443  16.360
   17DOPE   H4S 2105   2.490   7.487  16.396
   17DOPE   C25 2106   2.511   7.260  16.385
   17DOPE   H5R 2107   2.399   7.247  16.424
   17DOPE   H5S 2108   2.580   7.176  16.437
   17DOPE   C26 2109   2.517   7.218  16.231
   17DOPE   H6R 2110   2.487   7.099  16.222
   17DOPE   H6S 2111   2.633   7.229  16.202
   17DOPE   C27 2112   2.438   7.299  16.113
   17DOPE   H7R 2113   2.444   7.419  16.125
   17DOPE   H7S 2114   2.321   7.262  16.110
   17DOPE   C28 2115   2.511   7.270  15.974
   17DOPE   H8R 2116   2.536   7.151  15.972
   17DOPE   H8S 2117   2.619   7.327  15.978
   17DOPE   C29 2118   2.433   7.312  15.845
   17DOPE   H9R 2119   2.314   7.330  15.854
   17DOPE  C210 2120   2.496   7.321  15.722
   17DOPE  H10R 2121   2.430   7.353  15.635
   17DOPE  C211 2122   2.655   7.289  15.691
   17DOPE  H11R 2123   2.697   7.210  15.767
   17DOPE  H11S 2124   2.724   7.390  15.701
   17DOPE  C212 2125   2.691   7.215  15.556
   17DOPE  H12R 2126   2.619   7.117  15.540
   17DOPE  H12S 2127   2.806   7.174  15.562
   17DOPE  C213 2128   2.691   7.312  15.432
   17DOPE  H13R 2129   2.741   7.421  15.457
   17DOPE  H13S 2130   2.576   7.330  15.397
   17DOPE  C214 2131   2.785   7.240  15.323
   17DOPE  H14R 2132   2.743   7.128  15.299
   17DOPE  H14S 2133   2.900   7.228  15.362
   17DOPE  C215 2134   2.792   7.333  15.196
   17DOPE  H15R 2135   2.883   7.293  15.130
   17DOPE  H15S 2136   2.817   7.447  15.225
   17DOPE  C216 2137   2.649   7.329  15.117
   17DOPE  H16R 2138   2.552   7.336  15.183
   17DOPE  H16S 2139   2.643   7.223  15.064
   17DOPE  C217 2140   2.645   7.453  15.014
   17DOPE  H17R 2141   2.763   7.475  14.992
   17DOPE  H17S 2142   2.604   7.556  15.059
   17DOPE  C218 2143   2.569   7.415  14.882
   17DOPE  H18R 2144   2.575   7.296  14.859
   17DOPE  H18S 2145   2.620   7.477  14.798
   17DOPE  H18T 2146   2.451   7.445  14.882
   17DOPE   C33 2147   2.737   7.913  16.507
   17DOPE   H3X 2148   2.665   7.991  16.450
   17DOPE   H3Y 2149   2.674   7.812  16.530
   17DOPE   C34 2150   2.862   7.866  16.414
   17DOPE   H4X 2151   2.949   7.951  16.414
   17DOPE   H4Y 2152   2.912   7.763  16.452
   17DOPE   C35 2153   2.803   7.847  16.271
   17DOPE   H5X 2154   2.708   7.925  16.259
   17DOPE   H5Y 2155   2.759   7.735  16.259
   17DOPE   C36 2156   2.911   7.885  16.159
   17DOPE   H6X 2157   2.993   7.796  16.149
   17DOPE   H6Y 2158   2.974   7.985  16.183
   17DOPE   C37 2159   2.826   7.911  16.028
   17DOPE   H7X 2160   2.735   7.990  16.050
   17DOPE   H7Y 2161   2.898   7.965  15.953
   17DOPE   C38 2162   2.758   7.772  15.968
   17DOPE   H8X 2163   2.690   7.803  15.881
   17DOPE   H8Y 2164   2.682   7.720  16.042
   17DOPE   C39 2165   2.879   7.666  15.931
   17DOPE   H9X 2166   2.939   7.618  16.016
   17DOPE  C310 2167   2.921   7.627  15.807
   17DOPE  H10X 2168   3.017   7.555  15.797
   17DOPE  C311 2169   2.856   7.680  15.678
   17DOPE  H11X 2170   2.779   7.597  15.638
   17DOPE  H11Y 2171   2.793   7.785  15.688
   17DOPE  C312 2172   2.977   7.703  15.573
   17DOPE  H12X 2173   3.059   7.613  15.579
   17DOPE  H12Y 2174   3.035   7.808  15.595
   17DOPE  C313 2175   2.916   7.706  15.430
   17DOPE  H13X 2176   2.994   7.644  15.367
   17DOPE  H13Y 2177   2.808   7.647  15.423
   17DOPE  C314 2178   2.901   7.862  15.374
   17DOPE  H14X 2179   2.974   7.938  15.431
   17DOPE  H14Y 2180   2.786   7.901  15.386
   17DOPE  C315 2181   2.954   7.866  15.229
   17DOPE  H15X 2182   3.073   7.845  15.228
   17DOPE  H15Y 2183   2.937   7.977  15.184
   17DOPE  C316 2184   2.883   7.756  15.134
   17DOPE  H16X 2185   2.761   7.754  15.145
   17DOPE  H16Y 2186   2.925   7.644  15.154
   17DOPE  C317 2187   2.928   7.805  14.993
   17DOPE  H17X 2188   2.878   7.915  14.974
   17DOPE  H17Y 2189   3.049   7.819  14.992
   17DOPE  C318 2190   2.884   7.700  14.883
   17DOPE  H18X 2191   2.945   7.594  14.895
   17DOPE  H18Y 2192   2.764   7.677  14.888
   17DOPE  H18Z 2193   2.907   7.747  14.783
   18DOPE     N 2194   8.278   3.401  17.087
   18DOPE   HN1 2195   8.222   3.494  17.123
   18DOPE   HN2 2196   8.316   3.336  17.165
   18DOPE   HN3 2197   8.369   3.440  17.032
   18DOPE   C12 2198   8.169   3.319  17.003
   18DOPE  H12A 2199   8.096   3.258  17.073
   18DOPE  H12B 2200   8.229   3.241  16.938
   18DOPE   C11 2201   8.075   3.424  16.919
   18DOPE  H11A 2202   7.962   3.378  16.904
   18DOPE  H11B 2203   8.128   3.428  16.818
   18DOPE     P 2204   8.055   3.700  16.880
   18DOPE   O13 2205   8.043   3.835  16.963
   18DOPE   O14 2206   7.940   3.663  16.781
   18DOPE   O11 2207   8.213   3.682  16.823
   18DOPE   O12 2208   8.064   3.565  16.981
   18DOPE    C1 2209   8.342   3.718  16.892
   18DOPE    HA 2210   8.356   3.655  16.986
   18DOPE    HB 2211   8.347   3.837  16.918
   18DOPE    C2 2212   8.463   3.680  16.791
   18DOPE    HS 2213   8.573   3.707  16.835
   18DOPE   O21 2214   8.439   3.763  16.671
   18DOPE   C21 2215   8.463   3.906  16.685
   18DOPE   O22 2216   8.522   3.964  16.781
   18DOPE   C22 2217   8.429   3.989  16.558
   18DOPE   H2R 2218   8.527   3.979  16.491
   18DOPE   H2S 2219   8.418   4.106  16.587
   18DOPE    C3 2220   8.466   3.509  16.759
   18DOPE    HX 2221   8.448   3.452  16.855
   18DOPE    HY 2222   8.576   3.480  16.719
   18DOPE   O31 2223   8.352   3.465  16.668
   18DOPE   C31 2224   8.347   3.326  16.630
   18DOPE   O32 2225   8.416   3.225  16.681
   18DOPE   C32 2226   8.219   3.310  16.531
   18DOPE   H2X 2227   8.128   3.258  16.588
   18DOPE   H2Y 2228   8.182   3.422  16.500
   18DOPE   C23 2229   8.287   3.934  16.492
   18DOPE   H3R 2230   8.214   4.029  16.486
   18DOPE   H3S 2231   8.226   3.851  16.551
   18DOPE   C24 2232   8.314   3.880  16.350
   18DOPE   H4R 2233   8.404   3.798  16.350
   18DOPE   H4S 2234   8.352   3.979  16.295
   18DOPE   C25 2235   8.176   3.818  16.281
   18DOPE   H5R 2236   8.081   3.863  16.336
   18DOPE   H5S 2237   8.170   3.696  16.291
   18DOPE   C26 2238   8.170   3.871  16.134
   18DOPE   H6R 2239   8.216   3.786  16.065
   18DOPE   H6S 2240   8.241   3.970  16.125
   18DOPE   C27 2241   8.017   3.925  16.092
   18DOPE   H7R 2242   7.989   4.021  16.157
   18DOPE   H7S 2243   7.938   3.836  16.112
   18DOPE   C28 2244   8.000   3.973  15.944
   18DOPE   H8R 2245   7.887   4.016  15.932
   18DOPE   H8S 2246   8.004   3.871  15.883
   18DOPE   C29 2247   8.106   4.087  15.891
   18DOPE   H9R 2248   8.084   4.201  15.922
   18DOPE  C210 2249   8.215   4.060  15.804
   18DOPE  H10R 2250   8.286   4.151  15.772
   18DOPE  C211 2251   8.251   3.913  15.744
   18DOPE  H11R 2252   8.248   3.826  15.823
   18DOPE  H11S 2253   8.367   3.914  15.707
   18DOPE  C212 2254   8.149   3.863  15.629
   18DOPE  H12R 2255   8.043   3.822  15.671
   18DOPE  H12S 2256   8.201   3.769  15.578
   18DOPE  C213 2257   8.115   3.981  15.523
   18DOPE  H13R 2258   8.051   4.070  15.571
   18DOPE  H13S 2259   8.043   3.931  15.445
   18DOPE  C214 2260   8.253   4.040  15.452
   18DOPE  H14R 2261   8.342   4.058  15.526
   18DOPE  H14S 2262   8.230   4.148  15.404
   18DOPE  C215 2263   8.303   3.933  15.343
   18DOPE  H15R 2264   8.216   3.926  15.265
   18DOPE  H15S 2265   8.313   3.822  15.390
   18DOPE  C216 2266   8.450   3.970  15.277
   18DOPE  H16R 2267   8.531   4.002  15.356
   18DOPE  H16S 2268   8.437   4.064  15.208
   18DOPE  C217 2269   8.511   3.838  15.200
   18DOPE  H17R 2270   8.510   3.739  15.267
   18DOPE  H17S 2271   8.628   3.861  15.175
   18DOPE  C218 2272   8.427   3.803  15.072
   18DOPE  H18R 2273   8.401   3.904  15.015
   18DOPE  H18S 2274   8.323   3.744  15.092
   18DOPE  H18T 2275   8.493   3.730  15.007
   18DOPE   C33 2276   8.254   3.216  16.406
   18DOPE   H3X 2277   8.149   3.168  16.370
   18DOPE   H3Y 2278   8.329   3.123  16.431
   18DOPE   C34 2279   8.318   3.309  16.291
   18DOPE   H4X 2280   8.241   3.401  16.269
   18DOPE   H4Y 2281   8.424   3.358  16.325
   18DOPE   C35 2282   8.347   3.223  16.161
   18DOPE   H5X 2283   8.247   3.163  16.132
   18DOPE   H5Y 2284   8.435   3.139  16.180
   18DOPE   C36 2285   8.394   3.324  16.045
   18DOPE   H6X 2286   8.502   3.373  16.072
   18DOPE   H6Y 2287   8.314   3.416  16.034
   18DOPE   C37 2288   8.413   3.247  15.909
   18DOPE   H7X 2289   8.469   3.139  15.927
   18DOPE   H7Y 2290   8.304   3.224  15.864
   18DOPE   C38 2291   8.511   3.335  15.810
   18DOPE   H8X 2292   8.540   3.259  15.727
   18DOPE   H8Y 2293   8.616   3.362  15.861
   18DOPE   C39 2294   8.443   3.474  15.755
   18DOPE   H9X 2295   8.461   3.574  15.815
   18DOPE  C310 2296   8.363   3.486  15.642
   18DOPE  H10X 2297   8.325   3.595  15.611
   18DOPE  C311 2298   8.325   3.364  15.546
   18DOPE  H11X 2299   8.386   3.377  15.451
   18DOPE  H11Y 2300   8.357   3.255  15.589
   18DOPE  C312 2301   8.159   3.352  15.514
   18DOPE  H12X 2302   8.096   3.354  15.609
   18DOPE  H12Y 2303   8.137   3.244  15.465
   18DOPE  C313 2304   8.098   3.473  15.422
   18DOPE  H13X 2305   7.976   3.468  15.428
   18DOPE  H13Y 2306   8.133   3.583  15.460
   18DOPE  C314 2307   8.140   3.461  15.274
   18DOPE  H14X 2308   8.084   3.364  15.227
   18DOPE  H14Y 2309   8.261   3.442  15.266
   18DOPE  C315 2310   8.104   3.601  15.197
   18DOPE  H15X 2311   8.129   3.592  15.089
   18DOPE  H15Y 2312   8.174   3.689  15.240
   18DOPE  C316 2313   7.945   3.656  15.212
   18DOPE  H16X 2314   7.929   3.667  15.321
   18DOPE  H16Y 2315   7.864   3.576  15.173
   18DOPE  C317 2316   7.921   3.812  15.157
   18DOPE  H17X 2317   8.028   3.870  15.158
   18DOPE  H17Y 2318   7.884   3.804  15.051
   18DOPE  C318 2319   7.811   3.902  15.241
   18DOPE  H18X 2320   7.702   3.848  15.243
   18DOPE  H18Y 2321   7.849   3.913  15.346
   18DOPE  H18Z 2322   7.799   4.014  15.198
   19DOPE     N 2323   8.268   4.699  17.131
   19DOPE   HN1 2324   8.179   4.627  17.132
   19DOPE   HN2 2325   8.351   4.665  17.197
   19DOPE   HN3 2326   8.231   4.804  17.158
   19DOPE   C12 2327   8.320   4.695  16.988
   19DOPE  H12A 2328   8.394   4.598  16.980
   19DOPE  H12B 2329   8.382   4.797  16.968
   19DOPE   C11 2330   8.192   4.678  16.887
   19DOPE  H11A 2331   8.239   4.677  16.783
   19DOPE  H11B 2332   8.121   4.778  16.892
   19DOPE     P 2333   8.142   4.398  16.844
   19DOPE   O13 2334   8.124   4.283  16.949
   19DOPE   O14 2335   8.292   4.414  16.787
   19DOPE   O11 2336   8.020   4.398  16.729
   19DOPE   O12 2337   8.104   4.551  16.913
   19DOPE    C1 2338   7.867   4.404  16.768
   19DOPE    HA 2339   7.844   4.499  16.834
   19DOPE    HB 2340   7.841   4.302  16.824
   19DOPE    C2 2341   7.750   4.403  16.652
   19DOPE    HS 2342   7.657   4.330  16.683
   19DOPE   O21 2343   7.805   4.351  16.527
   19DOPE   C21 2344   7.882   4.230  16.526
   19DOPE   O22 2345   7.913   4.147  16.616
   19DOPE   C22 2346   7.928   4.210  16.382
   19DOPE   H2R 2347   7.867   4.283  16.313
   19DOPE   H2S 2348   7.904   4.094  16.355
   19DOPE    C3 2349   7.677   4.556  16.625
   19DOPE    HX 2350   7.626   4.595  16.720
   19DOPE    HY 2351   7.587   4.546  16.550
   19DOPE   O31 2352   7.784   4.663  16.585
   19DOPE   C31 2353   7.811   4.673  16.456
   19DOPE   O32 2354   7.733   4.630  16.364
   19DOPE   C32 2355   7.964   4.740  16.442
   19DOPE   H2X 2356   7.957   4.852  16.484
   19DOPE   H2Y 2357   8.040   4.675  16.506
   19DOPE   C23 2358   8.094   4.235  16.376
   19DOPE   H3R 2359   8.140   4.141  16.317
   19DOPE   H3S 2360   8.144   4.235  16.478
   19DOPE   C24 2361   8.149   4.375  16.314
   19DOPE   H4R 2362   8.135   4.469  16.383
   19DOPE   H4S 2363   8.089   4.399  16.219
   19DOPE   C25 2364   8.312   4.345  16.289
   19DOPE   H5R 2365   8.320   4.261  16.208
   19DOPE   H5S 2366   8.362   4.297  16.380
   19DOPE   C26 2367   8.397   4.480  16.247
   19DOPE   H6R 2368   8.512   4.442  16.229
   19DOPE   H6S 2369   8.403   4.563  16.330
   19DOPE   C27 2370   8.328   4.550  16.122
   19DOPE   H7R 2371   8.222   4.603  16.150
   19DOPE   H7S 2372   8.300   4.458  16.052
   19DOPE   C28 2373   8.426   4.662  16.052
   19DOPE   H8R 2374   8.440   4.757  16.120
   19DOPE   H8S 2375   8.370   4.704  15.961
   19DOPE   C29 2376   8.571   4.589  16.021
   19DOPE   H9R 2377   8.663   4.615  16.090
   19DOPE  C210 2378   8.594   4.496  15.919
   19DOPE  H10R 2379   8.704   4.447  15.905
   19DOPE  C211 2380   8.479   4.447  15.819
   19DOPE  H11R 2381   8.366   4.484  15.846
   19DOPE  H11S 2382   8.478   4.325  15.812
   19DOPE  C212 2383   8.517   4.514  15.683
   19DOPE  H12R 2384   8.438   4.472  15.608
   19DOPE  H12S 2385   8.627   4.475  15.652
   19DOPE  C213 2386   8.518   4.685  15.682
   19DOPE  H13R 2387   8.622   4.723  15.637
   19DOPE  H13S 2388   8.518   4.730  15.785
   19DOPE  C214 2389   8.392   4.760  15.606
   19DOPE  H14R 2390   8.416   4.878  15.596
   19DOPE  H14S 2391   8.295   4.747  15.672
   19DOPE  C215 2392   8.354   4.694  15.469
   19DOPE  H15R 2393   8.293   4.590  15.486
   19DOPE  H15S 2394   8.458   4.666  15.414
   19DOPE  C216 2395   8.259   4.796  15.383
   19DOPE  H16R 2396   8.327   4.882  15.336
   19DOPE  H16S 2397   8.176   4.851  15.448
   19DOPE  C217 2398   8.170   4.711  15.278
   19DOPE  H17R 2399   8.111   4.624  15.336
   19DOPE  H17S 2400   8.246   4.656  15.207
   19DOPE  C218 2401   8.052   4.799  15.204
   19DOPE  H18R 2402   7.981   4.858  15.277
   19DOPE  H18S 2403   7.981   4.723  15.145
   19DOPE  H18T 2404   8.101   4.880  15.134
   19DOPE   C33 2405   8.023   4.741  16.298
   19DOPE   H3X 2406   8.015   4.631  16.250
   19DOPE   H3Y 2407   8.142   4.773  16.303
   19DOPE   C34 2408   7.944   4.854  16.212
   19DOPE   H4X 2409   7.835   4.812  16.180
   19DOPE   H4Y 2410   7.922   4.944  16.283
   19DOPE   C35 2411   8.034   4.909  16.092
   19DOPE   H5X 2412   8.152   4.919  16.118
   19DOPE   H5Y 2413   7.996   5.022  16.064
   19DOPE   C36 2414   8.014   4.815  15.968
   19DOPE   H6X 2415   7.893   4.806  15.951
   19DOPE   H6Y 2416   8.057   4.703  15.984
   19DOPE   C37 2417   8.085   4.888  15.848
   19DOPE   H7X 2418   8.057   5.006  15.852
   19DOPE   H7Y 2419   8.206   4.880  15.859
   19DOPE   C38 2420   8.038   4.832  15.710
   19DOPE   H8X 2421   8.053   4.711  15.709
   19DOPE   H8Y 2422   8.117   4.881  15.638
   19DOPE   C39 2423   7.887   4.878  15.664
   19DOPE   H9X 2424   7.885   4.974  15.598
   19DOPE  C310 2425   7.762   4.805  15.687
   19DOPE  H10X 2426   7.657   4.851  15.651
   19DOPE  C311 2427   7.753   4.663  15.763
   19DOPE  H11X 2428   7.859   4.631  15.809
   19DOPE  H11Y 2429   7.673   4.673  15.846
   19DOPE  C312 2430   7.709   4.535  15.670
   19DOPE  H12X 2431   7.592   4.552  15.642
   19DOPE  H12Y 2432   7.714   4.431  15.726
   19DOPE  C313 2433   7.797   4.522  15.539
   19DOPE  H13X 2434   7.741   4.438  15.476
   19DOPE  H13Y 2435   7.796   4.627  15.482
   19DOPE  C314 2436   7.956   4.473  15.564
   19DOPE  H14X 2437   7.967   4.441  15.671
   19DOPE  H14Y 2438   8.034   4.564  15.545
   19DOPE  C315 2439   7.999   4.338  15.480
   19DOPE  H15X 2440   7.912   4.253  15.494
   19DOPE  H15Y 2441   8.105   4.294  15.520
   19DOPE  C316 2442   8.019   4.368  15.331
   19DOPE  H16X 2443   8.136   4.401  15.315
   19DOPE  H16Y 2444   7.948   4.459  15.297
   19DOPE  C317 2445   7.988   4.235  15.242
   19DOPE  H17X 2446   8.001   4.132  15.301
   19DOPE  H17Y 2447   7.873   4.239  15.207
   19DOPE  C318 2448   8.095   4.232  15.123
   19DOPE  H18X 2449   8.069   4.324  15.054
   19DOPE  H18Y 2450   8.209   4.247  15.159
   19DOPE  H18Z 2451   8.088   4.126  15.068
   20DOPE     N 2452   6.912   7.634  16.978
   20DOPE   HN1 2453   7.007   7.692  17.006
   20DOPE   HN2 2454   6.931   7.555  16.904
   20DOPE   HN3 2455   6.835   7.702  16.934
   20DOPE   C12 2456   6.840   7.551  17.089
   20DOPE  H12A 2457   6.744   7.614  17.125
   20DOPE  H12B 2458   6.920   7.535  17.172
   20DOPE   C11 2459   6.789   7.406  17.028
   20DOPE  H11A 2460   6.720   7.348  17.104
   20DOPE  H11B 2461   6.888   7.337  17.005
   20DOPE     P 2462   6.643   7.294  16.833
   20DOPE   O13 2463   6.579   7.195  16.937
   20DOPE   O14 2464   6.765   7.239  16.750
   20DOPE   O11 2465   6.516   7.369  16.749
   20DOPE   O12 2466   6.708   7.436  16.909
   20DOPE    C1 2467   6.384   7.413  16.816
   20DOPE    HA 2468   6.405   7.473  16.912
   20DOPE    HB 2469   6.319   7.313  16.842
   20DOPE    C2 2470   6.288   7.515  16.726
   20DOPE    HS 2471   6.175   7.515  16.770
   20DOPE   O21 2472   6.285   7.460  16.590
   20DOPE   C21 2473   6.217   7.332  16.583
   20DOPE   O22 2474   6.126   7.288  16.664
   20DOPE   C22 2475   6.266   7.249  16.459
   20DOPE   H2R 2476   6.250   7.130  16.481
   20DOPE   H2S 2477   6.384   7.268  16.441
   20DOPE    C3 2478   6.340   7.679  16.726
   20DOPE    HX 2479   6.334   7.716  16.831
   20DOPE    HY 2480   6.260   7.742  16.664
   20DOPE   O31 2481   6.489   7.697  16.679
   20DOPE   C31 2482   6.531   7.818  16.620
   20DOPE   O32 2483   6.461   7.932  16.609
   20DOPE   C32 2484   6.691   7.799  16.579
   20DOPE   H2X 2485   6.734   7.910  16.554
   20DOPE   H2Y 2486   6.753   7.756  16.666
   20DOPE   C23 2487   6.171   7.291  16.336
   20DOPE   H3R 2488   6.054   7.262  16.359
   20DOPE   H3S 2489   6.208   7.220  16.252
   20DOPE   C24 2490   6.173   7.451  16.291
   20DOPE   H4R 2491   6.136   7.525  16.372
   20DOPE   H4S 2492   6.095   7.466  16.206
   20DOPE   C25 2493   6.319   7.510  16.239
   20DOPE   H5R 2494   6.373   7.424  16.176
   20DOPE   H5S 2495   6.393   7.534  16.325
   20DOPE   C26 2496   6.293   7.649  16.156
   20DOPE   H6R 2497   6.192   7.703  16.196
   20DOPE   H6S 2498   6.270   7.618  16.051
   20DOPE   C27 2499   6.417   7.763  16.165
   20DOPE   H7R 2500   6.522   7.701  16.180
   20DOPE   H7S 2501   6.401   7.834  16.253
   20DOPE   C28 2502   6.438   7.854  16.037
   20DOPE   H8R 2503   6.447   7.774  15.953
   20DOPE   H8S 2504   6.548   7.905  16.047
   20DOPE   C29 2505   6.329   7.976  16.010
   20DOPE   H9R 2506   6.304   8.047  16.097
   20DOPE  C210 2507   6.258   8.000  15.894
   20DOPE  H10R 2508   6.176   8.090  15.888
   20DOPE  C211 2509   6.274   7.910  15.769
   20DOPE  H11R 2510   6.179   7.835  15.768
   20DOPE  H11S 2511   6.375   7.841  15.773
   20DOPE  C212 2512   6.282   7.990  15.632
   20DOPE  H12R 2513   6.397   8.032  15.620
   20DOPE  H12S 2514   6.206   8.086  15.629
   20DOPE  C213 2515   6.248   7.888  15.513
   20DOPE  H13R 2516   6.328   7.909  15.432
   20DOPE  H13S 2517   6.139   7.917  15.469
   20DOPE  C214 2518   6.245   7.723  15.548
   20DOPE  H14R 2519   6.140   7.697  15.599
   20DOPE  H14S 2520   6.337   7.692  15.616
   20DOPE  C215 2521   6.257   7.625  15.427
   20DOPE  H15R 2522   6.180   7.669  15.350
   20DOPE  H15S 2523   6.217   7.513  15.449
   20DOPE  C216 2524   6.416   7.619  15.379
   20DOPE  H16R 2525   6.479   7.530  15.429
   20DOPE  H16S 2526   6.475   7.723  15.404
   20DOPE  C217 2527   6.423   7.601  15.229
   20DOPE  H17R 2528   6.368   7.495  15.199
   20DOPE  H17S 2529   6.540   7.593  15.199
   20DOPE  C218 2530   6.349   7.730  15.158
   20DOPE  H18R 2531   6.358   7.832  15.219
   20DOPE  H18S 2532   6.232   7.703  15.146
   20DOPE  H18T 2533   6.399   7.754  15.060
   20DOPE   C33 2534   6.711   7.694  16.459
   20DOPE   H3X 2535   6.818   7.722  16.410
   20DOPE   H3Y 2536   6.623   7.711  16.383
   20DOPE   C34 2537   6.718   7.532  16.500
   20DOPE   H4X 2538   6.788   7.520  16.590
   20DOPE   H4Y 2539   6.607   7.490  16.527
   20DOPE   C35 2540   6.786   7.435  16.390
   20DOPE   H5X 2541   6.810   7.324  16.433
   20DOPE   H5Y 2542   6.890   7.483  16.355
   20DOPE   C36 2543   6.681   7.417  16.271
   20DOPE   H6X 2544   6.670   7.527  16.223
   20DOPE   H6Y 2545   6.573   7.384  16.312
   20DOPE   C37 2546   6.730   7.302  16.169
   20DOPE   H7X 2547   6.834   7.335  16.121
   20DOPE   H7Y 2548   6.751   7.198  16.226
   20DOPE   C38 2549   6.611   7.270  16.063
   20DOPE   H8X 2550   6.510   7.234  16.115
   20DOPE   H8Y 2551   6.648   7.174  16.002
   20DOPE   C39 2552   6.579   7.404  15.978
   20DOPE   H9X 2553   6.558   7.505  16.035
   20DOPE  C310 2554   6.569   7.411  15.844
   20DOPE  H10X 2555   6.541   7.516  15.797
   20DOPE  C311 2556   6.589   7.283  15.750
   20DOPE  H11X 2557   6.645   7.318  15.657
   20DOPE  H11Y 2558   6.657   7.194  15.794
   20DOPE  C312 2559   6.438   7.216  15.715
   20DOPE  H12X 2560   6.376   7.184  15.807
   20DOPE  H12Y 2561   6.459   7.113  15.659
   20DOPE  C313 2562   6.343   7.316  15.628
   20DOPE  H13X 2563   6.253   7.367  15.689
   20DOPE  H13Y 2564   6.411   7.409  15.589
   20DOPE  C314 2565   6.278   7.231  15.509
   20DOPE  H14X 2566   6.185   7.293  15.463
   20DOPE  H14Y 2567   6.232   7.126  15.547
   20DOPE  C315 2568   6.395   7.200  15.403
   20DOPE  H15X 2569   6.466   7.108  15.440
   20DOPE  H15Y 2570   6.468   7.296  15.391
   20DOPE  C316 2571   6.333   7.161  15.265
   20DOPE  H16X 2572   6.424   7.130  15.197
   20DOPE  H16Y 2573   6.279   7.261  15.222
   20DOPE  C317 2574   6.219   7.037  15.269
   20DOPE  H17X 2575   6.265   6.941  15.323
   20DOPE  H17Y 2576   6.122   7.076  15.325
   20DOPE  C318 2577   6.172   6.986  15.129
   20DOPE  H18X 2578   6.134   7.083  15.071
   20DOPE  H18Y 2579   6.266   6.936  15.075
   20DOPE  H18Z 2580   6.082   6.905  15.136
   21DOPE     N 2581   3.696   8.156  16.795
   21DOPE   HN1 2582   3.631   8.227  16.736
   21DOPE   HN2 2583   3.766   8.089  16.741
   21DOPE   HN3 2584   3.618   8.092  16.844
   21DOPE   C12 2585   3.771   8.243  16.903
   21DOPE  H12A 2586   3.815   8.346  16.858
   21DOPE  H12B 2587   3.862   8.175  16.943
   21DOPE   C11 2588   3.661   8.276  17.016
   21DOPE  H11A 2589   3.720   8.344  17.092
   21DOPE  H11B 2590   3.628   8.173  17.068
   21DOPE     P 2591   3.384   8.291  16.929
   21DOPE   O13 2592   3.285   8.290  17.047
   21DOPE   O14 2593   3.412   8.149  16.861
   21DOPE   O11 2594   3.333   8.404  16.820
   21DOPE   O12 2595   3.538   8.358  16.969
   21DOPE    C1 2596   3.427   8.434  16.708
   21DOPE    HA 2597   3.488   8.335  16.674
   21DOPE    HB 2598   3.507   8.522  16.737
   21DOPE    C2 2599   3.341   8.491  16.584
   21DOPE    HS 2600   3.258   8.571  16.623
   21DOPE   O21 2601   3.271   8.373  16.513
   21DOPE   C21 2602   3.145   8.327  16.562
   21DOPE   O22 2603   3.082   8.375  16.660
   21DOPE   C22 2604   3.073   8.221  16.461
   21DOPE   H2R 2605   3.069   8.116  16.517
   21DOPE   H2S 2606   3.146   8.204  16.374
   21DOPE    C3 2607   3.435   8.579  16.481
   21DOPE    HX 2608   3.502   8.663  16.533
   21DOPE    HY 2609   3.357   8.639  16.417
   21DOPE   O31 2610   3.523   8.487  16.394
   21DOPE   C31 2611   3.647   8.437  16.446
   21DOPE   O32 2612   3.694   8.467  16.557
   21DOPE   C32 2613   3.722   8.328  16.354
   21DOPE   H2X 2614   3.841   8.335  16.382
   21DOPE   H2Y 2615   3.685   8.215  16.378
   21DOPE   C23 2616   2.912   8.261  16.420
   21DOPE   H3R 2617   2.858   8.325  16.502
   21DOPE   H3S 2618   2.851   8.155  16.414
   21DOPE   C24 2619   2.872   8.332  16.284
   21DOPE   H4R 2620   2.880   8.452  16.293
   21DOPE   H4S 2621   2.751   8.314  16.270
   21DOPE   C25 2622   2.947   8.274  16.157
   21DOPE   H5R 2623   2.870   8.193  16.111
   21DOPE   H5S 2624   3.049   8.214  16.182
   21DOPE   C26 2625   2.988   8.390  16.050
   21DOPE   H6R 2626   3.080   8.457  16.087
   21DOPE   H6S 2627   2.892   8.465  16.034
   21DOPE   C27 2628   3.035   8.328  15.913
   21DOPE   H7R 2629   3.032   8.417  15.837
   21DOPE   H7S 2630   2.952   8.243  15.882
   21DOPE   C28 2631   3.189   8.259  15.910
   21DOPE   H8R 2632   3.201   8.204  15.811
   21DOPE   H8S 2633   3.192   8.169  15.985
   21DOPE   C29 2634   3.318   8.361  15.933
   21DOPE   H9R 2635   3.334   8.390  16.039
   21DOPE  C210 2636   3.406   8.426  15.842
   21DOPE  H10R 2637   3.490   8.503  15.878
   21DOPE  C211 2638   3.398   8.413  15.690
   21DOPE  H11R 2639   3.323   8.321  15.659
   21DOPE  H11S 2640   3.508   8.387  15.647
   21DOPE  C212 2641   3.339   8.565  15.641
   21DOPE  H12R 2642   3.429   8.647  15.642
   21DOPE  H12S 2643   3.258   8.595  15.719
   21DOPE  C213 2644   3.238   8.582  15.516
   21DOPE  H13R 2645   3.298   8.632  15.431
   21DOPE  H13S 2646   3.151   8.664  15.541
   21DOPE  C214 2647   3.151   8.448  15.477
   21DOPE  H14R 2648   3.076   8.426  15.562
   21DOPE  H14S 2649   3.227   8.352  15.468
   21DOPE  C215 2650   3.062   8.457  15.347
   21DOPE  H15R 2651   3.139   8.448  15.261
   21DOPE  H15S 2652   2.999   8.560  15.336
   21DOPE  C216 2653   2.959   8.324  15.355
   21DOPE  H16R 2654   2.881   8.339  15.439
   21DOPE  H16S 2655   3.034   8.231  15.384
   21DOPE  C217 2656   2.879   8.273  15.230
   21DOPE  H17R 2657   2.857   8.155  15.252
   21DOPE  H17S 2658   2.951   8.278  15.141
   21DOPE  C218 2659   2.726   8.336  15.202
   21DOPE  H18R 2660   2.658   8.336  15.295
   21DOPE  H18S 2661   2.670   8.265  15.127
   21DOPE  H18T 2662   2.730   8.450  15.163
   21DOPE   C33 2663   3.709   8.358  16.203
   21DOPE   H3X 2664   3.706   8.478  16.183
   21DOPE   H3Y 2665   3.606   8.312  16.162
   21DOPE   C34 2666   3.846   8.294  16.134
   21DOPE   H4X 2667   3.853   8.332  16.028
   21DOPE   H4Y 2668   3.942   8.338  16.188
   21DOPE   C35 2669   3.858   8.127  16.137
   21DOPE   H5X 2670   3.875   8.092  16.241
   21DOPE   H5Y 2671   3.953   8.089  16.076
   21DOPE   C36 2672   3.718   8.053  16.086
   21DOPE   H6X 2673   3.626   8.077  16.156
   21DOPE   H6Y 2674   3.733   7.932  16.086
   21DOPE   C37 2675   3.676   8.109  15.946
   21DOPE   H7X 2676   3.676   8.231  15.942
   21DOPE   H7Y 2677   3.759   8.071  15.872
   21DOPE   C38 2678   3.520   8.065  15.908
   21DOPE   H8X 2679   3.490   8.126  15.815
   21DOPE   H8Y 2680   3.444   8.101  15.989
   21DOPE   C39 2681   3.511   7.901  15.892
   21DOPE   H9X 2682   3.578   7.836  15.961
   21DOPE  C310 2683   3.431   7.834  15.799
   21DOPE  H10X 2684   3.438   7.714  15.791
   21DOPE  C311 2685   3.336   7.909  15.697
   21DOPE  H11X 2686   3.227   7.853  15.695
   21DOPE  H11Y 2687   3.314   8.027  15.719
   21DOPE  C312 2688   3.409   7.900  15.560
   21DOPE  H12X 2689   3.452   7.787  15.541
   21DOPE  H12Y 2690   3.505   7.977  15.555
   21DOPE  C313 2691   3.300   7.935  15.450
   21DOPE  H13X 2692   3.210   7.852  15.454
   21DOPE  H13Y 2693   3.247   8.044  15.467
   21DOPE  C314 2694   3.372   7.925  15.313
   21DOPE  H14X 2695   3.282   7.930  15.237
   21DOPE  H14Y 2696   3.431   7.819  15.307
   21DOPE  C315 2697   3.478   8.047  15.276
   21DOPE  H15X 2698   3.511   8.033  15.169
   21DOPE  H15Y 2699   3.581   8.039  15.337
   21DOPE  C316 2700   3.405   8.194  15.299
   21DOPE  H16X 2701   3.403   8.212  15.410
   21DOPE  H16Y 2702   3.289   8.194  15.263
   21DOPE  C317 2703   3.489   8.318  15.236
   21DOPE  H17X 2704   3.606   8.281  15.228
   21DOPE  H17Y 2705   3.445   8.339  15.133
   21DOPE  C318 2706   3.485   8.460  15.317
   21DOPE  H18X 2707   3.386   8.523  15.285
   21DOPE  H18Y 2708   3.479   8.436  15.425
   21DOPE  H18Z 2709   3.582   8.531  15.301
   22DOPE     N 2710   8.100   5.250  16.898
   22DOPE   HN1 2711   8.003   5.226  16.850
   22DOPE   HN2 2712   8.164   5.321  16.840
   22DOPE   HN3 2713   8.170   5.159  16.914
   22DOPE   C12 2714   8.104   5.341  17.024
   22DOPE  H12A 2715   8.104   5.263  17.110
   22DOPE  H12B 2716   8.004   5.410  17.030
   22DOPE   C11 2717   8.243   5.438  17.019
   22DOPE  H11A 2718   8.303   5.432  17.117
   22DOPE  H11B 2719   8.207   5.555  17.009
   22DOPE     P 2720   8.447   5.269  16.920
   22DOPE   O13 2721   8.360   5.140  16.965
   22DOPE   O14 2722   8.569   5.316  17.007
   22DOPE   O11 2723   8.492   5.247  16.770
   22DOPE   O12 2724   8.337   5.403  16.907
   22DOPE    C1 2725   8.382   5.254  16.666
   22DOPE    HA 2726   8.302   5.342  16.683
   22DOPE    HB 2727   8.323   5.147  16.659
   22DOPE    C2 2728   8.457   5.280  16.528
   22DOPE    HS 2729   8.560   5.216  16.541
   22DOPE   O21 2730   8.483   5.434  16.498
   22DOPE   C21 2731   8.600   5.446  16.417
   22DOPE   O22 2732   8.694   5.353  16.404
   22DOPE   C22 2733   8.593   5.582  16.328
   22DOPE   H2R 2734   8.701   5.638  16.333
   22DOPE   H2S 2735   8.511   5.662  16.365
   22DOPE    C3 2736   8.369   5.214  16.407
   22DOPE    HX 2737   8.389   5.093  16.406
   22DOPE    HY 2738   8.421   5.256  16.313
   22DOPE   O31 2739   8.215   5.256  16.405
   22DOPE   C31 2740   8.118   5.147  16.404
   22DOPE   O32 2741   8.150   5.018  16.422
   22DOPE   C32 2742   7.957   5.200  16.388
   22DOPE   H2X 2743   7.890   5.115  16.440
   22DOPE   H2Y 2744   7.943   5.298  16.449
   22DOPE   C23 2745   8.578   5.534  16.182
   22DOPE   H3R 2746   8.463   5.498  16.160
   22DOPE   H3S 2747   8.651   5.436  16.165
   22DOPE   C24 2748   8.626   5.650  16.079
   22DOPE   H4R 2749   8.724   5.709  16.116
   22DOPE   H4S 2750   8.545   5.737  16.061
   22DOPE   C25 2751   8.665   5.570  15.949
   22DOPE   H5R 2752   8.591   5.476  15.929
   22DOPE   H5S 2753   8.770   5.515  15.966
   22DOPE   C26 2754   8.671   5.671  15.827
   22DOPE   H6R 2755   8.735   5.610  15.750
   22DOPE   H6S 2756   8.730   5.775  15.852
   22DOPE   C27 2757   8.521   5.702  15.765
   22DOPE   H7R 2758   8.477   5.801  15.815
   22DOPE   H7S 2759   8.443   5.613  15.791
   22DOPE   C28 2760   8.519   5.727  15.612
   22DOPE   H8R 2761   8.428   5.805  15.591
   22DOPE   H8S 2762   8.485   5.622  15.562
   22DOPE   C29 2763   8.659   5.784  15.549
   22DOPE   H9R 2764   8.746   5.818  15.620
   22DOPE  C210 2765   8.684   5.796  15.417
   22DOPE  H10R 2766   8.792   5.837  15.382
   22DOPE  C211 2767   8.575   5.753  15.310
   22DOPE  H11R 2768   8.462   5.782  15.348
   22DOPE  H11S 2769   8.573   5.632  15.297
   22DOPE  C212 2770   8.593   5.826  15.170
   22DOPE  H12R 2771   8.684   5.776  15.112
   22DOPE  H12S 2772   8.626   5.942  15.191
   22DOPE  C213 2773   8.448   5.835  15.088
   22DOPE  H13R 2774   8.445   5.943  15.036
   22DOPE  H13S 2775   8.364   5.837  15.168
   22DOPE  C214 2776   8.400   5.711  14.990
   22DOPE  H14R 2777   8.352   5.621  15.053
   22DOPE  H14S 2778   8.500   5.667  14.941
   22DOPE  C215 2779   8.283   5.750  14.879
   22DOPE  H15R 2780   8.272   5.655  14.810
   22DOPE  H15S 2781   8.329   5.843  14.820
   22DOPE  C216 2782   8.133   5.801  14.937
   22DOPE  H16R 2783   8.172   5.916  14.960
   22DOPE  H16S 2784   8.106   5.740  15.029
   22DOPE  C217 2785   7.985   5.835  14.867
   22DOPE  H17R 2786   7.939   5.932  14.921
   22DOPE  H17S 2787   7.896   5.755  14.878
   22DOPE  C218 2788   7.987   5.873  14.721
   22DOPE  H18R 2789   8.096   5.841  14.680
   22DOPE  H18S 2790   7.961   5.992  14.713
   22DOPE  H18T 2791   7.900   5.815  14.665
   22DOPE   C33 2792   7.883   5.224  16.249
   22DOPE   H3X 2793   7.773   5.272  16.276
   22DOPE   H3Y 2794   7.857   5.121  16.198
   22DOPE   C34 2795   7.945   5.323  16.139
   22DOPE   H4X 2796   7.948   5.438  16.168
   22DOPE   H4Y 2797   8.056   5.284  16.107
   22DOPE   C35 2798   7.843   5.331  16.020
   22DOPE   H5X 2799   7.726   5.338  16.055
   22DOPE   H5Y 2800   7.857   5.228  15.962
   22DOPE   C36 2801   7.874   5.456  15.924
   22DOPE   H6X 2802   7.869   5.565  15.975
   22DOPE   H6Y 2803   7.779   5.449  15.853
   22DOPE   C37 2804   8.020   5.443  15.846
   22DOPE   H7X 2805   8.026   5.531  15.771
   22DOPE   H7Y 2806   8.115   5.465  15.910
   22DOPE   C38 2807   8.055   5.293  15.783
   22DOPE   H8X 2808   8.060   5.215  15.868
   22DOPE   H8Y 2809   8.168   5.294  15.739
   22DOPE   C39 2810   7.944   5.249  15.679
   22DOPE   H9X 2811   7.872   5.158  15.707
   22DOPE  C310 2812   7.928   5.316  15.561
   22DOPE  H10X 2813   7.844   5.278  15.490
   22DOPE  C311 2814   8.017   5.446  15.514
   22DOPE  H11X 2815   7.945   5.537  15.478
   22DOPE  H11Y 2816   8.090   5.493  15.592
   22DOPE  C312 2817   8.126   5.402  15.407
   22DOPE  H12X 2818   8.180   5.298  15.436
   22DOPE  H12Y 2819   8.213   5.489  15.402
   22DOPE  C313 2820   8.057   5.390  15.269
   22DOPE  H13X 2821   7.972   5.302  15.267
   22DOPE  H13Y 2822   8.000   5.493  15.243
   22DOPE  C314 2823   8.179   5.356  15.168
   22DOPE  H14X 2824   8.270   5.435  15.177
   22DOPE  H14Y 2825   8.129   5.372  15.066
   22DOPE  C315 2826   8.232   5.198  15.182
   22DOPE  H15X 2827   8.257   5.152  15.082
   22DOPE  H15Y 2828   8.138   5.129  15.217
   22DOPE  C316 2829   8.364   5.163  15.275
   22DOPE  H16X 2830   8.430   5.073  15.229
   22DOPE  H16Y 2831   8.314   5.115  15.367
   22DOPE  C317 2832   8.471   5.283  15.328
   22DOPE  H17X 2833   8.407   5.374  15.375
   22DOPE  H17Y 2834   8.535   5.231  15.410
   22DOPE  C318 2835   8.583   5.352  15.232
   22DOPE  H18X 2836   8.659   5.425  15.289
   22DOPE  H18Y 2837   8.653   5.266  15.185
   22DOPE  H18Z 2838   8.528   5.418  15.154
   23DOPE     N 2839   5.130  -0.179  17.168
   23DOPE   HN1 2840   5.122  -0.204  17.270
   23DOPE   HN2 2841   5.207  -0.097  17.152
   23DOPE   HN3 2842   5.031  -0.143  17.126
   23DOPE   C12 2843   5.175  -0.316  17.094
   23DOPE  H12A 2844   5.079  -0.391  17.094
   23DOPE  H12B 2845   5.268  -0.369  17.146
   23DOPE   C11 2846   5.213  -0.273  16.951
   23DOPE  H11A 2847   5.218  -0.375  16.889
   23DOPE  H11B 2848   5.324  -0.220  16.948
   23DOPE     P 2849   5.114  -0.120  16.755
   23DOPE   O13 2850   4.970  -0.062  16.715
   23DOPE   O14 2851   5.175  -0.246  16.680
   23DOPE   O11 2852   5.231   0.009  16.772
   23DOPE   O12 2853   5.101  -0.173  16.906
   23DOPE    C1 2854   5.234   0.105  16.886
   23DOPE    HA 2855   5.288   0.047  16.971
   23DOPE    HB 2856   5.119   0.134  16.917
   23DOPE    C2 2857   5.320   0.252  16.862
   23DOPE    HS 2858   5.301   0.326  16.949
   23DOPE   O21 2859   5.270   0.324  16.745
   23DOPE   C21 2860   5.130   0.354  16.731
   23DOPE   O22 2861   5.040   0.369  16.821
   23DOPE   C22 2862   5.107   0.393  16.584
   23DOPE   H2R 2863   5.215   0.389  16.532
   23DOPE   H2S 2864   5.066   0.507  16.580
   23DOPE    C3 2865   5.491   0.235  16.850
   23DOPE    HX 2866   5.536   0.233  16.954
   23DOPE    HY 2867   5.537   0.337  16.803
   23DOPE   O31 2868   5.542   0.103  16.784
   23DOPE   C31 2869   5.515   0.099  16.653
   23DOPE   O32 2870   5.468   0.198  16.584
   23DOPE   C32 2871   5.578  -0.045  16.596
   23DOPE   H2X 2872   5.699  -0.036  16.599
   23DOPE   H2Y 2873   5.544  -0.136  16.663
   23DOPE   C23 2874   5.001   0.293  16.507
   23DOPE   H3R 2875   4.885   0.319  16.533
   23DOPE   H3S 2876   5.020   0.174  16.533
   23DOPE   C24 2877   5.029   0.312  16.357
   23DOPE   H4R 2878   5.140   0.265  16.334
   23DOPE   H4S 2879   5.032   0.431  16.333
   23DOPE   C25 2880   4.914   0.237  16.271
   23DOPE   H5R 2881   4.810   0.304  16.273
   23DOPE   H5S 2882   4.887   0.129  16.317
   23DOPE   C26 2883   4.964   0.212  16.127
   23DOPE   H6R 2884   4.875   0.150  16.076
   23DOPE   H6S 2885   5.063   0.140  16.125
   23DOPE   C27 2886   5.000   0.356  16.052
   23DOPE   H7R 2887   5.117   0.384  16.068
   23DOPE   H7S 2888   4.935   0.448  16.097
   23DOPE   C28 2889   4.966   0.349  15.901
   23DOPE   H8R 2890   5.029   0.256  15.855
   23DOPE   H8S 2891   5.004   0.452  15.853
   23DOPE   C29 2892   4.803   0.331  15.884
   23DOPE   H9R 2893   4.740   0.428  15.915
   23DOPE  C210 2894   4.728   0.209  15.849
   23DOPE  H10R 2895   4.609   0.213  15.868
   23DOPE  C211 2896   4.783   0.056  15.814
   23DOPE  H11R 2897   4.750  -0.015  15.899
   23DOPE  H11S 2898   4.905   0.052  15.813
   23DOPE  C212 2899   4.723  -0.024  15.687
   23DOPE  H12R 2900   4.602  -0.035  15.695
   23DOPE  H12S 2901   4.769  -0.138  15.692
   23DOPE  C213 2902   4.759   0.037  15.545
   23DOPE  H13R 2903   4.682   0.125  15.521
   23DOPE  H13S 2904   4.735  -0.048  15.470
   23DOPE  C214 2905   4.916   0.095  15.524
   23DOPE  H14R 2906   4.987   0.000  15.496
   23DOPE  H14S 2907   4.953   0.140  15.621
   23DOPE  C215 2908   4.938   0.222  15.424
   23DOPE  H15R 2909   5.043   0.279  15.449
   23DOPE  H15S 2910   4.849   0.303  15.441
   23DOPE  C216 2911   4.949   0.177  15.276
   23DOPE  H16R 2912   4.846   0.119  15.249
   23DOPE  H16S 2913   5.040   0.097  15.262
   23DOPE  C217 2914   4.972   0.307  15.180
   23DOPE  H17R 2915   4.951   0.267  15.076
   23DOPE  H17S 2916   5.089   0.344  15.185
   23DOPE  C218 2917   4.872   0.436  15.214
   23DOPE  H18R 2918   4.923   0.506  15.293
   23DOPE  H18S 2919   4.767   0.389  15.252
   23DOPE  H18T 2920   4.844   0.504  15.127
   23DOPE   C33 2921   5.524  -0.071  16.452
   23DOPE   H3X 2922   5.592  -0.157  16.403
   23DOPE   H3Y 2923   5.534   0.030  16.391
   23DOPE   C34 2924   5.364  -0.124  16.456
   23DOPE   H4X 2925   5.360  -0.243  16.483
   23DOPE   H4Y 2926   5.309  -0.063  16.537
   23DOPE   C35 2927   5.268  -0.095  16.333
   23DOPE   H5X 2928   5.259   0.026  16.315
   23DOPE   H5Y 2929   5.156  -0.135  16.358
   23DOPE   C36 2930   5.321  -0.172  16.207
   23DOPE   H6X 2931   5.364  -0.283  16.234
   23DOPE   H6Y 2932   5.412  -0.108  16.162
   23DOPE   C37 2933   5.195  -0.194  16.105
   23DOPE   H7X 2934   5.101  -0.243  16.159
   23DOPE   H7Y 2935   5.157  -0.086  16.066
   23DOPE   C38 2936   5.241  -0.295  15.991
   23DOPE   H8X 2937   5.148  -0.314  15.921
   23DOPE   H8Y 2938   5.269  -0.402  16.037
   23DOPE   C39 2939   5.376  -0.238  15.921
   23DOPE   H9X 2940   5.480  -0.293  15.944
   23DOPE  C310 2941   5.375  -0.124  15.836
   23DOPE  H10X 2942   5.478  -0.086  15.790
   23DOPE  C311 2943   5.238  -0.040  15.797
   23DOPE  H11X 2944   5.136  -0.106  15.808
   23DOPE  H11Y 2945   5.225   0.060  15.860
   23DOPE  C312 2946   5.255   0.005  15.651
   23DOPE  H12X 2947   5.352   0.079  15.638
   23DOPE  H12Y 2948   5.160   0.074  15.625
   23DOPE  C313 2949   5.265  -0.124  15.553
   23DOPE  H13X 2950   5.361  -0.194  15.578
   23DOPE  H13Y 2951   5.165  -0.196  15.561
   23DOPE  C314 2952   5.283  -0.070  15.410
   23DOPE  H14X 2953   5.370   0.016  15.411
   23DOPE  H14Y 2954   5.181  -0.018  15.374
   23DOPE  C315 2955   5.332  -0.191  15.314
   23DOPE  H15X 2956   5.416  -0.260  15.363
   23DOPE  H15Y 2957   5.385  -0.134  15.228
   23DOPE  C316 2958   5.205  -0.289  15.263
   23DOPE  H16X 2959   5.106  -0.220  15.247
   23DOPE  H16Y 2960   5.179  -0.372  15.342
   23DOPE  C317 2961   5.239  -0.369  15.131
   23DOPE  H17X 2962   5.333  -0.447  15.145
   23DOPE  H17Y 2963   5.143  -0.436  15.102
   23DOPE  C318 2964   5.276  -0.265  15.015
   23DOPE  H18X 2965   5.379  -0.202  15.033
   23DOPE  H18Y 2966   5.292  -0.328  14.922
   23DOPE  H18Z 2967   5.185  -0.185  14.999
   24DOPE     N 2968   7.541   6.822  17.174
   24DOPE   HN1 2969   7.483   6.723  17.176
   24DOPE   HN2 2970   7.633   6.805  17.115
   24DOPE   HN3 2971   7.570   6.850  17.272
   24DOPE   C12 2972   7.450   6.943  17.110
   24DOPE  H12A 2973   7.528   7.031  17.080
   24DOPE  H12B 2974   7.374   6.987  17.187
   24DOPE   C11 2975   7.363   6.890  16.987
   24DOPE  H11A 2976   7.315   6.988  16.937
   24DOPE  H11B 2977   7.272   6.817  17.018
   24DOPE     P 2978   7.477   6.856  16.746
   24DOPE   O13 2979   7.556   6.998  16.738
   24DOPE   O14 2980   7.336   6.841  16.673
   24DOPE   O11 2981   7.581   6.725  16.710
   24DOPE   O12 2982   7.457   6.813  16.898
   24DOPE    C1 2983   7.522   6.581  16.735
   24DOPE    HA 2984   7.404   6.570  16.703
   24DOPE    HB 2985   7.530   6.554  16.843
   24DOPE    C2 2986   7.610   6.465  16.658
   24DOPE    HS 2987   7.712   6.458  16.719
   24DOPE   O21 2988   7.640   6.513  16.524
   24DOPE   C21 2989   7.756   6.598  16.515
   24DOPE   O22 2990   7.857   6.608  16.595
   24DOPE   C22 2991   7.747   6.678  16.383
   24DOPE   H2R 2992   7.829   6.765  16.385
   24DOPE   H2S 2993   7.637   6.732  16.376
   24DOPE    C3 2994   7.536   6.311  16.651
   24DOPE    HX 2995   7.525   6.263  16.753
   24DOPE    HY 2996   7.609   6.236  16.594
   24DOPE   O31 2997   7.393   6.325  16.591
   24DOPE   C31 2998   7.379   6.272  16.470
   24DOPE   O32 2999   7.450   6.173  16.418
   24DOPE   C32 3000   7.261   6.360  16.400
   24DOPE   H2X 3001   7.254   6.318  16.296
   24DOPE   H2Y 3002   7.156   6.337  16.452
   24DOPE   C23 3003   7.785   6.581  16.261
   24DOPE   H3R 3004   7.885   6.515  16.275
   24DOPE   H3S 3005   7.806   6.659  16.178
   24DOPE   C24 3006   7.651   6.497  16.216
   24DOPE   H4R 3007   7.568   6.579  16.244
   24DOPE   H4S 3008   7.618   6.399  16.274
   24DOPE   C25 3009   7.632   6.483  16.065
   24DOPE   H5R 3010   7.645   6.373  16.022
   24DOPE   H5S 3011   7.716   6.552  16.018
   24DOPE   C26 3012   7.476   6.527  16.030
   24DOPE   H6R 3013   7.471   6.577  15.929
   24DOPE   H6S 3014   7.440   6.616  16.097
   24DOPE   C27 3015   7.373   6.394  16.050
   24DOPE   H7R 3016   7.264   6.432  16.086
   24DOPE   H7S 3017   7.421   6.323  16.130
   24DOPE   C28 3018   7.355   6.301  15.923
   24DOPE   H8R 3019   7.272   6.214  15.941
   24DOPE   H8S 3020   7.462   6.245  15.904
   24DOPE   C29 3021   7.311   6.403  15.811
   24DOPE   H9R 3022   7.227   6.484  15.839
   24DOPE  C210 3023   7.369   6.407  15.688
   24DOPE  H10R 3024   7.334   6.494  15.618
   24DOPE  C211 3025   7.491   6.311  15.639
   24DOPE  H11R 3026   7.562   6.272  15.723
   24DOPE  H11S 3027   7.565   6.371  15.570
   24DOPE  C212 3028   7.425   6.173  15.572
   24DOPE  H12R 3029   7.344   6.124  15.642
   24DOPE  H12S 3030   7.513   6.091  15.556
   24DOPE  C213 3031   7.350   6.204  15.437
   24DOPE  H13R 3032   7.272   6.298  15.449
   24DOPE  H13S 3033   7.284   6.106  15.407
   24DOPE  C214 3034   7.458   6.243  15.324
   24DOPE  H14R 3035   7.538   6.325  15.363
   24DOPE  H14S 3036   7.398   6.296  15.241
   24DOPE  C215 3037   7.547   6.114  15.266
   24DOPE  H15R 3038   7.475   6.043  15.204
   24DOPE  H15S 3039   7.594   6.048  15.349
   24DOPE  C216 3040   7.677   6.176  15.188
   24DOPE  H16R 3041   7.767   6.204  15.259
   24DOPE  H16S 3042   7.634   6.282  15.150
   24DOPE  C217 3043   7.737   6.096  15.065
   24DOPE  H17R 3044   7.690   5.987  15.049
   24DOPE  H17S 3045   7.858   6.082  15.075
   24DOPE  C218 3046   7.710   6.182  14.938
   24DOPE  H18R 3047   7.732   6.106  14.853
   24DOPE  H18S 3048   7.787   6.274  14.927
   24DOPE  H18T 3049   7.597   6.225  14.935
   24DOPE   C33 3050   7.297   6.526  16.403
   24DOPE   H3X 3051   7.390   6.548  16.334
   24DOPE   H3Y 3052   7.330   6.564  16.504
   24DOPE   C34 3053   7.173   6.624  16.356
   24DOPE   H4X 3054   7.139   6.581  16.258
   24DOPE   H4Y 3055   7.080   6.616  16.428
   24DOPE   C35 3056   7.217   6.785  16.328
   24DOPE   H5X 3057   7.314   6.812  16.391
   24DOPE   H5Y 3058   7.125   6.855  16.361
   24DOPE   C36 3059   7.248   6.813  16.178
   24DOPE   H6X 3060   7.152   6.873  16.134
   24DOPE   H6Y 3061   7.250   6.708  16.123
   24DOPE   C37 3062   7.391   6.900  16.149
   24DOPE   H7X 3063   7.381   7.010  16.195
   24DOPE   H7Y 3064   7.485   6.842  16.196
   24DOPE   C38 3065   7.421   6.918  15.997
   24DOPE   H8X 3066   7.318   6.961  15.952
   24DOPE   H8Y 3067   7.433   6.806  15.954
   24DOPE   C39 3068   7.547   7.015  15.952
   24DOPE   H9X 3069   7.531   7.134  15.963
   24DOPE  C310 3070   7.676   6.967  15.900
   24DOPE  H10X 3071   7.747   7.047  15.849
   24DOPE  C311 3072   7.719   6.809  15.878
   24DOPE  H11X 3073   7.840   6.793  15.885
   24DOPE  H11Y 3074   7.669   6.745  15.960
   24DOPE  C312 3075   7.664   6.746  15.743
   24DOPE  H12X 3076   7.543   6.735  15.746
   24DOPE  H12Y 3077   7.712   6.635  15.727
   24DOPE  C313 3078   7.707   6.847  15.628
   24DOPE  H13X 3079   7.667   6.961  15.651
   24DOPE  H13Y 3080   7.829   6.854  15.623
   24DOPE  C314 3081   7.638   6.820  15.491
   24DOPE  H14X 3082   7.520   6.850  15.493
   24DOPE  H14Y 3083   7.649   6.704  15.455
   24DOPE  C315 3084   7.721   6.927  15.401
   24DOPE  H15X 3085   7.838   6.905  15.422
   24DOPE  H15Y 3086   7.697   7.041  15.435
   24DOPE  C316 3087   7.697   6.910  15.250
   24DOPE  H16X 3088   7.644   7.013  15.216
   24DOPE  H16Y 3089   7.616   6.819  15.235
   24DOPE  C317 3090   7.843   6.873  15.177
   24DOPE  H17X 3091   7.932   6.945  15.214
   24DOPE  H17Y 3092   7.875   6.761  15.206
   24DOPE  C318 3093   7.851   6.882  15.024
   24DOPE  H18X 3094   7.859   6.995  14.991
   24DOPE  H18Y 3095   7.949   6.823  14.985
   24DOPE  H18Z 3096   7.752   6.838  14.976
   25DOPE     N 3097   8.449   6.596  16.782
   25DOPE   HN1 3098   8.524   6.545  16.846
   25DOPE   HN2 3099   8.389   6.510  16.741
   25DOPE   HN3 3100   8.500   6.659  16.708
   25DOPE   C12 3101   8.347   6.678  16.872
   25DOPE  H12A 3102   8.234   6.664  16.833
   25DOPE  H12B 3103   8.373   6.796  16.870
   25DOPE   C11 3104   8.366   6.612  17.013
   25DOPE  H11A 3105   8.285   6.662  17.084
   25DOPE  H11B 3106   8.477   6.644  17.051
   25DOPE     P 3107   8.204   6.378  17.010
   25DOPE   O13 3108   8.110   6.466  16.920
   25DOPE   O14 3109   8.151   6.360  17.149
   25DOPE   O11 3110   8.239   6.232  16.939
   25DOPE   O12 3111   8.360   6.455  17.011
   25DOPE    C1 3112   8.297   6.100  16.989
   25DOPE    HA 3113   8.212   6.034  17.040
   25DOPE    HB 3114   8.384   6.123  17.064
   25DOPE    C2 3115   8.366   6.006  16.873
   25DOPE    HS 3116   8.477   5.975  16.904
   25DOPE   O21 3117   8.371   6.080  16.743
   25DOPE   C21 3118   8.445   6.204  16.729
   25DOPE   O22 3119   8.501   6.281  16.814
   25DOPE   C22 3120   8.466   6.241  16.581
   25DOPE   H2R 3121   8.361   6.290  16.545
   25DOPE   H2S 3122   8.484   6.135  16.529
   25DOPE    C3 3123   8.284   5.855  16.855
   25DOPE    HX 3124   8.240   5.822  16.953
   25DOPE    HY 3125   8.366   5.767  16.828
   25DOPE   O31 3126   8.162   5.862  16.765
   25DOPE   C31 3127   8.204   5.851  16.638
   25DOPE   O32 3128   8.324   5.810  16.598
   25DOPE   C32 3129   8.080   5.909  16.553
   25DOPE   H2X 3130   7.978   5.845  16.557
   25DOPE   H2Y 3131   8.030   5.997  16.605
   25DOPE   C23 3132   8.594   6.348  16.548
   25DOPE   H3R 3133   8.699   6.292  16.574
   25DOPE   H3S 3134   8.591   6.447  16.611
   25DOPE   C24 3135   8.601   6.401  16.400
   25DOPE   H4R 3136   8.709   6.454  16.379
   25DOPE   H4S 3137   8.516   6.487  16.384
   25DOPE   C25 3138   8.572   6.273  16.302
   25DOPE   H5R 3139   8.471   6.215  16.326
   25DOPE   H5S 3140   8.655   6.190  16.319
   25DOPE   C26 3141   8.568   6.304  16.151
   25DOPE   H6R 3142   8.650   6.387  16.119
   25DOPE   H6S 3143   8.460   6.353  16.127
   25DOPE   C27 3144   8.583   6.161  16.070
   25DOPE   H7R 3145   8.476   6.132  16.026
   25DOPE   H7S 3146   8.609   6.069  16.139
   25DOPE   C28 3147   8.704   6.166  15.961
   25DOPE   H8R 3148   8.721   6.051  15.923
   25DOPE   H8S 3149   8.812   6.197  16.004
   25DOPE   C29 3150   8.666   6.268  15.849
   25DOPE   H9R 3151   8.707   6.381  15.858
   25DOPE  C210 3152   8.569   6.237  15.752
   25DOPE  H10R 3153   8.536   6.321  15.680
   25DOPE  C211 3154   8.485   6.095  15.743
   25DOPE  H11R 3155   8.524   6.013  15.817
   25DOPE  H11S 3156   8.500   6.043  15.644
   25DOPE  C212 3157   8.325   6.136  15.768
   25DOPE  H12R 3158   8.313   6.236  15.832
   25DOPE  H12S 3159   8.262   6.052  15.823
   25DOPE  C213 3160   8.243   6.157  15.638
   25DOPE  H13R 3161   8.284   6.260  15.595
   25DOPE  H13S 3162   8.127   6.170  15.659
   25DOPE  C214 3163   8.237   6.036  15.533
   25DOPE  H14R 3164   8.179   5.936  15.568
   25DOPE  H14S 3165   8.349   6.003  15.500
   25DOPE  C215 3166   8.154   6.102  15.414
   25DOPE  H15R 3167   8.173   6.223  15.412
   25DOPE  H15S 3168   8.033   6.082  15.421
   25DOPE  C216 3169   8.213   6.049  15.284
   25DOPE  H16R 3170   8.328   6.009  15.294
   25DOPE  H16S 3171   8.217   6.141  15.212
   25DOPE  C217 3172   8.110   5.932  15.232
   25DOPE  H17R 3173   8.169   5.899  15.144
   25DOPE  H17S 3174   8.003   5.977  15.202
   25DOPE  C218 3175   8.096   5.799  15.322
   25DOPE  H18R 3176   8.023   5.826  15.408
   25DOPE  H18S 3177   8.206   5.766  15.360
   25DOPE  H18T 3178   8.049   5.707  15.265
   25DOPE   C33 3179   8.111   5.960  16.411
   25DOPE   H3X 3180   8.024   6.040  16.404
   25DOPE   H3Y 3181   8.077   5.874  16.341
   25DOPE   C34 3182   8.238   6.067  16.376
   25DOPE   H4X 3183   8.254   6.123  16.472
   25DOPE   H4Y 3184   8.340   6.008  16.348
   25DOPE   C35 3185   8.197   6.185  16.269
   25DOPE   H5X 3186   8.083   6.167  16.238
   25DOPE   H5Y 3187   8.265   6.161  16.179
   25DOPE   C36 3188   8.215   6.351  16.306
   25DOPE   H6X 3189   8.323   6.369  16.352
   25DOPE   H6Y 3190   8.138   6.389  16.384
   25DOPE   C37 3191   8.204   6.457  16.185
   25DOPE   H7X 3192   8.236   6.392  16.095
   25DOPE   H7Y 3193   8.087   6.490  16.171
   25DOPE   C38 3194   8.303   6.597  16.189
   25DOPE   H8X 3195   8.421   6.567  16.194
   25DOPE   H8Y 3196   8.280   6.661  16.281
   25DOPE   C39 3197   8.276   6.696  16.070
   25DOPE   H9X 3198   8.202   6.788  16.093
   25DOPE  C310 3199   8.335   6.689  15.946
   25DOPE  H10X 3200   8.297   6.771  15.872
   25DOPE  C311 3201   8.446   6.582  15.890
   25DOPE  H11X 3202   8.528   6.550  15.967
   25DOPE  H11Y 3203   8.387   6.480  15.858
   25DOPE  C312 3204   8.528   6.643  15.766
   25DOPE  H12X 3205   8.605   6.556  15.731
   25DOPE  H12Y 3206   8.598   6.739  15.795
   25DOPE  C313 3207   8.427   6.686  15.649
   25DOPE  H13X 3208   8.330   6.612  15.646
   25DOPE  H13Y 3209   8.384   6.797  15.671
   25DOPE  C314 3210   8.501   6.695  15.511
   25DOPE  H14X 3211   8.601   6.762  15.517
   25DOPE  H14Y 3212   8.425   6.747  15.439
   25DOPE  C315 3213   8.553   6.549  15.453
   25DOPE  H15X 3214   8.631   6.496  15.523
   25DOPE  H15Y 3215   8.614   6.569  15.358
   25DOPE  C316 3216   8.423   6.449  15.425
   25DOPE  H16X 3217   8.346   6.500  15.353
   25DOPE  H16Y 3218   8.363   6.437  15.521
   25DOPE  C317 3219   8.472   6.300  15.376
   25DOPE  H17X 3220   8.578   6.273  15.424
   25DOPE  H17Y 3221   8.402   6.214  15.417
   25DOPE  C318 3222   8.472   6.285  15.224
   25DOPE  H18X 3223   8.502   6.172  15.193
   25DOPE  H18Y 3224   8.361   6.310  15.186
   25DOPE  H18Z 3225   8.546   6.366  15.176
   26DOPE     N 3226   0.702   7.049  16.740
   26DOPE   HN1 3227   0.736   7.130  16.808
   26DOPE   HN2 3228   0.770   6.957  16.752
   26DOPE   HN3 3229   0.713   7.099  16.648
   26DOPE   C12 3230   0.543   7.020  16.772
   26DOPE  H12A 3231   0.539   6.937  16.854
   26DOPE  H12B 3232   0.490   6.976  16.682
   26DOPE   C11 3233   0.469   7.162  16.822
   26DOPE  H11A 3234   0.353   7.134  16.849
   26DOPE  H11B 3235   0.461   7.246  16.740
   26DOPE     P 3236   0.657   7.346  16.937
   26DOPE   O13 3237   0.783   7.289  16.859
   26DOPE   O14 3238   0.683   7.390  17.078
   26DOPE   O11 3239   0.571   7.461  16.852
   26DOPE   O12 3240   0.540   7.215  16.939
   26DOPE    C1 3241   0.448   7.532  16.913
   26DOPE    HA 3242   0.491   7.625  16.972
   26DOPE    HB 3243   0.388   7.456  16.983
   26DOPE    C2 3244   0.331   7.587  16.810
   26DOPE    HS 3245   0.266   7.675  16.858
   26DOPE   O21 3246   0.239   7.462  16.782
   26DOPE   C21 3247   0.156   7.454  16.673
   26DOPE   O22 3248   0.114   7.554  16.602
   26DOPE   C22 3249   0.149   7.288  16.641
   26DOPE   H2R 3250   0.031   7.260  16.634
   26DOPE   H2S 3251   0.190   7.223  16.725
   26DOPE    C3 3252   0.405   7.653  16.683
   26DOPE    HX 3253   0.490   7.731  16.720
   26DOPE    HY 3254   0.321   7.716  16.627
   26DOPE   O31 3255   0.465   7.539  16.598
   26DOPE   C31 3256   0.596   7.566  16.547
   26DOPE   O32 3257   0.662   7.682  16.546
   26DOPE   C32 3258   0.649   7.425  16.479
   26DOPE   H2X 3259   0.673   7.343  16.557
   26DOPE   H2Y 3260   0.556   7.384  16.417
   26DOPE   C23 3261   0.240   7.253  16.513
   26DOPE   H3R 3262   0.350   7.304  16.528
   26DOPE   H3S 3263   0.195   7.318  16.430
   26DOPE   C24 3264   0.273   7.090  16.482
   26DOPE   H4R 3265   0.233   7.021  16.567
   26DOPE   H4S 3266   0.395   7.076  16.477
   26DOPE   C25 3267   0.216   7.020  16.349
   26DOPE   H5R 3268   0.135   6.932  16.376
   26DOPE   H5S 3269   0.308   6.961  16.299
   26DOPE   C26 3270   0.150   7.124  16.243
   26DOPE   H6R 3271   0.103   7.225  16.287
   26DOPE   H6S 3272   0.051   7.072  16.197
   26DOPE   C27 3273   0.262   7.168  16.134
   26DOPE   H7R 3274   0.284   7.070  16.070
   26DOPE   H7S 3275   0.367   7.200  16.182
   26DOPE   C28 3276   0.212   7.297  16.046
   26DOPE   H8R 3277   0.306   7.334  15.984
   26DOPE   H8S 3278   0.183   7.393  16.111
   26DOPE   C29 3279   0.083   7.248  15.964
   26DOPE   H9R 3280  -0.018   7.229  16.023
   26DOPE  C210 3281   0.081   7.217  15.833
   26DOPE  H10R 3282  -0.020   7.175  15.787
   26DOPE  C211 3283   0.212   7.228  15.740
   26DOPE  H11R 3284   0.293   7.311  15.779
   26DOPE  H11S 3285   0.176   7.270  15.641
   26DOPE  C212 3286   0.298   7.083  15.726
   26DOPE  H12R 3287   0.288   7.018  15.820
   26DOPE  H12S 3288   0.417   7.108  15.712
   26DOPE  C213 3289   0.249   6.987  15.607
   26DOPE  H13R 3290   0.129   6.970  15.615
   26DOPE  H13S 3291   0.307   6.879  15.617
   26DOPE  C214 3292   0.285   7.051  15.469
   26DOPE  H14R 3293   0.404   7.033  15.448
   26DOPE  H14S 3294   0.264   7.171  15.473
   26DOPE  C215 3295   0.196   6.990  15.350
   26DOPE  H15R 3296   0.078   7.009  15.372
   26DOPE  H15S 3297   0.214   6.871  15.335
   26DOPE  C216 3298   0.238   7.071  15.221
   26DOPE  H16R 3299   0.360   7.077  15.218
   26DOPE  H16S 3300   0.191   7.183  15.229
   26DOPE  C217 3301   0.190   7.006  15.086
   26DOPE  H17R 3302   0.069   6.994  15.083
   26DOPE  H17S 3303   0.240   6.895  15.073
   26DOPE  C218 3304   0.239   7.105  14.968
   26DOPE  H18R 3305   0.188   7.068  14.873
   26DOPE  H18S 3306   0.361   7.103  14.957
   26DOPE  H18T 3307   0.205   7.220  14.986
   26DOPE   C33 3308   0.783   7.451  16.388
   26DOPE   H3X 3309   0.886   7.459  16.448
   26DOPE   H3Y 3310   0.771   7.557  16.333
   26DOPE   C34 3311   0.799   7.329  16.283
   26DOPE   H4X 3312   0.817   7.223  16.334
   26DOPE   H4Y 3313   0.693   7.322  16.226
   26DOPE   C35 3314   0.924   7.358  16.185
   26DOPE   H5X 3315   1.026   7.385  16.242
   26DOPE   H5Y 3316   0.898   7.456  16.122
   26DOPE   C36 3317   0.957   7.225  16.095
   26DOPE   H6X 3318   1.002   7.136  16.159
   26DOPE   H6Y 3319   1.045   7.256  16.022
   26DOPE   C37 3320   0.825   7.164  16.018
   26DOPE   H7X 3321   0.735   7.137  16.090
   26DOPE   H7Y 3322   0.782   7.251  15.949
   26DOPE   C38 3323   0.868   7.026  15.940
   26DOPE   H8X 3324   0.919   6.947  16.011
   26DOPE   H8Y 3325   0.957   7.059  15.869
   26DOPE   C39 3326   0.739   6.955  15.870
   26DOPE   H9X 3327   0.640   6.944  15.932
   26DOPE  C310 3328   0.735   6.909  15.742
   26DOPE  H10X 3329   0.632   6.861  15.704
   26DOPE  C311 3330   0.858   6.920  15.641
   26DOPE  H11X 3331   0.963   6.959  15.685
   26DOPE  H11Y 3332   0.881   6.809  15.599
   26DOPE  C312 3333   0.818   7.025  15.525
   26DOPE  H12X 3334   0.719   6.984  15.472
   26DOPE  H12Y 3335   0.911   7.026  15.452
   26DOPE  C313 3336   0.792   7.184  15.572
   26DOPE  H13X 3337   0.704   7.186  15.650
   26DOPE  H13Y 3338   0.895   7.224  15.620
   26DOPE  C314 3339   0.748   7.293  15.463
   26DOPE  H14X 3340   0.828   7.291  15.379
   26DOPE  H14Y 3341   0.754   7.404  15.509
   26DOPE  C315 3342   0.591   7.275  15.411
   26DOPE  H15X 3343   0.515   7.291  15.497
   26DOPE  H15Y 3344   0.574   7.163  15.370
   26DOPE  C316 3345   0.552   7.390  15.304
   26DOPE  H16X 3346   0.625   7.377  15.215
   26DOPE  H16Y 3347   0.573   7.499  15.348
   26DOPE  C317 3348   0.391   7.378  15.262
   26DOPE  H17X 3349   0.391   7.295  15.180
   26DOPE  H17Y 3350   0.331   7.333  15.350
   26DOPE  C318 3351   0.303   7.511  15.213
   26DOPE  H18X 3352   0.186   7.476  15.199
   26DOPE  H18Y 3353   0.304   7.602  15.286
   26DOPE  H18Z 3354   0.344   7.549  15.115
   27DOPE     N 3355   6.433   8.219  16.658
   27DOPE   HN1 3356   6.321   8.239  16.665
   27DOPE   HN2 3357   6.480   8.284  16.584
   27DOPE   HN3 3358   6.448   8.108  16.634
   27DOPE   C12 3359   6.509   8.248  16.790
   27DOPE  H12A 3360   6.445   8.191  16.869
   27DOPE  H12B 3361   6.504   8.369  16.808
   27DOPE   C11 3362   6.669   8.190  16.790
   27DOPE  H11A 3363   6.740   8.253  16.719
   27DOPE  H11B 3364   6.669   8.074  16.754
   27DOPE     P 3365   6.745   8.345  16.997
   27DOPE   O13 3366   6.877   8.358  17.083
   27DOPE   O14 3367   6.601   8.385  17.056
   27DOPE   O11 3368   6.765   8.448  16.869
   27DOPE   O12 3369   6.733   8.190  16.922
   27DOPE    C1 3370   6.805   8.599  16.887
   27DOPE    HA 3371   6.920   8.606  16.923
   27DOPE    HB 3372   6.731   8.654  16.960
   27DOPE    C2 3373   6.788   8.693  16.758
   27DOPE    HS 3374   6.785   8.810  16.790
   27DOPE   O21 3375   6.655   8.654  16.688
   27DOPE   C21 3376   6.626   8.741  16.584
   27DOPE   O22 3377   6.699   8.846  16.549
   27DOPE   C22 3378   6.490   8.683  16.513
   27DOPE   H2R 3379   6.395   8.703  16.580
   27DOPE   H2S 3380   6.502   8.562  16.499
   27DOPE    C3 3381   6.928   8.677  16.666
   27DOPE    HX 3382   7.019   8.697  16.739
   27DOPE    HY 3383   6.931   8.767  16.593
   27DOPE   O31 3384   6.947   8.539  16.595
   27DOPE   C31 3385   7.088   8.517  16.564
   27DOPE   O32 3386   7.192   8.591  16.600
   27DOPE   C32 3387   7.105   8.375  16.486
   27DOPE   H2X 3388   7.172   8.307  16.554
   27DOPE   H2Y 3389   6.995   8.323  16.475
   27DOPE   C23 3390   6.465   8.760  16.378
   27DOPE   H3R 3391   6.486   8.881  16.386
   27DOPE   H3S 3392   6.347   8.747  16.350
   27DOPE   C24 3393   6.559   8.694  16.266
   27DOPE   H4R 3394   6.545   8.572  16.265
   27DOPE   H4S 3395   6.678   8.719  16.286
   27DOPE   C25 3396   6.515   8.755  16.128
   27DOPE   H5R 3397   6.532   8.876  16.127
   27DOPE   H5S 3398   6.395   8.733  16.114
   27DOPE   C26 3399   6.599   8.682  16.012
   27DOPE   H6R 3400   6.546   8.718  15.917
   27DOPE   H6S 3401   6.589   8.561  16.020
   27DOPE   C27 3402   6.764   8.722  16.005
   27DOPE   H7R 3403   6.819   8.675  16.094
   27DOPE   H7S 3404   6.776   8.844  16.010
   27DOPE   C28 3405   6.833   8.667  15.873
   27DOPE   H8R 3406   6.855   8.764  15.809
   27DOPE   H8S 3407   6.745   8.604  15.822
   27DOPE   C29 3408   6.967   8.570  15.883
   27DOPE   H9R 3409   6.982   8.511  15.977
   27DOPE  C210 3410   7.073   8.558  15.788
   27DOPE  H10R 3411   7.170   8.490  15.808
   27DOPE  C211 3412   7.070   8.642  15.658
   27DOPE  H11R 3413   7.073   8.760  15.685
   27DOPE  H11S 3414   6.963   8.623  15.609
   27DOPE  C212 3415   7.192   8.618  15.553
   27DOPE  H12R 3416   7.300   8.602  15.605
   27DOPE  H12S 3417   7.206   8.721  15.493
   27DOPE  C213 3418   7.170   8.485  15.460
   27DOPE  H13R 3419   7.182   8.397  15.534
   27DOPE  H13S 3420   7.258   8.478  15.383
   27DOPE  C214 3421   7.022   8.435  15.400
   27DOPE  H14R 3422   7.021   8.447  15.290
   27DOPE  H14S 3423   6.938   8.507  15.444
   27DOPE  C215 3424   6.970   8.276  15.439
   27DOPE  H15R 3425   6.866   8.249  15.387
   27DOPE  H15S 3426   6.947   8.284  15.548
   27DOPE  C216 3427   7.066   8.139  15.419
   27DOPE  H16R 3428   7.016   8.049  15.479
   27DOPE  H16S 3429   7.171   8.156  15.469
   27DOPE  C217 3430   7.096   8.081  15.278
   27DOPE  H17R 3431   7.183   7.994  15.292
   27DOPE  H17S 3432   7.147   8.168  15.215
   27DOPE  C218 3433   6.966   8.008  15.203
   27DOPE  H18R 3434   6.883   8.092  15.175
   27DOPE  H18S 3435   6.913   7.921  15.264
   27DOPE  H18T 3436   7.007   7.956  15.110
   27DOPE   C33 3437   7.186   8.389  16.351
   27DOPE   H3X 3438   7.253   8.287  16.336
   27DOPE   H3Y 3439   7.266   8.482  16.353
   27DOPE   C34 3440   7.083   8.399  16.229
   27DOPE   H4X 3441   7.009   8.495  16.239
   27DOPE   H4Y 3442   7.152   8.416  16.138
   27DOPE   C35 3443   6.993   8.258  16.209
   27DOPE   H5X 3444   6.937   8.224  16.303
   27DOPE   H5Y 3445   7.070   8.168  16.181
   27DOPE   C36 3446   6.873   8.268  16.102
   27DOPE   H6X 3447   6.919   8.312  16.008
   27DOPE   H6Y 3448   6.784   8.344  16.134
   27DOPE   C37 3449   6.810   8.116  16.067
   27DOPE   H7X 3450   6.904   8.038  16.065
   27DOPE   H7Y 3451   6.734   8.078  16.147
   27DOPE   C38 3452   6.735   8.115  15.929
   27DOPE   H8X 3453   6.690   8.003  15.909
   27DOPE   H8Y 3454   6.821   8.133  15.852
   27DOPE   C39 3455   6.616   8.229  15.924
   27DOPE   H9X 3456   6.547   8.235  16.014
   27DOPE  C310 3457   6.588   8.324  15.824
   27DOPE  H10X 3458   6.499   8.404  15.838
   27DOPE  C311 3459   6.667   8.339  15.691
   27DOPE  H11X 3460   6.728   8.445  15.685
   27DOPE  H11Y 3461   6.750   8.251  15.675
   27DOPE  C312 3462   6.553   8.336  15.577
   27DOPE  H12X 3463   6.446   8.386  15.608
   27DOPE  H12Y 3464   6.531   8.218  15.554
   27DOPE  C313 3465   6.601   8.415  15.448
   27DOPE  H13X 3466   6.716   8.387  15.427
   27DOPE  H13Y 3467   6.533   8.373  15.364
   27DOPE  C314 3468   6.592   8.583  15.449
   27DOPE  H14X 3469   6.678   8.626  15.517
   27DOPE  H14Y 3470   6.483   8.620  15.488
   27DOPE  C315 3471   6.616   8.645  15.307
   27DOPE  H15X 3472   6.586   8.764  15.306
   27DOPE  H15Y 3473   6.543   8.588  15.235
   27DOPE  C316 3474   6.777   8.630  15.263
   27DOPE  H16X 3475   6.800   8.512  15.242
   27DOPE  H16Y 3476   6.849   8.667  15.347
   27DOPE  C317 3477   6.831   8.723  15.146
   27DOPE  H17X 3478   6.854   8.836  15.183
   27DOPE  H17Y 3479   6.938   8.674  15.116
   27DOPE  C318 3480   6.728   8.731  15.026
   27DOPE  H18X 3481   6.620   8.775  15.058
   27DOPE  H18Y 3482   6.773   8.807  14.949
   27DOPE  H18Z 3483   6.711   8.621  14.981
   28DOPE     N 3484   8.259   7.646  17.061
   28DOPE   HN1 3485   8.275   7.620  16.958
   28DOPE   HN2 3486   8.150   7.678  17.073
   28DOPE   HN3 3487   8.331   7.726  17.091
   28DOPE   C12 3488   8.284   7.497  17.124
   28DOPE  H12A 3489   8.301   7.513  17.232
   28DOPE  H12B 3490   8.386   7.451  17.080
   28DOPE   C11 3491   8.154   7.391  17.093
   28DOPE  H11A 3492   8.069   7.411  17.171
   28DOPE  H11B 3493   8.192   7.275  17.105
   28DOPE     P 3494   8.176   7.395  16.832
   28DOPE   O13 3495   8.301   7.502  16.836
   28DOPE   O14 3496   8.072   7.409  16.721
   28DOPE   O11 3497   8.235   7.233  16.849
   28DOPE   O12 3498   8.085   7.414  16.966
   28DOPE    C1 3499   8.139   7.113  16.820
   28DOPE    HA 3500   8.019   7.143  16.816
   28DOPE    HB 3501   8.153   7.029  16.898
   28DOPE    C2 3502   8.185   7.042  16.687
   28DOPE    HS 3503   8.303   7.009  16.703
   28DOPE   O21 3504   8.170   7.154  16.587
   28DOPE   C21 3505   8.281   7.159  16.504
   28DOPE   O22 3506   8.367   7.056  16.487
   28DOPE   C22 3507   8.292   7.310  16.439
   28DOPE   H2R 3508   8.410   7.336  16.429
   28DOPE   H2S 3509   8.240   7.395  16.502
   28DOPE    C3 3510   8.095   6.901  16.651
   28DOPE    HX 3511   8.045   6.855  16.744
   28DOPE    HY 3512   8.170   6.816  16.610
   28DOPE   O31 3513   7.978   6.939  16.561
   28DOPE   C31 3514   8.015   6.938  16.433
   28DOPE   O32 3515   8.115   6.870  16.383
   28DOPE   C32 3516   7.901   7.037  16.364
   28DOPE   H2X 3517   7.792   7.013  16.409
   28DOPE   H2Y 3518   7.930   7.152  16.389
   28DOPE   C23 3519   8.227   7.302  16.299
   28DOPE   H3R 3520   8.106   7.296  16.307
   28DOPE   H3S 3521   8.268   7.201  16.249
   28DOPE   C24 3522   8.272   7.431  16.210
   28DOPE   H4R 3523   8.392   7.421  16.189
   28DOPE   H4S 3524   8.252   7.537  16.263
   28DOPE   C25 3525   8.181   7.421  16.084
   28DOPE   H5R 3526   8.063   7.446  16.108
   28DOPE   H5S 3527   8.184   7.304  16.053
   28DOPE   C26 3528   8.231   7.506  15.962
   28DOPE   H6R 3529   8.338   7.464  15.925
   28DOPE   H6S 3530   8.248   7.623  15.987
   28DOPE   C27 3531   8.115   7.492  15.852
   28DOPE   H7R 3532   8.011   7.544  15.887
   28DOPE   H7S 3533   8.089   7.373  15.840
   28DOPE   C28 3534   8.163   7.564  15.719
   28DOPE   H8R 3535   8.257   7.638  15.740
   28DOPE   H8S 3536   8.069   7.632  15.683
   28DOPE   C29 3537   8.208   7.454  15.615
   28DOPE   H9R 3538   8.290   7.373  15.650
   28DOPE  C210 3539   8.177   7.458  15.485
   28DOPE  H10R 3540   8.203   7.362  15.422
   28DOPE  C211 3541   8.092   7.576  15.416
   28DOPE  H11R 3542   8.133   7.589  15.312
   28DOPE  H11S 3543   8.117   7.678  15.470
   28DOPE  C212 3544   7.924   7.561  15.411
   28DOPE  H12R 3545   7.874   7.673  15.398
   28DOPE  H12S 3546   7.883   7.514  15.506
   28DOPE  C213 3547   7.880   7.468  15.292
   28DOPE  H13R 3548   7.944   7.363  15.295
   28DOPE  H13S 3549   7.911   7.526  15.197
   28DOPE  C214 3550   7.718   7.432  15.289
   28DOPE  H14R 3551   7.652   7.533  15.304
   28DOPE  H14S 3552   7.692   7.355  15.373
   28DOPE  C215 3553   7.674   7.362  15.157
   28DOPE  H15R 3554   7.663   7.450  15.080
   28DOPE  H15S 3555   7.562   7.315  15.174
   28DOPE  C216 3556   7.774   7.238  15.104
   28DOPE  H16R 3557   7.699   7.156  15.056
   28DOPE  H16S 3558   7.828   7.183  15.190
   28DOPE  C217 3559   7.888   7.275  14.996
   28DOPE  H17R 3560   7.950   7.175  14.971
   28DOPE  H17S 3561   7.973   7.352  15.035
   28DOPE  C218 3562   7.825   7.329  14.863
   28DOPE  H18R 3563   7.754   7.244  14.817
   28DOPE  H18S 3564   7.913   7.358  14.792
   28DOPE  H18T 3565   7.758   7.428  14.881
   28DOPE   C33 3566   7.897   7.010  16.212
   28DOPE   H3X 3567   7.803   7.075  16.170
   28DOPE   H3Y 3568   7.875   6.893  16.191
   28DOPE   C34 3569   8.037   7.059  16.140
   28DOPE   H4X 3570   8.040   7.179  16.149
   28DOPE   H4Y 3571   8.138   7.010  16.186
   28DOPE   C35 3572   8.032   7.019  15.992
   28DOPE   H5X 3573   7.942   7.085  15.947
   28DOPE   H5Y 3574   8.004   6.900  15.986
   28DOPE   C36 3575   8.175   7.042  15.915
   28DOPE   H6X 3576   8.265   6.981  15.964
   28DOPE   H6Y 3577   8.210   7.159  15.914
   28DOPE   C37 3578   8.158   6.994  15.769
   28DOPE   H7X 3579   8.268   6.967  15.728
   28DOPE   H7Y 3580   8.085   6.896  15.761
   28DOPE   C38 3581   8.099   7.122  15.687
   28DOPE   H8X 3582   8.199   7.190  15.674
   28DOPE   H8Y 3583   8.021   7.185  15.750
   28DOPE   C39 3584   8.029   7.099  15.554
   28DOPE   H9X 3585   7.919   7.150  15.548
   28DOPE  C310 3586   8.077   7.033  15.443
   28DOPE  H10X 3587   8.005   7.049  15.358
   28DOPE  C311 3588   8.218   6.957  15.404
   28DOPE  H11X 3589   8.308   6.984  15.474
   28DOPE  H11Y 3590   8.203   6.835  15.404
   28DOPE  C312 3591   8.258   7.005  15.259
   28DOPE  H12X 3592   8.179   6.957  15.186
   28DOPE  H12Y 3593   8.367   6.959  15.233
   28DOPE  C313 3594   8.259   7.173  15.247
   28DOPE  H13X 3595   8.142   7.214  15.252
   28DOPE  H13Y 3596   8.320   7.215  15.336
   28DOPE  C314 3597   8.326   7.248  15.124
   28DOPE  H14X 3598   8.448   7.247  15.132
   28DOPE  H14Y 3599   8.291   7.366  15.126
   28DOPE  C315 3600   8.282   7.182  14.990
   28DOPE  H15X 3601   8.163   7.161  14.988
   28DOPE  H15Y 3602   8.337   7.073  14.976
   28DOPE  C316 3603   8.326   7.285  14.875
   28DOPE  H16X 3604   8.441   7.319  14.892
   28DOPE  H16Y 3605   8.257   7.385  14.878
   28DOPE  C317 3606   8.316   7.212  14.737
   28DOPE  H17X 3607   8.371   7.285  14.663
   28DOPE  H17Y 3608   8.380   7.107  14.741
   28DOPE  C318 3609   8.160   7.181  14.689
   28DOPE  H18X 3610   8.099   7.113  14.763
   28DOPE  H18Y 3611   8.099   7.285  14.673
   28DOPE  H18Z 3612   8.161   7.120  14.592
   29DOPE     N 3613   7.735   0.882  16.957
   29DOPE   HN1 3614   7.725   0.992  16.991
   29DOPE   HN2 3615   7.718   0.882  16.853
   29DOPE   HN3 3616   7.649   0.831  17.008
   29DOPE   C12 3617   7.888   0.832  16.990
   29DOPE  H12A 3618   7.904   0.724  16.939
   29DOPE  H12B 3619   7.891   0.816  17.100
   29DOPE   C11 3620   8.007   0.944  16.946
   29DOPE  H11A 3621   7.972   1.054  16.982
   29DOPE  H11B 3622   8.012   0.946  16.834
   29DOPE     P 3623   8.298   0.917  16.928
   29DOPE   O13 3624   8.418   0.887  17.025
   29DOPE   O14 3625   8.315   1.045  16.839
   29DOPE   O11 3626   8.263   0.778  16.839
   29DOPE   O12 3627   8.148   0.917  17.006
   29DOPE    C1 3628   8.363   0.662  16.814
   29DOPE    HA 3629   8.307   0.558  16.838
   29DOPE    HB 3630   8.462   0.668  16.880
   29DOPE    C2 3631   8.415   0.655  16.664
   29DOPE    HS 3632   8.501   0.568  16.658
   29DOPE   O21 3633   8.473   0.791  16.615
   29DOPE   C21 3634   8.598   0.837  16.670
   29DOPE   O22 3635   8.669   0.771  16.754
   29DOPE   C22 3636   8.651   0.979  16.607
   29DOPE   H2R 3637   8.736   0.960  16.529
   29DOPE   H2S 3638   8.703   1.047  16.686
   29DOPE    C3 3639   8.286   0.605  16.569
   29DOPE    HX 3640   8.224   0.521  16.627
   29DOPE    HY 3641   8.335   0.549  16.480
   29DOPE   O31 3642   8.185   0.719  16.534
   29DOPE   C31 3643   8.180   0.772  16.411
   29DOPE   O32 3644   8.248   0.725  16.314
   29DOPE   C32 3645   8.077   0.906  16.413
   29DOPE   H2X 3646   8.019   0.901  16.511
   29DOPE   H2Y 3647   8.146   1.008  16.414
   29DOPE   C23 3648   8.534   1.064  16.532
   29DOPE   H3R 3649   8.578   1.177  16.515
   29DOPE   H3S 3650   8.430   1.075  16.589
   29DOPE   C24 3651   8.511   1.002  16.393
   29DOPE   H4R 3652   8.443   0.901  16.398
   29DOPE   H4S 3653   8.615   0.972  16.343
   29DOPE   C25 3654   8.435   1.122  16.315
   29DOPE   H5R 3655   8.514   1.211  16.291
   29DOPE   H5S 3656   8.346   1.166  16.379
   29DOPE   C26 3657   8.369   1.059  16.191
   29DOPE   H6R 3658   8.283   1.136  16.153
   29DOPE   H6S 3659   8.312   0.956  16.218
   29DOPE   C27 3660   8.482   1.029  16.083
   29DOPE   H7R 3661   8.564   0.945  16.117
   29DOPE   H7S 3662   8.544   1.131  16.059
   29DOPE   C28 3663   8.400   0.976  15.962
   29DOPE   H8R 3664   8.470   0.988  15.872
   29DOPE   H8S 3665   8.312   1.058  15.947
   29DOPE   C29 3666   8.339   0.823  15.986
   29DOPE   H9R 3667   8.255   0.809  16.065
   29DOPE  C210 3668   8.390   0.705  15.924
   29DOPE  H10R 3669   8.350   0.594  15.948
   29DOPE  C211 3670   8.511   0.717  15.824
   29DOPE  H11R 3671   8.568   0.609  15.827
   29DOPE  H11S 3672   8.594   0.802  15.852
   29DOPE  C212 3673   8.463   0.746  15.680
   29DOPE  H12R 3674   8.356   0.694  15.654
   29DOPE  H12S 3675   8.553   0.684  15.632
   29DOPE  C213 3676   8.480   0.898  15.616
   29DOPE  H13R 3677   8.594   0.938  15.626
   29DOPE  H13S 3678   8.410   0.979  15.667
   29DOPE  C214 3679   8.435   0.894  15.467
   29DOPE  H14R 3680   8.366   0.992  15.450
   29DOPE  H14S 3681   8.363   0.796  15.450
   29DOPE  C215 3682   8.566   0.900  15.370
   29DOPE  H15R 3683   8.661   0.845  15.416
   29DOPE  H15S 3684   8.597   1.018  15.356
   29DOPE  C216 3685   8.542   0.829  15.232
   29DOPE  H16R 3686   8.513   0.917  15.160
   29DOPE  H16S 3687   8.445   0.755  15.237
   29DOPE  C217 3688   8.675   0.744  15.176
   29DOPE  H17R 3689   8.721   0.666  15.250
   29DOPE  H17S 3690   8.769   0.818  15.160
   29DOPE  C218 3691   8.641   0.655  15.049
   29DOPE  H18R 3692   8.722   0.564  15.037
   29DOPE  H18S 3693   8.645   0.723  14.958
   29DOPE  H18T 3694   8.529   0.607  15.050
   29DOPE   C33 3695   7.960   0.914  16.301
   29DOPE   H3X 3696   7.852   0.949  16.343
   29DOPE   H3Y 3697   7.945   0.802  16.259
   29DOPE   C34 3698   7.998   1.019  16.185
   29DOPE   H4X 3699   8.015   1.132  16.225
   29DOPE   H4Y 3700   8.104   0.978  16.145
   29DOPE   C35 3701   7.886   1.012  16.071
   29DOPE   H5X 3702   7.777   1.055  16.106
   29DOPE   H5Y 3703   7.872   0.894  16.047
   29DOPE   C36 3704   7.924   1.085  15.935
   29DOPE   H6X 3705   7.948   1.201  15.948
   29DOPE   H6Y 3706   7.819   1.079  15.882
   29DOPE   C37 3707   8.038   0.998  15.851
   29DOPE   H7X 3708   8.122   0.975  15.926
   29DOPE   H7Y 3709   7.990   0.888  15.832
   29DOPE   C38 3710   8.122   1.048  15.718
   29DOPE   H8X 3711   8.130   0.947  15.656
   29DOPE   H8Y 3712   8.236   1.054  15.755
   29DOPE   C39 3713   8.113   1.184  15.627
   29DOPE   H9X 3714   8.117   1.283  15.686
   29DOPE  C310 3715   8.065   1.208  15.499
   29DOPE  H10X 3716   8.088   1.318  15.456
   29DOPE  C311 3717   8.001   1.098  15.402
   29DOPE  H11X 3718   8.044   0.989  15.431
   29DOPE  H11Y 3719   7.879   1.098  15.413
   29DOPE  C312 3720   8.033   1.092  15.251
   29DOPE  H12X 3721   7.957   1.163  15.192
   29DOPE  H12Y 3722   8.017   0.977  15.217
   29DOPE  C313 3723   8.193   1.132  15.226
   29DOPE  H13X 3724   8.193   1.253  15.230
   29DOPE  H13Y 3725   8.264   1.095  15.308
   29DOPE  C314 3726   8.257   1.076  15.095
   29DOPE  H14X 3727   8.269   0.954  15.100
   29DOPE  H14Y 3728   8.368   1.123  15.085
   29DOPE  C315 3729   8.162   1.115  14.974
   29DOPE  H15X 3730   8.060   1.048  14.978
   29DOPE  H15Y 3731   8.220   1.086  14.880
   29DOPE  C316 3732   8.117   1.278  14.971
   29DOPE  H16X 3733   8.064   1.312  15.066
   29DOPE  H16Y 3734   8.035   1.297  14.892
   29DOPE  C317 3735   8.243   1.383  14.945
   29DOPE  H17X 3736   8.335   1.361  15.013
   29DOPE  H17Y 3737   8.290   1.352  14.847
   29DOPE  C318 3738   8.195   1.544  14.955
   29DOPE  H18X 3739   8.110   1.570  14.878
   29DOPE  H18Y 3740   8.147   1.564  15.055
   29DOPE  H18Z 3741   8.290   1.620  14.941
   30DOPE     N 3742   0.718   8.034  17.098
   30DOPE   HN1 3743   0.821   8.049  17.056
   30DOPE   HN2 3744   0.719   7.951  17.170
   30DOPE   HN3 3745   0.656   7.996  17.016
   30DOPE   C12 3746   0.645   8.177  17.136
   30DOPE  H12A 3747   0.729   8.257  17.167
   30DOPE  H12B 3748   0.569   8.155  17.221
   30DOPE   C11 3749   0.554   8.234  17.016
   30DOPE  H11A 3750   0.624   8.253  16.926
   30DOPE  H11B 3751   0.506   8.341  17.045
   30DOPE     P 3752   0.452   7.989  16.897
   30DOPE   O13 3753   0.395   7.864  16.975
   30DOPE   O14 3754   0.607   7.981  16.855
   30DOPE   O11 3755   0.339   8.030  16.784
   30DOPE   O12 3756   0.440   8.130  16.989
   30DOPE    C1 3757   0.195   8.057  16.841
   30DOPE    HA 3758   0.197   8.129  16.933
   30DOPE    HB 3759   0.141   7.952  16.868
   30DOPE    C2 3760   0.092   8.146  16.749
   30DOPE    HS 3761  -0.020   8.136  16.793
   30DOPE   O21 3762   0.097   8.087  16.615
   30DOPE   C21 3763   0.035   7.957  16.604
   30DOPE   O22 3764  -0.033   7.891  16.691
   30DOPE   C22 3765   0.043   7.913  16.456
   30DOPE   H2R 3766  -0.014   8.001  16.400
   30DOPE   H2S 3767  -0.021   7.810  16.444
   30DOPE    C3 3768   0.133   8.312  16.749
   30DOPE    HX 3769   0.110   8.353  16.852
   30DOPE    HY 3770   0.060   8.375  16.681
   30DOPE   O31 3771   0.288   8.332  16.722
   30DOPE   C31 3772   0.320   8.317  16.593
   30DOPE   O32 3773   0.234   8.334  16.500
   30DOPE   C32 3774   0.483   8.282  16.577
   30DOPE   H2X 3775   0.543   8.353  16.648
   30DOPE   H2Y 3776   0.499   8.165  16.605
   30DOPE   C23 3777   0.196   7.896  16.392
   30DOPE   H3R 3778   0.261   7.812  16.448
   30DOPE   H3S 3779   0.257   8.001  16.396
   30DOPE   C24 3780   0.178   7.846  16.246
   30DOPE   H4R 3781   0.138   7.942  16.186
   30DOPE   H4S 3782   0.094   7.758  16.241
   30DOPE   C25 3783   0.320   7.788  16.182
   30DOPE   H5R 3784   0.371   7.703  16.249
   30DOPE   H5S 3785   0.399   7.880  16.177
   30DOPE   C26 3786   0.300   7.719  16.042
   30DOPE   H6R 3787   0.245   7.610  16.053
   30DOPE   H6S 3788   0.411   7.700  15.998
   30DOPE   C27 3789   0.208   7.810  15.944
   30DOPE   H7R 3790   0.227   7.929  15.966
   30DOPE   H7S 3791   0.090   7.787  15.962
   30DOPE   C28 3792   0.242   7.784  15.794
   30DOPE   H8R 3793   0.349   7.839  15.773
   30DOPE   H8S 3794   0.155   7.843  15.735
   30DOPE   C29 3795   0.253   7.627  15.748
   30DOPE   H9R 3796   0.188   7.547  15.806
   30DOPE  C210 3797   0.338   7.579  15.645
   30DOPE  H10R 3798   0.336   7.462  15.619
   30DOPE  C211 3799   0.437   7.671  15.557
   30DOPE  H11R 3800   0.395   7.786  15.547
   30DOPE  H11S 3801   0.433   7.624  15.455
   30DOPE  C212 3802   0.598   7.679  15.603
   30DOPE  H12R 3803   0.630   7.576  15.655
   30DOPE  H12S 3804   0.605   7.769  15.678
   30DOPE  C213 3805   0.717   7.707  15.494
   30DOPE  H13R 3806   0.737   7.609  15.431
   30DOPE  H13S 3807   0.821   7.725  15.550
   30DOPE  C214 3808   0.698   7.840  15.400
   30DOPE  H14R 3809   0.809   7.866  15.357
   30DOPE  H14S 3810   0.664   7.934  15.464
   30DOPE  C215 3811   0.589   7.830  15.283
   30DOPE  H15R 3812   0.587   7.943  15.241
   30DOPE  H15S 3813   0.477   7.805  15.323
   30DOPE  C216 3814   0.614   7.731  15.160
   30DOPE  H16R 3815   0.543   7.776  15.078
   30DOPE  H16S 3816   0.570   7.621  15.178
   30DOPE  C217 3817   0.768   7.710  15.104
   30DOPE  H17R 3818   0.838   7.655  15.180
   30DOPE  H17S 3819   0.818   7.819  15.079
   30DOPE  C218 3820   0.761   7.614  14.978
   30DOPE  H18R 3821   0.715   7.503  15.001
   30DOPE  H18S 3822   0.871   7.600  14.932
   30DOPE  H18T 3823   0.686   7.665  14.903
   30DOPE   C33 3824   0.536   8.313  16.433
   30DOPE   H3X 3825   0.640   8.378  16.440
   30DOPE   H3Y 3826   0.455   8.380  16.376
   30DOPE   C34 3827   0.568   8.179  16.345
   30DOPE   H4X 3828   0.661   8.116  16.389
   30DOPE   H4Y 3829   0.471   8.105  16.339
   30DOPE   C35 3830   0.606   8.232  16.204
   30DOPE   H5X 3831   0.645   8.349  16.210
   30DOPE   H5Y 3832   0.506   8.234  16.142
   30DOPE   C36 3833   0.733   8.150  16.137
   30DOPE   H6X 3834   0.823   8.163  16.210
   30DOPE   H6Y 3835   0.769   8.207  16.045
   30DOPE   C37 3836   0.714   7.984  16.113
   30DOPE   H7X 3837   0.826   7.935  16.102
   30DOPE   H7Y 3838   0.664   7.931  16.203
   30DOPE   C38 3839   0.625   7.941  15.988
   30DOPE   H8X 3840   0.507   7.957  16.009
   30DOPE   H8Y 3841   0.640   7.821  15.971
   30DOPE   C39 3842   0.669   8.024  15.864
   30DOPE   H9X 3843   0.762   7.978  15.808
   30DOPE  C310 3844   0.604   8.149  15.820
   30DOPE  H10X 3845   0.646   8.202  15.729
   30DOPE  C311 3846   0.477   8.229  15.886
   30DOPE  H11X 3847   0.422   8.163  15.965
   30DOPE  H11Y 3848   0.519   8.328  15.937
   30DOPE  C312 3849   0.360   8.273  15.784
   30DOPE  H12X 3850   0.413   8.314  15.691
   30DOPE  H12Y 3851   0.288   8.362  15.825
   30DOPE  C313 3852   0.263   8.141  15.752
   30DOPE  H13X 3853   0.337   8.047  15.733
   30DOPE  H13Y 3854   0.197   8.116  15.842
   30DOPE  C314 3855   0.163   8.158  15.631
   30DOPE  H14X 3856   0.090   8.255  15.643
   30DOPE  H14Y 3857   0.091   8.059  15.626
   30DOPE  C315 3858   0.248   8.168  15.500
   30DOPE  H15X 3859   0.321   8.070  15.492
   30DOPE  H15Y 3860   0.317   8.268  15.498
   30DOPE  C316 3861   0.141   8.171  15.382
   30DOPE  H16X 3862   0.065   8.267  15.392
   30DOPE  H16Y 3863   0.075   8.069  15.387
   30DOPE  C317 3864   0.214   8.173  15.245
   30DOPE  H17X 3865   0.131   8.191  15.166
   30DOPE  H17Y 3866   0.294   8.267  15.241
   30DOPE  C318 3867   0.295   8.029  15.221
   30DOPE  H18X 3868   0.396   8.033  15.282
   30DOPE  H18Y 3869   0.229   7.933  15.256
   30DOPE  H18Z 3870   0.324   8.012  15.115
   31DOPE     N 3871   3.493   3.511  12.807
   31DOPE   HN1 3872   3.474   3.421  12.746
   31DOPE   HN2 3873   3.390   3.554  12.835
   31DOPE   HN3 3874   3.556   3.592  12.761
   31DOPE   C12 3875   3.568   3.463  12.934
   31DOPE  H12A 3876   3.654   3.545  12.958
   31DOPE  H12B 3877   3.621   3.356  12.914
   31DOPE   C11 3878   3.455   3.452  13.046
   31DOPE  H11A 3879   3.409   3.563  13.065
   31DOPE  H11B 3880   3.511   3.416  13.140
   31DOPE     P 3881   3.179   3.364  13.060
   31DOPE   O13 3882   3.084   3.293  12.958
   31DOPE   O14 3883   3.151   3.521  13.090
   31DOPE   O11 3884   3.176   3.273  13.190
   31DOPE   O12 3885   3.343   3.351  13.009
   31DOPE    C1 3886   3.293   3.177  13.221
   31DOPE    HA 3887   3.405   3.216  13.191
   31DOPE    HB 3888   3.277   3.068  13.174
   31DOPE    C2 3889   3.303   3.166  13.373
   31DOPE    HS 3890   3.375   3.073  13.396
   31DOPE   O21 3891   3.165   3.139  13.433
   31DOPE   C21 3892   3.101   3.018  13.396
   31DOPE   O22 3893   3.154   2.917  13.332
   31DOPE   C22 3894   2.959   3.017  13.474
   31DOPE   H2R 3895   2.912   2.907  13.453
   31DOPE   H2S 3896   2.881   3.102  13.438
   31DOPE    C3 3897   3.367   3.306  13.441
   31DOPE    HX 3898   3.478   3.330  13.400
   31DOPE    HY 3899   3.375   3.271  13.547
   31DOPE   O31 3900   3.273   3.433  13.432
   31DOPE   C31 3901   3.309   3.527  13.528
   31DOPE   O32 3902   3.428   3.526  13.586
   31DOPE   C32 3903   3.175   3.615  13.569
   31DOPE   H2X 3904   3.114   3.653  13.479
   31DOPE   H2Y 3905   3.101   3.541  13.627
   31DOPE   C23 3906   2.993   3.031  13.625
   31DOPE   H3R 3907   3.093   2.964  13.644
   31DOPE   H3S 3908   2.903   2.974  13.680
   31DOPE   C24 3909   3.011   3.182  13.693
   31DOPE   H4R 3910   2.950   3.269  13.637
   31DOPE   H4S 3911   3.130   3.212  13.695
   31DOPE   C25 3912   2.950   3.170  13.835
   31DOPE   H5R 3913   2.993   3.069  13.882
   31DOPE   H5S 3914   2.829   3.156  13.827
   31DOPE   C26 3915   2.989   3.286  13.940
   31DOPE   H6R 3916   2.956   3.397  13.907
   31DOPE   H6S 3917   3.110   3.289  13.955
   31DOPE   C27 3918   2.916   3.242  14.074
   31DOPE   H7R 3919   2.949   3.323  14.152
   31DOPE   H7S 3920   2.961   3.133  14.104
   31DOPE   C28 3921   2.748   3.224  14.072
   31DOPE   H8R 3922   2.704   3.209  14.175
   31DOPE   H8S 3923   2.713   3.127  14.012
   31DOPE   C29 3924   2.699   3.365  14.010
   31DOPE   H9R 3925   2.685   3.366  13.900
   31DOPE  C210 3926   2.681   3.489  14.079
   31DOPE  H10R 3927   2.661   3.589  14.020
   31DOPE  C211 3928   2.701   3.514  14.227
   31DOPE  H11R 3929   2.756   3.421  14.279
   31DOPE  H11S 3930   2.589   3.526  14.272
   31DOPE  C212 3931   2.787   3.656  14.254
   31DOPE  H12R 3932   2.785   3.732  14.166
   31DOPE  H12S 3933   2.902   3.625  14.274
   31DOPE  C213 3934   2.736   3.748  14.373
   31DOPE  H13R 3935   2.626   3.795  14.350
   31DOPE  H13S 3936   2.813   3.841  14.389
   31DOPE  C214 3937   2.724   3.658  14.500
   31DOPE  H14R 3938   2.635   3.575  14.487
   31DOPE  H14S 3939   2.690   3.731  14.584
   31DOPE  C215 3940   2.862   3.574  14.542
   31DOPE  H15R 3941   2.961   3.644  14.544
   31DOPE  H15S 3942   2.882   3.480  14.473
   31DOPE  C216 3943   2.829   3.517  14.682
   31DOPE  H16R 3944   2.716   3.472  14.674
   31DOPE  H16S 3945   2.828   3.607  14.755
   31DOPE  C217 3946   2.922   3.389  14.730
   31DOPE  H17R 3947   3.040   3.411  14.715
   31DOPE  H17S 3948   2.884   3.297  14.666
   31DOPE  C218 3949   2.890   3.341  14.871
   31DOPE  H18R 3950   2.775   3.298  14.876
   31DOPE  H18S 3951   2.900   3.432  14.944
   31DOPE  H18T 3952   2.966   3.250  14.900
   31DOPE   C33 3953   3.227   3.742  13.655
   31DOPE   H3X 3954   3.291   3.818  13.589
   31DOPE   H3Y 3955   3.302   3.703  13.735
   31DOPE   C34 3956   3.103   3.829  13.718
   31DOPE   H4X 3957   3.144   3.942  13.741
   31DOPE   H4Y 3958   3.017   3.837  13.640
   31DOPE   C35 3959   3.038   3.766  13.848
   31DOPE   H5X 3960   2.991   3.656  13.828
   31DOPE   H5Y 3961   2.947   3.838  13.883
   31DOPE   C36 3962   3.149   3.757  13.964
   31DOPE   H6X 3963   3.197   3.867  13.986
   31DOPE   H6Y 3964   3.241   3.685  13.931
   31DOPE   C37 3965   3.077   3.695  14.090
   31DOPE   H7X 3966   3.010   3.785  14.134
   31DOPE   H7Y 3967   3.000   3.605  14.058
   31DOPE   C38 3968   3.178   3.630  14.200
   31DOPE   H8X 3969   3.113   3.564  14.272
   31DOPE   H8Y 3970   3.228   3.721  14.258
   31DOPE   C39 3971   3.288   3.530  14.136
   31DOPE   H9X 3972   3.252   3.480  14.041
   31DOPE  C310 3973   3.422   3.499  14.182
   31DOPE  H10X 3974   3.497   3.433  14.119
   31DOPE  C311 3975   3.488   3.556  14.309
   31DOPE  H11X 3976   3.568   3.645  14.284
   31DOPE  H11Y 3977   3.407   3.606  14.378
   31DOPE  C312 3978   3.573   3.434  14.382
   31DOPE  H12X 3979   3.665   3.491  14.432
   31DOPE  H12Y 3980   3.623   3.353  14.313
   31DOPE  C313 3981   3.485   3.359  14.493
   31DOPE  H13X 3982   3.419   3.444  14.545
   31DOPE  H13Y 3983   3.407   3.277  14.451
   31DOPE  C314 3984   3.585   3.287  14.597
   31DOPE  H14X 3985   3.686   3.355  14.612
   31DOPE  H14Y 3986   3.620   3.179  14.559
   31DOPE  C315 3987   3.508   3.267  14.732
   31DOPE  H15X 3988   3.417   3.188  14.715
   31DOPE  H15Y 3989   3.456   3.373  14.764
   31DOPE  C316 3990   3.610   3.212  14.842
   31DOPE  H16X 3991   3.630   3.300  14.918
   31DOPE  H16Y 3992   3.720   3.189  14.797
   31DOPE  C317 3993   3.554   3.069  14.906
   31DOPE  H17X 3994   3.549   2.987  14.824
   31DOPE  H17Y 3995   3.637   3.028  14.979
   31DOPE  C318 3996   3.400   3.073  14.970
   31DOPE  H18X 3997   3.322   3.137  14.907
   31DOPE  H18Y 3998   3.355   2.960  14.978
   31DOPE  H18Z 3999   3.400   3.123  15.071
   32DOPE     N 4000   5.121   3.163  13.287
   32DOPE   HN1 4001   5.124   3.128  13.386
   32DOPE   HN2 4002   5.145   3.077  13.222
   32DOPE   HN3 4003   5.201   3.242  13.265
   32DOPE   C12 4004   4.976   3.225  13.238
   32DOPE  H12A 4005   4.957   3.330  13.291
   32DOPE  H12B 4006   4.887   3.146  13.259
   32DOPE   C11 4007   4.993   3.255  13.088
   32DOPE  H11A 4008   4.898   3.321  13.050
   32DOPE  H11B 4009   4.997   3.149  13.030
   32DOPE     P 4010   5.170   3.429  12.948
   32DOPE   O13 4011   5.086   3.379  12.830
   32DOPE   O14 4012   5.332   3.423  12.946
   32DOPE   O11 4013   5.114   3.584  12.997
   32DOPE   O12 4014   5.129   3.329  13.071
   32DOPE    C1 4015   5.178   3.716  12.943
   32DOPE    HA 4016   5.096   3.772  12.878
   32DOPE    HB 4017   5.272   3.692  12.876
   32DOPE    C2 4018   5.235   3.827  13.050
   32DOPE    HS 4019   5.281   3.922  12.992
   32DOPE   O21 4020   5.344   3.760  13.135
   32DOPE   C21 4021   5.471   3.729  13.081
   32DOPE   O22 4022   5.514   3.767  12.971
   32DOPE   C22 4023   5.558   3.636  13.179
   32DOPE   H2R 4024   5.671   3.618  13.138
   32DOPE   H2S 4025   5.502   3.528  13.183
   32DOPE    C3 4026   5.118   3.898  13.145
   32DOPE    HX 4027   5.034   3.951  13.082
   32DOPE    HY 4028   5.174   3.989  13.202
   32DOPE   O31 4029   5.048   3.795  13.232
   32DOPE   C31 4030   5.113   3.769  13.349
   32DOPE   O32 4031   5.214   3.837  13.397
   32DOPE   C32 4032   5.035   3.633  13.411
   32DOPE   H2X 4033   4.916   3.647  13.391
   32DOPE   H2Y 4034   5.073   3.534  13.356
   32DOPE   C23 4035   5.565   3.708  13.319
   32DOPE   H3R 4036   5.455   3.747  13.352
   32DOPE   H3S 4037   5.636   3.807  13.311
   32DOPE   C24 4038   5.626   3.607  13.428
   32DOPE   H4R 4039   5.646   3.675  13.519
   32DOPE   H4S 4040   5.732   3.562  13.389
   32DOPE   C25 4041   5.533   3.476  13.471
   32DOPE   H5R 4042   5.604   3.395  13.524
   32DOPE   H5S 4043   5.490   3.422  13.379
   32DOPE   C26 4044   5.403   3.517  13.563
   32DOPE   H6R 4045   5.306   3.483  13.504
   32DOPE   H6S 4046   5.396   3.638  13.577
   32DOPE   C27 4047   5.399   3.441  13.701
   32DOPE   H7R 4048   5.467   3.340  13.700
   32DOPE   H7S 4049   5.283   3.405  13.719
   32DOPE   C28 4050   5.442   3.543  13.818
   32DOPE   H8R 4051   5.376   3.645  13.809
   32DOPE   H8S 4052   5.558   3.576  13.806
   32DOPE   C29 4053   5.419   3.478  13.955
   32DOPE   H9R 4054   5.370   3.368  13.959
   32DOPE  C210 4055   5.452   3.547  14.071
   32DOPE  H10R 4056   5.427   3.493  14.166
   32DOPE  C211 4057   5.518   3.699  14.084
   32DOPE  H11R 4058   5.566   3.738  13.988
   32DOPE  H11S 4059   5.610   3.697  14.157
   32DOPE  C212 4060   5.404   3.816  14.129
   32DOPE  H12R 4061   5.315   3.824  14.052
   32DOPE  H12S 4062   5.459   3.925  14.134
   32DOPE  C213 4063   5.333   3.785  14.265
   32DOPE  H13R 4064   5.273   3.677  14.263
   32DOPE  H13S 4065   5.249   3.872  14.285
   32DOPE  C214 4066   5.443   3.784  14.381
   32DOPE  H14R 4067   5.503   3.891  14.382
   32DOPE  H14S 4068   5.524   3.694  14.369
   32DOPE  C215 4069   5.363   3.764  14.514
   32DOPE  H15R 4070   5.283   3.672  14.507
   32DOPE  H15S 4071   5.298   3.867  14.529
   32DOPE  C216 4072   5.464   3.737  14.633
   32DOPE  H16R 4073   5.528   3.634  14.618
   32DOPE  H16S 4074   5.394   3.721  14.724
   32DOPE  C217 4075   5.569   3.864  14.659
   32DOPE  H17R 4076   5.509   3.971  14.653
   32DOPE  H17S 4077   5.657   3.867  14.581
   32DOPE  C218 4078   5.639   3.848  14.796
   32DOPE  H18R 4079   5.552   3.835  14.873
   32DOPE  H18S 4080   5.705   3.945  14.822
   32DOPE  H18T 4081   5.715   3.752  14.801
   32DOPE   C33 4082   5.058   3.610  13.563
   32DOPE   H3X 4083   5.127   3.700  13.604
   32DOPE   H3Y 4084   5.115   3.505  13.583
   32DOPE   C34 4085   4.916   3.597  13.645
   32DOPE   H4X 4086   4.829   3.658  13.592
   32DOPE   H4Y 4087   4.880   3.482  13.655
   32DOPE   C35 4088   4.936   3.667  13.783
   32DOPE   H5X 4089   4.829   3.693  13.832
   32DOPE   H5Y 4090   4.991   3.773  13.760
   32DOPE   C36 4091   5.030   3.577  13.880
   32DOPE   H6X 4092   5.073   3.648  13.963
   32DOPE   H6Y 4093   5.128   3.535  13.827
   32DOPE   C37 4094   4.942   3.451  13.941
   32DOPE   H7X 4095   4.868   3.496  14.019
   32DOPE   H7Y 4096   4.873   3.402  13.861
   32DOPE   C38 4097   5.040   3.331  14.001
   32DOPE   H8X 4098   5.102   3.378  14.087
   32DOPE   H8Y 4099   5.123   3.299  13.924
   32DOPE   C39 4100   4.950   3.200  14.042
   32DOPE   H9X 4101   4.830   3.210  14.029
   32DOPE  C310 4102   5.007   3.076  14.090
   32DOPE  H10X 4103   4.935   2.983  14.117
   32DOPE  C311 4104   5.169   3.049  14.110
   32DOPE  H11X 4105   5.195   2.937  14.074
   32DOPE  H11Y 4106   5.239   3.126  14.051
   32DOPE  C312 4107   5.215   3.061  14.258
   32DOPE  H12X 4108   5.333   3.028  14.267
   32DOPE  H12Y 4109   5.150   2.983  14.320
   32DOPE  C313 4110   5.207   3.216  14.319
   32DOPE  H13X 4111   5.262   3.297  14.253
   32DOPE  H13Y 4112   5.091   3.249  14.331
   32DOPE  C314 4113   5.284   3.212  14.454
   32DOPE  H14X 4114   5.403   3.186  14.441
   32DOPE  H14Y 4115   5.234   3.117  14.508
   32DOPE  C315 4116   5.272   3.352  14.539
   32DOPE  H15X 4117   5.155   3.386  14.545
   32DOPE  H15Y 4118   5.333   3.442  14.488
   32DOPE  C316 4119   5.333   3.330  14.681
   32DOPE  H16X 4120   5.305   3.430  14.742
   32DOPE  H16Y 4121   5.455   3.322  14.676
   32DOPE  C317 4122   5.271   3.192  14.752
   32DOPE  H17X 4123   5.317   3.092  14.703
   32DOPE  H17Y 4124   5.315   3.191  14.856
   32DOPE  C318 4125   5.103   3.183  14.753
   32DOPE  H18X 4126   5.059   3.167  14.650
   32DOPE  H18Y 4127   5.066   3.090  14.816
   32DOPE  H18Z 4128   5.055   3.287  14.792
   33DOPE     N 4129   3.893   2.395  12.914
   33DOPE   HN1 4130   3.971   2.369  12.840
   33DOPE   HN2 4131   3.850   2.302  12.960
   33DOPE   HN3 4132   3.804   2.453  12.874
   33DOPE   C12 4133   3.955   2.500  13.015
   33DOPE  H12A 4134   3.999   2.596  12.958
   33DOPE  H12B 4135   4.044   2.445  13.072
   33DOPE   C11 4136   3.831   2.560  13.104
   33DOPE  H11A 4137   3.873   2.661  13.156
   33DOPE  H11B 4138   3.806   2.476  13.183
   33DOPE     P 4139   3.556   2.635  13.102
   33DOPE   O13 4140   3.461   2.503  13.097
   33DOPE   O14 4141   3.499   2.770  13.040
   33DOPE   O11 4142   3.620   2.661  13.247
   33DOPE   O12 4143   3.705   2.593  13.025
   33DOPE    C1 4144   3.544   2.616  13.364
   33DOPE    HA 4145   3.625   2.582  13.441
   33DOPE    HB 4146   3.469   2.521  13.345
   33DOPE    C2 4147   3.454   2.746  13.422
   33DOPE    HS 4148   3.388   2.794  13.339
   33DOPE   O21 4149   3.550   2.853  13.480
   33DOPE   C21 4150   3.610   2.957  13.405
   33DOPE   O22 4151   3.599   2.977  13.286
   33DOPE   C22 4152   3.675   3.070  13.501
   33DOPE   H2R 4153   3.686   3.174  13.442
   33DOPE   H2S 4154   3.785   3.035  13.532
   33DOPE    C3 4155   3.343   2.687  13.529
   33DOPE    HX 4156   3.280   2.598  13.478
   33DOPE    HY 4157   3.265   2.778  13.552
   33DOPE   O31 4158   3.414   2.637  13.652
   33DOPE   C31 4159   3.334   2.539  13.722
   33DOPE   O32 4160   3.224   2.478  13.680
   33DOPE   C32 4161   3.390   2.523  13.866
   33DOPE   H2X 4162   3.480   2.442  13.868
   33DOPE   H2Y 4163   3.441   2.630  13.894
   33DOPE   C23 4164   3.573   3.099  13.622
   33DOPE   H3R 4165   3.455   3.072  13.597
   33DOPE   H3S 4166   3.578   3.219  13.648
   33DOPE   C24 4167   3.606   3.013  13.748
   33DOPE   H4R 4168   3.564   2.897  13.740
   33DOPE   H4S 4169   3.544   3.072  13.827
   33DOPE   C25 4170   3.766   3.011  13.793
   33DOPE   H5R 4171   3.808   3.126  13.798
   33DOPE   H5S 4172   3.833   2.948  13.720
   33DOPE   C26 4173   3.780   2.935  13.928
   33DOPE   H6R 4174   3.731   2.824  13.916
   33DOPE   H6S 4175   3.714   2.994  14.005
   33DOPE   C27 4176   3.939   2.919  13.976
   33DOPE   H7R 4177   3.973   3.023  14.027
   33DOPE   H7S 4178   4.011   2.904  13.887
   33DOPE   C28 4179   3.963   2.786  14.068
   33DOPE   H8R 4180   4.073   2.797  14.116
   33DOPE   H8S 4181   3.968   2.685  14.006
   33DOPE   C29 4182   3.839   2.774  14.167
   33DOPE   H9R 4183   3.732   2.743  14.124
   33DOPE  C210 4184   3.846   2.800  14.298
   33DOPE  H10R 4185   3.744   2.790  14.357
   33DOPE  C211 4186   3.981   2.845  14.376
   33DOPE  H11R 4187   4.077   2.870  14.311
   33DOPE  H11S 4188   4.014   2.751  14.439
   33DOPE  C212 4189   3.956   2.982  14.464
   33DOPE  H12R 4190   3.944   3.080  14.398
   33DOPE  H12S 4191   4.056   3.003  14.525
   33DOPE  C213 4192   3.820   2.975  14.556
   33DOPE  H13R 4193   3.724   2.995  14.491
   33DOPE  H13S 4194   3.827   3.068  14.629
   33DOPE  C214 4195   3.788   2.833  14.633
   33DOPE  H14R 4196   3.775   2.738  14.564
   33DOPE  H14S 4197   3.681   2.849  14.682
   33DOPE  C215 4198   3.895   2.791  14.745
   33DOPE  H15R 4199   3.840   2.706  14.809
   33DOPE  H15S 4200   3.916   2.889  14.809
   33DOPE  C216 4201   4.039   2.727  14.693
   33DOPE  H16R 4202   4.096   2.814  14.635
   33DOPE  H16S 4203   4.017   2.633  14.624
   33DOPE  C217 4204   4.145   2.681  14.803
   33DOPE  H17R 4205   4.145   2.773  14.876
   33DOPE  H17S 4206   4.257   2.671  14.761
   33DOPE  C218 4207   4.105   2.537  14.874
   33DOPE  H18R 4208   4.118   2.442  14.805
   33DOPE  H18S 4209   3.991   2.539  14.912
   33DOPE  H18T 4210   4.181   2.516  14.959
   33DOPE   C33 4211   3.264   2.473  13.962
   33DOPE   H3X 4212   3.256   2.351  13.960
   33DOPE   H3Y 4213   3.156   2.515  13.927
   33DOPE   C34 4214   3.275   2.517  14.111
   33DOPE   H4X 4215   3.213   2.619  14.131
   33DOPE   H4Y 4216   3.208   2.439  14.169
   33DOPE   C35 4217   3.433   2.530  14.161
   33DOPE   H5X 4218   3.436   2.598  14.254
   33DOPE   H5Y 4219   3.506   2.588  14.090
   33DOPE   C36 4220   3.496   2.377  14.189
   33DOPE   H6X 4221   3.610   2.389  14.228
   33DOPE   H6Y 4222   3.507   2.317  14.094
   33DOPE   C37 4223   3.399   2.291  14.288
   33DOPE   H7X 4224   3.292   2.261  14.244
   33DOPE   H7Y 4225   3.453   2.182  14.308
   33DOPE   C38 4226   3.372   2.379  14.417
   33DOPE   H8X 4227   3.293   2.321  14.484
   33DOPE   H8Y 4228   3.326   2.490  14.400
   33DOPE   C39 4229   3.526   2.383  14.469
   33DOPE   H9X 4230   3.596   2.478  14.444
   33DOPE  C310 4231   3.576   2.276  14.546
   33DOPE  H10X 4232   3.686   2.284  14.585
   33DOPE  C311 4233   3.496   2.144  14.595
   33DOPE  H11X 4234   3.411   2.108  14.524
   33DOPE  H11Y 4235   3.573   2.052  14.614
   33DOPE  C312 4236   3.425   2.199  14.726
   33DOPE  H12X 4237   3.394   2.104  14.789
   33DOPE  H12Y 4238   3.323   2.258  14.699
   33DOPE  C313 4239   3.524   2.306  14.808
   33DOPE  H13X 4240   3.625   2.246  14.837
   33DOPE  H13Y 4241   3.563   2.404  14.751
   33DOPE  C314 4242   3.456   2.378  14.929
   33DOPE  H14X 4243   3.547   2.437  14.980
   33DOPE  H14Y 4244   3.416   2.289  14.995
   33DOPE  C315 4245   3.336   2.490  14.892
   33DOPE  H15X 4246   3.264   2.517  14.977
   33DOPE  H15Y 4247   3.266   2.441  14.813
   33DOPE  C316 4248   3.396   2.636  14.839
   33DOPE  H16X 4249   3.500   2.619  14.784
   33DOPE  H16Y 4250   3.417   2.713  14.923
   33DOPE  C317 4251   3.282   2.706  14.748
   33DOPE  H17X 4252   3.238   2.622  14.676
   33DOPE  H17Y 4253   3.190   2.740  14.813
   33DOPE  C318 4254   3.345   2.836  14.671
   33DOPE  H18X 4255   3.310   2.940  14.719
   33DOPE  H18Y 4256   3.466   2.833  14.673
   33DOPE  H18Z 4257   3.310   2.833  14.565
   34DOPE     N 4258   2.643   4.747  12.953
   34DOPE   HN1 4259   2.743   4.723  12.909
   34DOPE   HN2 4260   2.566   4.669  12.923
   34DOPE   HN3 4261   2.607   4.851  12.922
   34DOPE   C12 4262   2.648   4.765  13.103
   34DOPE  H12A 4263   2.735   4.848  13.126
   34DOPE  H12B 4264   2.675   4.660  13.150
   34DOPE   C11 4265   2.498   4.825  13.149
   34DOPE  H11A 4266   2.499   4.851  13.258
   34DOPE  H11B 4267   2.416   4.738  13.130
   34DOPE     P 4268   2.303   5.023  13.080
   34DOPE   O13 4269   2.235   4.993  12.949
   34DOPE   O14 4270   2.316   5.178  13.124
   34DOPE   O11 4271   2.218   4.930  13.189
   34DOPE   O12 4272   2.463   4.951  13.073
   34DOPE    C1 4273   2.123   5.003  13.284
   34DOPE    HA 4274   2.023   4.935  13.303
   34DOPE    HB 4275   2.083   5.112  13.248
   34DOPE    C2 4276   2.199   5.030  13.421
   34DOPE    HS 4277   2.140   5.118  13.476
   34DOPE   O21 4278   2.352   5.061  13.402
   34DOPE   C21 4279   2.397   5.190  13.438
   34DOPE   O22 4280   2.322   5.299  13.459
   34DOPE   C22 4281   2.561   5.173  13.470
   34DOPE   H2R 4282   2.617   5.280  13.458
   34DOPE   H2S 4283   2.611   5.095  13.398
   34DOPE    C3 4284   2.193   4.894  13.511
   34DOPE    HX 4285   2.256   4.804  13.460
   34DOPE    HY 4286   2.077   4.859  13.523
   34DOPE   O31 4287   2.262   4.930  13.637
   34DOPE   C31 4288   2.246   4.825  13.726
   34DOPE   O32 4289   2.174   4.714  13.712
   34DOPE   C32 4290   2.334   4.862  13.849
   34DOPE   H2X 4291   2.453   4.848  13.826
   34DOPE   H2Y 4292   2.314   4.979  13.877
   34DOPE   C23 4293   2.580   5.114  13.614
   34DOPE   H3R 4294   2.538   4.998  13.619
   34DOPE   H3S 4295   2.510   5.182  13.683
   34DOPE   C24 4296   2.737   5.117  13.666
   34DOPE   H4R 4297   2.778   5.233  13.658
   34DOPE   H4S 4298   2.813   5.049  13.604
   34DOPE   C25 4299   2.742   5.070  13.812
   34DOPE   H5R 4300   2.642   5.112  13.864
   34DOPE   H5S 4301   2.838   5.118  13.863
   34DOPE   C26 4302   2.773   4.907  13.840
   34DOPE   H6R 4303   2.878   4.877  13.788
   34DOPE   H6S 4304   2.684   4.838  13.798
   34DOPE   C27 4305   2.792   4.881  13.991
   34DOPE   H7R 4306   2.879   4.954  14.031
   34DOPE   H7S 4307   2.828   4.765  14.006
   34DOPE   C28 4308   2.648   4.907  14.069
   34DOPE   H8R 4309   2.565   4.835  14.021
   34DOPE   H8S 4310   2.608   5.022  14.052
   34DOPE   C29 4311   2.651   4.870  14.216
   34DOPE   H9R 4312   2.698   4.761  14.239
   34DOPE  C210 4313   2.598   4.952  14.317
   34DOPE  H10R 4314   2.598   4.905  14.418
   34DOPE  C211 4315   2.525   5.101  14.304
   34DOPE  H11R 4316   2.574   5.162  14.220
   34DOPE  H11S 4317   2.545   5.168  14.395
   34DOPE  C212 4318   2.356   5.094  14.276
   34DOPE  H12R 4319   2.338   5.027  14.185
   34DOPE  H12S 4320   2.314   5.205  14.253
   34DOPE  C213 4321   2.262   5.030  14.390
   34DOPE  H13R 4322   2.310   4.925  14.416
   34DOPE  H13S 4323   2.147   5.013  14.354
   34DOPE  C214 4324   2.257   5.121  14.519
   34DOPE  H14R 4325   2.208   5.229  14.497
   34DOPE  H14S 4326   2.373   5.138  14.553
   34DOPE  C215 4327   2.173   5.047  14.635
   34DOPE  H15R 4328   2.231   4.944  14.664
   34DOPE  H15S 4329   2.060   5.016  14.600
   34DOPE  C216 4330   2.157   5.149  14.757
   34DOPE  H16R 4331   2.111   5.254  14.719
   34DOPE  H16S 4332   2.268   5.173  14.800
   34DOPE  C217 4333   2.056   5.103  14.871
   34DOPE  H17R 4334   1.947   5.068  14.832
   34DOPE  H17S 4335   2.036   5.205  14.931
   34DOPE  C218 4336   2.120   4.991  14.968
   34DOPE  H18R 4337   2.102   5.029  15.071
   34DOPE  H18S 4338   2.240   4.978  14.954
   34DOPE  H18T 4339   2.065   4.881  14.958
   34DOPE   C33 4340   2.290   4.760  13.965
   34DOPE   H3X 4341   2.169   4.743  13.970
   34DOPE   H3Y 4342   2.322   4.815  14.060
   34DOPE   C34 4343   2.367   4.611  13.955
   34DOPE   H4X 4344   2.334   4.554  13.861
   34DOPE   H4Y 4345   2.488   4.627  13.951
   34DOPE   C35 4346   2.332   4.512  14.074
   34DOPE   H5X 4347   2.407   4.417  14.069
   34DOPE   H5Y 4348   2.218   4.470  14.069
   34DOPE   C36 4349   2.364   4.584  14.209
   34DOPE   H6X 4350   2.440   4.678  14.198
   34DOPE   H6Y 4351   2.427   4.500  14.266
   34DOPE   C37 4352   2.224   4.633  14.282
   34DOPE   H7X 4353   2.186   4.740  14.241
   34DOPE   H7Y 4354   2.136   4.551  14.262
   34DOPE   C38 4355   2.250   4.645  14.433
   34DOPE   H8X 4356   2.151   4.689  14.485
   34DOPE   H8Y 4357   2.340   4.725  14.449
   34DOPE   C39 4358   2.295   4.498  14.485
   34DOPE   H9X 4359   2.212   4.411  14.473
   34DOPE  C310 4360   2.429   4.464  14.534
   34DOPE  H10X 4361   2.451   4.348  14.561
   34DOPE  C311 4362   2.559   4.565  14.549
   34DOPE  H11X 4363   2.640   4.547  14.468
   34DOPE  H11Y 4364   2.526   4.682  14.547
   34DOPE  C312 4365   2.627   4.532  14.686
   34DOPE  H12X 4366   2.661   4.414  14.688
   34DOPE  H12Y 4367   2.542   4.543  14.765
   34DOPE  C313 4368   2.760   4.627  14.726
   34DOPE  H13X 4369   2.789   4.601  14.831
   34DOPE  H13Y 4370   2.855   4.594  14.663
   34DOPE  C314 4371   2.743   4.794  14.710
   34DOPE  H14X 4372   2.633   4.825  14.671
   34DOPE  H14Y 4373   2.828   4.831  14.637
   34DOPE  C315 4374   2.769   4.877  14.841
   34DOPE  H15X 4375   2.878   4.847  14.884
   34DOPE  H15Y 4376   2.685   4.848  14.917
   34DOPE  C316 4377   2.763   5.043  14.815
   34DOPE  H16X 4378   2.653   5.076  14.777
   34DOPE  H16Y 4379   2.842   5.064  14.733
   34DOPE  C317 4380   2.803   5.135  14.938
   34DOPE  H17X 4381   2.902   5.084  14.985
   34DOPE  H17Y 4382   2.831   5.250  14.912
   34DOPE  C318 4383   2.680   5.144  15.037
   34DOPE  H18X 4384   2.638   5.030  15.051
   34DOPE  H18Y 4385   2.719   5.189  15.134
   34DOPE  H18Z 4386   2.588   5.214  15.000
   35DOPE     N 4387   6.354   3.122  13.150
   35DOPE   HN1 4388   6.364   3.180  13.239
   35DOPE   HN2 4389   6.350   3.008  13.170
   35DOPE   HN3 4390   6.443   3.148  13.090
   35DOPE   C12 4391   6.214   3.171  13.082
   35DOPE  H12A 4392   6.135   3.078  13.082
   35DOPE  H12B 4393   6.240   3.201  12.977
   35DOPE   C11 4394   6.145   3.304  13.154
   35DOPE  H11A 4395   6.230   3.388  13.177
   35DOPE  H11B 4396   6.093   3.269  13.250
   35DOPE     P 4397   6.056   3.511  12.990
   35DOPE   O13 4398   5.926   3.546  12.907
   35DOPE   O14 4399   6.200   3.497  12.920
   35DOPE   O11 4400   6.068   3.625  13.109
   35DOPE   O12 4401   6.032   3.362  13.070
   35DOPE    C1 4402   6.173   3.740  13.096
   35DOPE    HA 4403   6.128   3.828  13.029
   35DOPE    HB 4404   6.279   3.703  13.051
   35DOPE    C2 4405   6.211   3.812  13.233
   35DOPE    HS 4406   6.300   3.892  13.213
   35DOPE   O21 4407   6.258   3.707  13.333
   35DOPE   C21 4408   6.388   3.644  13.313
   35DOPE   O22 4409   6.470   3.666  13.219
   35DOPE   C22 4410   6.411   3.531  13.429
   35DOPE   H2R 4411   6.309   3.465  13.426
   35DOPE   H2S 4412   6.405   3.599  13.520
   35DOPE    C3 4413   6.076   3.901  13.287
   35DOPE    HX 4414   6.005   3.928  13.201
   35DOPE    HY 4415   6.116   4.005  13.330
   35DOPE   O31 4416   5.984   3.829  13.381
   35DOPE   C31 4417   6.017   3.845  13.508
   35DOPE   O32 4418   6.112   3.923  13.558
   35DOPE   C32 4419   5.911   3.747  13.582
   35DOPE   H2X 4420   5.816   3.810  13.619
   35DOPE   H2Y 4421   5.872   3.667  13.506
   35DOPE   C23 4422   6.540   3.414  13.438
   35DOPE   H3R 4423   6.587   3.399  13.335
   35DOPE   H3S 4424   6.490   3.309  13.472
   35DOPE   C24 4425   6.672   3.435  13.537
   35DOPE   H4R 4426   6.703   3.546  13.525
   35DOPE   H4S 4427   6.771   3.394  13.485
   35DOPE   C25 4428   6.687   3.354  13.678
   35DOPE   H5R 4429   6.787   3.291  13.650
   35DOPE   H5S 4430   6.607   3.264  13.693
   35DOPE   C26 4431   6.750   3.407  13.823
   35DOPE   H6R 4432   6.861   3.435  13.802
   35DOPE   H6S 4433   6.760   3.303  13.878
   35DOPE   C27 4434   6.724   3.536  13.929
   35DOPE   H7R 4435   6.700   3.651  13.904
   35DOPE   H7S 4436   6.838   3.551  13.969
   35DOPE   C28 4437   6.635   3.502  14.056
   35DOPE   H8R 4438   6.710   3.458  14.133
   35DOPE   H8S 4439   6.576   3.419  14.003
   35DOPE   C29 4440   6.507   3.584  14.112
   35DOPE   H9R 4441   6.470   3.674  14.048
   35DOPE  C210 4442   6.415   3.551  14.213
   35DOPE  H10R 4443   6.318   3.625  14.222
   35DOPE  C211 4444   6.405   3.423  14.309
   35DOPE  H11R 4445   6.307   3.357  14.278
   35DOPE  H11S 4446   6.375   3.468  14.408
   35DOPE  C212 4447   6.530   3.306  14.325
   35DOPE  H12R 4448   6.610   3.314  14.242
   35DOPE  H12S 4449   6.476   3.197  14.311
   35DOPE  C213 4450   6.623   3.293  14.454
   35DOPE  H13R 4451   6.706   3.383  14.457
   35DOPE  H13S 4452   6.692   3.193  14.445
   35DOPE  C214 4453   6.537   3.283  14.585
   35DOPE  H14R 4454   6.501   3.168  14.602
   35DOPE  H14S 4455   6.436   3.353  14.577
   35DOPE  C215 4456   6.624   3.337  14.707
   35DOPE  H15R 4457   6.678   3.444  14.684
   35DOPE  H15S 4458   6.714   3.258  14.729
   35DOPE  C216 4459   6.523   3.361  14.827
   35DOPE  H16R 4460   6.410   3.323  14.805
   35DOPE  H16S 4461   6.514   3.480  14.846
   35DOPE  C217 4462   6.578   3.296  14.959
   35DOPE  H17R 4463   6.697   3.269  14.952
   35DOPE  H17S 4464   6.518   3.191  14.979
   35DOPE  C218 4465   6.555   3.407  15.072
   35DOPE  H18R 4466   6.435   3.429  15.085
   35DOPE  H18S 4467   6.609   3.512  15.046
   35DOPE  H18T 4468   6.602   3.368  15.167
   35DOPE   C33 4469   5.972   3.641  13.689
   35DOPE   H3X 4470   5.983   3.704  13.784
   35DOPE   H3Y 4471   6.081   3.596  13.659
   35DOPE   C34 4472   5.858   3.517  13.697
   35DOPE   H4X 4473   5.749   3.572  13.705
   35DOPE   H4Y 4474   5.856   3.453  13.602
   35DOPE   C35 4475   5.872   3.411  13.815
   35DOPE   H5X 4476   5.955   3.325  13.792
   35DOPE   H5Y 4477   5.764   3.355  13.828
   35DOPE   C36 4478   5.914   3.490  13.945
   35DOPE   H6X 4479   5.828   3.573  13.971
   35DOPE   H6Y 4480   6.020   3.549  13.931
   35DOPE   C37 4481   5.936   3.381  14.058
   35DOPE   H7X 4482   5.999   3.287  14.016
   35DOPE   H7Y 4483   6.004   3.432  14.138
   35DOPE   C38 4484   5.787   3.332  14.118
   35DOPE   H8X 4485   5.702   3.329  14.038
   35DOPE   H8Y 4486   5.751   3.417  14.191
   35DOPE   C39 4487   5.805   3.181  14.177
   35DOPE   H9X 4488   5.816   3.092  14.103
   35DOPE  C310 4489   5.813   3.149  14.308
   35DOPE  H10X 4490   5.831   3.035  14.338
   35DOPE  C311 4491   5.807   3.260  14.420
   35DOPE  H11X 4492   5.726   3.348  14.398
   35DOPE  H11Y 4493   5.769   3.205  14.513
   35DOPE  C312 4494   5.957   3.335  14.447
   35DOPE  H12X 4495   5.995   3.396  14.357
   35DOPE  H12Y 4496   6.040   3.249  14.471
   35DOPE  C313 4497   5.948   3.443  14.565
   35DOPE  H13X 4498   5.883   3.541  14.534
   35DOPE  H13Y 4499   5.887   3.389  14.649
   35DOPE  C314 4500   6.100   3.491  14.614
   35DOPE  H14X 4501   6.161   3.538  14.527
   35DOPE  H14Y 4502   6.162   3.396  14.653
   35DOPE  C315 4503   6.092   3.612  14.722
   35DOPE  H15X 4504   6.017   3.700  14.686
   35DOPE  H15Y 4505   6.204   3.660  14.735
   35DOPE  C316 4506   6.037   3.563  14.859
   35DOPE  H16X 4507   6.108   3.474  14.897
   35DOPE  H16Y 4508   5.924   3.518  14.849
   35DOPE  C317 4509   6.035   3.694  14.957
   35DOPE  H17X 4510   6.150   3.729  14.976
   35DOPE  H17Y 4511   5.977   3.786  14.907
   35DOPE  C318 4512   5.958   3.665  15.091
   35DOPE  H18X 4513   5.848   3.615  15.074
   35DOPE  H18Y 4514   6.023   3.593  15.156
   35DOPE  H18Z 4515   5.941   3.771  15.145
   36DOPE     N 4516   6.364   4.934  13.242
   36DOPE   HN1 4517   6.372   4.969  13.142
   36DOPE   HN2 4518   6.442   4.986  13.299
   36DOPE   HN3 4519   6.381   4.820  13.241
   36DOPE   C12 4520   6.205   4.965  13.275
   36DOPE  H12A 4521   6.189   5.086  13.264
   36DOPE  H12B 4522   6.180   4.930  13.378
   36DOPE   C11 4523   6.112   4.891  13.169
   36DOPE  H11A 4524   5.994   4.927  13.174
   36DOPE  H11B 4525   6.112   4.770  13.186
   36DOPE     P 4526   6.114   5.049  12.952
   36DOPE   O13 4527   5.959   5.013  12.930
   36DOPE   O14 4528   6.212   5.072  12.835
   36DOPE   O11 4529   6.126   5.185  13.051
   36DOPE   O12 4530   6.179   4.920  13.043
   36DOPE    C1 4531   6.025   5.307  13.029
   36DOPE    HA 4532   5.921   5.273  12.977
   36DOPE    HB 4533   6.081   5.390  12.963
   36DOPE    C2 4534   5.978   5.393  13.158
   36DOPE    HS 4535   5.973   5.512  13.132
   36DOPE   O21 4536   6.081   5.369  13.264
   36DOPE   C21 4537   6.205   5.441  13.250
   36DOPE   O22 4538   6.237   5.525  13.159
   36DOPE   C22 4539   6.302   5.406  13.372
   36DOPE   H2R 4540   6.314   5.512  13.425
   36DOPE   H2S 4541   6.412   5.371  13.338
   36DOPE    C3 4542   5.821   5.357  13.211
   36DOPE    HX 4543   5.744   5.359  13.125
   36DOPE    HY 4544   5.787   5.447  13.280
   36DOPE   O31 4545   5.813   5.215  13.273
   36DOPE   C31 4546   5.834   5.211  13.404
   36DOPE   O32 4547   5.833   5.314  13.481
   36DOPE   C32 4548   5.853   5.049  13.440
   36DOPE   H2X 4549   5.739   5.012  13.457
   36DOPE   H2Y 4550   5.896   4.992  13.351
   36DOPE   C23 4551   6.235   5.295  13.473
   36DOPE   H3R 4552   6.241   5.183  13.433
   36DOPE   H3S 4553   6.117   5.322  13.493
   36DOPE   C24 4554   6.311   5.294  13.609
   36DOPE   H4R 4555   6.284   5.401  13.656
   36DOPE   H4S 4556   6.432   5.286  13.599
   36DOPE   C25 4557   6.251   5.171  13.699
   36DOPE   H5R 4558   6.268   5.062  13.651
   36DOPE   H5S 4559   6.130   5.192  13.707
   36DOPE   C26 4560   6.309   5.166  13.843
   36DOPE   H6R 4561   6.428   5.141  13.840
   36DOPE   H6S 4562   6.256   5.076  13.901
   36DOPE   C27 4563   6.281   5.312  13.913
   36DOPE   H7R 4564   6.168   5.353  13.906
   36DOPE   H7S 4565   6.348   5.392  13.857
   36DOPE   C28 4566   6.338   5.315  14.057
   36DOPE   H8R 4567   6.378   5.431  14.061
   36DOPE   H8S 4568   6.437   5.244  14.060
   36DOPE   C29 4569   6.251   5.307  14.185
   36DOPE   H9R 4570   6.176   5.400  14.203
   36DOPE  C210 4571   6.266   5.205  14.279
   36DOPE  H10R 4572   6.207   5.220  14.375
   36DOPE  C211 4573   6.370   5.079  14.275
   36DOPE  H11R 4574   6.412   5.056  14.173
   36DOPE  H11S 4575   6.309   4.981  14.309
   36DOPE  C212 4576   6.502   5.093  14.367
   36DOPE  H12R 4577   6.562   5.198  14.347
   36DOPE  H12S 4578   6.575   4.998  14.340
   36DOPE  C213 4579   6.464   5.075  14.515
   36DOPE  H13R 4580   6.380   4.991  14.528
   36DOPE  H13S 4581   6.413   5.179  14.551
   36DOPE  C214 4582   6.596   5.019  14.595
   36DOPE  H14R 4583   6.670   5.114  14.608
   36DOPE  H14S 4584   6.652   4.934  14.535
   36DOPE  C215 4585   6.564   4.943  14.728
   36DOPE  H15R 4586   6.673   4.912  14.772
   36DOPE  H15S 4587   6.503   4.840  14.709
   36DOPE  C216 4588   6.480   5.036  14.830
   36DOPE  H16R 4589   6.364   5.047  14.801
   36DOPE  H16S 4590   6.529   5.148  14.833
   36DOPE  C217 4591   6.496   4.978  14.973
   36DOPE  H17R 4592   6.407   5.029  15.035
   36DOPE  H17S 4593   6.602   5.018  15.010
   36DOPE  C218 4594   6.494   4.810  14.989
   36DOPE  H18R 4595   6.390   4.764  14.951
   36DOPE  H18S 4596   6.505   4.782  15.096
   36DOPE  H18T 4597   6.587   4.760  14.934
   36DOPE   C33 4598   5.954   5.007  13.559
   36DOPE   H3X 4599   6.062   5.059  13.545
   36DOPE   H3Y 4600   5.971   4.886  13.555
   36DOPE   C34 4601   5.889   5.042  13.697
   36DOPE   H4X 4602   5.900   5.162  13.717
   36DOPE   H4Y 4603   5.771   5.019  13.690
   36DOPE   C35 4604   5.958   4.952  13.813
   36DOPE   H5X 4605   6.071   4.992  13.829
   36DOPE   H5Y 4606   5.968   4.835  13.784
   36DOPE   C36 4607   5.876   4.964  13.947
   36DOPE   H6X 4608   5.952   4.934  14.030
   36DOPE   H6Y 4609   5.786   4.883  13.952
   36DOPE   C37 4610   5.811   5.118  13.973
   36DOPE   H7X 4611   5.745   5.159  13.888
   36DOPE   H7Y 4612   5.729   5.109  14.053
   36DOPE   C38 4613   5.933   5.232  14.000
   36DOPE   H8X 4614   5.962   5.273  13.899
   36DOPE   H8Y 4615   6.030   5.169  14.036
   36DOPE   C39 4616   5.908   5.358  14.093
   36DOPE   H9X 4617   5.933   5.468  14.051
   36DOPE  C310 4618   5.860   5.347  14.220
   36DOPE  H10X 4619   5.849   5.447  14.281
   36DOPE  C311 4620   5.821   5.205  14.289
   36DOPE  H11X 4621   5.709   5.211  14.331
   36DOPE  H11Y 4622   5.816   5.113  14.218
   36DOPE  C312 4623   5.930   5.135  14.384
   36DOPE  H12X 4624   5.980   5.207  14.460
   36DOPE  H12Y 4625   6.019   5.095  14.316
   36DOPE  C313 4626   5.865   4.993  14.444
   36DOPE  H13X 4627   5.811   5.008  14.543
   36DOPE  H13Y 4628   5.781   4.954  14.374
   36DOPE  C314 4629   5.982   4.875  14.449
   36DOPE  H14X 4630   6.015   4.858  14.342
   36DOPE  H14Y 4631   5.941   4.769  14.487
   36DOPE  C315 4632   6.118   4.928  14.521
   36DOPE  H15X 4633   6.151   5.040  14.490
   36DOPE  H15Y 4634   6.212   4.864  14.487
   36DOPE  C316 4635   6.122   4.929  14.674
   36DOPE  H16X 4636   6.123   5.046  14.693
   36DOPE  H16Y 4637   6.230   4.892  14.709
   36DOPE  C317 4638   6.003   4.849  14.755
   36DOPE  H17X 4639   5.896   4.907  14.746
   36DOPE  H17Y 4640   5.987   4.735  14.716
   36DOPE  C318 4641   6.048   4.840  14.902
   36DOPE  H18X 4642   6.057   4.951  14.947
   36DOPE  H18Y 4643   5.970   4.774  14.961
   36DOPE  H18Z 4644   6.159   4.791  14.910
   37DOPE     N 4645   3.039   2.578  12.957
   37DOPE   HN1 4646   3.061   2.610  12.859
   37DOPE   HN2 4647   3.002   2.670  13.012
   37DOPE   HN3 4648   3.132   2.532  13.002
   37DOPE   C12 4649   2.906   2.479  12.955
   37DOPE  H12A 4650   2.896   2.429  13.055
   37DOPE  H12B 4651   2.922   2.392  12.879
   37DOPE   C11 4652   2.772   2.575  12.924
   37DOPE  H11A 4653   2.668   2.510  12.933
   37DOPE  H11B 4654   2.775   2.615  12.818
   37DOPE     P 4655   2.718   2.680  13.159
   37DOPE   O13 4656   2.850   2.720  13.240
   37DOPE   O14 4657   2.655   2.531  13.176
   37DOPE   O11 4658   2.598   2.805  13.157
   37DOPE   O12 4659   2.773   2.701  13.010
   37DOPE    C1 4660   2.629   2.946  13.214
   37DOPE    HA 4661   2.586   3.032  13.146
   37DOPE    HB 4662   2.749   2.969  13.228
   37DOPE    C2 4663   2.554   2.958  13.352
   37DOPE    HS 4664   2.595   3.060  13.401
   37DOPE   O21 4665   2.584   2.825  13.427
   37DOPE   C21 4666   2.655   2.842  13.540
   37DOPE   O22 4667   2.669   2.959  13.599
   37DOPE   C22 4668   2.724   2.695  13.589
   37DOPE   H2R 4669   2.809   2.664  13.515
   37DOPE   H2S 4670   2.633   2.612  13.584
   37DOPE    C3 4671   2.386   2.979  13.330
   37DOPE    HX 4672   2.344   2.884  13.270
   37DOPE    HY 4673   2.371   3.077  13.265
   37DOPE   O31 4674   2.313   3.004  13.456
   37DOPE   C31 4675   2.256   2.883  13.508
   37DOPE   O32 4676   2.230   2.772  13.445
   37DOPE   C32 4677   2.226   2.905  13.658
   37DOPE   H2X 4678   2.193   3.023  13.664
   37DOPE   H2Y 4679   2.133   2.837  13.690
   37DOPE   C23 4680   2.790   2.698  13.733
   37DOPE   H3R 4681   2.742   2.603  13.790
   37DOPE   H3S 4682   2.750   2.798  13.786
   37DOPE   C24 4683   2.959   2.692  13.746
   37DOPE   H4R 4684   3.010   2.738  13.655
   37DOPE   H4S 4685   2.992   2.574  13.752
   37DOPE   C25 4686   3.016   2.775  13.870
   37DOPE   H5R 4687   3.014   2.698  13.956
   37DOPE   H5S 4688   2.936   2.862  13.897
   37DOPE   C26 4689   3.171   2.847  13.863
   37DOPE   H6R 4690   3.170   2.962  13.828
   37DOPE   H6S 4691   3.243   2.787  13.791
   37DOPE   C27 4692   3.243   2.849  14.002
   37DOPE   H7R 4693   3.313   2.751  14.004
   37DOPE   H7S 4694   3.151   2.836  14.074
   37DOPE   C28 4695   3.351   2.969  14.044
   37DOPE   H8R 4696   3.410   3.007  13.956
   37DOPE   H8S 4697   3.434   2.917  14.111
   37DOPE   C29 4698   3.288   3.095  14.120
   37DOPE   H9R 4699   3.311   3.205  14.079
   37DOPE  C210 4700   3.209   3.086  14.232
   37DOPE  H10R 4701   3.169   3.190  14.273
   37DOPE  C211 4702   3.163   2.951  14.312
   37DOPE  H11R 4703   3.221   2.951  14.409
   37DOPE  H11S 4704   3.191   2.845  14.266
   37DOPE  C212 4705   2.995   2.955  14.341
   37DOPE  H12R 4706   2.968   2.864  14.412
   37DOPE  H12S 4707   2.933   2.933  14.247
   37DOPE  C213 4708   2.944   3.102  14.399
   37DOPE  H13R 4709   2.828   3.094  14.436
   37DOPE  H13S 4710   2.940   3.186  14.319
   37DOPE  C214 4711   3.046   3.164  14.508
   37DOPE  H14R 4712   3.018   3.281  14.519
   37DOPE  H14S 4713   3.163   3.169  14.476
   37DOPE  C215 4714   3.048   3.071  14.635
   37DOPE  H15R 4715   3.105   3.130  14.719
   37DOPE  H15S 4716   3.115   2.974  14.608
   37DOPE  C216 4717   2.904   3.003  14.685
   37DOPE  H16R 4718   2.845   2.948  14.602
   37DOPE  H16S 4719   2.828   3.083  14.732
   37DOPE  C217 4720   2.947   2.884  14.785
   37DOPE  H17R 4721   3.033   2.926  14.855
   37DOPE  H17S 4722   2.997   2.794  14.725
   37DOPE  C218 4723   2.818   2.825  14.862
   37DOPE  H18R 4724   2.718   2.831  14.798
   37DOPE  H18S 4725   2.797   2.886  14.954
   37DOPE  H18T 4726   2.841   2.708  14.889
   37DOPE   C33 4727   2.363   2.886  13.751
   37DOPE   H3X 4728   2.346   2.947  13.845
   37DOPE   H3Y 4729   2.454   2.947  13.704
   37DOPE   C34 4730   2.413   2.729  13.789
   37DOPE   H4X 4731   2.390   2.650  13.707
   37DOPE   H4Y 4732   2.533   2.732  13.802
   37DOPE   C35 4733   2.359   2.668  13.925
   37DOPE   H5X 4734   2.376   2.547  13.926
   37DOPE   H5Y 4735   2.240   2.691  13.934
   37DOPE   C36 4736   2.439   2.727  14.050
   37DOPE   H6X 4737   2.378   2.685  14.139
   37DOPE   H6Y 4738   2.434   2.849  14.050
   37DOPE   C37 4739   2.603   2.691  14.073
   37DOPE   H7X 4740   2.670   2.737  13.990
   37DOPE   H7Y 4741   2.632   2.754  14.165
   37DOPE   C38 4742   2.639   2.528  14.097
   37DOPE   H8X 4743   2.628   2.465  14.002
   37DOPE   H8Y 4744   2.559   2.481  14.169
   37DOPE   C39 4745   2.795   2.526  14.149
   37DOPE   H9X 4746   2.877   2.566  14.077
   37DOPE  C310 4747   2.841   2.482  14.270
   37DOPE  H10X 4748   2.959   2.496  14.293
   37DOPE  C311 4749   2.750   2.423  14.384
   37DOPE  H11X 4750   2.630   2.449  14.373
   37DOPE  H11Y 4751   2.759   2.301  14.386
   37DOPE  C312 4752   2.801   2.479  14.523
   37DOPE  H12X 4753   2.923   2.486  14.525
   37DOPE  H12Y 4754   2.769   2.397  14.600
   37DOPE  C313 4755   2.736   2.629  14.562
   37DOPE  H13X 4756   2.818   2.685  14.626
   37DOPE  H13Y 4757   2.722   2.697  14.470
   37DOPE  C314 4758   2.588   2.625  14.637
   37DOPE  H14X 4759   2.506   2.567  14.574
   37DOPE  H14Y 4760   2.550   2.740  14.651
   37DOPE  C315 4761   2.591   2.551  14.776
   37DOPE  H15X 4762   2.654   2.615  14.850
   37DOPE  H15Y 4763   2.647   2.444  14.774
   37DOPE  C316 4764   2.438   2.542  14.836
   37DOPE  H16X 4765   2.359   2.481  14.771
   37DOPE  H16Y 4766   2.396   2.658  14.841
   37DOPE  C317 4767   2.437   2.481  14.979
   37DOPE  H17X 4768   2.519   2.533  15.044
   37DOPE  H17Y 4769   2.335   2.520  15.021
   37DOPE  C318 4770   2.424   2.313  14.995
   37DOPE  H18X 4771   2.391   2.283  15.097
   37DOPE  H18Y 4772   2.339   2.268  14.928
   37DOPE  H18Z 4773   2.533   2.264  14.973
   38DOPE     N 4774   5.858   5.975  12.837
   38DOPE   HN1 4775   5.839   6.006  12.736
   38DOPE   HN2 4776   5.792   6.035  12.902
   38DOPE   HN3 4777   5.966   5.991  12.860
   38DOPE   C12 4778   5.822   5.817  12.854
   38DOPE  H12A 4779   5.897   5.753  12.788
   38DOPE  H12B 4780   5.707   5.798  12.822
   38DOPE   C11 4781   5.841   5.772  13.000
   38DOPE  H11A 4782   5.951   5.801  13.040
   38DOPE  H11B 4783   5.839   5.649  12.998
   38DOPE     P 4784   5.628   5.731  13.166
   38DOPE   O13 4785   5.610   5.592  13.088
   38DOPE   O14 4786   5.497   5.807  13.217
   38DOPE   O11 4787   5.743   5.709  13.282
   38DOPE   O12 4788   5.728   5.839  13.079
   38DOPE    C1 4789   5.761   5.833  13.371
   38DOPE    HA 4790   5.654   5.893  13.391
   38DOPE    HB 4791   5.839   5.915  13.329
   38DOPE    C2 4792   5.810   5.782  13.510
   38DOPE    HS 4793   5.908   5.708  13.496
   38DOPE   O21 4794   5.686   5.707  13.566
   38DOPE   C21 4795   5.717   5.603  13.652
   38DOPE   O22 4796   5.839   5.569  13.690
   38DOPE   C22 4797   5.570   5.547  13.710
   38DOPE   H2R 4798   5.510   5.492  13.628
   38DOPE   H2S 4799   5.509   5.646  13.742
   38DOPE    C3 4800   5.855   5.918  13.597
   38DOPE    HX 4801   5.759   5.993  13.600
   38DOPE    HY 4802   5.943   5.977  13.541
   38DOPE   O31 4803   5.912   5.882  13.729
   38DOPE   C31 4804   5.810   5.874  13.824
   38DOPE   O32 4805   5.680   5.903  13.810
   38DOPE   C32 4806   5.874   5.820  13.957
   38DOPE   H2X 4807   5.810   5.720  13.984
   38DOPE   H2Y 4808   5.990   5.787  13.942
   38DOPE   C23 4809   5.586   5.443  13.832
   38DOPE   H3R 4810   5.656   5.496  13.910
   38DOPE   H3S 4811   5.642   5.339  13.800
   38DOPE   C24 4812   5.435   5.406  13.892
   38DOPE   H4R 4813   5.371   5.344  13.816
   38DOPE   H4S 4814   5.374   5.511  13.911
   38DOPE   C25 4815   5.437   5.317  14.023
   38DOPE   H5R 4816   5.513   5.222  14.015
   38DOPE   H5S 4817   5.324   5.276  14.041
   38DOPE   C26 4818   5.480   5.410  14.144
   38DOPE   H6R 4819   5.421   5.515  14.135
   38DOPE   H6S 4820   5.599   5.436  14.140
   38DOPE   C27 4821   5.442   5.339  14.279
   38DOPE   H7R 4822   5.482   5.225  14.280
   38DOPE   H7S 4823   5.320   5.336  14.290
   38DOPE   C28 4824   5.510   5.425  14.396
   38DOPE   H8R 4825   5.469   5.540  14.386
   38DOPE   H8S 4826   5.631   5.430  14.385
   38DOPE   C29 4827   5.468   5.372  14.533
   38DOPE   H9R 4828   5.352   5.392  14.557
   38DOPE  C210 4829   5.555   5.316  14.630
   38DOPE  H10R 4830   5.506   5.304  14.729
   38DOPE  C211 4831   5.719   5.292  14.626
   38DOPE  H11R 4832   5.774   5.399  14.617
   38DOPE  H11S 4833   5.739   5.240  14.529
   38DOPE  C212 4834   5.808   5.202  14.731
   38DOPE  H12R 4835   5.907   5.165  14.675
   38DOPE  H12S 4836   5.756   5.100  14.764
   38DOPE  C213 4837   5.865   5.282  14.856
   38DOPE  H13R 4838   5.785   5.268  14.940
   38DOPE  H13S 4839   5.875   5.400  14.841
   38DOPE  C214 4840   6.020   5.235  14.895
   38DOPE  H14R 4841   6.068   5.173  14.815
   38DOPE  H14S 4842   6.009   5.162  14.985
   38DOPE  C215 4843   6.144   5.348  14.924
   38DOPE  H15R 4844   6.238   5.271  14.943
   38DOPE  H15S 4845   6.097   5.382  15.018
   38DOPE  C216 4846   6.199   5.479  14.829
   38DOPE  H16R 4847   6.168   5.462  14.723
   38DOPE  H16S 4848   6.303   5.419  14.835
   38DOPE  C217 4849   6.312   5.619  14.845
   38DOPE  H17R 4850   6.347   5.632  14.740
   38DOPE  H17S 4851   6.409   5.580  14.904
   38DOPE  C218 4852   6.298   5.783  14.893
   38DOPE  H18R 4853   6.214   5.800  14.971
   38DOPE  H18S 4854   6.271   5.858  14.809
   38DOPE  H18T 4855   6.404   5.822  14.934
   38DOPE   C33 4856   5.858   5.938  14.067
   38DOPE   H3X 4857   5.744   5.983  14.065
   38DOPE   H3Y 4858   5.929   6.034  14.041
   38DOPE   C34 4859   5.897   5.891  14.211
   38DOPE   H4X 4860   6.015   5.860  14.213
   38DOPE   H4Y 4861   5.884   5.987  14.278
   38DOPE   C35 4862   5.808   5.763  14.272
   38DOPE   H5X 4863   5.865   5.727  14.365
   38DOPE   H5Y 4864   5.808   5.667  14.203
   38DOPE   C36 4865   5.649   5.801  14.310
   38DOPE   H6X 4866   5.645   5.901  14.373
   38DOPE   H6Y 4867   5.607   5.710  14.373
   38DOPE   C37 4868   5.547   5.818  14.187
   38DOPE   H7X 4869   5.558   5.931  14.147
   38DOPE   H7Y 4870   5.585   5.740  14.109
   38DOPE   C38 4871   5.383   5.792  14.210
   38DOPE   H8X 4872   5.367   5.679  14.247
   38DOPE   H8Y 4873   5.327   5.799  14.111
   38DOPE   C39 4874   5.313   5.898  14.305
   38DOPE   H9X 4875   5.369   6.004  14.318
   38DOPE  C310 4876   5.194   5.866  14.380
   38DOPE  H10X 4877   5.154   5.949  14.450
   38DOPE  C311 4878   5.113   5.721  14.383
   38DOPE  H11X 4879   4.992   5.741  14.385
   38DOPE  H11Y 4880   5.135   5.653  14.293
   38DOPE  C312 4881   5.157   5.632  14.508
   38DOPE  H12X 4882   5.278   5.617  14.504
   38DOPE  H12Y 4883   5.105   5.521  14.507
   38DOPE  C313 4884   5.117   5.713  14.636
   38DOPE  H13X 4885   5.174   5.820  14.628
   38DOPE  H13Y 4886   4.997   5.733  14.642
   38DOPE  C314 4887   5.173   5.650  14.768
   38DOPE  H14X 4888   5.118   5.542  14.784
   38DOPE  H14Y 4889   5.141   5.720  14.854
   38DOPE  C315 4890   5.338   5.625  14.773
   38DOPE  H15X 4891   5.376   5.562  14.686
   38DOPE  H15Y 4892   5.346   5.553  14.860
   38DOPE  C316 4893   5.449   5.751  14.793
   38DOPE  H16X 4894   5.408   5.849  14.845
   38DOPE  H16Y 4895   5.496   5.785  14.694
   38DOPE  C317 4896   5.577   5.696  14.877
   38DOPE  H17X 4897   5.675   5.764  14.861
   38DOPE  H17Y 4898   5.551   5.701  14.984
   38DOPE  C318 4899   5.623   5.542  14.841
   38DOPE  H18X 4900   5.708   5.506  14.907
   38DOPE  H18Y 4901   5.541   5.456  14.860
   38DOPE  H18Z 4902   5.661   5.541  14.737
   39DOPE     N 4903   2.113   3.953  13.236
   39DOPE   HN1 4904   2.152   3.949  13.333
   39DOPE   HN2 4905   1.998   3.956  13.234
   39DOPE   HN3 4906   2.153   3.863  13.183
   39DOPE   C12 4907   2.159   4.090  13.164
   39DOPE  H12A 4908   2.279   4.093  13.151
   39DOPE  H12B 4909   2.119   4.181  13.226
   39DOPE   C11 4910   2.072   4.101  13.037
   39DOPE  H11A 4911   2.089   4.006  12.968
   39DOPE  H11B 4912   2.113   4.201  12.982
   39DOPE     P 4913   1.829   4.232  13.010
   39DOPE   O13 4914   1.683   4.235  13.069
   39DOPE   O14 4915   1.840   4.205  12.865
   39DOPE   O11 4916   1.918   4.374  13.043
   39DOPE   O12 4917   1.922   4.106  13.080
   39DOPE    C1 4918   1.861   4.513  13.002
   39DOPE    HA 4919   1.738   4.513  12.995
   39DOPE    HB 4920   1.906   4.542  12.902
   39DOPE    C2 4921   1.904   4.628  13.108
   39DOPE    HS 4922   1.880   4.738  13.068
   39DOPE   O21 4923   2.061   4.615  13.131
   39DOPE   C21 4924   2.123   4.603  13.249
   39DOPE   O22 4925   2.073   4.643  13.357
   39DOPE   C22 4926   2.270   4.524  13.236
   39DOPE   H2R 4927   2.361   4.598  13.268
   39DOPE   H2S 4928   2.284   4.492  13.129
   39DOPE    C3 4929   1.806   4.602  13.235
   39DOPE    HX 4930   1.689   4.605  13.202
   39DOPE    HY 4931   1.823   4.699  13.302
   39DOPE   O31 4932   1.837   4.464  13.300
   39DOPE   C31 4933   1.791   4.463  13.426
   39DOPE   O32 4934   1.722   4.562  13.478
   39DOPE   C32 4935   1.836   4.321  13.497
   39DOPE   H2X 4936   1.811   4.230  13.427
   39DOPE   H2Y 4937   1.956   4.323  13.516
   39DOPE   C23 4938   2.274   4.390  13.328
   39DOPE   H3R 4939   2.357   4.310  13.292
   39DOPE   H3S 4940   2.161   4.342  13.328
   39DOPE   C24 4941   2.302   4.421  13.477
   39DOPE   H4R 4942   2.215   4.496  13.516
   39DOPE   H4S 4943   2.410   4.477  13.489
   39DOPE   C25 4944   2.299   4.275  13.553
   39DOPE   H5R 4945   2.375   4.199  13.500
   39DOPE   H5S 4946   2.187   4.226  13.547
   39DOPE   C26 4947   2.351   4.283  13.698
   39DOPE   H6R 4948   2.409   4.389  13.717
   39DOPE   H6S 4949   2.434   4.194  13.710
   39DOPE   C27 4950   2.233   4.257  13.806
   39DOPE   H7R 4951   2.148   4.180  13.765
   39DOPE   H7S 4952   2.178   4.361  13.832
   39DOPE   C28 4953   2.305   4.181  13.928
   39DOPE   H8R 4954   2.404   4.243  13.960
   39DOPE   H8S 4955   2.349   4.079  13.885
   39DOPE   C29 4956   2.201   4.143  14.042
   39DOPE   H9R 4957   2.091   4.107  14.006
   39DOPE  C210 4958   2.224   4.141  14.175
   39DOPE  H10R 4959   2.133   4.106  14.240
   39DOPE  C211 4960   2.362   4.179  14.254
   39DOPE  H11R 4961   2.333   4.266  14.328
   39DOPE  H11S 4962   2.447   4.227  14.189
   39DOPE  C212 4963   2.435   4.052  14.333
   39DOPE  H12R 4964   2.516   4.100  14.405
   39DOPE  H12S 4965   2.501   3.990  14.258
   39DOPE  C213 4966   2.336   3.940  14.408
   39DOPE  H13R 4967   2.407   3.848  14.443
   39DOPE  H13S 4968   2.256   3.893  14.337
   39DOPE  C214 4969   2.250   3.997  14.529
   39DOPE  H14R 4970   2.159   3.916  14.548
   39DOPE  H14S 4971   2.194   4.102  14.500
   39DOPE  C215 4972   2.336   4.012  14.660
   39DOPE  H15R 4973   2.442   4.072  14.644
   39DOPE  H15S 4974   2.364   3.901  14.697
   39DOPE  C216 4975   2.245   4.094  14.767
   39DOPE  H16R 4976   2.291   4.076  14.868
   39DOPE  H16S 4977   2.131   4.051  14.764
   39DOPE  C217 4978   2.246   4.260  14.737
   39DOPE  H17R 4979   2.224   4.269  14.628
   39DOPE  H17S 4980   2.358   4.303  14.757
   39DOPE  C218 4981   2.135   4.359  14.805
   39DOPE  H18R 4982   2.119   4.462  14.747
   39DOPE  H18S 4983   2.176   4.391  14.906
   39DOPE  H18T 4984   2.026   4.306  14.814
   39DOPE   C33 4985   1.747   4.301  13.627
   39DOPE   H3X 4986   1.752   4.182  13.655
   39DOPE   H3Y 4987   1.630   4.331  13.604
   39DOPE   C34 4988   1.792   4.390  13.752
   39DOPE   H4X 4989   1.910   4.371  13.773
   39DOPE   H4Y 4990   1.775   4.510  13.733
   39DOPE   C35 4991   1.698   4.343  13.874
   39DOPE   H5X 4992   1.709   4.222  13.886
   39DOPE   H5Y 4993   1.581   4.368  13.854
   39DOPE   C36 4994   1.742   4.418  14.007
   39DOPE   H6X 4995   1.716   4.536  13.998
   39DOPE   H6Y 4996   1.863   4.408  14.021
   39DOPE   C37 4997   1.662   4.353  14.129
   39DOPE   H7X 4998   1.543   4.339  14.103
   39DOPE   H7Y 4999   1.706   4.240  14.150
   39DOPE   C38 5000   1.669   4.447  14.257
   39DOPE   H8X 5001   1.609   4.387  14.337
   39DOPE   H8Y 5002   1.602   4.549  14.240
   39DOPE   C39 5003   1.821   4.495  14.303
   39DOPE   H9X 5004   1.888   4.543  14.223
   39DOPE  C310 5005   1.887   4.473  14.423
   39DOPE  H10X 5006   2.000   4.511  14.434
   39DOPE  C311 5007   1.830   4.394  14.546
   39DOPE  H11X 5008   1.755   4.315  14.504
   39DOPE  H11Y 5009   1.929   4.334  14.578
   39DOPE  C312 5010   1.757   4.469  14.672
   39DOPE  H12X 5011   1.661   4.528  14.629
   39DOPE  H12Y 5012   1.840   4.551  14.710
   39DOPE  C313 5013   1.697   4.394  14.807
   39DOPE  H13X 5014   1.780   4.356  14.879
   39DOPE  H13Y 5015   1.679   4.510  14.841
   39DOPE  C314 5016   1.532   4.353  14.847
   39DOPE  H14X 5017   1.452   4.375  14.766
   39DOPE  H14Y 5018   1.503   4.438  14.924
   39DOPE  C315 5019   1.484   4.222  14.938
   39DOPE  H15X 5020   1.367   4.250  14.956
   39DOPE  H15Y 5021   1.537   4.234  15.037
   39DOPE  C316 5022   1.466   4.058  14.899
   39DOPE  H16X 5023   1.500   4.034  14.795
   39DOPE  H16Y 5024   1.345   4.033  14.903
   39DOPE  C317 5025   1.531   3.949  14.999
   39DOPE  H17X 5026   1.451   3.944  15.083
   39DOPE  H17Y 5027   1.533   3.838  14.950
   39DOPE  C318 5028   1.683   3.991  15.055
   39DOPE  H18X 5029   1.702   3.955  15.159
   39DOPE  H18Y 5030   1.770   3.946  14.992
   39DOPE  H18Z 5031   1.705   4.111  15.058
   40DOPE     N 5032   4.544   6.585  13.301
   40DOPE   HN1 5033   4.530   6.479  13.262
   40DOPE   HN2 5034   4.562   6.581  13.403
   40DOPE   HN3 5035   4.444   6.637  13.276
   40DOPE   C12 5036   4.668   6.651  13.222
   40DOPE  H12A 5037   4.760   6.570  13.223
   40DOPE  H12B 5038   4.703   6.754  13.271
   40DOPE   C11 5039   4.621   6.680  13.076
   40DOPE  H11A 5040   4.720   6.704  13.014
   40DOPE  H11B 5041   4.553   6.784  13.073
   40DOPE     P 5042   4.375   6.566  12.996
   40DOPE   O13 5043   4.313   6.423  12.958
   40DOPE   O14 5044   4.339   6.698  12.917
   40DOPE   O11 5045   4.326   6.596  13.144
   40DOPE   O12 5046   4.546   6.555  13.023
   40DOPE    C1 5047   4.203   6.523  13.201
   40DOPE    HA 5048   4.242   6.437  13.272
   40DOPE    HB 5049   4.129   6.468  13.126
   40DOPE    C2 5050   4.112   6.639  13.276
   40DOPE    HS 5051   4.037   6.690  13.200
   40DOPE   O21 5052   4.210   6.746  13.333
   40DOPE   C21 5053   4.136   6.864  13.374
   40DOPE   O22 5054   4.005   6.883  13.358
   40DOPE   C22 5055   4.240   6.973  13.441
   40DOPE   H2R 5056   4.171   7.047  13.503
   40DOPE   H2S 5057   4.288   7.041  13.359
   40DOPE    C3 5058   4.021   6.560  13.384
   40DOPE    HX 5059   3.956   6.472  13.332
   40DOPE    HY 5060   3.942   6.637  13.433
   40DOPE   O31 5061   4.123   6.501  13.480
   40DOPE   C31 5062   4.062   6.401  13.557
   40DOPE   O32 5063   3.937   6.355  13.545
   40DOPE   C32 5064   4.179   6.346  13.656
   40DOPE   H2X 5065   4.270   6.299  13.595
   40DOPE   H2Y 5066   4.222   6.438  13.716
   40DOPE   C23 5067   4.366   6.905  13.525
   40DOPE   H3R 5068   4.460   6.984  13.522
   40DOPE   H3S 5069   4.406   6.799  13.483
   40DOPE   C24 5070   4.327   6.885  13.674
   40DOPE   H4R 5071   4.297   6.994  13.715
   40DOPE   H4S 5072   4.428   6.847  13.728
   40DOPE   C25 5073   4.202   6.775  13.700
   40DOPE   H5R 5074   4.224   6.673  13.642
   40DOPE   H5S 5075   4.097   6.823  13.663
   40DOPE   C26 5076   4.184   6.734  13.848
   40DOPE   H6R 5077   4.271   6.654  13.875
   40DOPE   H6S 5078   4.076   6.680  13.862
   40DOPE   C27 5079   4.199   6.867  13.941
   40DOPE   H7R 5080   4.149   6.963  13.889
   40DOPE   H7S 5081   4.316   6.893  13.960
   40DOPE   C28 5082   4.115   6.853  14.075
   40DOPE   H8R 5083   4.004   6.813  14.050
   40DOPE   H8S 5084   4.100   6.966  14.115
   40DOPE   C29 5085   4.177   6.754  14.181
   40DOPE   H9R 5086   4.145   6.639  14.171
   40DOPE  C210 5087   4.265   6.796  14.282
   40DOPE  H10R 5088   4.298   6.712  14.356
   40DOPE  C211 5089   4.319   6.950  14.310
   40DOPE  H11R 5090   4.292   6.982  14.414
   40DOPE  H11S 5091   4.266   7.032  14.244
   40DOPE  C212 5092   4.487   6.961  14.287
   40DOPE  H12R 5093   4.522   7.076  14.302
   40DOPE  H12S 5094   4.511   6.931  14.181
   40DOPE  C213 5095   4.579   6.863  14.379
   40DOPE  H13R 5096   4.698   6.874  14.355
   40DOPE  H13S 5097   4.549   6.750  14.358
   40DOPE  C214 5098   4.553   6.887  14.528
   40DOPE  H14R 5099   4.436   6.859  14.553
   40DOPE  H14S 5100   4.572   7.005  14.551
   40DOPE  C215 5101   4.652   6.791  14.616
   40DOPE  H15R 5102   4.770   6.808  14.587
   40DOPE  H15S 5103   4.627   6.674  14.599
   40DOPE  C216 5104   4.630   6.831  14.763
   40DOPE  H16R 5105   4.511   6.818  14.789
   40DOPE  H16S 5106   4.659   6.949  14.777
   40DOPE  C217 5107   4.721   6.739  14.859
   40DOPE  H17R 5108   4.728   6.798  14.956
   40DOPE  H17S 5109   4.836   6.730  14.819
   40DOPE  C218 5110   4.659   6.585  14.884
   40DOPE  H18R 5111   4.712   6.527  14.968
   40DOPE  H18S 5112   4.678   6.514  14.796
   40DOPE  H18T 5113   4.540   6.589  14.908
   40DOPE   C33 5114   4.120   6.224  13.748
   40DOPE   H3X 5115   4.209   6.153  13.787
   40DOPE   H3Y 5116   4.044   6.157  13.685
   40DOPE   C34 5117   4.025   6.279  13.863
   40DOPE   H4X 5118   3.973   6.385  13.835
   40DOPE   H4Y 5119   3.936   6.195  13.876
   40DOPE   C35 5120   4.091   6.287  14.002
   40DOPE   H5X 5121   4.104   6.173  14.042
   40DOPE   H5Y 5122   4.006   6.340  14.065
   40DOPE   C36 5123   4.234   6.369  14.027
   40DOPE   H6X 5124   4.227   6.484  13.993
   40DOPE   H6Y 5125   4.327   6.315  13.976
   40DOPE   C37 5126   4.237   6.370  14.179
   40DOPE   H7X 5127   4.145   6.439  14.215
   40DOPE   H7Y 5128   4.207   6.255  14.213
   40DOPE   C38 5129   4.377   6.395  14.261
   40DOPE   H8X 5130   4.442   6.302  14.236
   40DOPE   H8Y 5131   4.325   6.373  14.358
   40DOPE   C39 5132   4.499   6.503  14.276
   40DOPE   H9X 5133   4.498   6.601  14.210
   40DOPE  C310 5134   4.609   6.479  14.365
   40DOPE  H10X 5135   4.707   6.550  14.365
   40DOPE  C311 5136   4.623   6.346  14.457
   40DOPE  H11X 5137   4.590   6.245  14.404
   40DOPE  H11Y 5138   4.742   6.329  14.481
   40DOPE  C312 5139   4.541   6.348  14.594
   40DOPE  H12X 5140   4.573   6.450  14.645
   40DOPE  H12Y 5141   4.578   6.253  14.656
   40DOPE  C313 5142   4.372   6.349  14.586
   40DOPE  H13X 5143   4.344   6.449  14.528
   40DOPE  H13Y 5144   4.333   6.249  14.533
   40DOPE  C314 5145   4.285   6.371  14.714
   40DOPE  H14X 5146   4.332   6.310  14.800
   40DOPE  H14Y 5147   4.171   6.328  14.697
   40DOPE  C315 5148   4.272   6.535  14.742
   40DOPE  H15X 5149   4.220   6.591  14.655
   40DOPE  H15Y 5150   4.385   6.582  14.752
   40DOPE  C316 5151   4.182   6.568  14.867
   40DOPE  H16X 5152   4.228   6.504  14.953
   40DOPE  H16Y 5153   4.068   6.530  14.850
   40DOPE  C317 5154   4.182   6.732  14.900
   40DOPE  H17X 5155   4.296   6.767  14.928
   40DOPE  H17Y 5156   4.153   6.795  14.808
   40DOPE  C318 5157   4.074   6.768  15.012
   40DOPE  H18X 5158   4.051   6.888  15.016
   40DOPE  H18Y 5159   3.968   6.710  14.994
   40DOPE  H18Z 5160   4.118   6.730  15.110
   41DOPE     N 5161   2.234   5.525  13.167
   41DOPE   HN1 5162   2.298   5.600  13.224
   41DOPE   HN2 5163   2.291   5.429  13.146
   41DOPE   HN3 5164   2.203   5.578  13.079
   41DOPE   C12 5165   2.092   5.498  13.239
   41DOPE  H12A 5166   2.060   5.602  13.290
   41DOPE  H12B 5167   2.112   5.414  13.317
   41DOPE   C11 5168   1.969   5.448  13.140
   41DOPE  H11A 5169   1.861   5.449  13.195
   41DOPE  H11B 5170   1.994   5.332  13.115
   41DOPE     P 5171   1.899   5.688  13.010
   41DOPE   O13 5172   1.758   5.701  13.082
   41DOPE   O14 5173   1.917   5.760  12.878
   41DOPE   O11 5174   2.028   5.746  13.100
   41DOPE   O12 5175   1.958   5.525  13.015
   41DOPE    C1 5176   2.142   5.848  13.068
   41DOPE    HA 5177   2.135   5.883  12.961
   41DOPE    HB 5178   2.253   5.798  13.080
   41DOPE    C2 5179   2.124   5.988  13.155
   41DOPE    HS 5180   2.163   6.083  13.093
   41DOPE   O21 5181   2.198   5.999  13.282
   41DOPE   C21 5182   2.242   5.885  13.348
   41DOPE   O22 5183   2.313   5.781  13.304
   41DOPE   C22 5184   2.185   5.900  13.489
   41DOPE   H2R 5185   2.065   5.916  13.481
   41DOPE   H2S 5186   2.235   6.003  13.531
   41DOPE    C3 5187   1.960   6.008  13.186
   41DOPE    HX 5188   1.903   5.976  13.093
   41DOPE    HY 5189   1.935   6.127  13.201
   41DOPE   O31 5190   1.904   5.914  13.292
   41DOPE   C31 5191   1.791   5.974  13.354
   41DOPE   O32 5192   1.757   6.103  13.348
   41DOPE   C32 5193   1.701   5.877  13.442
   41DOPE   H2X 5194   1.717   5.917  13.546
   41DOPE   H2Y 5195   1.584   5.903  13.413
   41DOPE   C23 5196   2.219   5.767  13.579
   41DOPE   H3R 5197   2.341   5.754  13.584
   41DOPE   H3S 5198   2.173   5.664  13.536
   41DOPE   C24 5199   2.161   5.783  13.723
   41DOPE   H4R 5200   2.039   5.778  13.727
   41DOPE   H4S 5201   2.198   5.892  13.762
   41DOPE   C25 5202   2.231   5.661  13.807
   41DOPE   H5R 5203   2.352   5.673  13.794
   41DOPE   H5S 5204   2.198   5.553  13.763
   41DOPE   C26 5205   2.202   5.655  13.957
   41DOPE   H6R 5206   2.100   5.716  13.985
   41DOPE   H6S 5207   2.296   5.711  14.007
   41DOPE   C27 5208   2.192   5.496  14.009
   41DOPE   H7R 5209   2.284   5.426  13.971
   41DOPE   H7S 5210   2.090   5.448  13.965
   41DOPE   C28 5211   2.181   5.481  14.162
   41DOPE   H8R 5212   2.131   5.374  14.187
   41DOPE   H8S 5213   2.101   5.567  14.190
   41DOPE   C29 5214   2.311   5.506  14.252
   41DOPE   H9R 5215   2.374   5.406  14.282
   41DOPE  C210 5216   2.362   5.636  14.293
   41DOPE  H10R 5217   2.457   5.639  14.360
   41DOPE  C211 5218   2.298   5.784  14.256
   41DOPE  H11R 5219   2.198   5.774  14.194
   41DOPE  H11S 5220   2.380   5.848  14.197
   41DOPE  C212 5221   2.254   5.873  14.379
   41DOPE  H12R 5222   2.181   5.804  14.441
   41DOPE  H12S 5223   2.186   5.968  14.348
   41DOPE  C213 5224   2.389   5.927  14.457
   41DOPE  H13R 5225   2.461   5.992  14.388
   41DOPE  H13S 5226   2.454   5.830  14.489
   41DOPE  C214 5227   2.353   6.018  14.582
   41DOPE  H14R 5228   2.312   6.129  14.555
   41DOPE  H14S 5229   2.455   6.030  14.642
   41DOPE  C215 5230   2.232   5.948  14.666
   41DOPE  H15R 5231   2.232   5.829  14.645
   41DOPE  H15S 5232   2.125   5.991  14.631
   41DOPE  C216 5233   2.255   5.965  14.816
   41DOPE  H16R 5234   2.280   6.083  14.834
   41DOPE  H16S 5235   2.355   5.903  14.846
   41DOPE  C217 5236   2.124   5.912  14.903
   41DOPE  H17R 5237   2.147   5.941  15.009
   41DOPE  H17S 5238   2.123   5.790  14.896
   41DOPE  C218 5239   1.970   5.970  14.866
   41DOPE  H18R 5240   1.958   6.087  14.892
   41DOPE  H18S 5241   1.884   5.907  14.922
   41DOPE  H18T 5242   1.947   5.957  14.758
   41DOPE   C33 5243   1.714   5.710  13.441
   41DOPE   H3X 5244   1.818   5.677  13.491
   41DOPE   H3Y 5245   1.713   5.658  13.341
   41DOPE   C34 5246   1.575   5.667  13.519
   41DOPE   H4X 5247   1.547   5.754  13.593
   41DOPE   H4Y 5248   1.481   5.661  13.448
   41DOPE   C35 5249   1.594   5.523  13.591
   41DOPE   H5X 5250   1.615   5.457  13.502
   41DOPE   H5Y 5251   1.491   5.486  13.641
   41DOPE   C36 5252   1.723   5.519  13.687
   41DOPE   H6X 5253   1.830   5.513  13.635
   41DOPE   H6Y 5254   1.716   5.414  13.745
   41DOPE   C37 5255   1.718   5.656  13.777
   41DOPE   H7X 5256   1.775   5.749  13.726
   41DOPE   H7Y 5257   1.602   5.691  13.792
   41DOPE   C38 5258   1.782   5.628  13.915
   41DOPE   H8X 5259   1.786   5.731  13.973
   41DOPE   H8Y 5260   1.898   5.587  13.903
   41DOPE   C39 5261   1.682   5.514  13.976
   41DOPE   H9X 5262   1.583   5.485  13.919
   41DOPE  C310 5263   1.705   5.447  14.092
   41DOPE  H10X 5264   1.630   5.361  14.129
   41DOPE  C311 5265   1.837   5.481  14.174
   41DOPE  H11X 5266   1.913   5.387  14.172
   41DOPE  H11Y 5267   1.895   5.580  14.136
   41DOPE  C312 5268   1.790   5.516  14.316
   41DOPE  H12X 5269   1.734   5.420  14.362
   41DOPE  H12Y 5270   1.714   5.613  14.316
   41DOPE  C313 5271   1.924   5.556  14.400
   41DOPE  H13X 5272   2.005   5.465  14.391
   41DOPE  H13Y 5273   1.977   5.657  14.359
   41DOPE  C314 5274   1.884   5.581  14.546
   41DOPE  H14X 5275   1.848   5.475  14.589
   41DOPE  H14Y 5276   1.791   5.660  14.552
   41DOPE  C315 5277   2.015   5.640  14.625
   41DOPE  H15X 5278   1.989   5.642  14.733
   41DOPE  H15Y 5279   2.031   5.755  14.592
   41DOPE  C316 5280   2.153   5.546  14.598
   41DOPE  H16X 5281   2.196   5.569  14.496
   41DOPE  H16Y 5282   2.114   5.430  14.595
   41DOPE  C317 5283   2.284   5.553  14.695
   41DOPE  H17X 5284   2.347   5.656  14.684
   41DOPE  H17Y 5285   2.243   5.546  14.800
   41DOPE  C318 5286   2.391   5.427  14.668
   41DOPE  H18X 5287   2.330   5.324  14.666
   41DOPE  H18Y 5288   2.444   5.440  14.569
   41DOPE  H18Z 5289   2.475   5.414  14.747
   42DOPE     N 5290   1.782   4.923  12.916
   42DOPE   HN1 5291   1.734   4.828  12.954
   42DOPE   HN2 5292   1.744   4.934  12.818
   42DOPE   HN3 5293   1.898   4.913  12.918
   42DOPE   C12 5294   1.728   5.047  13.001
   42DOPE  H12A 5295   1.779   5.150  12.964
   42DOPE  H12B 5296   1.764   5.026  13.106
   42DOPE   C11 5297   1.560   5.053  12.995
   42DOPE  H11A 5298   1.527   5.102  12.897
   42DOPE  H11B 5299   1.523   5.134  13.073
   42DOPE     P 5300   1.387   4.869  13.128
   42DOPE   O13 5301   1.483   4.838  13.244
   42DOPE   O14 5302   1.279   4.757  13.082
   42DOPE   O11 5303   1.312   5.022  13.151
   42DOPE   O12 5304   1.495   4.909  13.008
   42DOPE    C1 5305   1.218   5.100  13.063
   42DOPE    HA 5306   1.145   5.023  13.007
   42DOPE    HB 5307   1.284   5.161  12.989
   42DOPE    C2 5308   1.120   5.210  13.142
   42DOPE    HS 5309   1.059   5.281  13.071
   42DOPE   O21 5310   1.199   5.300  13.235
   42DOPE   C21 5311   1.323   5.359  13.202
   42DOPE   O22 5312   1.357   5.408  13.092
   42DOPE   C22 5313   1.418   5.364  13.330
   42DOPE   H2R 5314   1.342   5.372  13.417
   42DOPE   H2S 5315   1.486   5.464  13.325
   42DOPE    C3 5316   1.008   5.128  13.229
   42DOPE    HX 5317   0.928   5.073  13.160
   42DOPE    HY 5318   0.943   5.206  13.292
   42DOPE   O31 5319   1.079   5.016  13.307
   42DOPE   C31 5320   1.131   5.051  13.426
   42DOPE   O32 5321   1.122   5.171  13.479
   42DOPE   C32 5322   1.186   4.910  13.494
   42DOPE   H2X 5323   1.093   4.862  13.552
   42DOPE   H2Y 5324   1.218   4.830  13.415
   42DOPE   C23 5325   1.514   5.222  13.341
   42DOPE   H3R 5326   1.599   5.226  13.263
   42DOPE   H3S 5327   1.441   5.126  13.323
   42DOPE   C24 5328   1.586   5.188  13.476
   42DOPE   H4R 5329   1.502   5.182  13.555
   42DOPE   H4S 5330   1.668   5.270  13.507
   42DOPE   C25 5331   1.690   5.055  13.479
   42DOPE   H5R 5332   1.761   5.061  13.389
   42DOPE   H5S 5333   1.629   4.949  13.474
   42DOPE   C26 5334   1.790   5.063  13.603
   42DOPE   H6R 5335   1.867   5.157  13.589
   42DOPE   H6S 5336   1.855   4.961  13.607
   42DOPE   C27 5337   1.708   5.090  13.736
   42DOPE   H7R 5338   1.632   4.996  13.754
   42DOPE   H7S 5339   1.639   5.191  13.731
   42DOPE   C28 5340   1.813   5.109  13.855
   42DOPE   H8R 5341   1.748   5.139  13.945
   42DOPE   H8S 5342   1.890   5.202  13.837
   42DOPE   C29 5343   1.894   4.966  13.869
   42DOPE   H9R 5344   1.983   4.948  13.798
   42DOPE  C210 5345   1.857   4.858  13.953
   42DOPE  H10R 5346   1.919   4.754  13.951
   42DOPE  C211 5347   1.727   4.860  14.046
   42DOPE  H11R 5348   1.659   4.760  14.033
   42DOPE  H11S 5349   1.652   4.956  14.031
   42DOPE  C212 5350   1.788   4.868  14.188
   42DOPE  H12R 5351   1.858   4.966  14.203
   42DOPE  H12S 5352   1.858   4.770  14.208
   42DOPE  C213 5353   1.664   4.873  14.290
   42DOPE  H13R 5354   1.580   4.788  14.265
   42DOPE  H13S 5355   1.609   4.982  14.286
   42DOPE  C214 5356   1.723   4.844  14.431
   42DOPE  H14R 5357   1.792   4.938  14.464
   42DOPE  H14S 5358   1.793   4.745  14.431
   42DOPE  C215 5359   1.598   4.820  14.530
   42DOPE  H15R 5360   1.531   4.723  14.499
   42DOPE  H15S 5361   1.527   4.918  14.529
   42DOPE  C216 5362   1.659   4.799  14.671
   42DOPE  H16R 5363   1.775   4.766  14.665
   42DOPE  H16S 5364   1.595   4.708  14.720
   42DOPE  C217 5365   1.636   4.934  14.759
   42DOPE  H17R 5366   1.626   5.034  14.696
   42DOPE  H17S 5367   1.728   4.951  14.830
   42DOPE  C218 5368   1.494   4.907  14.835
   42DOPE  H18R 5369   1.500   4.832  14.921
   42DOPE  H18S 5370   1.420   4.848  14.764
   42DOPE  H18T 5371   1.440   5.010  14.865
   42DOPE   C33 5372   1.319   4.936  13.586
   42DOPE   H3X 5373   1.410   4.970  13.519
   42DOPE   H3Y 5374   1.353   4.829  13.630
   42DOPE   C34 5375   1.299   5.048  13.700
   42DOPE   H4X 5376   1.403   5.051  13.759
   42DOPE   H4Y 5377   1.285   5.161  13.659
   42DOPE   C35 5378   1.170   5.014  13.792
   42DOPE   H5X 5379   1.195   4.910  13.846
   42DOPE   H5Y 5380   1.070   4.993  13.730
   42DOPE   C36 5381   1.130   5.138  13.890
   42DOPE   H6X 5382   1.052   5.092  13.964
   42DOPE   H6Y 5383   1.068   5.223  13.832
   42DOPE   C37 5384   1.255   5.220  13.963
   42DOPE   H7X 5385   1.319   5.284  13.889
   42DOPE   H7Y 5386   1.201   5.300  14.032
   42DOPE   C38 5387   1.363   5.124  14.044
   42DOPE   H8X 5388   1.424   5.195  14.115
   42DOPE   H8Y 5389   1.445   5.078  13.974
   42DOPE   C39 5390   1.286   4.998  14.115
   42DOPE   H9X 5391   1.242   4.915  14.046
   42DOPE  C310 5392   1.272   4.971  14.246
   42DOPE  H10X 5393   1.213   4.870  14.274
   42DOPE  C311 5394   1.326   5.056  14.365
   42DOPE  H11X 5395   1.349   4.969  14.439
   42DOPE  H11Y 5396   1.430   5.115  14.347
   42DOPE  C312 5397   1.215   5.159  14.434
   42DOPE  H12X 5398   1.112   5.096  14.446
   42DOPE  H12Y 5399   1.195   5.259  14.373
   42DOPE  C313 5400   1.256   5.200  14.578
   42DOPE  H13X 5401   1.364   5.256  14.578
   42DOPE  H13Y 5402   1.174   5.275  14.621
   42DOPE  C314 5403   1.267   5.067  14.671
   42DOPE  H14X 5404   1.255   5.105  14.776
   42DOPE  H14Y 5405   1.378   5.025  14.649
   42DOPE  C315 5406   1.160   4.938  14.654
   42DOPE  H15X 5407   1.186   4.871  14.565
   42DOPE  H15Y 5408   1.055   4.997  14.641
   42DOPE  C316 5409   1.143   4.838  14.778
   42DOPE  H16X 5410   1.043   4.876  14.829
   42DOPE  H16Y 5411   1.229   4.863  14.851
   42DOPE  C317 5412   1.144   4.668  14.761
   42DOPE  H17X 5413   1.064   4.630  14.687
   42DOPE  H17Y 5414   1.254   4.633  14.725
   42DOPE  C318 5415   1.104   4.584  14.888
   42DOPE  H18X 5416   1.072   4.469  14.862
   42DOPE  H18Y 5417   1.198   4.583  14.960
   42DOPE  H18Z 5418   1.010   4.635  14.939
   43DOPE     N 5419   1.453   3.774  13.115
   43DOPE   HN1 5420   1.352   3.824  13.098
   43DOPE   HN2 5421   1.448   3.721  13.207
   43DOPE   HN3 5422   1.529   3.860  13.120
   43DOPE   C12 5423   1.493   3.666  13.006
   43DOPE  H12A 5424   1.596   3.609  13.037
   43DOPE  H12B 5425   1.517   3.730  12.915
   43DOPE   C11 5426   1.371   3.553  12.978
   43DOPE  H11A 5427   1.399   3.491  12.885
   43DOPE  H11B 5428   1.267   3.611  12.952
   43DOPE     P 5429   1.426   3.301  13.099
   43DOPE   O13 5430   1.544   3.315  13.200
   43DOPE   O14 5431   1.467   3.256  12.962
   43DOPE   O11 5432   1.299   3.197  13.150
   43DOPE   O12 5433   1.344   3.457  13.090
   43DOPE    C1 5434   1.179   3.247  13.230
   43DOPE    HA 5435   1.112   3.149  13.258
   43DOPE    HB 5436   1.107   3.322  13.173
   43DOPE    C2 5437   1.220   3.324  13.366
   43DOPE    HS 5438   1.273   3.431  13.340
   43DOPE   O21 5439   1.316   3.231  13.443
   43DOPE   C21 5440   1.427   3.299  13.503
   43DOPE   O22 5441   1.449   3.431  13.505
   43DOPE   C22 5442   1.526   3.188  13.575
   43DOPE   H2R 5443   1.615   3.250  13.625
   43DOPE   H2S 5444   1.575   3.117  13.496
   43DOPE    C3 5445   1.072   3.357  13.442
   43DOPE    HX 5446   1.013   3.249  13.440
   43DOPE    HY 5447   1.008   3.438  13.384
   43DOPE   O31 5448   1.095   3.410  13.576
   43DOPE   C31 5449   0.984   3.373  13.659
   43DOPE   O32 5450   0.875   3.306  13.626
   43DOPE   C32 5451   1.027   3.409  13.802
   43DOPE   H2X 5452   1.066   3.303  13.845
   43DOPE   H2Y 5453   1.120   3.488  13.802
   43DOPE   C23 5454   1.447   3.090  13.679
   43DOPE   H3R 5455   1.527   3.007  13.716
   43DOPE   H3S 5456   1.354   3.028  13.632
   43DOPE   C24 5457   1.388   3.172  13.802
   43DOPE   H4R 5458   1.293   3.242  13.771
   43DOPE   H4S 5459   1.473   3.247  13.845
   43DOPE   C25 5460   1.341   3.062  13.909
   43DOPE   H5R 5461   1.441   3.028  13.965
   43DOPE   H5S 5462   1.296   2.962  13.861
   43DOPE   C26 5463   1.224   3.121  14.006
   43DOPE   H6R 5464   1.113   3.086  13.973
   43DOPE   H6S 5465   1.228   3.243  14.007
   43DOPE   C27 5466   1.256   3.066  14.147
   43DOPE   H7R 5467   1.294   2.949  14.139
   43DOPE   H7S 5468   1.155   3.070  14.210
   43DOPE   C28 5469   1.376   3.157  14.212
   43DOPE   H8R 5470   1.329   3.268  14.231
   43DOPE   H8S 5471   1.467   3.172  14.139
   43DOPE   C29 5472   1.436   3.089  14.337
   43DOPE   H9R 5473   1.400   2.975  14.361
   43DOPE  C210 5474   1.526   3.161  14.419
   43DOPE  H10R 5475   1.562   3.110  14.512
   43DOPE  C211 5476   1.576   3.318  14.395
   43DOPE  H11R 5477   1.518   3.374  14.312
   43DOPE  H11S 5478   1.695   3.321  14.369
   43DOPE  C212 5479   1.549   3.403  14.523
   43DOPE  H12R 5480   1.438   3.387  14.567
   43DOPE  H12S 5481   1.565   3.523  14.501
   43DOPE  C213 5482   1.657   3.366  14.630
   43DOPE  H13R 5483   1.762   3.387  14.579
   43DOPE  H13S 5484   1.653   3.249  14.662
   43DOPE  C214 5485   1.643   3.472  14.745
   43DOPE  H14R 5486   1.593   3.576  14.709
   43DOPE  H14S 5487   1.758   3.499  14.771
   43DOPE  C215 5488   1.560   3.410  14.864
   43DOPE  H15R 5489   1.452   3.365  14.830
   43DOPE  H15S 5490   1.536   3.505  14.932
   43DOPE  C216 5491   1.647   3.292  14.941
   43DOPE  H16R 5492   1.766   3.315  14.936
   43DOPE  H16S 5493   1.630   3.184  14.891
   43DOPE  C217 5494   1.602   3.283  15.089
   43DOPE  H17R 5495   1.511   3.364  15.103
   43DOPE  H17S 5496   1.692   3.326  15.153
   43DOPE  C218 5497   1.566   3.127  15.140
   43DOPE  H18R 5498   1.452   3.104  15.168
   43DOPE  H18S 5499   1.636   3.102  15.229
   43DOPE  H18T 5500   1.595   3.047  15.061
   43DOPE   C33 5501   0.899   3.467  13.889
   43DOPE   H3X 5502   0.792   3.420  13.855
   43DOPE   H3Y 5503   0.892   3.588  13.878
   43DOPE   C34 5504   0.919   3.427  14.037
   43DOPE   H4X 5505   0.824   3.469  14.096
   43DOPE   H4Y 5506   0.924   3.306  14.048
   43DOPE   C35 5507   1.058   3.496  14.091
   43DOPE   H5X 5508   1.054   3.616  14.073
   43DOPE   H5Y 5509   1.157   3.455  14.038
   43DOPE   C36 5510   1.081   3.472  14.241
   43DOPE   H6X 5511   1.101   3.354  14.264
   43DOPE   H6Y 5512   0.983   3.508  14.299
   43DOPE   C37 5513   1.212   3.567  14.277
   43DOPE   H7X 5514   1.301   3.545  14.202
   43DOPE   H7Y 5515   1.179   3.683  14.268
   43DOPE   C38 5516   1.277   3.545  14.414
   43DOPE   H8X 5517   1.386   3.600  14.411
   43DOPE   H8Y 5518   1.296   3.425  14.419
   43DOPE   C39 5519   1.197   3.605  14.532
   43DOPE   H9X 5520   1.194   3.725  14.541
   43DOPE  C310 5521   1.134   3.521  14.627
   43DOPE  H10X 5522   1.091   3.578  14.714
   43DOPE  C311 5523   1.132   3.356  14.634
   43DOPE  H11X 5524   1.207   3.303  14.560
   43DOPE  H11Y 5525   1.173   3.322  14.732
   43DOPE  C312 5526   0.978   3.289  14.611
   43DOPE  H12X 5527   0.935   3.335  14.515
   43DOPE  H12Y 5528   0.901   3.322  14.692
   43DOPE  C313 5529   0.980   3.121  14.599
   43DOPE  H13X 5530   0.878   3.086  14.547
   43DOPE  H13Y 5531   1.074   3.088  14.533
   43DOPE  C314 5532   0.991   3.037  14.733
   43DOPE  H14X 5533   0.899   2.957  14.740
   43DOPE  H14Y 5534   0.976   3.116  14.817
   43DOPE  C315 5535   1.140   2.957  14.747
   43DOPE  H15X 5536   1.227   3.039  14.726
   43DOPE  H15Y 5537   1.146   2.874  14.665
   43DOPE  C316 5538   1.168   2.880  14.882
   43DOPE  H16X 5539   1.124   2.767  14.876
   43DOPE  H16Y 5540   1.104   2.929  14.964
   43DOPE  C317 5541   1.330   2.857  14.927
   43DOPE  H17X 5542   1.335   2.881  15.037
   43DOPE  H17Y 5543   1.357   2.738  14.916
   43DOPE  C318 5544   1.449   2.944  14.855
   43DOPE  H18X 5545   1.559   2.905  14.890
   43DOPE  H18Y 5546   1.442   2.928  14.745
   43DOPE  H18Z 5547   1.438   3.062  14.878
   44DOPE     N 5548   3.516   1.406  13.140
   44DOPE   HN1 5549   3.575   1.493  13.098
   44DOPE   HN2 5550   3.406   1.413  13.111
   44DOPE   HN3 5551   3.520   1.412  13.243
   44DOPE   C12 5552   3.583   1.261  13.096
   44DOPE  H12A 5553   3.649   1.214  13.179
   44DOPE  H12B 5554   3.656   1.281  13.010
   44DOPE   C11 5555   3.460   1.155  13.055
   44DOPE  H11A 5556   3.386   1.208  12.980
   44DOPE  H11B 5557   3.390   1.133  13.146
   44DOPE     P 5558   3.513   0.880  13.082
   44DOPE   O13 5559   3.586   0.752  13.018
   44DOPE   O14 5560   3.358   0.866  13.124
   44DOPE   O11 5561   3.610   0.932  13.206
   44DOPE   O12 5562   3.522   1.026  12.994
   44DOPE    C1 5563   3.651   0.828  13.306
   44DOPE    HA 5564   3.738   0.879  13.369
   44DOPE    HB 5565   3.698   0.726  13.262
   44DOPE    C2 5566   3.521   0.788  13.400
   44DOPE    HS 5567   3.454   0.704  13.344
   44DOPE   O21 5568   3.434   0.917  13.425
   44DOPE   C21 5569   3.301   0.892  13.467
   44DOPE   O22 5570   3.230   0.780  13.456
   44DOPE   C22 5571   3.258   1.026  13.552
   44DOPE   H2R 5572   3.153   1.001  13.601
   44DOPE   H2S 5573   3.244   1.121  13.484
   44DOPE    C3 5574   3.574   0.719  13.534
   44DOPE    HX 5575   3.678   0.662  13.511
   44DOPE    HY 5576   3.489   0.638  13.566
   44DOPE   O31 5577   3.607   0.827  13.636
   44DOPE   C31 5578   3.600   0.779  13.762
   44DOPE   O32 5579   3.565   0.656  13.796
   44DOPE   C32 5580   3.645   0.902  13.858
   44DOPE   H2X 5581   3.683   0.995  13.797
   44DOPE   H2Y 5582   3.547   0.937  13.915
   44DOPE   C23 5583   3.377   1.063  13.659
   44DOPE   H3R 5584   3.486   1.079  13.610
   44DOPE   H3S 5585   3.387   0.969  13.730
   44DOPE   C24 5586   3.343   1.200  13.740
   44DOPE   H4R 5587   3.277   1.172  13.828
   44DOPE   H4S 5588   3.264   1.256  13.676
   44DOPE   C25 5589   3.477   1.301  13.770
   44DOPE   H5R 5590   3.443   1.418  13.778
   44DOPE   H5S 5591   3.556   1.297  13.685
   44DOPE   C26 5592   3.557   1.278  13.904
   44DOPE   H6R 5593   3.636   1.371  13.920
   44DOPE   H6S 5594   3.625   1.178  13.897
   44DOPE   C27 5595   3.454   1.267  14.025
   44DOPE   H7R 5596   3.357   1.199  13.999
   44DOPE   H7S 5597   3.412   1.378  14.052
   44DOPE   C28 5598   3.526   1.190  14.144
   44DOPE   H8R 5599   3.600   1.268  14.196
   44DOPE   H8S 5600   3.594   1.100  14.104
   44DOPE   C29 5601   3.412   1.124  14.236
   44DOPE   H9R 5602   3.384   1.009  14.216
   44DOPE  C210 5603   3.342   1.197  14.333
   44DOPE  H10R 5604   3.261   1.138  14.396
   44DOPE  C211 5605   3.366   1.356  14.367
   44DOPE  H11R 5606   3.260   1.417  14.366
   44DOPE  H11S 5607   3.441   1.410  14.294
   44DOPE  C212 5608   3.438   1.371  14.505
   44DOPE  H12R 5609   3.480   1.484  14.521
   44DOPE  H12S 5610   3.534   1.297  14.510
   44DOPE  C213 5611   3.332   1.333  14.619
   44DOPE  H13R 5612   3.245   1.256  14.582
   44DOPE  H13S 5613   3.278   1.436  14.651
   44DOPE  C214 5614   3.411   1.260  14.736
   44DOPE  H14R 5615   3.478   1.343  14.789
   44DOPE  H14S 5616   3.482   1.176  14.692
   44DOPE  C215 5617   3.310   1.178  14.832
   44DOPE  H15R 5618   3.220   1.258  14.838
   44DOPE  H15S 5619   3.365   1.166  14.930
   44DOPE  C216 5620   3.244   1.030  14.786
   44DOPE  H16R 5621   3.289   0.935  14.842
   44DOPE  H16S 5622   3.273   1.015  14.678
   44DOPE  C217 5623   3.076   1.033  14.793
   44DOPE  H17R 5624   3.026   0.963  14.714
   44DOPE  H17S 5625   3.048   1.147  14.769
   44DOPE  C218 5626   2.996   1.001  14.924
   44DOPE  H18R 5627   3.014   0.886  14.956
   44DOPE  H18S 5628   2.878   1.018  14.908
   44DOPE  H18T 5629   3.028   1.077  15.006
   44DOPE   C33 5630   3.767   0.849  13.955
   44DOPE   H3X 5631   3.847   0.781  13.897
   44DOPE   H3Y 5632   3.714   0.777  14.030
   44DOPE   C34 5633   3.860   0.963  14.033
   44DOPE   H4X 5634   3.787   1.012  14.110
   44DOPE   H4Y 5635   3.946   0.901  14.090
   44DOPE   C35 5636   3.937   1.084  13.952
   44DOPE   H5X 5637   3.854   1.146  13.893
   44DOPE   H5Y 5638   4.016   1.035  13.880
   44DOPE   C36 5639   4.024   1.195  14.037
   44DOPE   H6X 5640   4.085   1.270  13.969
   44DOPE   H6Y 5641   4.104   1.138  14.102
   44DOPE   C37 5642   3.916   1.281  14.122
   44DOPE   H7X 5643   3.831   1.330  14.053
   44DOPE   H7Y 5644   3.858   1.202  14.188
   44DOPE   C38 5645   3.983   1.403  14.208
   44DOPE   H8X 5646   4.037   1.486  14.144
   44DOPE   H8Y 5647   4.070   1.356  14.274
   44DOPE   C39 5648   3.854   1.463  14.287
   44DOPE   H9X 5649   3.795   1.554  14.240
   44DOPE  C310 5650   3.804   1.407  14.401
   44DOPE  H10X 5651   3.706   1.455  14.448
   44DOPE  C311 5652   3.870   1.273  14.466
   44DOPE  H11X 5653   3.961   1.231  14.404
   44DOPE  H11Y 5654   3.918   1.305  14.564
   44DOPE  C312 5655   3.772   1.137  14.486
   44DOPE  H12X 5656   3.828   1.037  14.447
   44DOPE  H12Y 5657   3.666   1.146  14.429
   44DOPE  C313 5658   3.743   1.112  14.634
   44DOPE  H13X 5659   3.847   1.102  14.691
   44DOPE  H13Y 5660   3.692   1.214  14.672
   44DOPE  C314 5661   3.645   0.978  14.659
   44DOPE  H14X 5662   3.557   0.970  14.582
   44DOPE  H14Y 5663   3.589   0.999  14.755
   44DOPE  C315 5664   3.728   0.833  14.671
   44DOPE  H15X 5665   3.833   0.851  14.724
   44DOPE  H15Y 5666   3.753   0.789  14.570
   44DOPE  C316 5667   3.637   0.722  14.752
   44DOPE  H16X 5668   3.688   0.612  14.745
   44DOPE  H16Y 5669   3.524   0.712  14.709
   44DOPE  C317 5670   3.626   0.768  14.900
   44DOPE  H17X 5671   3.739   0.790  14.938
   44DOPE  H17Y 5672   3.564   0.872  14.912
   44DOPE  C318 5673   3.549   0.653  14.988
   44DOPE  H18X 5674   3.435   0.634  14.950
   44DOPE  H18Y 5675   3.610   0.548  14.990
   44DOPE  H18Z 5676   3.542   0.697  15.092
   45DOPE     N 5677   4.749   0.868  12.979
   45DOPE   HN1 5678   4.842   0.935  12.975
   45DOPE   HN2 5679   4.735   0.821  13.073
   45DOPE   HN3 5680   4.764   0.788  12.905
   45DOPE   C12 5681   4.616   0.954  12.939
   45DOPE  H12A 5682   4.601   0.939  12.830
   45DOPE  H12B 5683   4.637   1.071  12.964
   45DOPE   C11 5684   4.478   0.900  13.010
   45DOPE  H11A 5685   4.502   0.894  13.120
   45DOPE  H11B 5686   4.445   0.788  12.979
   45DOPE     P 5687   4.309   1.107  13.090
   45DOPE   O13 5688   4.165   1.168  13.053
   45DOPE   O14 5689   4.435   1.203  13.119
   45DOPE   O11 5690   4.293   0.987  13.203
   45DOPE   O12 5691   4.360   0.998  12.977
   45DOPE    C1 5692   4.161   0.976  13.276
   45DOPE    HA 5693   4.165   0.872  13.335
   45DOPE    HB 5694   4.062   0.971  13.210
   45DOPE    C2 5695   4.149   1.107  13.373
   45DOPE    HS 5696   4.158   1.210  13.315
   45DOPE   O21 5697   4.266   1.092  13.470
   45DOPE   C21 5698   4.321   1.220  13.511
   45DOPE   O22 5699   4.267   1.340  13.491
   45DOPE   C22 5700   4.463   1.191  13.591
   45DOPE   H2R 5701   4.543   1.140  13.521
   45DOPE   H2S 5702   4.438   1.111  13.672
   45DOPE    C3 5703   3.996   1.101  13.437
   45DOPE    HX 5704   3.913   1.142  13.364
   45DOPE    HY 5705   3.999   1.179  13.523
   45DOPE   O31 5706   3.967   0.949  13.471
   45DOPE   C31 5707   3.944   0.932  13.599
   45DOPE   O32 5708   3.894   1.025  13.674
   45DOPE   C32 5709   3.992   0.779  13.644
   45DOPE   H2X 5710   3.890   0.725  13.677
   45DOPE   H2Y 5711   4.036   0.718  13.557
   45DOPE   C23 5712   4.531   1.332  13.652
   45DOPE   H3R 5713   4.466   1.368  13.740
   45DOPE   H3S 5714   4.523   1.422  13.577
   45DOPE   C24 5715   4.695   1.319  13.689
   45DOPE   H4R 5716   4.735   1.429  13.719
   45DOPE   H4S 5717   4.756   1.286  13.597
   45DOPE   C25 5718   4.730   1.208  13.802
   45DOPE   H5R 5719   4.850   1.207  13.820
   45DOPE   H5S 5720   4.697   1.096  13.768
   45DOPE   C26 5721   4.653   1.242  13.935
   45DOPE   H6R 5722   4.685   1.156  14.009
   45DOPE   H6S 5723   4.532   1.233  13.920
   45DOPE   C27 5724   4.688   1.394  13.994
   45DOPE   H7R 5725   4.642   1.480  13.928
   45DOPE   H7S 5726   4.810   1.408  13.995
   45DOPE   C28 5727   4.630   1.415  14.138
   45DOPE   H8R 5728   4.676   1.518  14.180
   45DOPE   H8S 5729   4.671   1.321  14.200
   45DOPE   C29 5730   4.464   1.420  14.138
   45DOPE   H9R 5731   4.412   1.371  14.050
   45DOPE  C210 5732   4.375   1.467  14.236
   45DOPE  H10R 5733   4.256   1.464  14.218
   45DOPE  C211 5734   4.414   1.526  14.373
   45DOPE  H11R 5735   4.312   1.566  14.423
   45DOPE  H11S 5736   4.490   1.621  14.365
   45DOPE  C212 5737   4.483   1.407  14.464
   45DOPE  H12R 5738   4.489   1.448  14.568
   45DOPE  H12S 5739   4.598   1.389  14.429
   45DOPE  C213 5740   4.404   1.255  14.461
   45DOPE  H13R 5741   4.485   1.178  14.502
   45DOPE  H13S 5742   4.385   1.218  14.357
   45DOPE  C214 5743   4.263   1.240  14.544
   45DOPE  H14R 5744   4.183   1.321  14.502
   45DOPE  H14S 5745   4.282   1.270  14.650
   45DOPE  C215 5746   4.190   1.086  14.535
   45DOPE  H15R 5747   4.230   1.029  14.443
   45DOPE  H15S 5748   4.071   1.099  14.522
   45DOPE  C216 5749   4.198   0.981  14.656
   45DOPE  H16R 5750   4.304   0.924  14.663
   45DOPE  H16S 5751   4.114   0.893  14.638
   45DOPE  C217 5752   4.164   1.048  14.792
   45DOPE  H17R 5753   4.072   1.129  14.785
   45DOPE  H17S 5754   4.264   1.109  14.828
   45DOPE  C218 5755   4.124   0.926  14.890
   45DOPE  H18R 5756   4.219   0.849  14.900
   45DOPE  H18S 5757   4.027   0.864  14.853
   45DOPE  H18T 5758   4.093   0.968  14.991
   45DOPE   C33 5759   4.109   0.778  13.759
   45DOPE   H3X 5760   4.136   0.661  13.781
   45DOPE   H3Y 5761   4.066   0.824  13.853
   45DOPE   C34 5762   4.252   0.857  13.722
   45DOPE   H4X 5763   4.294   0.804  13.630
   45DOPE   H4Y 5764   4.230   0.975  13.698
   45DOPE   C35 5765   4.371   0.847  13.830
   45DOPE   H5X 5766   4.479   0.859  13.776
   45DOPE   H5Y 5767   4.371   0.737  13.877
   45DOPE   C36 5768   4.375   0.970  13.936
   45DOPE   H6X 5769   4.319   1.070  13.897
   45DOPE   H6Y 5770   4.492   1.000  13.951
   45DOPE   C37 5771   4.316   0.932  14.076
   45DOPE   H7X 5772   4.342   1.026  14.143
   45DOPE   H7Y 5773   4.194   0.921  14.072
   45DOPE   C38 5774   4.378   0.790  14.139
   45DOPE   H8X 5775   4.314   0.695  14.099
   45DOPE   H8Y 5776   4.354   0.794  14.248
   45DOPE   C39 5777   4.540   0.761  14.115
   45DOPE   H9X 5778   4.565   0.696  14.025
   45DOPE  C310 5779   4.652   0.809  14.191
   45DOPE  H10X 5780   4.766   0.777  14.165
   45DOPE  C311 5781   4.635   0.900  14.315
   45DOPE  H11X 5782   4.734   0.968  14.332
   45DOPE  H11Y 5783   4.542   0.979  14.303
   45DOPE  C312 5784   4.603   0.805  14.439
   45DOPE  H12X 5785   4.697   0.732  14.464
   45DOPE  H12Y 5786   4.507   0.733  14.419
   45DOPE  C313 5787   4.563   0.901  14.560
   45DOPE  H13X 5788   4.463   0.960  14.529
   45DOPE  H13Y 5789   4.535   0.828  14.645
   45DOPE  C314 5790   4.678   1.015  14.603
   45DOPE  H14X 5791   4.701   1.091  14.519
   45DOPE  H14Y 5792   4.782   0.957  14.628
   45DOPE  C315 5793   4.633   1.109  14.724
   45DOPE  H15X 5794   4.541   1.184  14.700
   45DOPE  H15Y 5795   4.730   1.179  14.752
   45DOPE  C316 5796   4.588   1.020  14.846
   45DOPE  H16X 5797   4.675   0.936  14.866
   45DOPE  H16Y 5798   4.484   0.959  14.829
   45DOPE  C317 5799   4.572   1.114  14.971
   45DOPE  H17X 5800   4.671   1.187  14.981
   45DOPE  H17Y 5801   4.473   1.187  14.967
   45DOPE  C318 5802   4.562   1.013  15.090
   45DOPE  H18X 5803   4.577   1.075  15.184
   45DOPE  H18Y 5804   4.455   0.955  15.091
   45DOPE  H18Z 5805   4.649   0.927  15.083
   46DOPE     N 5806   4.740   7.321  13.179
   46DOPE   HN1 5807   4.684   7.412  13.144
   46DOPE   HN2 5808   4.684   7.262  13.251
   46DOPE   HN3 5809   4.837   7.363  13.221
   46DOPE   C12 5810   4.795   7.231  13.062
   46DOPE  H12A 5811   4.769   7.294  12.969
   46DOPE  H12B 5812   4.740   7.122  13.059
   46DOPE   C11 5813   4.962   7.218  13.074
   46DOPE  H11A 5814   5.010   7.176  12.979
   46DOPE  H11B 5815   4.991   7.139  13.155
   46DOPE     P 5816   5.040   7.491  13.014
   46DOPE   O13 5817   4.952   7.610  13.074
   46DOPE   O14 5818   4.998   7.442  12.878
   46DOPE   O11 5819   5.212   7.519  13.025
   46DOPE   O12 5820   5.020   7.357  13.111
   46DOPE    C1 5821   5.307   7.394  13.004
   46DOPE    HA 5822   5.413   7.434  12.963
   46DOPE    HB 5823   5.261   7.317  12.927
   46DOPE    C2 5824   5.341   7.306  13.135
   46DOPE    HS 5825   5.236   7.292  13.193
   46DOPE   O21 5826   5.452   7.381  13.211
   46DOPE   C21 5827   5.397   7.467  13.305
   46DOPE   O22 5828   5.268   7.485  13.333
   46DOPE   C22 5829   5.520   7.537  13.386
   46DOPE   H2R 5830   5.476   7.642  13.427
   46DOPE   H2S 5831   5.613   7.561  13.319
   46DOPE    C3 5832   5.390   7.146  13.107
   46DOPE    HX 5833   5.477   7.149  13.030
   46DOPE    HY 5834   5.294   7.084  13.065
   46DOPE   O31 5835   5.448   7.074  13.225
   46DOPE   C31 5836   5.348   7.032  13.317
   46DOPE   O32 5837   5.216   7.047  13.304
   46DOPE   C32 5838   5.432   6.981  13.441
   46DOPE   H2X 5839   5.496   6.882  13.409
   46DOPE   H2Y 5840   5.510   7.070  13.466
   46DOPE   C23 5841   5.565   7.438  13.503
   46DOPE   H3R 5842   5.678   7.465  13.538
   46DOPE   H3S 5843   5.568   7.319  13.474
   46DOPE   C24 5844   5.458   7.461  13.618
   46DOPE   H4R 5845   5.352   7.414  13.587
   46DOPE   H4S 5846   5.435   7.580  13.631
   46DOPE   C25 5847   5.514   7.399  13.750
   46DOPE   H5R 5848   5.602   7.315  13.730
   46DOPE   H5S 5849   5.425   7.340  13.804
   46DOPE   C26 5850   5.574   7.523  13.839
   46DOPE   H6R 5851   5.565   7.626  13.781
   46DOPE   H6S 5852   5.693   7.509  13.860
   46DOPE   C27 5853   5.488   7.556  13.967
   46DOPE   H7R 5854   5.370   7.565  13.942
   46DOPE   H7S 5855   5.526   7.667  13.999
   46DOPE   C28 5856   5.508   7.446  14.082
   46DOPE   H8R 5857   5.624   7.412  14.094
   46DOPE   H8S 5858   5.446   7.345  14.058
   46DOPE   C29 5859   5.448   7.524  14.204
   46DOPE   H9R 5860   5.328   7.535  14.207
   46DOPE  C210 5861   5.526   7.569  14.311
   46DOPE  H10R 5862   5.468   7.632  14.389
   46DOPE  C211 5863   5.689   7.551  14.333
   46DOPE  H11R 5864   5.747   7.566  14.236
   46DOPE  H11S 5865   5.713   7.437  14.366
   46DOPE  C212 5866   5.761   7.657  14.436
   46DOPE  H12R 5867   5.721   7.772  14.419
   46DOPE  H12S 5868   5.882   7.658  14.416
   46DOPE  C213 5869   5.742   7.615  14.585
   46DOPE  H13R 5870   5.795   7.702  14.647
   46DOPE  H13S 5871   5.803   7.512  14.604
   46DOPE  C214 5872   5.581   7.596  14.632
   46DOPE  H14R 5873   5.524   7.520  14.562
   46DOPE  H14S 5874   5.523   7.702  14.631
   46DOPE  C215 5875   5.565   7.520  14.768
   46DOPE  H15R 5876   5.629   7.416  14.768
   46DOPE  H15S 5877   5.447   7.493  14.785
   46DOPE  C216 5878   5.623   7.608  14.887
   46DOPE  H16R 5879   5.549   7.703  14.900
   46DOPE  H16S 5880   5.732   7.652  14.862
   46DOPE  C217 5881   5.620   7.515  15.016
   46DOPE  H17R 5882   5.570   7.406  14.997
   46DOPE  H17S 5883   5.537   7.579  15.073
   46DOPE  C218 5884   5.755   7.501  15.108
   46DOPE  H18R 5885   5.721   7.458  15.207
   46DOPE  H18S 5886   5.812   7.605  15.122
   46DOPE  H18T 5887   5.844   7.431  15.072
   46DOPE   C33 5888   5.342   6.941  13.568
   46DOPE   H3X 5889   5.400   6.851  13.622
   46DOPE   H3Y 5890   5.232   6.896  13.538
   46DOPE   C34 5891   5.326   7.072  13.664
   46DOPE   H4X 5892   5.435   7.097  13.708
   46DOPE   H4Y 5893   5.292   7.167  13.601
   46DOPE   C35 5894   5.214   7.048  13.778
   46DOPE   H5X 5895   5.258   6.964  13.848
   46DOPE   H5Y 5896   5.111   7.004  13.733
   46DOPE   C36 5897   5.172   7.186  13.859
   46DOPE   H6X 5898   5.270   7.226  13.915
   46DOPE   H6Y 5899   5.089   7.157  13.936
   46DOPE   C37 5900   5.109   7.312  13.772
   46DOPE   H7X 5901   5.194   7.341  13.698
   46DOPE   H7Y 5902   5.014   7.271  13.714
   46DOPE   C38 5903   5.070   7.456  13.845
   46DOPE   H8X 5904   5.056   7.544  13.769
   46DOPE   H8Y 5905   5.166   7.490  13.906
   46DOPE   C39 5906   4.932   7.440  13.927
   46DOPE   H9X 5907   4.829   7.445  13.869
   46DOPE  C310 5908   4.927   7.417  14.060
   46DOPE  H10X 5909   4.819   7.404  14.108
   46DOPE  C311 5910   5.058   7.404  14.152
   46DOPE  H11X 5911   5.162   7.389  14.095
   46DOPE  H11Y 5912   5.071   7.505  14.213
   46DOPE  C312 5913   5.041   7.274  14.249
   46DOPE  H12X 5914   5.022   7.170  14.194
   46DOPE  H12Y 5915   4.944   7.295  14.315
   46DOPE  C313 5916   5.178   7.253  14.338
   46DOPE  H13X 5917   5.217   7.362  14.373
   46DOPE  H13Y 5918   5.146   7.190  14.428
   46DOPE  C314 5919   5.302   7.172  14.266
   46DOPE  H14X 5920   5.314   7.215  14.164
   46DOPE  H14Y 5921   5.270   7.054  14.255
   46DOPE  C315 5922   5.448   7.181  14.342
   46DOPE  H15X 5923   5.475   7.295  14.370
   46DOPE  H15Y 5924   5.540   7.140  14.278
   46DOPE  C316 5925   5.436   7.091  14.470
   46DOPE  H16X 5926   5.391   6.983  14.437
   46DOPE  H16Y 5927   5.357   7.143  14.539
   46DOPE  C317 5928   5.578   7.058  14.544
   46DOPE  H17X 5929   5.548   6.979  14.625
   46DOPE  H17Y 5930   5.656   7.000  14.477
   46DOPE  C318 5931   5.649   7.194  14.605
   46DOPE  H18X 5932   5.563   7.246  14.668
   46DOPE  H18Y 5933   5.744   7.168  14.669
   46DOPE  H18Z 5934   5.684   7.274  14.528
   47DOPE     N 5935   1.674   6.761  13.119
   47DOPE   HN1 5936   1.690   6.873  13.109
   47DOPE   HN2 5937   1.562   6.743  13.138
   47DOPE   HN3 5938   1.734   6.717  13.198
   47DOPE   C12 5939   1.698   6.675  12.995
   47DOPE  H12A 5940   1.811   6.625  12.997
   47DOPE  H12B 5941   1.689   6.752  12.910
   47DOPE   C11 5942   1.586   6.550  12.997
   47DOPE  H11A 5943   1.605   6.499  13.093
   47DOPE  H11B 5944   1.604   6.469  12.919
   47DOPE     P 5945   1.311   6.483  13.043
   47DOPE   O13 5946   1.213   6.459  12.928
   47DOPE   O14 5947   1.254   6.542  13.169
   47DOPE   O11 5948   1.398   6.339  13.077
   47DOPE   O12 5949   1.439   6.595  12.998
   47DOPE    C1 5950   1.427   6.234  12.974
   47DOPE    HA 5951   1.467   6.285  12.881
   47DOPE    HB 5952   1.322   6.178  12.949
   47DOPE    C2 5953   1.542   6.118  13.021
   47DOPE    HS 5954   1.570   6.043  12.937
   47DOPE   O21 5955   1.488   6.032  13.131
   47DOPE   C21 5956   1.346   6.009  13.149
   47DOPE   O22 5957   1.262   5.954  13.069
   47DOPE   C22 5958   1.328   6.029  13.301
   47DOPE   H2R 5959   1.427   6.089  13.340
   47DOPE   H2S 5960   1.332   5.917  13.345
   47DOPE    C3 5961   1.689   6.189  13.072
   47DOPE    HX 5962   1.774   6.221  12.999
   47DOPE    HY 5963   1.728   6.090  13.121
   47DOPE   O31 5964   1.661   6.293  13.176
   47DOPE   C31 5965   1.756   6.369  13.246
   47DOPE   O32 5966   1.880   6.404  13.212
   47DOPE   C32 5967   1.654   6.446  13.352
   47DOPE   H2X 5968   1.718   6.540  13.389
   47DOPE   H2Y 5969   1.558   6.491  13.298
   47DOPE   C23 5970   1.190   6.112  13.353
   47DOPE   H3R 5971   1.089   6.052  13.325
   47DOPE   H3S 5972   1.184   6.224  13.308
   47DOPE   C24 5973   1.202   6.123  13.506
   47DOPE   H4R 5974   1.315   6.164  13.530
   47DOPE   H4S 5975   1.199   6.009  13.546
   47DOPE   C25 5976   1.090   6.222  13.579
   47DOPE   H5R 5977   0.978   6.201  13.539
   47DOPE   H5S 5978   1.118   6.338  13.558
   47DOPE   C26 5979   1.092   6.195  13.732
   47DOPE   H6R 5980   1.207   6.181  13.768
   47DOPE   H6S 5981   1.031   6.092  13.754
   47DOPE   C27 5982   1.020   6.317  13.814
   47DOPE   H7R 5983   0.922   6.351  13.754
   47DOPE   H7S 5984   1.095   6.414  13.820
   47DOPE   C28 5985   0.965   6.278  13.957
   47DOPE   H8R 5986   0.862   6.211  13.944
   47DOPE   H8S 5987   0.927   6.383  14.002
   47DOPE   C29 5988   1.067   6.200  14.052
   47DOPE   H9R 5989   1.075   6.082  14.033
   47DOPE  C210 5990   1.155   6.258  14.148
   47DOPE  H10R 5991   1.217   6.184  14.215
   47DOPE  C211 5992   1.162   6.421  14.171
   47DOPE  H11R 5993   1.049   6.464  14.190
   47DOPE  H11S 5994   1.195   6.463  14.071
   47DOPE  C212 5995   1.269   6.510  14.263
   47DOPE  H12R 5996   1.241   6.625  14.238
   47DOPE  H12S 5997   1.386   6.493  14.237
   47DOPE  C213 5998   1.242   6.518  14.413
   47DOPE  H13R 5999   1.287   6.420  14.465
   47DOPE  H13S 6000   1.121   6.516  14.426
   47DOPE  C214 6001   1.303   6.661  14.478
   47DOPE  H14R 6002   1.209   6.728  14.513
   47DOPE  H14S 6003   1.364   6.729  14.405
   47DOPE  C215 6004   1.400   6.631  14.599
   47DOPE  H15R 6005   1.515   6.613  14.564
   47DOPE  H15S 6006   1.361   6.527  14.648
   47DOPE  C216 6007   1.398   6.750  14.708
   47DOPE  H16R 6008   1.376   6.861  14.666
   47DOPE  H16S 6009   1.508   6.753  14.758
   47DOPE  C217 6010   1.286   6.710  14.816
   47DOPE  H17R 6011   1.299   6.592  14.845
   47DOPE  H17S 6012   1.174   6.721  14.774
   47DOPE  C218 6013   1.296   6.807  14.938
   47DOPE  H18R 6014   1.305   6.925  14.911
   47DOPE  H18S 6015   1.391   6.775  15.000
   47DOPE  H18T 6016   1.192   6.795  14.996
   47DOPE   C33 6017   1.587   6.358  13.473
   47DOPE   H3X 6018   1.645   6.252  13.487
   47DOPE   H3Y 6019   1.470   6.334  13.453
   47DOPE   C34 6020   1.602   6.428  13.613
   47DOPE   H4X 6021   1.720   6.438  13.639
   47DOPE   H4Y 6022   1.553   6.540  13.614
   47DOPE   C35 6023   1.521   6.335  13.720
   47DOPE   H5X 6024   1.585   6.233  13.740
   47DOPE   H5Y 6025   1.413   6.299  13.678
   47DOPE   C36 6026   1.485   6.416  13.850
   47DOPE   H6X 6027   1.437   6.340  13.926
   47DOPE   H6Y 6028   1.395   6.494  13.826
   47DOPE   C37 6029   1.614   6.501  13.914
   47DOPE   H7X 6030   1.687   6.549  13.838
   47DOPE   H7Y 6031   1.566   6.595  13.972
   47DOPE   C38 6032   1.702   6.406  14.012
   47DOPE   H8X 6033   1.621   6.360  14.085
   47DOPE   H8Y 6034   1.779   6.477  14.071
   47DOPE   C39 6035   1.786   6.289  13.938
   47DOPE   H9X 6036   1.871   6.331  13.869
   47DOPE  C310 6037   1.761   6.144  13.946
   47DOPE  H10X 6038   1.825   6.068  13.883
   47DOPE  C311 6039   1.645   6.072  14.032
   47DOPE  H11X 6040   1.537   6.127  14.016
   47DOPE  H11Y 6041   1.630   5.954  14.003
   47DOPE  C312 6042   1.683   6.080  14.182
   47DOPE  H12X 6043   1.696   6.196  14.213
   47DOPE  H12Y 6044   1.790   6.024  14.200
   47DOPE  C313 6045   1.564   6.010  14.270
   47DOPE  H13X 6046   1.458   6.069  14.252
   47DOPE  H13Y 6047   1.550   5.894  14.240
   47DOPE  C314 6048   1.598   6.017  14.421
   47DOPE  H14X 6049   1.706   5.961  14.440
   47DOPE  H14Y 6050   1.511   5.953  14.475
   47DOPE  C315 6051   1.603   6.173  14.478
   47DOPE  H15X 6052   1.508   6.237  14.436
   47DOPE  H15Y 6053   1.705   6.229  14.444
   47DOPE  C316 6054   1.594   6.181  14.632
   47DOPE  H16X 6055   1.673   6.103  14.678
   47DOPE  H16Y 6056   1.481   6.148  14.663
   47DOPE  C317 6057   1.626   6.336  14.684
   47DOPE  H17X 6058   1.744   6.362  14.667
   47DOPE  H17Y 6059   1.562   6.411  14.620
   47DOPE  C318 6060   1.587   6.366  14.831
   47DOPE  H18X 6061   1.601   6.484  14.854
   47DOPE  H18Y 6062   1.472   6.335  14.852
   47DOPE  H18Z 6063   1.661   6.302  14.898
   48DOPE     N 6064   7.017   1.940  12.793
   48DOPE   HN1 6065   6.908   1.929  12.769
   48DOPE   HN2 6066   7.026   2.037  12.849
   48DOPE   HN3 6067   7.081   1.957  12.707
   48DOPE   C12 6068   7.077   1.826  12.883
   48DOPE  H12A 6069   7.125   1.734  12.824
   48DOPE  H12B 6070   6.987   1.785  12.948
   48DOPE   C11 6071   7.194   1.905  12.966
   48DOPE  H11A 6072   7.294   1.917  12.906
   48DOPE  H11B 6073   7.226   1.836  13.053
   48DOPE     P 6074   7.043   2.069  13.126
   48DOPE   O13 6075   6.911   1.980  13.103
   48DOPE   O14 6076   7.026   2.229  13.153
   48DOPE   O11 6077   7.149   1.997  13.232
   48DOPE   O12 6078   7.146   2.052  13.000
   48DOPE    C1 6079   7.296   2.055  13.230
   48DOPE    HA 6080   7.299   2.177  13.219
   48DOPE    HB 6081   7.363   2.008  13.147
   48DOPE    C2 6082   7.376   2.021  13.361
   48DOPE    HS 6083   7.497   2.041  13.345
   48DOPE   O21 6084   7.353   1.874  13.409
   48DOPE   C21 6085   7.376   1.772  13.320
   48DOPE   O22 6086   7.456   1.781  13.222
   48DOPE   C22 6087   7.293   1.635  13.369
   48DOPE   H2R 6088   7.337   1.610  13.470
   48DOPE   H2S 6089   7.318   1.542  13.300
   48DOPE    C3 6090   7.324   2.128  13.470
   48DOPE    HX 6091   7.359   2.241  13.443
   48DOPE    HY 6092   7.383   2.089  13.558
   48DOPE   O31 6093   7.168   2.133  13.493
   48DOPE   C31 6094   7.119   2.050  13.593
   48DOPE   O32 6095   7.187   1.954  13.649
   48DOPE   C32 6096   6.970   2.108  13.637
   48DOPE   H2X 6097   6.934   2.197  13.567
   48DOPE   H2Y 6098   6.889   2.016  13.630
   48DOPE   C23 6099   7.124   1.647  13.388
   48DOPE   H3R 6100   7.072   1.670  13.289
   48DOPE   H3S 6101   7.096   1.740  13.455
   48DOPE   C24 6102   7.058   1.503  13.445
   48DOPE   H4R 6103   7.104   1.409  13.388
   48DOPE   H4S 6104   6.938   1.504  13.426
   48DOPE   C25 6105   7.084   1.474  13.595
   48DOPE   H5R 6106   7.203   1.456  13.613
   48DOPE   H5S 6107   7.027   1.370  13.621
   48DOPE   C26 6108   7.029   1.595  13.691
   48DOPE   H6R 6109   6.913   1.623  13.662
   48DOPE   H6S 6110   7.094   1.697  13.677
   48DOPE   C27 6111   7.030   1.546  13.839
   48DOPE   H7R 6112   7.004   1.427  13.840
   48DOPE   H7S 6113   6.940   1.602  13.895
   48DOPE   C28 6114   7.179   1.569  13.913
   48DOPE   H8R 6115   7.263   1.508  13.855
   48DOPE   H8S 6116   7.171   1.514  14.012
   48DOPE   C29 6117   7.228   1.727  13.929
   48DOPE   H9R 6118   7.230   1.788  13.833
   48DOPE  C210 6119   7.273   1.802  14.038
   48DOPE  H10R 6120   7.299   1.918  14.025
   48DOPE  C211 6121   7.291   1.751  14.181
   48DOPE  H11R 6122   7.402   1.720  14.207
   48DOPE  H11S 6123   7.244   1.641  14.192
   48DOPE  C212 6124   7.254   1.859  14.297
   48DOPE  H12R 6125   7.291   1.806  14.391
   48DOPE  H12S 6126   7.135   1.874  14.311
   48DOPE  C213 6127   7.324   2.013  14.286
   48DOPE  H13R 6128   7.294   2.064  14.189
   48DOPE  H13S 6129   7.446   2.000  14.291
   48DOPE  C214 6130   7.275   2.119  14.398
   48DOPE  H14R 6131   7.153   2.125  14.400
   48DOPE  H14S 6132   7.318   2.231  14.375
   48DOPE  C215 6133   7.334   2.072  14.535
   48DOPE  H15R 6134   7.454   2.054  14.527
   48DOPE  H15S 6135   7.282   1.966  14.564
   48DOPE  C216 6136   7.302   2.187  14.644
   48DOPE  H16R 6137   7.183   2.215  14.637
   48DOPE  H16S 6138   7.366   2.288  14.622
   48DOPE  C217 6139   7.336   2.136  14.788
   48DOPE  H17R 6140   7.245   2.068  14.827
   48DOPE  H17S 6141   7.338   2.236  14.853
   48DOPE  C218 6142   7.477   2.048  14.807
   48DOPE  H18R 6143   7.495   1.968  14.726
   48DOPE  H18S 6144   7.473   1.985  14.902
   48DOPE  H18T 6145   7.572   2.124  14.809
   48DOPE   C33 6146   6.972   2.171  13.781
   48DOPE   H3X 6147   6.873   2.242  13.796
   48DOPE   H3Y 6148   7.070   2.243  13.797
   48DOPE   C34 6149   6.967   2.053  13.889
   48DOPE   H4X 6150   6.876   1.976  13.866
   48DOPE   H4Y 6151   7.071   1.988  13.886
   48DOPE   C35 6152   6.947   2.115  14.030
   48DOPE   H5X 6153   6.837   2.168  14.038
   48DOPE   H5Y 6154   7.031   2.201  14.050
   48DOPE   C36 6155   6.962   1.995  14.136
   48DOPE   H6X 6156   6.930   2.036  14.236
   48DOPE   H6Y 6157   7.081   1.972  14.139
   48DOPE   C37 6158   6.883   1.850  14.102
   48DOPE   H7X 6159   6.779   1.880  14.051
   48DOPE   H7Y 6160   6.944   1.791  14.024
   48DOPE   C38 6161   6.845   1.753  14.226
   48DOPE   H8X 6162   6.750   1.682  14.206
   48DOPE   H8Y 6163   6.820   1.822  14.315
   48DOPE   C39 6164   6.975   1.657  14.243
   48DOPE   H9X 6165   7.033   1.643  14.148
   48DOPE  C310 6166   7.038   1.594  14.350
   48DOPE  H10X 6167   7.135   1.525  14.334
   48DOPE  C311 6168   6.992   1.604  14.492
   48DOPE  H11X 6169   6.878   1.648  14.503
   48DOPE  H11Y 6170   6.997   1.493  14.539
   48DOPE  C312 6171   7.097   1.695  14.573
   48DOPE  H12X 6172   7.096   1.808  14.532
   48DOPE  H12Y 6173   7.212   1.654  14.562
   48DOPE  C313 6174   7.046   1.689  14.717
   48DOPE  H13X 6175   6.923   1.676  14.717
   48DOPE  H13Y 6176   7.093   1.591  14.768
   48DOPE  C314 6177   7.080   1.832  14.788
   48DOPE  H14X 6178   7.200   1.852  14.772
   48DOPE  H14Y 6179   7.062   1.817  14.897
   48DOPE  C315 6180   6.986   1.959  14.733
   48DOPE  H15X 6181   6.966   1.954  14.623
   48DOPE  H15Y 6182   7.047   2.062  14.750
   48DOPE  C316 6183   6.839   1.974  14.805
   48DOPE  H16X 6184   6.872   1.949  14.909
   48DOPE  H16Y 6185   6.755   1.893  14.775
   48DOPE  C317 6186   6.779   2.133  14.814
   48DOPE  H17X 6187   6.723   2.148  14.911
   48DOPE  H17Y 6188   6.878   2.201  14.815
   48DOPE  C318 6189   6.684   2.194  14.703
   48DOPE  H18X 6190   6.579   2.135  14.698
   48DOPE  H18Y 6191   6.657   2.312  14.720
   48DOPE  H18Z 6192   6.741   2.184  14.605
   49DOPE     N 6193   1.974   6.901  12.803
   49DOPE   HN1 6194   1.994   6.811  12.863
   49DOPE   HN2 6195   1.905   6.872  12.724
   49DOPE   HN3 6196   2.079   6.931  12.766
   49DOPE   C12 6197   1.919   7.037  12.875
   49DOPE  H12A 6198   1.807   7.015  12.913
   49DOPE  H12B 6199   1.913   7.128  12.801
   49DOPE   C11 6200   2.020   7.081  12.991
   49DOPE  H11A 6201   2.134   7.101  12.954
   49DOPE  H11B 6202   2.020   6.992  13.066
   49DOPE     P 6203   2.004   7.289  13.180
   49DOPE   O13 6204   1.867   7.316  13.255
   49DOPE   O14 6205   2.099   7.417  13.148
   49DOPE   O11 6206   2.097   7.168  13.256
   49DOPE   O12 6207   1.961   7.212  13.045
   49DOPE    C1 6208   2.254   7.175  13.258
   49DOPE    HA 6209   2.291   7.285  13.293
   49DOPE    HB 6210   2.299   7.158  13.156
   49DOPE    C2 6211   2.327   7.058  13.352
   49DOPE    HS 6212   2.425   7.013  13.301
   49DOPE   O21 6213   2.228   6.938  13.383
   49DOPE   C21 6214   2.175   6.871  13.277
   49DOPE   O22 6215   2.228   6.872  13.165
   49DOPE   C22 6216   2.027   6.795  13.312
   49DOPE   H2R 6217   2.055   6.697  13.373
   49DOPE   H2S 6218   1.978   6.756  13.217
   49DOPE    C3 6219   2.377   7.129  13.486
   49DOPE    HX 6220   2.482   7.188  13.464
   49DOPE    HY 6221   2.406   7.041  13.560
   49DOPE   O31 6222   2.272   7.233  13.537
   49DOPE   C31 6223   2.155   7.174  13.599
   49DOPE   O32 6224   2.149   7.050  13.644
   49DOPE   C32 6225   2.034   7.290  13.617
   49DOPE   H2X 6226   2.050   7.335  13.718
   49DOPE   H2Y 6227   2.047   7.379  13.543
   49DOPE   C23 6228   1.917   6.893  13.391
   49DOPE   H3R 6229   1.887   6.995  13.336
   49DOPE   H3S 6230   1.973   6.929  13.484
   49DOPE   C24 6231   1.781   6.806  13.433
   49DOPE   H4R 6232   1.822   6.701  13.478
   49DOPE   H4S 6233   1.705   6.783  13.351
   49DOPE   C25 6234   1.683   6.877  13.536
   49DOPE   H5R 6235   1.573   6.821  13.536
   49DOPE   H5S 6236   1.663   6.996  13.514
   49DOPE   C26 6237   1.749   6.854  13.673
   49DOPE   H6R 6238   1.863   6.898  13.675
   49DOPE   H6S 6239   1.759   6.735  13.697
   49DOPE   C27 6240   1.648   6.928  13.773
   49DOPE   H7R 6241   1.544   6.868  13.762
   49DOPE   H7S 6242   1.627   7.044  13.748
   49DOPE   C28 6243   1.696   6.910  13.916
   49DOPE   H8R 6244   1.696   6.790  13.940
   49DOPE   H8S 6245   1.617   6.966  13.983
   49DOPE   C29 6246   1.849   6.967  13.930
   49DOPE   H9R 6247   1.894   7.042  13.854
   49DOPE  C210 6248   1.921   6.949  14.044
   49DOPE  H10R 6249   2.031   6.996  14.055
   49DOPE  C211 6250   1.856   6.872  14.163
   49DOPE  H11R 6251   1.883   6.753  14.172
   49DOPE  H11S 6252   1.734   6.882  14.170
   49DOPE  C212 6253   1.918   6.963  14.277
   49DOPE  H12R 6254   1.849   7.063  14.285
   49DOPE  H12S 6255   2.036   6.995  14.259
   49DOPE  C213 6256   1.924   6.887  14.409
   49DOPE  H13R 6257   1.974   6.779  14.383
   49DOPE  H13S 6258   1.811   6.867  14.446
   49DOPE  C214 6259   2.019   6.974  14.511
   49DOPE  H14R 6260   2.030   7.088  14.474
   49DOPE  H14S 6261   2.132   6.932  14.521
   49DOPE  C215 6262   1.955   6.975  14.653
   49DOPE  H15R 6263   1.859   6.899  14.660
   49DOPE  H15S 6264   1.917   7.088  14.668
   49DOPE  C216 6265   2.059   6.949  14.772
   49DOPE  H16R 6266   2.079   6.829  14.785
   49DOPE  H16S 6267   2.000   6.987  14.862
   49DOPE  C217 6268   2.209   7.027  14.766
   49DOPE  H17R 6269   2.279   6.964  14.695
   49DOPE  H17S 6270   2.259   7.017  14.867
   49DOPE  C218 6271   2.212   7.190  14.722
   49DOPE  H18R 6272   2.325   7.234  14.734
   49DOPE  H18S 6273   2.136   7.258  14.783
   49DOPE  H18T 6274   2.181   7.201  14.615
   49DOPE   C33 6275   1.880   7.217  13.603
   49DOPE   H3X 6276   1.882   7.109  13.652
   49DOPE   H3Y 6277   1.858   7.200  13.494
   49DOPE   C34 6278   1.747   7.300  13.663
   49DOPE   H4X 6279   1.737   7.400  13.599
   49DOPE   H4Y 6280   1.643   7.237  13.651
   49DOPE   C35 6281   1.766   7.351  13.808
   49DOPE   H5X 6282   1.741   7.468  13.793
   49DOPE   H5Y 6283   1.879   7.338  13.845
   49DOPE   C36 6284   1.654   7.314  13.918
   49DOPE   H6X 6285   1.673   7.203  13.960
   49DOPE   H6Y 6286   1.541   7.317  13.878
   49DOPE   C37 6287   1.664   7.428  14.033
   49DOPE   H7X 6288   1.618   7.535  13.999
   49DOPE   H7Y 6289   1.594   7.390  14.116
   49DOPE   C38 6290   1.817   7.461  14.094
   49DOPE   H8X 6291   1.792   7.523  14.187
   49DOPE   H8Y 6292   1.881   7.545  14.041
   49DOPE   C39 6293   1.918   7.330  14.114
   49DOPE   H9X 6294   1.935   7.258  14.027
   49DOPE  C310 6295   1.981   7.293  14.230
   49DOPE  H10X 6296   2.067   7.208  14.232
   49DOPE  C311 6297   1.959   7.378  14.355
   49DOPE  H11X 6298   2.033   7.344  14.438
   49DOPE  H11Y 6299   1.997   7.487  14.322
   49DOPE  C312 6300   1.800   7.390  14.408
   49DOPE  H12X 6301   1.719   7.382  14.325
   49DOPE  H12Y 6302   1.779   7.494  14.461
   49DOPE  C313 6303   1.757   7.269  14.504
   49DOPE  H13X 6304   1.639   7.242  14.485
   49DOPE  H13Y 6305   1.821   7.170  14.480
   49DOPE  C314 6306   1.772   7.312  14.651
   49DOPE  H14X 6307   1.734   7.426  14.671
   49DOPE  H14Y 6308   1.890   7.310  14.680
   49DOPE  C315 6309   1.681   7.202  14.731
   49DOPE  H15X 6310   1.693   7.092  14.682
   49DOPE  H15Y 6311   1.562   7.226  14.725
   49DOPE  C316 6312   1.731   7.187  14.874
   49DOPE  H16X 6313   1.681   7.276  14.934
   49DOPE  H16Y 6314   1.854   7.202  14.881
   49DOPE  C317 6315   1.693   7.038  14.934
   49DOPE  H17X 6316   1.572   7.021  14.930
   49DOPE  H17Y 6317   1.744   6.948  14.874
   49DOPE  C318 6318   1.748   7.033  15.077
   49DOPE  H18X 6319   1.684   6.956  15.139
   49DOPE  H18Y 6320   1.867   7.006  15.080
   49DOPE  H18Z 6321   1.735   7.145  15.120
   50DOPE     N 6322   0.352   4.707  12.973
   50DOPE   HN1 6323   0.361   4.597  12.998
   50DOPE   HN2 6324   0.274   4.721  12.897
   50DOPE   HN3 6325   0.453   4.748  12.939
   50DOPE   C12 6326   0.314   4.806  13.087
   50DOPE  H12A 6327   0.393   4.786  13.170
   50DOPE  H12B 6328   0.200   4.783  13.121
   50DOPE   C11 6329   0.327   4.963  13.037
   50DOPE  H11A 6330   0.304   5.045  13.119
   50DOPE  H11B 6331   0.242   4.979  12.959
   50DOPE     P 6332   0.606   5.009  13.068
   50DOPE   O13 6333   0.557   5.064  13.198
   50DOPE   O14 6334   0.716   5.099  12.996
   50DOPE   O11 6335   0.657   4.843  13.079
   50DOPE   O12 6336   0.465   4.990  12.977
   50DOPE    C1 6337   0.772   4.789  13.162
   50DOPE    HA 6338   0.879   4.847  13.145
   50DOPE    HB 6339   0.791   4.674  13.130
   50DOPE    C2 6340   0.739   4.780  13.317
   50DOPE    HS 6341   0.794   4.676  13.352
   50DOPE   O21 6342   0.586   4.785  13.351
   50DOPE   C21 6343   0.534   4.656  13.374
   50DOPE   O22 6344   0.563   4.544  13.313
   50DOPE   C22 6345   0.431   4.661  13.494
   50DOPE   H2R 6346   0.404   4.546  13.513
   50DOPE   H2S 6347   0.329   4.719  13.466
   50DOPE    C3 6348   0.813   4.903  13.401
   50DOPE    HX 6349   0.790   5.009  13.351
   50DOPE    HY 6350   0.927   4.866  13.391
   50DOPE   O31 6351   0.780   4.906  13.542
   50DOPE   C31 6352   0.763   5.036  13.605
   50DOPE   O32 6353   0.766   5.156  13.553
   50DOPE   C32 6354   0.743   5.001  13.755
   50DOPE   H2X 6355   0.640   4.937  13.764
   50DOPE   H2Y 6356   0.840   4.935  13.782
   50DOPE   C23 6357   0.498   4.728  13.623
   50DOPE   H3R 6358   0.411   4.727  13.701
   50DOPE   H3S 6359   0.526   4.844  13.602
   50DOPE   C24 6360   0.635   4.646  13.679
   50DOPE   H4R 6361   0.734   4.679  13.622
   50DOPE   H4S 6362   0.625   4.528  13.660
   50DOPE   C25 6363   0.666   4.669  13.829
   50DOPE   H5R 6364   0.577   4.731  13.882
   50DOPE   H5S 6365   0.770   4.732  13.835
   50DOPE   C26 6366   0.694   4.528  13.906
   50DOPE   H6R 6367   0.783   4.465  13.855
   50DOPE   H6S 6368   0.594   4.458  13.907
   50DOPE   C27 6369   0.740   4.561  14.050
   50DOPE   H7R 6370   0.759   4.682  14.064
   50DOPE   H7S 6371   0.847   4.507  14.067
   50DOPE   C28 6372   0.634   4.499  14.154
   50DOPE   H8R 6373   0.629   4.378  14.142
   50DOPE   H8S 6374   0.521   4.543  14.136
   50DOPE   C29 6375   0.685   4.537  14.291
   50DOPE   H9R 6376   0.765   4.463  14.335
   50DOPE  C210 6377   0.653   4.659  14.358
   50DOPE  H10R 6378   0.702   4.671  14.457
   50DOPE  C211 6379   0.559   4.785  14.316
   50DOPE  H11R 6380   0.466   4.747  14.253
   50DOPE  H11S 6381   0.622   4.862  14.251
   50DOPE  C212 6382   0.496   4.864  14.439
   50DOPE  H12R 6383   0.580   4.931  14.492
   50DOPE  H12S 6384   0.455   4.783  14.513
   50DOPE  C213 6385   0.370   4.963  14.398
   50DOPE  H13R 6386   0.288   4.978  14.480
   50DOPE  H13S 6387   0.311   4.905  14.316
   50DOPE  C214 6388   0.421   5.113  14.346
   50DOPE  H14R 6389   0.328   5.180  14.311
   50DOPE  H14S 6390   0.487   5.090  14.255
   50DOPE  C215 6391   0.494   5.216  14.448
   50DOPE  H15R 6392   0.506   5.327  14.402
   50DOPE  H15S 6393   0.605   5.178  14.476
   50DOPE  C216 6394   0.397   5.222  14.572
   50DOPE  H16R 6395   0.410   5.118  14.630
   50DOPE  H16S 6396   0.283   5.223  14.531
   50DOPE  C217 6397   0.405   5.353  14.665
   50DOPE  H17R 6398   0.399   5.457  14.608
   50DOPE  H17S 6399   0.506   5.357  14.727
   50DOPE  C218 6400   0.276   5.335  14.760
   50DOPE  H18R 6401   0.307   5.251  14.835
   50DOPE  H18S 6402   0.180   5.289  14.705
   50DOPE  H18T 6403   0.243   5.440  14.809
   50DOPE   C33 6404   0.732   5.126  13.859
   50DOPE   H3X 6405   0.632   5.194  13.843
   50DOPE   H3Y 6406   0.828   5.199  13.843
   50DOPE   C34 6407   0.737   5.074  14.007
   50DOPE   H4X 6408   0.629   5.029  14.040
   50DOPE   H4Y 6409   0.823   4.987  14.020
   50DOPE   C35 6410   0.781   5.211  14.087
   50DOPE   H5X 6411   0.706   5.299  14.050
   50DOPE   H5Y 6412   0.898   5.231  14.061
   50DOPE   C36 6413   0.775   5.226  14.237
   50DOPE   H6X 6414   0.674   5.178  14.272
   50DOPE   H6Y 6415   0.770   5.344  14.266
   50DOPE   C37 6416   0.904   5.155  14.308
   50DOPE   H7X 6417   1.003   5.152  14.243
   50DOPE   H7Y 6418   0.933   5.222  14.398
   50DOPE   C38 6419   0.849   5.001  14.344
   50DOPE   H8X 6420   0.824   4.956  14.243
   50DOPE   H8Y 6421   0.744   5.019  14.396
   50DOPE   C39 6422   0.923   4.875  14.413
   50DOPE   H9X 6423   1.001   4.818  14.348
   50DOPE  C310 6424   0.901   4.816  14.534
   50DOPE  H10X 6425   0.968   4.719  14.550
   50DOPE  C311 6426   0.800   4.843  14.653
   50DOPE  H11X 6427   0.700   4.773  14.641
   50DOPE  H11Y 6428   0.856   4.795  14.741
   50DOPE  C312 6429   0.743   4.998  14.697
   50DOPE  H12X 6430   0.623   4.984  14.718
   50DOPE  H12Y 6431   0.755   5.075  14.613
   50DOPE  C313 6432   0.803   5.067  14.828
   50DOPE  H13X 6433   0.920   5.102  14.817
   50DOPE  H13Y 6434   0.737   5.167  14.851
   50DOPE  C314 6435   0.784   4.959  14.945
   50DOPE  H14X 6436   0.869   4.873  14.936
   50DOPE  H14Y 6437   0.674   4.908  14.931
   50DOPE  C315 6438   0.796   5.009  15.089
   50DOPE  H15X 6439   0.796   4.909  15.155
   50DOPE  H15Y 6440   0.696   5.071  15.117
   50DOPE  C316 6441   0.936   5.096  15.118
   50DOPE  H16X 6442   0.903   5.188  15.188
   50DOPE  H16Y 6443   0.980   5.149  15.026
   50DOPE  C317 6444   1.057   5.008  15.188
   50DOPE  H17X 6445   1.143   5.091  15.209
   50DOPE  H17Y 6446   1.015   4.960  15.283
   50DOPE  C318 6447   1.140   4.893  15.107
   50DOPE  H18X 6448   1.065   4.808  15.065
   50DOPE  H18Y 6449   1.199   4.950  15.026
   50DOPE  H18Z 6450   1.222   4.836  15.171
   51DOPE     N 6451   3.008   7.876  12.881
   51DOPE   HN1 6452   3.066   7.873  12.791
   51DOPE   HN2 6453   2.966   7.772  12.897
   51DOPE   HN3 6454   2.924   7.953  12.867
   51DOPE   C12 6455   3.115   7.922  12.990
   51DOPE  H12A 6456   3.056   7.919  13.087
   51DOPE  H12B 6457   3.150   8.037  12.970
   51DOPE   C11 6458   3.254   7.823  12.999
   51DOPE  H11A 6459   3.322   7.831  12.907
   51DOPE  H11B 6460   3.220   7.707  13.011
   51DOPE     P 6461   3.478   7.963  13.124
   51DOPE   O13 6462   3.466   8.053  13.247
   51DOPE   O14 6463   3.498   8.035  12.993
   51DOPE   O11 6464   3.606   7.845  13.144
   51DOPE   O12 6465   3.335   7.863  13.115
   51DOPE    C1 6466   3.584   7.702  13.197
   51DOPE    HA 6467   3.694   7.648  13.205
   51DOPE    HB 6468   3.517   7.634  13.128
   51DOPE    C2 6469   3.517   7.702  13.341
   51DOPE    HS 6470   3.399   7.734  13.328
   51DOPE   O21 6471   3.598   7.808  13.418
   51DOPE   C21 6472   3.516   7.879  13.505
   51DOPE   O22 6473   3.391   7.845  13.539
   51DOPE   C22 6474   3.603   8.007  13.561
   51DOPE   H2R 6475   3.623   8.082  13.475
   51DOPE   H2S 6476   3.709   7.966  13.601
   51DOPE    C3 6477   3.522   7.548  13.407
   51DOPE    HX 6478   3.639   7.527  13.437
   51DOPE    HY 6479   3.494   7.467  13.328
   51DOPE   O31 6480   3.418   7.530  13.514
   51DOPE   C31 6481   3.468   7.558  13.635
   51DOPE   O32 6482   3.595   7.593  13.662
   51DOPE   C32 6483   3.350   7.533  13.741
   51DOPE   H2X 6484   3.253   7.600  13.714
   51DOPE   H2Y 6485   3.318   7.415  13.741
   51DOPE   C23 6486   3.517   8.093  13.669
   51DOPE   H3R 6487   3.540   8.047  13.768
   51DOPE   H3S 6488   3.396   8.083  13.655
   51DOPE   C24 6489   3.552   8.258  13.663
   51DOPE   H4R 6490   3.483   8.314  13.738
   51DOPE   H4S 6491   3.518   8.298  13.563
   51DOPE   C25 6492   3.714   8.303  13.682
   51DOPE   H5R 6493   3.720   8.425  13.686
   51DOPE   H5S 6494   3.776   8.265  13.593
   51DOPE   C26 6495   3.787   8.239  13.806
   51DOPE   H6R 6496   3.897   8.290  13.822
   51DOPE   H6S 6497   3.806   8.120  13.784
   51DOPE   C27 6498   3.697   8.251  13.936
   51DOPE   H7R 6499   3.584   8.291  13.918
   51DOPE   H7S 6500   3.750   8.335  14.002
   51DOPE   C28 6501   3.691   8.101  14.005
   51DOPE   H8R 6502   3.641   8.022  13.935
   51DOPE   H8S 6503   3.612   8.095  14.089
   51DOPE   C29 6504   3.847   8.065  14.045
   51DOPE   H9R 6505   3.897   8.138  14.120
   51DOPE  C210 6506   3.913   7.940  14.010
   51DOPE  H10R 6507   4.024   7.913  14.047
   51DOPE  C211 6508   3.831   7.826  13.930
   51DOPE  H11R 6509   3.898   7.740  13.883
   51DOPE  H11S 6510   3.769   7.875  13.844
   51DOPE  C212 6511   3.729   7.765  14.039
   51DOPE  H12R 6512   3.639   7.703  13.989
   51DOPE  H12S 6513   3.673   7.850  14.101
   51DOPE  C213 6514   3.806   7.662  14.137
   51DOPE  H13R 6515   3.924   7.655  14.106
   51DOPE  H13S 6516   3.757   7.557  14.111
   51DOPE  C214 6517   3.802   7.693  14.290
   51DOPE  H14R 6518   3.850   7.806  14.304
   51DOPE  H14S 6519   3.874   7.614  14.343
   51DOPE  C215 6520   3.654   7.693  14.367
   51DOPE  H15R 6521   3.572   7.751  14.306
   51DOPE  H15S 6522   3.669   7.763  14.458
   51DOPE  C216 6523   3.588   7.545  14.416
   51DOPE  H16R 6524   3.562   7.475  14.328
   51DOPE  H16S 6525   3.479   7.574  14.460
   51DOPE  C217 6526   3.672   7.451  14.520
   51DOPE  H17R 6527   3.751   7.379  14.468
   51DOPE  H17S 6528   3.590   7.374  14.566
   51DOPE  C218 6529   3.760   7.527  14.632
   51DOPE  H18R 6530   3.813   7.443  14.696
   51DOPE  H18S 6531   3.689   7.596  14.697
   51DOPE  H18T 6532   3.847   7.599  14.590
   51DOPE   C33 6533   3.413   7.580  13.877
   51DOPE   H3X 6534   3.443   7.699  13.867
   51DOPE   H3Y 6535   3.517   7.519  13.897
   51DOPE   C34 6536   3.315   7.564  14.000
   51DOPE   H4X 6537   3.205   7.611  13.978
   51DOPE   H4Y 6538   3.301   7.445  14.025
   51DOPE   C35 6539   3.381   7.645  14.121
   51DOPE   H5X 6540   3.496   7.604  14.136
   51DOPE   H5Y 6541   3.321   7.614  14.214
   51DOPE   C36 6542   3.384   7.813  14.105
   51DOPE   H6X 6543   3.461   7.849  14.026
   51DOPE   H6Y 6544   3.421   7.866  14.200
   51DOPE   C37 6545   3.234   7.879  14.068
   51DOPE   H7X 6546   3.241   8.001  14.064
   51DOPE   H7Y 6547   3.205   7.842  13.966
   51DOPE   C38 6548   3.118   7.829  14.167
   51DOPE   H8X 6549   3.115   7.707  14.176
   51DOPE   H8Y 6550   3.008   7.857  14.130
   51DOPE   C39 6551   3.142   7.900  14.299
   51DOPE   H9X 6552   3.221   7.993  14.304
   51DOPE  C310 6553   3.075   7.855  14.409
   51DOPE  H10X 6554   3.091   7.917  14.502
   51DOPE  C311 6555   2.968   7.728  14.416
   51DOPE  H11X 6556   2.871   7.756  14.478
   51DOPE  H11Y 6557   2.925   7.691  14.317
   51DOPE  C312 6558   3.054   7.602  14.478
   51DOPE  H12X 6559   3.130   7.554  14.402
   51DOPE  H12Y 6560   2.977   7.514  14.512
   51DOPE  C313 6561   3.147   7.656  14.595
   51DOPE  H13X 6562   3.249   7.708  14.555
   51DOPE  H13Y 6563   3.086   7.743  14.651
   51DOPE  C314 6564   3.189   7.539  14.694
   51DOPE  H14X 6565   3.246   7.446  14.646
   51DOPE  H14Y 6566   3.086   7.499  14.742
   51DOPE  C315 6567   3.283   7.609  14.801
   51DOPE  H15X 6568   3.307   7.517  14.872
   51DOPE  H15Y 6569   3.216   7.697  14.851
   51DOPE  C316 6570   3.432   7.674  14.756
   51DOPE  H16X 6571   3.453   7.633  14.654
   51DOPE  H16Y 6572   3.518   7.624  14.821
   51DOPE  C317 6573   3.453   7.842  14.759
   51DOPE  H17X 6574   3.568   7.864  14.726
   51DOPE  H17Y 6575   3.380   7.888  14.680
   51DOPE  C318 6576   3.429   7.922  14.892
   51DOPE  H18X 6577   3.312   7.915  14.924
   51DOPE  H18Y 6578   3.500   7.878  14.972
   51DOPE  H18Z 6579   3.456   8.041  14.882
   52DOPE     N 6580   7.899   5.253  12.956
   52DOPE   HN1 6581   7.816   5.290  12.892
   52DOPE   HN2 6582   7.973   5.341  12.971
   52DOPE   HN3 6583   7.963   5.173  12.908
   52DOPE   C12 6584   7.858   5.179  13.085
   52DOPE  H12A 6585   7.768   5.100  13.062
   52DOPE  H12B 6586   7.824   5.261  13.160
   52DOPE   C11 6587   7.986   5.086  13.133
   52DOPE  H11A 6588   7.943   5.013  13.214
   52DOPE  H11B 6589   8.077   5.154  13.173
   52DOPE     P 6590   8.131   4.868  13.037
   52DOPE   O13 6591   8.280   4.929  13.063
   52DOPE   O14 6592   8.107   4.781  12.916
   52DOPE   O11 6593   8.060   4.796  13.163
   52DOPE   O12 6594   8.030   5.005  13.018
   52DOPE    C1 6595   8.125   4.690  13.251
   52DOPE    HA 6596   8.247   4.693  13.243
   52DOPE    HB 6597   8.084   4.579  13.225
   52DOPE    C2 6598   8.077   4.728  13.397
   52DOPE    HS 6599   7.955   4.714  13.400
   52DOPE   O21 6600   8.122   4.875  13.420
   52DOPE   C21 6601   8.027   4.962  13.479
   52DOPE   O22 6602   7.895   4.944  13.490
   52DOPE   C22 6603   8.117   5.085  13.539
   52DOPE   H2R 6604   8.143   5.163  13.457
   52DOPE   H2S 6605   8.221   5.032  13.572
   52DOPE    C3 6606   8.146   4.637  13.514
   52DOPE    HX 6607   8.268   4.650  13.504
   52DOPE    HY 6608   8.121   4.517  13.508
   52DOPE   O31 6609   8.113   4.697  13.644
   52DOPE   C31 6610   7.973   4.694  13.684
   52DOPE   O32 6611   7.875   4.621  13.635
   52DOPE   C32 6612   7.962   4.803  13.801
   52DOPE   H2X 6613   8.026   4.754  13.884
   52DOPE   H2Y 6614   8.022   4.900  13.768
   52DOPE   C23 6615   8.053   5.171  13.658
   52DOPE   H3R 6616   8.030   5.105  13.748
   52DOPE   H3S 6617   7.948   5.225  13.632
   52DOPE   C24 6618   8.171   5.283  13.697
   52DOPE   H4R 6619   8.126   5.365  13.769
   52DOPE   H4S 6620   8.201   5.345  13.606
   52DOPE   C25 6621   8.312   5.210  13.753
   52DOPE   H5R 6622   8.391   5.295  13.783
   52DOPE   H5S 6623   8.371   5.148  13.674
   52DOPE   C26 6624   8.288   5.114  13.877
   52DOPE   H6R 6625   8.401   5.084  13.911
   52DOPE   H6S 6626   8.231   5.010  13.853
   52DOPE   C27 6627   8.208   5.199  13.987
   52DOPE   H7R 6628   8.113   5.261  13.949
   52DOPE   H7S 6629   8.287   5.282  14.023
   52DOPE   C28 6630   8.148   5.099  14.098
   52DOPE   H8R 6631   8.218   4.998  14.106
   52DOPE   H8S 6632   8.034   5.062  14.074
   52DOPE   C29 6633   8.161   5.184  14.224
   52DOPE   H9R 6634   8.264   5.244  14.228
   52DOPE  C210 6635   8.065   5.210  14.323
   52DOPE  H10R 6636   8.104   5.270  14.410
   52DOPE  C211 6637   7.912   5.158  14.339
   52DOPE  H11R 6638   7.873   5.095  14.250
   52DOPE  H11S 6639   7.834   5.251  14.354
   52DOPE  C212 6640   7.908   5.059  14.463
   52DOPE  H12R 6641   7.967   4.953  14.448
   52DOPE  H12S 6642   7.789   5.039  14.465
   52DOPE  C213 6643   7.927   5.119  14.605
   52DOPE  H13R 6644   7.875   5.037  14.670
   52DOPE  H13S 6645   7.856   5.216  14.619
   52DOPE  C214 6646   8.085   5.138  14.654
   52DOPE  H14R 6647   8.128   5.247  14.630
   52DOPE  H14S 6648   8.153   5.059  14.595
   52DOPE  C215 6649   8.111   5.108  14.804
   52DOPE  H15R 6650   8.051   5.008  14.834
   52DOPE  H15S 6651   8.069   5.190  14.875
   52DOPE  C216 6652   8.278   5.091  14.824
   52DOPE  H16R 6653   8.328   5.039  14.734
   52DOPE  H16S 6654   8.296   5.014  14.909
   52DOPE  C217 6655   8.357   5.235  14.852
   52DOPE  H17R 6656   8.279   5.313  14.900
   52DOPE  H17S 6657   8.394   5.286  14.757
   52DOPE  C218 6658   8.487   5.205  14.948
   52DOPE  H18R 6659   8.595   5.243  14.976
   52DOPE  H18S 6660   8.545   5.129  14.878
   52DOPE  H18T 6661   8.498   5.328  14.948
   52DOPE   C33 6662   7.808   4.844  13.856
   52DOPE   H3X 6663   7.719   4.800  13.791
   52DOPE   H3Y 6664   7.792   4.966  13.859
   52DOPE   C34 6665   7.798   4.787  14.001
   52DOPE   H4X 6666   7.818   4.667  13.999
   52DOPE   H4Y 6667   7.890   4.838  14.060
   52DOPE   C35 6668   7.653   4.820  14.072
   52DOPE   H5X 6669   7.564   4.773  14.008
   52DOPE   H5Y 6670   7.637   4.941  14.076
   52DOPE   C36 6671   7.631   4.754  14.214
   52DOPE   H6X 6672   7.676   4.642  14.218
   52DOPE   H6Y 6673   7.510   4.745  14.230
   52DOPE   C37 6674   7.694   4.847  14.329
   52DOPE   H7X 6675   7.814   4.835  14.329
   52DOPE   H7Y 6676   7.668   4.963  14.299
   52DOPE   C38 6677   7.625   4.829  14.473
   52DOPE   H8X 6678   7.513   4.830  14.436
   52DOPE   H8Y 6679   7.631   4.932  14.531
   52DOPE   C39 6680   7.620   4.704  14.573
   52DOPE   H9X 6681   7.541   4.620  14.541
   52DOPE  C310 6682   7.686   4.677  14.692
   52DOPE  H10X 6683   7.651   4.575  14.741
   52DOPE  C311 6684   7.795   4.756  14.782
   52DOPE  H11X 6685   7.854   4.847  14.731
   52DOPE  H11Y 6686   7.744   4.803  14.873
   52DOPE  C312 6687   7.916   4.649  14.826
   52DOPE  H12X 6688   7.871   4.534  14.826
   52DOPE  H12Y 6689   7.959   4.671  14.928
   52DOPE  C313 6690   8.040   4.660  14.723
   52DOPE  H13X 6691   8.086   4.550  14.703
   52DOPE  H13Y 6692   7.984   4.697  14.630
   52DOPE  C314 6693   8.162   4.771  14.757
   52DOPE  H14X 6694   8.156   4.799  14.865
   52DOPE  H14Y 6695   8.129   4.868  14.698
   52DOPE  C315 6696   8.324   4.747  14.715
   52DOPE  H15X 6697   8.395   4.808  14.787
   52DOPE  H15Y 6698   8.342   4.798  14.616
   52DOPE  C316 6699   8.372   4.587  14.709
   52DOPE  H16X 6700   8.491   4.586  14.683
   52DOPE  H16Y 6701   8.315   4.531  14.626
   52DOPE  C317 6702   8.347   4.501  14.839
   52DOPE  H17X 6703   8.235   4.455  14.837
   52DOPE  H17Y 6704   8.423   4.404  14.837
   52DOPE  C318 6705   8.366   4.588  14.970
   52DOPE  H18X 6706   8.372   4.512  15.056
   52DOPE  H18Y 6707   8.468   4.656  14.969
   52DOPE  H18Z 6708   8.272   4.663  14.987
   53DOPE     N 6709   6.728   7.174  12.791
   53DOPE   HN1 6710   6.773   7.075  12.758
   53DOPE   HN2 6711   6.678   7.159  12.885
   53DOPE   HN3 6712   6.645   7.210  12.725
   53DOPE   C12 6713   6.843   7.291  12.815
   53DOPE  H12A 6714   6.795   7.398  12.783
   53DOPE  H12B 6715   6.942   7.266  12.754
   53DOPE   C11 6716   6.878   7.300  12.964
   53DOPE  H11A 6717   6.941   7.403  12.984
   53DOPE  H11B 6718   6.944   7.203  12.998
   53DOPE     P 6719   6.720   7.345  13.182
   53DOPE   O13 6720   6.701   7.203  13.251
   53DOPE   O14 6721   6.599   7.453  13.187
   53DOPE   O11 6722   6.874   7.414  13.224
   53DOPE   O12 6723   6.742   7.301  13.030
   53DOPE    C1 6724   6.874   7.527  13.324
   53DOPE    HA 6725   6.790   7.613  13.303
   53DOPE    HB 6726   6.982   7.583  13.321
   53DOPE    C2 6727   6.851   7.460  13.466
   53DOPE    HS 6728   6.917   7.359  13.467
   53DOPE   O21 6729   6.698   7.432  13.485
   53DOPE   C21 6730   6.663   7.304  13.536
   53DOPE   O22 6731   6.744   7.204  13.570
   53DOPE   C22 6732   6.502   7.318  13.577
   53DOPE   H2R 6733   6.450   7.208  13.571
   53DOPE   H2S 6734   6.444   7.393  13.506
   53DOPE    C3 6735   6.907   7.558  13.583
   53DOPE    HX 6736   6.842   7.658  13.601
   53DOPE    HY 6737   7.013   7.599  13.546
   53DOPE   O31 6738   6.926   7.475  13.704
   53DOPE   C31 6739   6.855   7.521  13.812
   53DOPE   O32 6740   6.790   7.636  13.822
   53DOPE   C32 6741   6.864   7.400  13.920
   53DOPE   H2X 6742   6.763   7.333  13.917
   53DOPE   H2Y 6743   6.959   7.328  13.894
   53DOPE   C23 6744   6.505   7.382  13.719
   53DOPE   H3R 6745   6.472   7.500  13.720
   53DOPE   H3S 6746   6.618   7.379  13.761
   53DOPE   C24 6747   6.415   7.292  13.816
   53DOPE   H4R 6748   6.427   7.173  13.791
   53DOPE   H4S 6749   6.298   7.323  13.804
   53DOPE   C25 6750   6.460   7.310  13.963
   53DOPE   H5R 6751   6.505   7.421  13.984
   53DOPE   H5S 6752   6.546   7.227  13.989
   53DOPE   C26 6753   6.324   7.283  14.046
   53DOPE   H6R 6754   6.237   7.356  14.006
   53DOPE   H6S 6755   6.339   7.310  14.154
   53DOPE   C27 6756   6.272   7.125  14.032
   53DOPE   H7R 6757   6.272   7.088  13.925
   53DOPE   H7S 6758   6.158   7.113  14.067
   53DOPE   C28 6759   6.370   7.020  14.110
   53DOPE   H8R 6760   6.486   7.025  14.073
   53DOPE   H8S 6761   6.316   6.917  14.080
   53DOPE   C29 6762   6.360   7.020  14.259
   53DOPE   H9R 6763   6.277   6.943  14.297
   53DOPE  C210 6764   6.449   7.084  14.347
   53DOPE  H10R 6765   6.415   7.081  14.453
   53DOPE  C211 6766   6.586   7.174  14.320
   53DOPE  H11R 6767   6.563   7.294  14.330
   53DOPE  H11S 6768   6.626   7.156  14.217
   53DOPE  C212 6769   6.706   7.129  14.420
   53DOPE  H12R 6770   6.813   7.175  14.389
   53DOPE  H12S 6771   6.718   7.007  14.415
   53DOPE  C213 6772   6.680   7.174  14.567
   53DOPE  H13R 6773   6.562   7.174  14.592
   53DOPE  H13S 6774   6.720   7.290  14.579
   53DOPE  C214 6775   6.761   7.069  14.661
   53DOPE  H14R 6776   6.874   7.051  14.622
   53DOPE  H14S 6777   6.703   6.962  14.656
   53DOPE  C215 6778   6.771   7.114  14.809
   53DOPE  H15R 6779   6.661   7.136  14.852
   53DOPE  H15S 6780   6.835   7.218  14.814
   53DOPE  C216 6781   6.846   6.999  14.899
   53DOPE  H16R 6782   6.926   6.931  14.842
   53DOPE  H16S 6783   6.760   6.922  14.937
   53DOPE  C217 6784   6.917   7.077  15.019
   53DOPE  H17R 6785   6.833   7.075  15.099
   53DOPE  H17S 6786   6.936   7.194  14.992
   53DOPE  C218 6787   7.062   7.016  15.073
   53DOPE  H18R 6788   7.060   6.894  15.076
   53DOPE  H18S 6789   7.081   7.058  15.175
   53DOPE  H18T 6790   7.157   7.052  15.011
   53DOPE   C33 6791   6.888   7.459  14.063
   53DOPE   H3X 6792   6.962   7.555  14.056
   53DOPE   H3Y 6793   6.944   7.372  14.124
   53DOPE   C34 6794   6.752   7.510  14.140
   53DOPE   H4X 6795   6.718   7.618  14.096
   53DOPE   H4Y 6796   6.659   7.431  14.133
   53DOPE   C35 6797   6.789   7.533  14.288
   53DOPE   H5X 6798   6.897   7.586  14.289
   53DOPE   H5Y 6799   6.796   7.428  14.345
   53DOPE   C36 6800   6.701   7.647  14.362
   53DOPE   H6X 6801   6.707   7.751  14.306
   53DOPE   H6Y 6802   6.755   7.669  14.460
   53DOPE   C37 6803   6.542   7.613  14.386
   53DOPE   H7X 6804   6.479   7.593  14.294
   53DOPE   H7Y 6805   6.530   7.509  14.441
   53DOPE   C38 6806   6.489   7.753  14.457
   53DOPE   H8X 6807   6.526   7.850  14.399
   53DOPE   H8Y 6808   6.548   7.764  14.553
   53DOPE   C39 6809   6.325   7.757  14.471
   53DOPE   H9X 6810   6.263   7.752  14.376
   53DOPE  C310 6811   6.256   7.772  14.587
   53DOPE  H10X 6812   6.135   7.770  14.590
   53DOPE  C311 6813   6.332   7.785  14.720
   53DOPE  H11X 6814   6.425   7.864  14.717
   53DOPE  H11Y 6815   6.250   7.833  14.789
   53DOPE  C312 6816   6.383   7.640  14.783
   53DOPE  H12X 6817   6.291   7.562  14.789
   53DOPE  H12Y 6818   6.417   7.666  14.886
   53DOPE  C313 6819   6.509   7.551  14.719
   53DOPE  H13X 6820   6.463   7.500  14.627
   53DOPE  H13Y 6821   6.601   7.622  14.690
   53DOPE  C314 6822   6.565   7.428  14.811
   53DOPE  H14X 6823   6.659   7.376  14.761
   53DOPE  H14Y 6824   6.477   7.345  14.825
   53DOPE  C315 6825   6.618   7.477  14.951
   53DOPE  H15X 6826   6.667   7.380  15.002
   53DOPE  H15Y 6827   6.519   7.508  15.008
   53DOPE  C316 6828   6.728   7.604  14.946
   53DOPE  H16X 6829   6.675   7.701  14.898
   53DOPE  H16Y 6830   6.821   7.569  14.880
   53DOPE  C317 6831   6.791   7.655  15.081
   53DOPE  H17X 6832   6.886   7.730  15.060
   53DOPE  H17Y 6833   6.708   7.724  15.133
   53DOPE  C318 6834   6.843   7.533  15.176
   53DOPE  H18X 6835   6.922   7.459  15.124
   53DOPE  H18Y 6836   6.897   7.580  15.265
   53DOPE  H18Z 6837   6.749   7.466  15.210
   54DOPE     N 6838   0.326   3.955  12.969
   54DOPE   HN1 6839   0.435   3.944  12.937
   54DOPE   HN2 6840   0.267   3.858  12.954
   54DOPE   HN3 6841   0.275   4.036  12.909
   54DOPE   C12 6842   0.304   4.007  13.109
   54DOPE  H12A 6843   0.381   4.100  13.127
   54DOPE  H12B 6844   0.324   3.917  13.180
   54DOPE   C11 6845   0.145   4.062  13.115
   54DOPE  H11A 6846   0.129   4.124  13.210
   54DOPE  H11B 6847   0.070   3.966  13.121
   54DOPE     P 6848  -0.046   4.215  12.988
   54DOPE   O13 6849  -0.147   4.089  13.000
   54DOPE   O14 6850  -0.059   4.313  12.870
   54DOPE   O11 6851  -0.048   4.306  13.123
   54DOPE   O12 6852   0.118   4.154  12.998
   54DOPE    C1 6853   0.038   4.435  13.142
   54DOPE    HA 6854  -0.033   4.532  13.123
   54DOPE    HB 6855   0.135   4.442  13.073
   54DOPE    C2 6856   0.099   4.448  13.288
   54DOPE    HS 6857   0.156   4.555  13.299
   54DOPE   O21 6858   0.202   4.331  13.311
   54DOPE   C21 6859   0.240   4.305  13.437
   54DOPE   O22 6860   0.214   4.387  13.531
   54DOPE   C22 6861   0.330   4.166  13.446
   54DOPE   H2R 6862   0.323   4.103  13.351
   54DOPE   H2S 6863   0.287   4.095  13.526
   54DOPE    C3 6864  -0.034   4.445  13.388
   54DOPE    HX 6865  -0.113   4.522  13.344
   54DOPE    HY 6866  -0.004   4.491  13.488
   54DOPE   O31 6867  -0.106   4.304  13.397
   54DOPE   C31 6868  -0.107   4.232  13.509
   54DOPE   O32 6869  -0.058   4.271  13.617
   54DOPE   C32 6870  -0.187   4.089  13.482
   54DOPE   H2X 6871  -0.306   4.111  13.496
   54DOPE   H2Y 6872  -0.168   4.055  13.377
   54DOPE   C23 6873   0.488   4.212  13.477
   54DOPE   H3R 6874   0.525   4.294  13.402
   54DOPE   H3S 6875   0.563   4.117  13.465
   54DOPE   C24 6876   0.509   4.278  13.617
   54DOPE   H4R 6877   0.448   4.381  13.623
   54DOPE   H4S 6878   0.626   4.313  13.623
   54DOPE   C25 6879   0.468   4.189  13.743
   54DOPE   H5R 6880   0.549   4.217  13.822
   54DOPE   H5S 6881   0.479   4.069  13.723
   54DOPE   C26 6882   0.317   4.228  13.802
   54DOPE   H6R 6883   0.300   4.164  13.895
   54DOPE   H6S 6884   0.231   4.192  13.728
   54DOPE   C27 6885   0.288   4.391  13.834
   54DOPE   H7R 6886   0.178   4.422  13.793
   54DOPE   H7S 6887   0.371   4.463  13.784
   54DOPE   C28 6888   0.294   4.429  13.983
   54DOPE   H8R 6889   0.399   4.384  14.022
   54DOPE   H8S 6890   0.205   4.370  14.035
   54DOPE   C29 6891   0.280   4.593  14.005
   54DOPE   H9R 6892   0.317   4.661  13.920
   54DOPE  C210 6893   0.219   4.659  14.113
   54DOPE  H10R 6894   0.226   4.778  14.121
   54DOPE  C211 6895   0.152   4.585  14.234
   54DOPE  H11R 6896   0.075   4.496  14.206
   54DOPE  H11S 6897   0.085   4.667  14.289
   54DOPE  C212 6898   0.265   4.525  14.336
   54DOPE  H12R 6899   0.338   4.617  14.366
   54DOPE  H12S 6900   0.333   4.438  14.290
   54DOPE  C213 6901   0.185   4.467  14.461
   54DOPE  H13R 6902   0.121   4.369  14.431
   54DOPE  H13S 6903   0.103   4.553  14.489
   54DOPE  C214 6904   0.272   4.425  14.588
   54DOPE  H14R 6905   0.362   4.346  14.569
   54DOPE  H14S 6906   0.188   4.368  14.651
   54DOPE  C215 6907   0.337   4.549  14.672
   54DOPE  H15R 6908   0.304   4.654  14.626
   54DOPE  H15S 6909   0.459   4.542  14.668
   54DOPE  C216 6910   0.289   4.556  14.821
   54DOPE  H16R 6911   0.191   4.630  14.825
   54DOPE  H16S 6912   0.376   4.626  14.862
   54DOPE  C217 6913   0.244   4.419  14.906
   54DOPE  H17R 6914   0.199   4.332  14.842
   54DOPE  H17S 6915   0.153   4.459  14.969
   54DOPE  C218 6916   0.336   4.342  15.016
   54DOPE  H18R 6917   0.439   4.294  14.977
   54DOPE  H18S 6918   0.271   4.252  15.062
   54DOPE  H18T 6919   0.363   4.420  15.097
   54DOPE   C33 6920  -0.136   3.968  13.578
   54DOPE   H3X 6921  -0.205   3.868  13.561
   54DOPE   H3Y 6922  -0.151   4.003  13.684
   54DOPE   C34 6923   0.024   3.925  13.553
   54DOPE   H4X 6924   0.043   3.902  13.445
   54DOPE   H4Y 6925   0.097   4.016  13.584
   54DOPE   C35 6926   0.062   3.787  13.632
   54DOPE   H5X 6927   0.171   3.742  13.601
   54DOPE   H5Y 6928  -0.025   3.707  13.605
   54DOPE   C36 6929   0.057   3.806  13.783
   54DOPE   H6X 6930   0.095   3.702  13.829
   54DOPE   H6Y 6931  -0.056   3.829  13.820
   54DOPE   C37 6932   0.163   3.918  13.841
   54DOPE   H7X 6933   0.270   3.914  13.786
   54DOPE   H7Y 6934   0.113   4.029  13.829
   54DOPE   C38 6935   0.194   3.884  13.989
   54DOPE   H8X 6936   0.275   3.969  14.021
   54DOPE   H8Y 6937   0.253   3.780  13.997
   54DOPE   C39 6938   0.056   3.876  14.074
   54DOPE   H9X 6939  -0.001   3.771  14.076
   54DOPE  C310 6940   0.008   3.990  14.148
   54DOPE  H10X 6941  -0.089   3.978  14.213
   54DOPE  C311 6942   0.088   4.133  14.151
   54DOPE  H11X 6943   0.123   4.164  14.048
   54DOPE  H11Y 6944   0.015   4.224  14.186
   54DOPE  C312 6945   0.223   4.118  14.242
   54DOPE  H12X 6946   0.282   4.225  14.246
   54DOPE  H12Y 6947   0.305   4.038  14.203
   54DOPE  C313 6948   0.184   4.068  14.383
   54DOPE  H13X 6949   0.096   4.141  14.422
   54DOPE  H13Y 6950   0.138   3.955  14.382
   54DOPE  C314 6951   0.315   4.071  14.478
   54DOPE  H14X 6952   0.378   4.172  14.459
   54DOPE  H14Y 6953   0.391   3.978  14.456
   54DOPE  C315 6954   0.257   4.060  14.621
   54DOPE  H15X 6955   0.198   3.953  14.628
   54DOPE  H15Y 6956   0.173   4.146  14.639
   54DOPE  C316 6957   0.373   4.069  14.732
   54DOPE  H16X 6958   0.420   4.182  14.738
   54DOPE  H16Y 6959   0.464   3.993  14.708
   54DOPE  C317 6960   0.307   4.025  14.867
   54DOPE  H17X 6961   0.383   4.052  14.949
   54DOPE  H17Y 6962   0.204   4.088  14.885
   54DOPE  C318 6963   0.277   3.860  14.872
   54DOPE  H18X 6964   0.371   3.798  14.829
   54DOPE  H18Y 6965   0.262   3.821  14.977
   54DOPE  H18Z 6966   0.177   3.832  14.813
   55DOPE     N 6967   0.387   6.247  13.204
   55DOPE   HN1 6968   0.320   6.153  13.186
   55DOPE   HN2 6969   0.483   6.202  13.242
   55DOPE   HN3 6970   0.334   6.313  13.276
   55DOPE   C12 6971   0.428   6.332  13.079
   55DOPE  H12A 6972   0.327   6.360  13.023
   55DOPE  H12B 6973   0.496   6.258  13.016
   55DOPE   C11 6974   0.516   6.474  13.109
   55DOPE  H11A 6975   0.583   6.459  13.202
   55DOPE  H11B 6976   0.439   6.565  13.129
   55DOPE     P 6977   0.777   6.468  12.998
   55DOPE   O13 6978   0.848   6.531  12.877
   55DOPE   O14 6979   0.782   6.306  13.025
   55DOPE   O11 6980   0.815   6.563  13.129
   55DOPE   O12 6981   0.606   6.512  12.997
   55DOPE    C1 6982   0.828   6.718  13.101
   55DOPE    HA 6983   0.741   6.757  13.032
   55DOPE    HB 6984   0.937   6.732  13.053
   55DOPE    C2 6985   0.827   6.826  13.224
   55DOPE    HS 6986   0.888   6.927  13.199
   55DOPE   O21 6987   0.892   6.757  13.339
   55DOPE   C21 6988   1.036   6.733  13.318
   55DOPE   O22 6989   1.107   6.786  13.226
   55DOPE   C22 6990   1.095   6.644  13.440
   55DOPE   H2R 6991   1.183   6.569  13.407
   55DOPE   H2S 6992   1.001   6.576  13.477
   55DOPE    C3 6993   0.669   6.883  13.258
   55DOPE    HX 6994   0.619   6.928  13.164
   55DOPE    HY 6995   0.679   6.979  13.325
   55DOPE   O31 6996   0.571   6.773  13.308
   55DOPE   C31 6997   0.564   6.767  13.440
   55DOPE   O32 6998   0.608   6.860  13.518
   55DOPE   C32 6999   0.501   6.620  13.480
   55DOPE   H2X 7000   0.381   6.625  13.461
   55DOPE   H2Y 7001   0.552   6.534  13.417
   55DOPE   C23 7002   1.150   6.742  13.558
   55DOPE   H3R 7003   1.052   6.774  13.619
   55DOPE   H3S 7004   1.201   6.843  13.516
   55DOPE   C24 7005   1.265   6.674  13.651
   55DOPE   H4R 7006   1.370   6.667  13.593
   55DOPE   H4S 7007   1.231   6.560  13.677
   55DOPE   C25 7008   1.295   6.761  13.781
   55DOPE   H5R 7009   1.335   6.872  13.756
   55DOPE   H5S 7010   1.389   6.711  13.834
   55DOPE   C26 7011   1.163   6.768  13.876
   55DOPE   H6R 7012   1.090   6.674  13.849
   55DOPE   H6S 7013   1.093   6.867  13.858
   55DOPE   C27 7014   1.202   6.745  14.024
   55DOPE   H7R 7015   1.306   6.679  14.029
   55DOPE   H7S 7016   1.112   6.677  14.068
   55DOPE   C28 7017   1.222   6.878  14.117
   55DOPE   H8R 7018   1.302   6.950  14.065
   55DOPE   H8S 7019   1.275   6.850  14.213
   55DOPE   C29 7020   1.070   6.944  14.139
   55DOPE   H9R 7021   1.020   6.981  14.045
   55DOPE  C210 7022   0.992   6.969  14.252
   55DOPE  H10R 7023   0.882   7.013  14.239
   55DOPE  C211 7024   1.027   6.940  14.397
   55DOPE  H11R 7025   1.014   7.046  14.451
   55DOPE  H11S 7026   1.143   6.907  14.410
   55DOPE  C212 7027   0.923   6.831  14.467
   55DOPE  H12R 7028   0.947   6.719  14.428
   55DOPE  H12S 7029   0.806   6.857  14.443
   55DOPE  C213 7030   0.938   6.831  14.621
   55DOPE  H13R 7031   0.870   6.921  14.663
   55DOPE  H13S 7032   1.054   6.854  14.647
   55DOPE  C214 7033   0.895   6.687  14.692
   55DOPE  H14R 7034   0.775   6.669  14.676
   55DOPE  H14S 7035   0.914   6.703  14.801
   55DOPE  C215 7036   0.982   6.550  14.646
   55DOPE  H15R 7037   1.097   6.588  14.629
   55DOPE  H15S 7038   0.938   6.509  14.551
   55DOPE  C216 7039   0.998   6.424  14.747
   55DOPE  H16R 7040   0.894   6.360  14.743
   55DOPE  H16S 7041   1.014   6.472  14.848
   55DOPE  C217 7042   1.120   6.312  14.718
   55DOPE  H17R 7043   1.223   6.348  14.768
   55DOPE  H17S 7044   1.140   6.311  14.609
   55DOPE  C218 7045   1.085   6.152  14.761
   55DOPE  H18R 7046   1.170   6.076  14.724
   55DOPE  H18S 7047   0.977   6.117  14.719
   55DOPE  H18T 7048   1.079   6.141  14.872
   55DOPE   C33 7049   0.528   6.586  13.629
   55DOPE   H3X 7050   0.466   6.486  13.658
   55DOPE   H3Y 7051   0.483   6.678  13.690
   55DOPE   C34 7052   0.692   6.563  13.658
   55DOPE   H4X 7053   0.733   6.465  13.602
   55DOPE   H4Y 7054   0.756   6.659  13.620
   55DOPE   C35 7055   0.726   6.546  13.807
   55DOPE   H5X 7056   0.848   6.553  13.820
   55DOPE   H5Y 7057   0.690   6.435  13.841
   55DOPE   C36 7058   0.659   6.665  13.896
   55DOPE   H6X 7059   0.538   6.653  13.901
   55DOPE   H6Y 7060   0.686   6.774  13.853
   55DOPE   C37 7061   0.720   6.656  14.039
   55DOPE   H7X 7062   0.843   6.658  14.033
   55DOPE   H7Y 7063   0.685   6.756  14.094
   55DOPE   C38 7064   0.669   6.519  14.115
   55DOPE   H8X 7065   0.694   6.416  14.058
   55DOPE   H8Y 7066   0.547   6.523  14.123
   55DOPE   C39 7067   0.739   6.513  14.250
   55DOPE   H9X 7068   0.840   6.447  14.259
   55DOPE  C310 7069   0.683   6.577  14.360
   55DOPE  H10X 7070   0.743   6.568  14.455
   55DOPE  C311 7071   0.542   6.663  14.366
   55DOPE  H11X 7072   0.553   6.758  14.434
   55DOPE  H11Y 7073   0.510   6.707  14.267
   55DOPE  C312 7074   0.418   6.560  14.415
   55DOPE  H12X 7075   0.400   6.472  14.339
   55DOPE  H12Y 7076   0.314   6.625  14.420
   55DOPE  C313 7077   0.448   6.489  14.551
   55DOPE  H13X 7078   0.354   6.414  14.576
   55DOPE  H13Y 7079   0.548   6.420  14.546
   55DOPE  C314 7080   0.465   6.601  14.665
   55DOPE  H14X 7081   0.359   6.661  14.672
   55DOPE  H14Y 7082   0.549   6.685  14.641
   55DOPE  C315 7083   0.497   6.531  14.802
   55DOPE  H15X 7084   0.425   6.433  14.812
   55DOPE  H15Y 7085   0.468   6.613  14.880
   55DOPE  C316 7086   0.658   6.482  14.829
   55DOPE  H16X 7087   0.720   6.579  14.864
   55DOPE  H16Y 7088   0.701   6.445  14.731
   55DOPE  C317 7089   0.679   6.360  14.935
   55DOPE  H17X 7090   0.616   6.399  15.022
   55DOPE  H17Y 7091   0.630   6.256  14.896
   55DOPE  C318 7092   0.828   6.326  15.000
   55DOPE  H18X 7093   0.884   6.428  15.034
   55DOPE  H18Y 7094   0.813   6.253  15.089
   55DOPE  H18Z 7095   0.900   6.265  14.932
   56DOPE     N 7096   0.988   7.029  12.793
   56DOPE   HN1 7097   0.937   7.128  12.772
   56DOPE   HN2 7098   1.102   7.038  12.779
   56DOPE   HN3 7099   0.952   6.945  12.729
   56DOPE   C12 7100   0.972   6.988  12.936
   56DOPE  H12A 7101   1.054   6.901  12.959
   56DOPE  H12B 7102   0.859   6.945  12.950
   56DOPE   C11 7103   0.994   7.121  13.027
   56DOPE  H11A 7104   1.003   7.083  13.133
   56DOPE  H11B 7105   0.895   7.192  13.015
   56DOPE     P 7106   1.146   7.344  13.092
   56DOPE   O13 7107   1.264   7.436  13.035
   56DOPE   O14 7108   1.160   7.288  13.230
   56DOPE   O11 7109   0.991   7.425  13.074
   56DOPE   O12 7110   1.122   7.204  12.994
   56DOPE    C1 7111   0.964   7.482  12.941
   56DOPE    HA 7112   0.960   7.392  12.866
   56DOPE    HB 7113   1.055   7.559  12.913
   56DOPE    C2 7114   0.820   7.576  12.921
   56DOPE    HS 7115   0.846   7.653  12.839
   56DOPE   O21 7116   0.773   7.655  13.036
   56DOPE   C21 7117   0.872   7.733  13.094
   56DOPE   O22 7118   0.969   7.807  13.039
   56DOPE   C22 7119   0.844   7.718  13.243
   56DOPE   H2R 7120   0.889   7.609  13.271
   56DOPE   H2S 7121   0.725   7.719  13.264
   56DOPE    C3 7122   0.685   7.484  12.876
   56DOPE    HX 7123   0.702   7.449  12.771
   56DOPE    HY 7124   0.585   7.555  12.877
   56DOPE   O31 7125   0.668   7.357  12.959
   56DOPE   C31 7126   0.613   7.382  13.079
   56DOPE   O32 7127   0.544   7.490  13.116
   56DOPE   C32 7128   0.637   7.249  13.165
   56DOPE   H2X 7129   0.530   7.190  13.170
   56DOPE   H2Y 7130   0.719   7.173  13.123
   56DOPE   C23 7131   0.924   7.839  13.318
   56DOPE   H3R 7132   0.872   7.943  13.289
   56DOPE   H3S 7133   1.036   7.841  13.278
   56DOPE   C24 7134   0.924   7.824  13.471
   56DOPE   H4R 7135   0.804   7.820  13.497
   56DOPE   H4S 7136   0.970   7.924  13.520
   56DOPE   C25 7137   0.992   7.685  13.529
   56DOPE   H5R 7138   1.104   7.703  13.570
   56DOPE   H5S 7139   1.007   7.600  13.449
   56DOPE   C26 7140   0.889   7.622  13.636
   56DOPE   H6R 7141   0.933   7.515  13.674
   56DOPE   H6S 7142   0.780   7.601  13.589
   56DOPE   C27 7143   0.872   7.723  13.756
   56DOPE   H7R 7144   0.881   7.841  13.727
   56DOPE   H7S 7145   0.970   7.693  13.817
   56DOPE   C28 7146   0.730   7.703  13.837
   56DOPE   H8R 7147   0.634   7.731  13.774
   56DOPE   H8S 7148   0.733   7.780  13.924
   56DOPE   C29 7149   0.725   7.546  13.880
   56DOPE   H9R 7150   0.661   7.473  13.814
   56DOPE  C210 7151   0.784   7.491  13.992
   56DOPE  H10R 7152   0.783   7.372  14.007
   56DOPE  C211 7153   0.868   7.574  14.098
   56DOPE  H11R 7154   0.833   7.690  14.105
   56DOPE  H11S 7155   0.987   7.578  14.074
   56DOPE  C212 7156   0.846   7.492  14.231
   56DOPE  H12R 7157   0.890   7.379  14.221
   56DOPE  H12S 7158   0.727   7.477  14.252
   56DOPE  C213 7159   0.923   7.566  14.351
   56DOPE  H13R 7160   1.041   7.559  14.328
   56DOPE  H13S 7161   0.903   7.499  14.443
   56DOPE  C214 7162   0.883   7.726  14.384
   56DOPE  H14R 7163   0.777   7.725  14.437
   56DOPE  H14S 7164   0.873   7.795  14.293
   56DOPE  C215 7165   0.995   7.797  14.478
   56DOPE  H15R 7166   1.093   7.826  14.420
   56DOPE  H15S 7167   1.029   7.718  14.557
   56DOPE  C216 7168   0.953   7.943  14.540
   56DOPE  H16R 7169   0.945   8.029  14.460
   56DOPE  H16S 7170   1.043   7.975  14.610
   56DOPE  C217 7171   0.810   7.944  14.618
   56DOPE  H17R 7172   0.716   7.913  14.553
   56DOPE  H17S 7173   0.794   8.060  14.644
   56DOPE  C218 7174   0.810   7.854  14.745
   56DOPE  H18R 7175   0.803   7.735  14.722
   56DOPE  H18S 7176   0.713   7.885  14.808
   56DOPE  H18T 7177   0.910   7.876  14.806
   56DOPE   C33 7178   0.683   7.294  13.306
   56DOPE   H3X 7179   0.662   7.193  13.365
   56DOPE   H3Y 7180   0.617   7.385  13.350
   56DOPE   C34 7181   0.843   7.301  13.342
   56DOPE   H4X 7182   0.899   7.203  13.301
   56DOPE   H4Y 7183   0.902   7.396  13.300
   56DOPE   C35 7184   0.848   7.302  13.495
   56DOPE   H5X 7185   0.746   7.349  13.539
   56DOPE   H5Y 7186   0.939   7.378  13.519
   56DOPE   C36 7187   0.880   7.152  13.555
   56DOPE   H6X 7188   0.801   7.068  13.520
   56DOPE   H6Y 7189   0.870   7.158  13.666
   56DOPE   C37 7190   1.037   7.110  13.521
   56DOPE   H7X 7191   1.045   6.992  13.539
   56DOPE   H7Y 7192   1.063   7.125  13.413
   56DOPE   C38 7193   1.148   7.204  13.601
   56DOPE   H8X 7194   1.108   7.314  13.626
   56DOPE   H8Y 7195   1.248   7.218  13.537
   56DOPE   C39 7196   1.186   7.119  13.723
   56DOPE   H9X 7197   1.207   7.007  13.694
   56DOPE  C310 7198   1.172   7.151  13.854
   56DOPE  H10X 7199   1.209   7.066  13.924
   56DOPE  C311 7200   1.111   7.285  13.921
   56DOPE  H11X 7201   1.079   7.371  13.847
   56DOPE  H11Y 7202   1.009   7.253  13.975
   56DOPE  C312 7203   1.217   7.351  14.026
   56DOPE  H12X 7204   1.159   7.449  14.065
   56DOPE  H12Y 7205   1.321   7.385  13.978
   56DOPE  C313 7206   1.244   7.252  14.148
   56DOPE  H13X 7207   1.134   7.227  14.191
   56DOPE  H13Y 7208   1.296   7.150  14.113
   56DOPE  C314 7209   1.345   7.308  14.259
   56DOPE  H14X 7210   1.352   7.429  14.253
   56DOPE  H14Y 7211   1.459   7.268  14.239
   56DOPE  C315 7212   1.300   7.257  14.400
   56DOPE  H15X 7213   1.389   7.289  14.470
   56DOPE  H15Y 7214   1.295   7.136  14.400
   56DOPE  C316 7215   1.154   7.321  14.449
   56DOPE  H16X 7216   1.065   7.284  14.381
   56DOPE  H16Y 7217   1.164   7.443  14.442
   56DOPE  C317 7218   1.105   7.288  14.594
   56DOPE  H17X 7219   1.122   7.389  14.654
   56DOPE  H17Y 7220   0.984   7.268  14.594
   56DOPE  C318 7221   1.183   7.159  14.664
   56DOPE  H18X 7222   1.152   7.156  14.772
   56DOPE  H18Y 7223   1.153   7.052  14.619
   56DOPE  H18Z 7224   1.303   7.171  14.658
   57DOPE     N 7225  -0.030   2.273  12.967
   57DOPE   HN1 7226   0.046   2.228  12.901
   57DOPE   HN2 7227   0.030   2.334  13.038
   57DOPE   HN3 7228  -0.097   2.194  13.012
   57DOPE   C12 7229  -0.121   2.391  12.905
   57DOPE  H12A 7230  -0.239   2.358  12.903
   57DOPE  H12B 7231  -0.078   2.411  12.803
   57DOPE   C11 7232  -0.096   2.529  12.988
   57DOPE  H11A 7233  -0.142   2.512  13.090
   57DOPE  H11B 7234  -0.160   2.621  12.940
   57DOPE     P 7235   0.095   2.726  13.035
   57DOPE   O13 7236  -0.025   2.772  13.124
   57DOPE   O14 7237   0.110   2.808  12.908
   57DOPE   O11 7238   0.249   2.729  13.113
   57DOPE   O12 7239   0.060   2.559  12.998
   57DOPE    C1 7240   0.371   2.817  13.065
   57DOPE    HA 7241   0.332   2.927  13.034
   57DOPE    HB 7242   0.416   2.762  12.974
   57DOPE    C2 7243   0.506   2.835  13.165
   57DOPE    HS 7244   0.608   2.825  13.105
   57DOPE   O21 7245   0.507   2.721  13.264
   57DOPE   C21 7246   0.487   2.584  13.228
   57DOPE   O22 7247   0.501   2.532  13.115
   57DOPE   C22 7248   0.477   2.490  13.358
   57DOPE   H2R 7249   0.532   2.553  13.439
   57DOPE   H2S 7250   0.547   2.392  13.339
   57DOPE    C3 7251   0.525   2.988  13.246
   57DOPE    HX 7252   0.586   3.066  13.184
   57DOPE    HY 7253   0.602   2.958  13.328
   57DOPE   O31 7254   0.392   3.060  13.299
   57DOPE   C31 7255   0.411   3.138  13.417
   57DOPE   O32 7256   0.532   3.156  13.465
   57DOPE   C32 7257   0.264   3.191  13.488
   57DOPE   H2X 7258   0.289   3.306  13.520
   57DOPE   H2Y 7259   0.184   3.203  13.408
   57DOPE   C23 7260   0.326   2.433  13.411
   57DOPE   H3R 7261   0.282   2.353  13.337
   57DOPE   H3S 7262   0.238   2.511  13.432
   57DOPE   C24 7263   0.342   2.358  13.547
   57DOPE   H4R 7264   0.452   2.311  13.541
   57DOPE   H4S 7265   0.256   2.273  13.558
   57DOPE   C25 7266   0.350   2.452  13.675
   57DOPE   H5R 7267   0.255   2.528  13.681
   57DOPE   H5S 7268   0.451   2.519  13.676
   57DOPE   C26 7269   0.353   2.349  13.797
   57DOPE   H6R 7270   0.471   2.338  13.829
   57DOPE   H6S 7271   0.317   2.241  13.759
   57DOPE   C27 7272   0.253   2.382  13.919
   57DOPE   H7R 7273   0.301   2.479  13.969
   57DOPE   H7S 7274   0.257   2.290  13.992
   57DOPE   C28 7275   0.090   2.411  13.883
   57DOPE   H8R 7276   0.087   2.427  13.773
   57DOPE   H8S 7277   0.063   2.521  13.921
   57DOPE   C29 7278  -0.037   2.311  13.915
   57DOPE   H9R 7279  -0.069   2.244  13.828
   57DOPE  C210 7280  -0.109   2.281  14.029
   57DOPE  H10R 7281  -0.208   2.213  14.018
   57DOPE  C211 7282  -0.095   2.331  14.172
   57DOPE  H11R 7283   0.021   2.342  14.205
   57DOPE  H11S 7284  -0.131   2.228  14.222
   57DOPE  C212 7285  -0.201   2.441  14.242
   57DOPE  H12R 7286  -0.308   2.437  14.188
   57DOPE  H12S 7287  -0.169   2.558  14.247
   57DOPE  C213 7288  -0.227   2.394  14.388
   57DOPE  H13R 7289  -0.284   2.289  14.369
   57DOPE  H13S 7290  -0.305   2.466  14.441
   57DOPE  C214 7291  -0.089   2.358  14.474
   57DOPE  H14R 7292   0.009   2.335  14.411
   57DOPE  H14S 7293  -0.108   2.254  14.529
   57DOPE  C215 7294  -0.051   2.474  14.579
   57DOPE  H15R 7295  -0.134   2.563  14.576
   57DOPE  H15S 7296   0.056   2.528  14.558
   57DOPE  C216 7297  -0.028   2.414  14.720
   57DOPE  H16R 7298   0.094   2.408  14.741
   57DOPE  H16S 7299  -0.070   2.302  14.731
   57DOPE  C217 7300  -0.102   2.514  14.822
   57DOPE  H17R 7301  -0.058   2.627  14.813
   57DOPE  H17S 7302  -0.070   2.471  14.922
   57DOPE  C218 7303  -0.270   2.517  14.807
   57DOPE  H18R 7304  -0.321   2.575  14.892
   57DOPE  H18S 7305  -0.312   2.402  14.806
   57DOPE  H18T 7306  -0.306   2.571  14.713
   57DOPE   C33 7307   0.194   3.104  13.613
   57DOPE   H3X 7308   0.233   3.148  13.710
   57DOPE   H3Y 7309   0.244   3.001  13.608
   57DOPE   C34 7310   0.031   3.042  13.628
   57DOPE   H4X 7311  -0.043   3.073  13.547
   57DOPE   H4Y 7312   0.038   2.919  13.626
   57DOPE   C35 7313  -0.041   3.070  13.765
   57DOPE   H5X 7314  -0.065   3.188  13.767
   57DOPE   H5Y 7315   0.046   3.045  13.839
   57DOPE   C36 7316  -0.188   3.004  13.818
   57DOPE   H6X 7317  -0.185   2.883  13.826
   57DOPE   H6Y 7318  -0.280   3.035  13.751
   57DOPE   C37 7319  -0.205   3.081  13.956
   57DOPE   H7X 7320  -0.088   3.100  13.989
   57DOPE   H7Y 7321  -0.254   3.191  13.936
   57DOPE   C38 7322  -0.277   3.013  14.081
   57DOPE   H8X 7323  -0.227   2.906  14.110
   57DOPE   H8Y 7324  -0.396   2.993  14.062
   57DOPE   C39 7325  -0.249   3.133  14.184
   57DOPE   H9X 7326  -0.344   3.204  14.203
   57DOPE  C310 7327  -0.123   3.158  14.256
   57DOPE  H10X 7328  -0.124   3.252  14.326
   57DOPE  C311 7329   0.021   3.071  14.257
   57DOPE  H11X 7330   0.000   3.036  14.359
   57DOPE  H11Y 7331   0.011   2.974  14.195
   57DOPE  C312 7332   0.188   3.127  14.264
   57DOPE  H12X 7333   0.186   3.194  14.354
   57DOPE  H12Y 7334   0.197   3.202  14.177
   57DOPE  C313 7335   0.350   3.048  14.269
   57DOPE  H13X 7336   0.383   3.046  14.162
   57DOPE  H13Y 7337   0.420   3.135  14.315
   57DOPE  C314 7338   0.421   2.898  14.326
   57DOPE  H14X 7339   0.534   2.892  14.281
   57DOPE  H14Y 7340   0.361   2.804  14.291
   57DOPE  C315 7341   0.447   2.869  14.477
   57DOPE  H15X 7342   0.332   2.883  14.499
   57DOPE  H15Y 7343   0.510   2.957  14.527
   57DOPE  C316 7344   0.484   2.713  14.540
   57DOPE  H16X 7345   0.602   2.690  14.521
   57DOPE  H16Y 7346   0.421   2.626  14.487
   57DOPE  C317 7347   0.458   2.686  14.695
   57DOPE  H17X 7348   0.508   2.577  14.721
   57DOPE  H17Y 7349   0.521   2.769  14.752
   57DOPE  C318 7350   0.299   2.678  14.750
   57DOPE  H18X 7351   0.279   2.658  14.856
   57DOPE  H18Y 7352   0.245   2.786  14.743
   57DOPE  H18Z 7353   0.234   2.594  14.696
   58DOPE     N 7354   8.239   6.454  12.783
   58DOPE   HN1 7355   8.152   6.392  12.824
   58DOPE   HN2 7356   8.225   6.449  12.679
   58DOPE   HN3 7357   8.339   6.405  12.802
   58DOPE   C12 7358   8.239   6.606  12.845
   58DOPE  H12A 7359   8.153   6.670  12.794
   58DOPE  H12B 7360   8.348   6.656  12.827
   58DOPE   C11 7361   8.208   6.602  12.997
   58DOPE  H11A 7362   8.192   6.716  13.036
   58DOPE  H11B 7363   8.309   6.563  13.048
   58DOPE     P 7364   8.014   6.501  13.168
   58DOPE   O13 7365   7.866   6.434  13.160
   58DOPE   O14 7366   8.035   6.643  13.237
   58DOPE   O11 7367   8.120   6.384  13.233
   58DOPE   O12 7368   8.082   6.511  13.021
   58DOPE    C1 7369   8.221   6.294  13.160
   58DOPE    HA 7370   8.300   6.359  13.099
   58DOPE    HB 7371   8.162   6.224  13.088
   58DOPE    C2 7372   8.326   6.202  13.252
   58DOPE    HS 7373   8.346   6.093  13.203
   58DOPE   O21 7374   8.273   6.194  13.389
   58DOPE   C21 7375   8.217   6.063  13.415
   58DOPE   O22 7376   8.202   5.966  13.333
   58DOPE   C22 7377   8.198   6.032  13.567
   58DOPE   H2R 7378   8.303   6.059  13.617
   58DOPE   H2S 7379   8.179   5.911  13.572
   58DOPE    C3 7380   8.480   6.274  13.253
   58DOPE    HX 7381   8.532   6.259  13.154
   58DOPE    HY 7382   8.546   6.213  13.330
   58DOPE   O31 7383   8.465   6.430  13.280
   58DOPE   C31 7384   8.560   6.482  13.365
   58DOPE   O32 7385   8.681   6.426  13.386
   58DOPE   C32 7386   8.496   6.624  13.427
   58DOPE   H2X 7387   8.584   6.707  13.441
   58DOPE   H2Y 7388   8.413   6.670  13.357
   58DOPE   C23 7389   8.067   6.101  13.642
   58DOPE   H3R 7390   8.031   6.024  13.722
   58DOPE   H3S 7391   7.973   6.114  13.574
   58DOPE   C24 7392   8.103   6.247  13.708
   58DOPE   H4R 7393   8.165   6.319  13.638
   58DOPE   H4S 7394   8.171   6.230  13.798
   58DOPE   C25 7395   7.961   6.326  13.746
   58DOPE   H5R 7396   7.889   6.253  13.808
   58DOPE   H5S 7397   7.900   6.355  13.653
   58DOPE   C26 7398   7.993   6.466  13.824
   58DOPE   H6R 7399   8.076   6.531  13.769
   58DOPE   H6S 7400   8.040   6.433  13.923
   58DOPE   C27 7401   7.855   6.559  13.848
   58DOPE   H7R 7402   7.758   6.486  13.858
   58DOPE   H7S 7403   7.836   6.631  13.759
   58DOPE   C28 7404   7.871   6.652  13.976
   58DOPE   H8R 7405   7.886   6.575  14.061
   58DOPE   H8S 7406   7.766   6.713  13.993
   58DOPE   C29 7407   8.001   6.754  13.965
   58DOPE   H9R 7408   8.090   6.716  13.901
   58DOPE  C210 7409   8.021   6.882  14.030
   58DOPE  H10R 7410   8.124   6.943  14.012
   58DOPE  C211 7411   7.919   6.952  14.128
   58DOPE  H11R 7412   7.822   6.883  14.152
   58DOPE  H11S 7413   7.876   7.052  14.080
   58DOPE  C212 7414   8.003   6.999  14.255
   58DOPE  H12R 7415   7.921   7.048  14.326
   58DOPE  H12S 7416   8.083   7.086  14.229
   58DOPE  C213 7417   8.077   6.872  14.330
   58DOPE  H13R 7418   8.149   6.917  14.410
   58DOPE  H13S 7419   8.148   6.808  14.261
   58DOPE  C214 7420   7.957   6.775  14.391
   58DOPE  H14R 7421   7.873   6.756  14.313
   58DOPE  H14S 7422   7.904   6.838  14.473
   58DOPE  C215 7423   8.003   6.622  14.437
   58DOPE  H15R 7424   8.067   6.628  14.531
   58DOPE  H15S 7425   8.072   6.566  14.360
   58DOPE  C216 7426   7.861   6.533  14.456
   58DOPE  H16R 7427   7.883   6.415  14.465
   58DOPE  H16S 7428   7.787   6.547  14.367
   58DOPE  C217 7429   7.780   6.577  14.581
   58DOPE  H17R 7430   7.676   6.513  14.581
   58DOPE  H17S 7431   7.756   6.697  14.578
   58DOPE  C218 7432   7.854   6.541  14.711
   58DOPE  H18R 7433   7.826   6.426  14.742
   58DOPE  H18S 7434   7.817   6.619  14.789
   58DOPE  H18T 7435   7.975   6.552  14.704
   58DOPE   C33 7436   8.416   6.595  13.560
   58DOPE   H3X 7437   8.311   6.535  13.543
   58DOPE   H3Y 7438   8.386   6.702  13.606
   58DOPE   C34 7439   8.510   6.508  13.660
   58DOPE   H4X 7440   8.503   6.389  13.636
   58DOPE   H4Y 7441   8.627   6.542  13.654
   58DOPE   C35 7442   8.453   6.535  13.802
   58DOPE   H5X 7443   8.338   6.497  13.806
   58DOPE   H5Y 7444   8.456   6.655  13.823
   58DOPE   C36 7445   8.546   6.457  13.907
   58DOPE   H6X 7446   8.664   6.490  13.897
   58DOPE   H6Y 7447   8.542   6.336  13.888
   58DOPE   C37 7448   8.494   6.491  14.050
   58DOPE   H7X 7449   8.567   6.432  14.120
   58DOPE   H7Y 7450   8.509   6.611  14.069
   58DOPE   C38 7451   8.332   6.451  14.076
   58DOPE   H8X 7452   8.257   6.510  14.007
   58DOPE   H8Y 7453   8.302   6.488  14.178
   58DOPE   C39 7454   8.319   6.288  14.059
   58DOPE   H9X 7455   8.325   6.247  13.956
   58DOPE  C310 7456   8.311   6.191  14.160
   58DOPE  H10X 7457   8.316   6.073  14.136
   58DOPE  C311 7458   8.312   6.230  14.305
   58DOPE  H11X 7459   8.226   6.314  14.328
   58DOPE  H11Y 7460   8.284   6.130  14.362
   58DOPE  C312 7461   8.461   6.287  14.359
   58DOPE  H12X 7462   8.481   6.399  14.320
   58DOPE  H12Y 7463   8.550   6.215  14.319
   58DOPE  C313 7464   8.466   6.290  14.513
   58DOPE  H13X 7465   8.379   6.216  14.550
   58DOPE  H13Y 7466   8.572   6.246  14.548
   58DOPE  C314 7467   8.445   6.448  14.566
   58DOPE  H14X 7468   8.332   6.487  14.540
   58DOPE  H14Y 7469   8.524   6.520  14.512
   58DOPE  C315 7470   8.471   6.474  14.717
   58DOPE  H15X 7471   8.575   6.421  14.750
   58DOPE  H15Y 7472   8.382   6.426  14.779
   58DOPE  C316 7473   8.473   6.640  14.749
   58DOPE  H16X 7474   8.412   6.698  14.668
   58DOPE  H16Y 7475   8.589   6.679  14.747
   58DOPE  C317 7476   8.400   6.684  14.882
   58DOPE  H17X 7477   8.402   6.806  14.891
   58DOPE  H17Y 7478   8.282   6.651  14.877
   58DOPE  C318 7479   8.471   6.618  15.007
   58DOPE  H18X 7480   8.411   6.652  15.099
   58DOPE  H18Y 7481   8.469   6.496  15.001
   58DOPE  H18Z 7482   8.587   6.653  15.015
   59DOPE     N 7483  -0.199   1.069  12.825
   59DOPE   HN1 7484  -0.251   1.082  12.917
   59DOPE   HN2 7485  -0.232   1.154  12.762
   59DOPE   HN3 7486  -0.223   0.965  12.787
   59DOPE   C12 7487  -0.042   1.088  12.864
   59DOPE  H12A 7488   0.028   1.095  12.773
   59DOPE  H12B 7489  -0.012   0.990  12.923
   59DOPE   C11 7490  -0.028   1.229  12.947
   59DOPE  H11A 7491  -0.040   1.324  12.878
   59DOPE  H11B 7492   0.085   1.238  12.992
   59DOPE     P 7493  -0.118   1.162  13.188
   59DOPE   O13 7494  -0.065   1.011  13.161
   59DOPE   O14 7495  -0.255   1.184  13.263
   59DOPE   O11 7496   0.013   1.255  13.250
   59DOPE   O12 7497  -0.141   1.238  13.046
   59DOPE    C1 7498   0.028   1.410  13.237
   59DOPE    HA 7499  -0.066   1.460  13.180
   59DOPE    HB 7500   0.131   1.434  13.182
   59DOPE    C2 7501   0.038   1.496  13.373
   59DOPE    HS 7502   0.069   1.612  13.348
   59DOPE   O21 7503   0.143   1.429  13.464
   59DOPE   C21 7504   0.268   1.497  13.486
   59DOPE   O22 7505   0.311   1.608  13.431
   59DOPE   C22 7506   0.359   1.407  13.586
   59DOPE   H2R 7507   0.476   1.427  13.565
   59DOPE   H2S 7508   0.333   1.290  13.565
   59DOPE    C3 7509  -0.115   1.506  13.442
   59DOPE    HX 7510  -0.196   1.540  13.365
   59DOPE    HY 7511  -0.113   1.594  13.520
   59DOPE   O31 7512  -0.163   1.366  13.494
   59DOPE   C31 7513  -0.114   1.334  13.615
   59DOPE   O32 7514  -0.059   1.422  13.693
   59DOPE   C32 7515  -0.152   1.177  13.652
   59DOPE   H2X 7516  -0.162   1.172  13.762
   59DOPE   H2Y 7517  -0.262   1.154  13.607
   59DOPE   C23 7518   0.321   1.441  13.734
   59DOPE   H3R 7519   0.200   1.452  13.746
   59DOPE   H3S 7520   0.373   1.547  13.764
   59DOPE   C24 7521   0.374   1.318  13.826
   59DOPE   H4R 7522   0.492   1.302  13.803
   59DOPE   H4S 7523   0.314   1.215  13.801
   59DOPE   C25 7524   0.357   1.342  13.977
   59DOPE   H5R 7525   0.361   1.233  14.028
   59DOPE   H5S 7526   0.249   1.394  13.998
   59DOPE   C26 7527   0.483   1.433  14.037
   59DOPE   H6R 7528   0.503   1.531  13.973
   59DOPE   H6S 7529   0.587   1.370  14.033
   59DOPE   C27 7530   0.456   1.480  14.183
   59DOPE   H7R 7531   0.339   1.496  14.207
   59DOPE   H7S 7532   0.510   1.585  14.198
   59DOPE   C28 7533   0.550   1.403  14.288
   59DOPE   H8R 7534   0.611   1.486  14.348
   59DOPE   H8S 7535   0.636   1.342  14.234
   59DOPE   C29 7536   0.469   1.306  14.382
   59DOPE   H9R 7537   0.348   1.301  14.374
   59DOPE  C210 7538   0.540   1.229  14.476
   59DOPE  H10R 7539   0.473   1.155  14.538
   59DOPE  C211 7540   0.706   1.228  14.500
   59DOPE  H11R 7541   0.761   1.321  14.447
   59DOPE  H11S 7542   0.754   1.125  14.458
   59DOPE  C212 7543   0.755   1.236  14.648
   59DOPE  H12R 7544   0.722   1.345  14.688
   59DOPE  H12S 7545   0.876   1.229  14.655
   59DOPE  C213 7546   0.683   1.115  14.732
   59DOPE  H13R 7547   0.724   1.005  14.705
   59DOPE  H13S 7548   0.569   1.115  14.700
   59DOPE  C214 7549   0.672   1.135  14.884
   59DOPE  H14R 7550   0.664   1.255  14.908
   59DOPE  H14S 7551   0.773   1.092  14.934
   59DOPE  C215 7552   0.537   1.055  14.942
   59DOPE  H15R 7553   0.532   1.070  15.051
   59DOPE  H15S 7554   0.559   0.937  14.935
   59DOPE  C216 7555   0.386   1.096  14.881
   59DOPE  H16R 7556   0.381   1.088  14.770
   59DOPE  H16S 7557   0.363   1.211  14.906
   59DOPE  C217 7558   0.261   0.997  14.926
   59DOPE  H17R 7559   0.272   0.979  15.035
   59DOPE  H17S 7560   0.275   0.893  14.871
   59DOPE  C218 7561   0.105   1.047  14.894
   59DOPE  H18R 7562   0.023   0.969  14.938
   59DOPE  H18S 7563   0.086   1.054  14.785
   59DOPE  H18T 7564   0.083   1.156  14.940
   59DOPE   C33 7565  -0.042   1.061  13.596
   59DOPE   H3X 7566   0.000   1.096  13.496
   59DOPE   H3Y 7567  -0.106   0.958  13.580
   59DOPE   C34 7568   0.088   1.021  13.688
   59DOPE   H4X 7569   0.133   0.916  13.649
   59DOPE   H4Y 7570   0.175   1.107  13.676
   59DOPE   C35 7571   0.053   0.997  13.836
   59DOPE   H5X 7572   0.024   1.104  13.882
   59DOPE   H5Y 7573   0.153   0.956  13.889
   59DOPE   C36 7574  -0.075   0.888  13.858
   59DOPE   H6X 7575  -0.051   0.781  13.810
   59DOPE   H6Y 7576  -0.175   0.928  13.806
   59DOPE   C37 7577  -0.113   0.861  14.005
   59DOPE   H7X 7578  -0.183   0.760  14.011
   59DOPE   H7Y 7579  -0.011   0.840  14.064
   59DOPE   C38 7580  -0.197   0.993  14.060
   59DOPE   H8X 7581  -0.285   1.024  13.987
   59DOPE   H8Y 7582  -0.117   1.086  14.062
   59DOPE   C39 7583  -0.266   0.967  14.195
   59DOPE   H9X 7584  -0.305   0.854  14.215
   59DOPE  C310 7585  -0.287   1.072  14.286
   59DOPE  H10X 7586  -0.337   1.045  14.383
   59DOPE  C311 7587  -0.245   1.232  14.266
   59DOPE  H11X 7588  -0.190   1.254  14.169
   59DOPE  H11Y 7589  -0.345   1.301  14.266
   59DOPE  C312 7590  -0.145   1.287  14.377
   59DOPE  H12X 7591  -0.097   1.394  14.344
   59DOPE  H12Y 7592  -0.052   1.211  14.396
   59DOPE  C313 7593  -0.231   1.316  14.505
   59DOPE  H13X 7594  -0.342   1.359  14.480
   59DOPE  H13Y 7595  -0.249   1.210  14.560
   59DOPE  C314 7596  -0.154   1.428  14.593
   59DOPE  H14X 7597  -0.220   1.438  14.685
   59DOPE  H14Y 7598  -0.154   1.539  14.548
   59DOPE  C315 7599   0.005   1.393  14.617
   59DOPE  H15X 7600   0.070   1.403  14.523
   59DOPE  H15Y 7601   0.012   1.276  14.650
   59DOPE  C316 7602   0.075   1.493  14.722
   59DOPE  H16X 7603  -0.007   1.520  14.801
   59DOPE  H16Y 7604   0.112   1.598  14.678
   59DOPE  C317 7605   0.200   1.410  14.787
   59DOPE  H17X 7606   0.232   1.467  14.880
   59DOPE  H17Y 7607   0.160   1.300  14.814
   59DOPE  C318 7608   0.329   1.396  14.693
   59DOPE  H18X 7609   0.357   1.507  14.662
   59DOPE  H18Y 7610   0.427   1.345  14.741
   59DOPE  H18Z 7611   0.297   1.332  14.603
   60DOPE     N 7612   8.456   8.361  13.218
   60DOPE   HN1 7613   8.477   8.287  13.140
   60DOPE   HN2 7614   8.463   8.468  13.182
   60DOPE   HN3 7615   8.531   8.340  13.295
   60DOPE   C12 7616   8.300   8.325  13.251
   60DOPE  H12A 7617   8.227   8.390  13.184
   60DOPE  H12B 7618   8.275   8.352  13.357
   60DOPE   C11 7619   8.280   8.163  13.220
   60DOPE  H11A 7620   8.159   8.146  13.219
   60DOPE  H11B 7621   8.328   8.096  13.303
   60DOPE     P 7622   8.346   7.953  13.058
   60DOPE   O13 7623   8.472   7.882  13.119
   60DOPE   O14 7624   8.321   7.924  12.915
   60DOPE   O11 7625   8.205   7.910  13.132
   60DOPE   O12 7626   8.346   8.126  13.093
   60DOPE    C1 7627   8.069   7.931  13.065
   60DOPE    HA 7628   8.071   7.898  12.957
   60DOPE    HB 7629   8.034   8.048  13.071
   60DOPE    C2 7630   7.965   7.829  13.138
   60DOPE    HS 7631   7.851   7.847  13.102
   60DOPE   O21 7632   7.973   7.852  13.279
   60DOPE   C21 7633   7.934   7.986  13.315
   60DOPE   O22 7634   7.873   8.076  13.244
   60DOPE   C22 7635   7.960   8.004  13.463
   60DOPE   H2R 7636   8.018   7.906  13.504
   60DOPE   H2S 7637   7.849   8.009  13.510
   60DOPE    C3 7638   8.015   7.670  13.103
   60DOPE    HX 7639   8.014   7.667  12.992
   60DOPE    HY 7640   7.925   7.601  13.142
   60DOPE   O31 7641   8.161   7.627  13.147
   60DOPE   C31 7642   8.159   7.567  13.269
   60DOPE   O32 7643   8.053   7.500  13.313
   60DOPE   C32 7644   8.300   7.590  13.348
   60DOPE   H2X 7645   8.390   7.527  13.299
   60DOPE   H2Y 7646   8.330   7.708  13.345
   60DOPE   C23 7647   8.045   8.142  13.496
   60DOPE   H3R 7648   7.993   8.243  13.456
   60DOPE   H3S 7649   8.160   8.137  13.456
   60DOPE   C24 7650   8.050   8.153  13.647
   60DOPE   H4R 7651   7.972   8.074  13.693
   60DOPE   H4S 7652   8.007   8.263  13.675
   60DOPE   C25 7653   8.203   8.120  13.701
   60DOPE   H5R 7654   8.286   8.183  13.643
   60DOPE   H5S 7655   8.226   8.001  13.687
   60DOPE   C26 7656   8.214   8.163  13.848
   60DOPE   H6R 7657   8.318   8.124  13.893
   60DOPE   H6S 7658   8.122   8.101  13.897
   60DOPE   C27 7659   8.202   8.330  13.865
   60DOPE   H7R 7660   8.125   8.380  13.792
   60DOPE   H7S 7661   8.311   8.380  13.843
   60DOPE   C28 7662   8.147   8.381  14.003
   60DOPE   H8R 7663   8.127   8.502  13.997
   60DOPE   H8S 7664   8.235   8.367  14.078
   60DOPE   C29 7665   8.006   8.302  14.040
   60DOPE   H9R 7666   7.909   8.323  13.976
   60DOPE  C210 7667   7.991   8.195  14.130
   60DOPE  H10R 7668   7.883   8.146  14.145
   60DOPE  C211 7669   8.116   8.133  14.211
   60DOPE  H11R 7670   8.222   8.161  14.164
   60DOPE  H11S 7671   8.107   8.012  14.210
   60DOPE  C212 7672   8.125   8.182  14.358
   60DOPE  H12R 7673   8.171   8.295  14.363
   60DOPE  H12S 7674   8.203   8.107  14.408
   60DOPE  C213 7675   7.977   8.174  14.433
   60DOPE  H13R 7676   7.928   8.065  14.421
   60DOPE  H13S 7677   7.900   8.257  14.390
   60DOPE  C214 7678   7.995   8.191  14.584
   60DOPE  H14R 7679   8.089   8.121  14.616
   60DOPE  H14S 7680   7.895   8.146  14.633
   60DOPE  C215 7681   8.019   8.350  14.624
   60DOPE  H15R 7682   8.107   8.396  14.559
   60DOPE  H15S 7683   8.059   8.354  14.729
   60DOPE  C216 7684   7.880   8.445  14.610
   60DOPE  H16R 7685   7.816   8.434  14.704
   60DOPE  H16S 7686   7.810   8.404  14.527
   60DOPE  C217 7687   7.915   8.606  14.584
   60DOPE  H17R 7688   7.809   8.669  14.577
   60DOPE  H17S 7689   7.971   8.616  14.485
   60DOPE  C218 7690   8.012   8.675  14.692
   60DOPE  H18R 7691   8.020   8.796  14.681
   60DOPE  H18S 7692   8.125   8.628  14.690
   60DOPE  H18T 7693   7.964   8.650  14.790
   60DOPE   C33 7694   8.287   7.534  13.495
   60DOPE   H3X 7695   8.401   7.544  13.532
   60DOPE   H3Y 7696   8.257   7.415  13.502
   60DOPE   C34 7697   8.209   7.622  13.606
   60DOPE   H4X 7698   8.227   7.742  13.589
   60DOPE   H4Y 7699   8.089   7.600  13.606
   60DOPE   C35 7700   8.276   7.577  13.742
   60DOPE   H5X 7701   8.396   7.598  13.734
   60DOPE   H5Y 7702   8.263   7.456  13.756
   60DOPE   C36 7703   8.227   7.656  13.870
   60DOPE   H6X 7704   8.129   7.599  13.911
   60DOPE   H6Y 7705   8.197   7.773  13.847
   60DOPE   C37 7706   8.354   7.649  13.970
   60DOPE   H7X 7707   8.392   7.534  13.971
   60DOPE   H7Y 7708   8.446   7.716  13.929
   60DOPE   C38 7709   8.328   7.697  14.115
   60DOPE   H8X 7710   8.414   7.644  14.178
   60DOPE   H8Y 7711   8.219   7.655  14.150
   60DOPE   C39 7712   8.338   7.862  14.123
   60DOPE   H9X 7713   8.258   7.918  14.058
   60DOPE  C310 7714   8.425   7.948  14.200
   60DOPE  H10X 7715   8.417   8.067  14.187
   60DOPE  C311 7716   8.540   7.907  14.301
   60DOPE  H11X 7717   8.583   7.794  14.286
   60DOPE  H11Y 7718   8.634   7.985  14.290
   60DOPE  C312 7719   8.482   7.913  14.444
   60DOPE  H12X 7720   8.404   8.006  14.457
   60DOPE  H12Y 7721   8.576   7.937  14.512
   60DOPE  C313 7722   8.418   7.766  14.492
   60DOPE  H13X 7723   8.298   7.763  14.473
   60DOPE  H13Y 7724   8.469   7.677  14.432
   60DOPE  C314 7725   8.453   7.733  14.639
   60DOPE  H14X 7726   8.575   7.751  14.655
   60DOPE  H14Y 7727   8.430   7.615  14.658
   60DOPE  C315 7728   8.368   7.824  14.742
   60DOPE  H15X 7729   8.406   7.789  14.843
   60DOPE  H15Y 7730   8.249   7.797  14.735
   60DOPE  C316 7731   8.387   7.991  14.732
   60DOPE  H16X 7732   8.319   8.037  14.649
   60DOPE  H16Y 7733   8.505   8.017  14.710
   60DOPE  C317 7734   8.348   8.070  14.862
   60DOPE  H17X 7735   8.234   8.039  14.890
   60DOPE  H17Y 7736   8.426   8.026  14.938
   60DOPE  C318 7737   8.364   8.237  14.863
   60DOPE  H18X 7738   8.481   8.269  14.847
   60DOPE  H18Y 7739   8.296   8.288  14.784
   60DOPE  H18Z 7740   8.329   8.282  14.962
   6123SM     N 7741   3.553   4.751  17.705
   6123SM   C15 7742   3.429   4.722  17.610
   6123SM  H15A 7743   3.322   4.727  17.657
   6123SM  H15B 7744   3.445   4.615  17.563
   6123SM  H15C 7745   3.432   4.801  17.529
   6123SM   C14 7746   3.516   4.877  17.794
   6123SM  H14A 7747   3.505   4.979  17.737
   6123SM  H14B 7748   3.598   4.892  17.872
   6123SM  H14C 7749   3.410   4.858  17.841
   6123SM   C13 7750   3.578   4.616  17.788
   6123SM  H13A 7751   3.485   4.583  17.847
   6123SM  H13B 7752   3.673   4.627  17.854
   6123SM  H13C 7753   3.603   4.524  17.722
   6123SM   C12 7754   3.691   4.787  17.625
   6123SM  H12A 7755   3.783   4.784  17.694
   6123SM  H12B 7756   3.683   4.898  17.586
   6123SM   C11 7757   3.731   4.683  17.509
   6123SM  H11A 7758   3.829   4.726  17.455
   6123SM  H11B 7759   3.640   4.677  17.434
   6123SM     P 7760   3.717   4.392  17.503
   6123SM   O13 7761   3.818   4.272  17.542
   6123SM   O14 7762   3.560   4.375  17.538
   6123SM   O11 7763   3.738   4.431  17.351
   6123SM   O12 7764   3.769   4.543  17.564
   6123SM   C1S 7765   3.629   4.423  17.251
   6123SM   H1S 7766   3.569   4.530  17.242
   6123SM   H1T 7767   3.545   4.337  17.274
   6123SM    NF 7768   3.819   4.494  17.085
   6123SM   HNF 7769   3.788   4.597  17.069
   6123SM   C2S 7770   3.704   4.388  17.115
   6123SM   H2S 7771   3.753   4.276  17.122
   6123SM   C3S 7772   3.584   4.388  17.007
   6123SM   H3S 7773   3.516   4.489  17.012
   6123SM    O3 7774   3.490   4.263  17.028
   6123SM   HO3 7775   3.522   4.225  17.113
   6123SM   C4S 7776   3.658   4.374  16.872
   6123SM   H4S 7777   3.698   4.263  16.855
   6123SM   C5S 7778   3.682   4.480  16.781
   6123SM   H5S 7779   3.641   4.591  16.803
   6123SM   C6S 7780   3.757   4.460  16.646
   6123SM   H6S 7781   3.693   4.523  16.572
   6123SM   H6T 7782   3.753   4.345  16.614
   6123SM   C7S 7783   3.920   4.502  16.628
   6123SM   H7S 7784   3.990   4.420  16.679
   6123SM   H7T 7785   3.941   4.610  16.678
   6123SM   C8S 7786   3.966   4.524  16.480
   6123SM   H8S 7787   4.084   4.552  16.474
   6123SM   H8T 7788   3.906   4.626  16.447
   6123SM   C9S 7789   3.929   4.404  16.374
   6123SM   H9S 7790   3.814   4.365  16.390
   6123SM   H9T 7791   4.003   4.309  16.387
   6123SM  C10S 7792   3.941   4.465  16.229
   6123SM  H10S 7793   4.056   4.504  16.213
   6123SM  H10T 7794   3.869   4.563  16.222
   6123SM  C11S 7795   3.900   4.359  16.112
   6123SM  H11S 7796   3.782   4.327  16.123
   6123SM  H11T 7797   3.963   4.257  16.121
   6123SM  C12S 7798   3.927   4.424  15.970
   6123SM  H12S 7799   4.034   4.481  15.969
   6123SM  H12T 7800   3.842   4.507  15.943
   6123SM  C13S 7801   3.927   4.309  15.857
   6123SM  H13S 7802   3.832   4.236  15.872
   6123SM  H13T 7803   4.028   4.239  15.867
   6123SM  C14S 7804   3.923   4.372  15.713
   6123SM  H14S 7805   3.994   4.304  15.648
   6123SM  H14T 7806   3.972   4.485  15.715
   6123SM  C15S 7807   3.767   4.384  15.648
   6123SM  H15S 7808   3.742   4.502  15.634
   6123SM  H15T 7809   3.683   4.339  15.717
   6123SM  C16S 7810   3.763   4.308  15.510
   6123SM  H16S 7811   3.820   4.201  15.526
   6123SM  H16T 7812   3.828   4.377  15.440
   6123SM  C17S 7813   3.616   4.269  15.440
   6123SM  H17S 7814   3.533   4.356  15.455
   6123SM  H17T 7815   3.571   4.167  15.485
   6123SM  C18S 7816   3.633   4.248  15.288
   6123SM  H18S 7817   3.664   4.354  15.240
   6123SM  H18T 7818   3.529   4.210  15.242
   6123SM  H18U 7819   3.721   4.168  15.264
   6123SM   C1F 7820   3.961   4.468  17.100
   6123SM    OF 7821   4.011   4.345  17.121
   6123SM   C2F 7822   4.059   4.598  17.077
   6123SM   H2F 7823   4.083   4.603  16.969
   6123SM   H2G 7824   4.166   4.575  17.128
   6123SM   C3F 7825   3.997   4.749  17.126
   6123SM   H3F 7826   4.091   4.828  17.121
   6123SM   H3G 7827   3.967   4.740  17.234
   6123SM   C4F 7828   3.870   4.820  17.048
   6123SM   H4F 7829   3.861   4.937  17.081
   6123SM   H4G 7830   3.763   4.769  17.074
   6123SM   C5F 7831   3.885   4.817  16.895
   6123SM   H5F 7832   3.893   4.701  16.862
   6123SM   H5G 7833   3.988   4.875  16.865
   6123SM   C6F 7834   3.753   4.887  16.821
   6123SM   H6F 7835   3.744   5.006  16.848
   6123SM   H6G 7836   3.649   4.833  16.853
   6123SM   C7F 7837   3.766   4.873  16.668
   6123SM   H7F 7838   3.761   4.756  16.639
   6123SM   H7G 7839   3.875   4.915  16.637
   6123SM   C8F 7840   3.647   4.954  16.588
   6123SM   H8F 7841   3.655   5.073  16.611
   6123SM   H8G 7842   3.536   4.916  16.620
   6123SM   C9F 7843   3.662   4.931  16.436
   6123SM   H9F 7844   3.780   4.935  16.407
   6123SM   H9G 7845   3.606   5.024  16.383
   6123SM  C10F 7846   3.592   4.788  16.389
   6123SM  H10F 7847   3.473   4.788  16.417
   6123SM  H10G 7848   3.645   4.695  16.442
   6123SM  C11F 7849   3.605   4.762  16.239
   6123SM  H11F 7850   3.724   4.759  16.212
   6123SM  H11G 7851   3.553   4.853  16.182
   6123SM  C12F 7852   3.532   4.616  16.201
   6123SM  H12F 7853   3.412   4.619  16.221
   6123SM  H12G 7854   3.582   4.528  16.265
   6123SM  C13F 7855   3.562   4.576  16.055
   6123SM  H13F 7856   3.545   4.455  16.042
   6123SM  H13G 7857   3.678   4.602  16.034
   6123SM  C14F 7858   3.467   4.659  15.953
   6123SM  H14F 7859   3.496   4.777  15.953
   6123SM  H14G 7860   3.350   4.648  15.981
   6123SM  C15F 7861   3.490   4.594  15.813
   6123SM  H15F 7862   3.482   4.472  15.822
   6123SM  H15G 7863   3.604   4.619  15.779
   6123SM  C16F 7864   3.378   4.644  15.709
   6123SM  H16F 7865   3.398   4.762  15.683
   6123SM  H16G 7866   3.266   4.637  15.753
   6123SM  C17F 7867   3.384   4.549  15.583
   6123SM  H17F 7868   3.374   4.431  15.616
   6123SM  H17G 7869   3.491   4.563  15.533
   6123SM  C18F 7870   3.259   4.582  15.484
   6123SM  H18F 7871   3.285   4.684  15.428
   6123SM  H18G 7872   3.158   4.605  15.544
   6123SM  C19F 7873   3.220   4.453  15.389
   6123SM  H19F 7874   3.099   4.457  15.371
   6123SM  H19G 7875   3.243   4.346  15.440
   6123SM  C20F 7876   3.293   4.455  15.250
   6123SM  H20F 7877   3.246   4.365  15.188
   6123SM  H20G 7878   3.413   4.435  15.261
   6123SM  C21F 7879   3.274   4.601  15.177
   6123SM  H21F 7880   3.354   4.679  15.224
   6123SM  H21G 7881   3.160   4.642  15.192
   6123SM  C22F 7882   3.309   4.599  15.027
   6123SM  H22F 7883   3.241   4.514  14.977
   6123SM  H22G 7884   3.424   4.565  15.018
   6123SM  C23F 7885   3.293   4.749  14.957
   6123SM  H23F 7886   3.350   4.747  14.857
   6123SM  H23G 7887   3.347   4.836  15.017
   6123SM  H23H 7888   3.177   4.778  14.942
   6223SM     N 7889   3.758   3.551  17.745
   6223SM   C15 7890   3.639   3.440  17.725
   6223SM  H15A 7891   3.533   3.484  17.756
   6223SM  H15B 7892   3.659   3.335  17.773
   6223SM  H15C 7893   3.629   3.422  17.617
   6223SM   C14 7894   3.781   3.575  17.892
   6223SM  H14A 7895   3.833   3.477  17.934
   6223SM  H14B 7896   3.678   3.594  17.945
   6223SM  H14C 7897   3.851   3.667  17.915
   6223SM   C13 7898   3.900   3.494  17.690
   6223SM  H13A 7899   3.989   3.571  17.705
   6223SM  H13B 7900   3.890   3.477  17.583
   6223SM  H13C 7901   3.928   3.389  17.735
   6223SM   C12 7902   3.717   3.693  17.671
   6223SM  H12A 7903   3.799   3.775  17.694
   6223SM  H12B 7904   3.610   3.736  17.703
   6223SM   C11 7905   3.706   3.685  17.515
   6223SM  H11A 7906   3.816   3.659  17.473
   6223SM  H11B 7907   3.678   3.797  17.477
   6223SM     P 7908   3.433   3.612  17.454
   6223SM   O13 7909   3.356   3.468  17.456
   6223SM   O14 7910   3.398   3.721  17.559
   6223SM   O11 7911   3.423   3.684  17.308
   6223SM   O12 7912   3.604   3.577  17.470
   6223SM   C1S 7913   3.503   3.617  17.202
   6223SM   H1S 7914   3.487   3.495  17.204
   6223SM   H1T 7915   3.625   3.637  17.212
   6223SM    NF 7916   3.520   3.797  17.005
   6223SM   HNF 7917   3.454   3.874  16.970
   6223SM   C2S 7918   3.450   3.664  17.059
   6223SM   H2S 7919   3.475   3.572  16.990
   6223SM   C3S 7920   3.279   3.685  17.062
   6223SM   H3S 7921   3.248   3.769  17.138
   6223SM    O3 7922   3.196   3.556  17.093
   6223SM   HO3 7923   3.257   3.495  17.147
   6223SM   C4S 7924   3.235   3.742  16.926
   6223SM   H4S 7925   3.247   3.861  16.916
   6223SM   C5S 7926   3.180   3.666  16.821
   6223SM   H5S 7927   3.155   3.549  16.834
   6223SM   C6S 7928   3.144   3.732  16.688
   6223SM   H6S 7929   3.165   3.853  16.684
   6223SM   H6T 7930   3.026   3.716  16.660
   6223SM   C7S 7931   3.247   3.654  16.586
   6223SM   H7S 7932   3.209   3.540  16.572
   6223SM   H7T 7933   3.363   3.652  16.624
   6223SM   C8S 7934   3.249   3.737  16.452
   6223SM   H8S 7935   3.317   3.836  16.472
   6223SM   H8T 7936   3.137   3.776  16.435
   6223SM   C9S 7937   3.312   3.655  16.329
   6223SM   H9S 7938   3.267   3.541  16.325
   6223SM   H9T 7939   3.433   3.648  16.341
   6223SM  C10S 7940   3.277   3.729  16.193
   6223SM  H10S 7941   3.293   3.850  16.200
   6223SM  H10T 7942   3.159   3.711  16.170
   6223SM  C11S 7943   3.366   3.673  16.072
   6223SM  H11S 7944   3.378   3.552  16.079
   6223SM  H11T 7945   3.478   3.722  16.077
   6223SM  C12S 7946   3.294   3.713  15.936
   6223SM  H12S 7947   3.240   3.821  15.947
   6223SM  H12T 7948   3.208   3.631  15.912
   6223SM  C13S 7949   3.406   3.725  15.819
   6223SM  H13S 7950   3.450   3.615  15.793
   6223SM  H13T 7951   3.499   3.789  15.861
   6223SM  C14S 7952   3.353   3.806  15.691
   6223SM  H14S 7953   3.451   3.857  15.642
   6223SM  H14T 7954   3.278   3.897  15.720
   6223SM  C15S 7955   3.282   3.709  15.583
   6223SM  H15S 7956   3.194   3.642  15.631
   6223SM  H15T 7957   3.367   3.632  15.544
   6223SM  C16S 7958   3.212   3.793  15.463
   6223SM  H16S 7959   3.116   3.853  15.503
   6223SM  H16T 7960   3.171   3.709  15.391
   6223SM  C17S 7961   3.303   3.907  15.385
   6223SM  H17S 7962   3.411   3.860  15.360
   6223SM  H17T 7963   3.324   4.005  15.449
   6223SM  C18S 7964   3.230   3.958  15.254
   6223SM  H18S 7965   3.201   3.862  15.190
   6223SM  H18T 7966   3.304   4.029  15.194
   6223SM  H18U 7967   3.127   4.021  15.274
   6223SM   C1F 7968   3.661   3.802  16.968
   6223SM    OF 7969   3.750   3.708  17.004
   6223SM   C2F 7970   3.700   3.928  16.877
   6223SM   H2F 7971   3.794   3.893  16.813
   6223SM   H2G 7972   3.738   4.022  16.940
   6223SM   C3F 7973   3.572   3.981  16.786
   6223SM   H3F 7974   3.494   4.048  16.847
   6223SM   H3G 7975   3.509   3.885  16.745
   6223SM   C4F 7976   3.622   4.073  16.665
   6223SM   H4F 7977   3.659   3.999  16.583
   6223SM   H4G 7978   3.722   4.134  16.696
   6223SM   C5F 7979   3.509   4.187  16.612
   6223SM   H5F 7980   3.564   4.271  16.550
   6223SM   H5G 7981   3.455   4.243  16.697
   6223SM   C6F 7982   3.389   4.127  16.517
   6223SM   H6F 7983   3.309   4.216  16.494
   6223SM   H6G 7984   3.326   4.044  16.575
   6223SM   C7F 7985   3.445   4.057  16.386
   6223SM   H7F 7986   3.348   4.002  16.341
   6223SM   H7G 7987   3.527   3.970  16.413
   6223SM   C8F 7988   3.510   4.150  16.271
   6223SM   H8F 7989   3.581   4.240  16.311
   6223SM   H8G 7990   3.417   4.202  16.216
   6223SM   C9F 7991   3.601   4.050  16.176
   6223SM   H9F 7992   3.554   3.937  16.184
   6223SM   H9G 7993   3.716   4.044  16.215
   6223SM  C10F 7994   3.603   4.087  16.025
   6223SM  H10F 7995   3.631   4.203  16.008
   6223SM  H10G 7996   3.489   4.070  15.985
   6223SM  C11F 7997   3.708   3.989  15.942
   6223SM  H11F 7998   3.689   3.871  15.967
   6223SM  H11G 7999   3.825   4.014  15.966
   6223SM  C12F 8000   3.683   4.006  15.791
   6223SM  H12F 8001   3.706   4.118  15.755
   6223SM  H12G 8002   3.564   3.991  15.770
   6223SM  C13F 8003   3.773   3.902  15.703
   6223SM  H13F 8004   3.740   3.929  15.600
   6223SM  H13G 8005   3.742   3.785  15.724
   6223SM  C14F 8006   3.940   3.917  15.720
   6223SM  H14F 8007   3.964   3.850  15.811
   6223SM  H14G 8008   3.971   4.031  15.742
   6223SM  C15F 8009   4.034   3.851  15.605
   6223SM  H15F 8010   3.985   3.744  15.573
   6223SM  H15G 8011   4.143   3.822  15.651
   6223SM  C16F 8012   4.072   3.946  15.482
   6223SM  H16F 8013   4.166   3.889  15.431
   6223SM  H16G 8014   4.115   4.056  15.513
   6223SM  C17F 8015   3.955   3.966  15.371
   6223SM  H17F 8016   4.012   3.981  15.274
   6223SM  H17G 8017   3.893   4.068  15.389
   6223SM  C18F 8018   3.846   3.837  15.355
   6223SM  H18F 8019   3.792   3.808  15.450
   6223SM  H18G 8020   3.909   3.737  15.327
   6223SM  C19F 8021   3.719   3.862  15.255
   6223SM  H19F 8022   3.765   3.895  15.157
   6223SM  H19G 8023   3.644   3.950  15.291
   6223SM  C20F 8024   3.627   3.720  15.241
   6223SM  H20F 8025   3.564   3.699  15.334
   6223SM  H20G 8026   3.708   3.630  15.233
   6223SM  C21F 8027   3.524   3.719  15.119
   6223SM  H21F 8028   3.592   3.740  15.029
   6223SM  H21G 8029   3.445   3.813  15.124
   6223SM  C22F 8030   3.440   3.574  15.098
   6223SM  H22F 8031   3.422   3.560  14.989
   6223SM  H22G 8032   3.329   3.582  15.145
   6223SM  C23F 8033   3.520   3.439  15.153
   6223SM  H23F 8034   3.640   3.446  15.132
   6223SM  H23G 8035   3.480   3.336  15.106
   6223SM  H23H 8036   3.506   3.431  15.263
   6323SM     N 8037   5.212   5.447  17.765
   6323SM   C15 8038   5.114   5.355  17.677
   6323SM  H15A 8039   5.073   5.256  17.721
   6323SM  H15B 8040   5.173   5.328  17.586
   6323SM  H15C 8041   5.020   5.422  17.641
   6323SM   C14 8042   5.122   5.490  17.883
   6323SM  H14A 8043   5.096   5.391  17.940
   6323SM  H14B 8044   5.019   5.540  17.849
   6323SM  H14C 8045   5.181   5.563  17.950
   6323SM   C13 8046   5.343   5.367  17.820
   6323SM  H13A 8047   5.311   5.262  17.863
   6323SM  H13B 8048   5.396   5.431  17.899
   6323SM  H13C 8049   5.426   5.349  17.744
   6323SM   C12 8050   5.257   5.580  17.682
   6323SM  H12A 8051   5.326   5.651  17.741
   6323SM  H12B 8052   5.156   5.640  17.657
   6323SM   C11 8053   5.332   5.553  17.545
   6323SM  H11A 8054   5.420   5.469  17.557
   6323SM  H11B 8055   5.387   5.656  17.511
   6323SM     P 8056   5.100   5.607  17.397
   6323SM   O13 8057   4.983   5.592  17.499
   6323SM   O14 8058   5.162   5.755  17.370
   6323SM   O11 8059   5.048   5.529  17.265
   6323SM   O12 8060   5.232   5.502  17.445
   6323SM   C1S 8061   5.134   5.541  17.148
   6323SM   H1S 8062   5.226   5.460  17.153
   6323SM   H1T 8063   5.181   5.653  17.134
   6323SM    NF 8064   5.128   5.526  16.911
   6323SM   HNF 8065   5.099   5.603  16.845
   6323SM   C2S 8066   5.037   5.507  17.027
   6323SM   H2S 8067   5.002   5.389  17.034
   6323SM   C3S 8068   4.895   5.602  17.022
   6323SM   H3S 8069   4.921   5.720  17.040
   6323SM    O3 8070   4.787   5.558  17.119
   6323SM   HO3 8071   4.848   5.522  17.191
   6323SM   C4S 8072   4.833   5.581  16.883
   6323SM   H4S 8073   4.774   5.478  16.868
   6323SM   C5S 8074   4.847   5.677  16.781
   6323SM   H5S 8075   4.895   5.787  16.799
   6323SM   C6S 8076   4.786   5.652  16.642
   6323SM   H6S 8077   4.716   5.746  16.612
   6323SM   H6T 8078   4.714   5.553  16.640
   6323SM   C7S 8079   4.907   5.632  16.535
   6323SM   H7S 8080   4.978   5.536  16.560
   6323SM   H7T 8081   4.978   5.732  16.532
   6323SM   C8S 8082   4.840   5.609  16.395
   6323SM   H8S 8083   4.780   5.711  16.367
   6323SM   H8T 8084   4.759   5.518  16.399
   6323SM   C9S 8085   4.952   5.575  16.285
   6323SM   H9S 8086   5.027   5.484  16.314
   6323SM   H9T 8087   5.022   5.675  16.273
   6323SM  C10S 8088   4.876   5.537  16.152
   6323SM  H10S 8089   4.786   5.617  16.135
   6323SM  H10T 8090   4.827   5.426  16.160
   6323SM  C11S 8091   4.978   5.545  16.030
   6323SM  H11S 8092   5.078   5.477  16.046
   6323SM  H11T 8093   5.013   5.661  16.019
   6323SM  C12S 8094   4.902   5.499  15.900
   6323SM  H12S 8095   4.797   5.562  15.887
   6323SM  H12T 8096   4.873   5.380  15.906
   6323SM  C13S 8097   5.000   5.526  15.778
   6323SM  H13S 8098   5.111   5.481  15.799
   6323SM  H13T 8099   5.012   5.647  15.762
   6323SM  C14S 8100   4.940   5.455  15.651
   6323SM  H14S 8101   4.833   5.507  15.622
   6323SM  H14T 8102   4.919   5.336  15.671
   6323SM  C15S 8103   5.050   5.469  15.537
   6323SM  H15S 8104   5.160   5.431  15.574
   6323SM  H15T 8105   5.063   5.588  15.513
   6323SM  C16S 8106   5.012   5.380  15.412
   6323SM  H16S 8107   5.009   5.261  15.436
   6323SM  H16T 8108   5.103   5.397  15.340
   6323SM  C17S 8109   4.869   5.422  15.340
   6323SM  H17S 8110   4.844   5.542  15.354
   6323SM  H17T 8111   4.777   5.359  15.385
   6323SM  C18S 8112   4.877   5.391  15.190
   6323SM  H18S 8113   4.924   5.487  15.134
   6323SM  H18T 8114   4.767   5.365  15.148
   6323SM  H18U 8115   4.952   5.297  15.171
   6323SM   C1F 8116   5.240   5.440  16.884
   6323SM    OF 8117   5.258   5.323  16.942
   6323SM   C2F 8118   5.342   5.489  16.776
   6323SM   H2F 8119   5.329   5.414  16.689
   6323SM   H2G 8120   5.454   5.479  16.815
   6323SM   C3F 8121   5.326   5.651  16.729
   6323SM   H3F 8122   5.344   5.728  16.814
   6323SM   H3G 8123   5.216   5.672  16.685
   6323SM   C4F 8124   5.444   5.678  16.621
   6323SM   H4F 8125   5.422   5.594  16.543
   6323SM   H4G 8126   5.555   5.657  16.663
   6323SM   C5F 8127   5.443   5.828  16.552
   6323SM   H5F 8128   5.529   5.899  16.599
   6323SM   H5G 8129   5.335   5.885  16.564
   6323SM   C6F 8130   5.476   5.810  16.401
   6323SM   H6F 8131   5.570   5.735  16.386
   6323SM   H6G 8132   5.509   5.919  16.362
   6323SM   C7F 8133   5.343   5.761  16.319
   6323SM   H7F 8134   5.246   5.827  16.354
   6323SM   H7G 8135   5.316   5.643  16.336
   6323SM   C8F 8136   5.359   5.790  16.168
   6323SM   H8F 8137   5.388   5.687  16.115
   6323SM   H8G 8138   5.452   5.870  16.153
   6323SM   C9F 8139   5.220   5.862  16.110
   6323SM   H9F 8140   5.215   5.977  16.147
   6323SM   H9G 8141   5.121   5.808  16.148
   6323SM  C10F 8142   5.212   5.863  15.958
   6323SM  H10F 8143   5.185   5.753  15.917
   6323SM  H10G 8144   5.324   5.886  15.919
   6323SM  C11F 8145   5.102   5.978  15.905
   6323SM  H11F 8146   5.111   6.081  15.966
   6323SM  H11G 8147   4.987   5.938  15.915
   6323SM  C12F 8148   5.141   6.016  15.761
   6323SM  H12F 8149   5.147   5.914  15.701
   6323SM  H12G 8150   5.250   6.064  15.767
   6323SM  C13F 8151   5.058   6.136  15.685
   6323SM  H13F 8152   5.059   6.241  15.741
   6323SM  H13G 8153   4.943   6.097  15.676
   6323SM  C14F 8154   5.137   6.160  15.549
   6323SM  H14F 8155   5.195   6.057  15.523
   6323SM  H14G 8156   5.225   6.245  15.560
   6323SM  C15F 8157   5.037   6.195  15.430
   6323SM  H15F 8158   5.101   6.180  15.336
   6323SM  H15G 8159   5.002   6.313  15.435
   6323SM  C16F 8160   4.899   6.096  15.426
   6323SM  H16F 8161   4.833   6.118  15.336
   6323SM  H16G 8162   4.828   6.131  15.509
   6323SM  C17F 8163   4.934   5.930  15.427
   6323SM  H17F 8164   4.840   5.863  15.461
   6323SM  H17G 8165   5.024   5.904  15.497
   6323SM  C18F 8166   4.968   5.875  15.286
   6323SM  H18F 8167   5.003   5.971  15.225
   6323SM  H18G 8168   4.866   5.829  15.240
   6323SM  C19F 8169   5.090   5.763  15.281
   6323SM  H19F 8170   5.051   5.656  15.319
   6323SM  H19G 8171   5.182   5.800  15.345
   6323SM  C20F 8172   5.147   5.741  15.139
   6323SM  H20F 8173   5.169   5.850  15.093
   6323SM  H20G 8174   5.067   5.683  15.074
   6323SM  C21F 8175   5.292   5.661  15.143
   6323SM  H21F 8176   5.366   5.710  15.220
   6323SM  H21G 8177   5.342   5.683  15.044
   6323SM  C22F 8178   5.287   5.493  15.160
   6323SM  H22F 8179   5.182   5.446  15.123
   6323SM  H22G 8180   5.299   5.462  15.267
   6323SM  C23F 8181   5.414   5.433  15.081
   6323SM  H23F 8182   5.376   5.397  14.982
   6323SM  H23G 8183   5.476   5.344  15.125
   6323SM  H23H 8184   5.499   5.519  15.072
   6423SM     N 8185   5.994   4.219  17.747
   6423SM   C15 8186   5.884   4.101  17.778
   6423SM  H15A 8187   5.804   4.099  17.695
   6423SM  H15B 8188   5.823   4.118  17.869
   6423SM  H15C 8189   5.936   3.994  17.779
   6423SM   C14 8190   5.917   4.363  17.728
   6423SM  H14A 8191   5.835   4.351  17.648
   6423SM  H14B 8192   5.997   4.444  17.699
   6423SM  H14C 8193   5.865   4.394  17.820
   6423SM   C13 8194   6.098   4.234  17.860
   6423SM  H13A 8195   6.041   4.279  17.948
   6423SM  H13B 8196   6.182   4.316  17.838
   6423SM  H13C 8197   6.148   4.132  17.892
   6423SM   C12 8198   6.075   4.172  17.621
   6423SM  H12A 8199   6.094   4.054  17.625
   6423SM  H12B 8200   6.182   4.226  17.616
   6423SM   C11 8201   5.994   4.202  17.488
   6423SM  H11A 8202   6.061   4.158  17.403
   6423SM  H11B 8203   5.985   4.323  17.471
   6423SM     P 8204   5.828   3.972  17.453
   6423SM   O13 8205   5.954   3.892  17.512
   6423SM   O14 8206   5.678   3.929  17.491
   6423SM   O11 8207   5.850   3.977  17.296
   6423SM   O12 8208   5.849   4.140  17.492
   6423SM   C1S 8209   5.789   4.100  17.225
   6423SM   H1S 8210   5.830   4.206  17.267
   6423SM   H1T 8211   5.667   4.100  17.233
   6423SM    NF 8212   5.805   4.245  17.020
   6423SM   HNF 8213   5.709   4.261  16.972
   6423SM   C2S 8214   5.834   4.100  17.075
   6423SM   H2S 8215   5.955   4.080  17.068
   6423SM   C3S 8216   5.753   3.974  17.000
   6423SM   H3S 8217   5.635   3.972  17.030
   6423SM    O3 8218   5.812   3.831  17.028
   6423SM   HO3 8219   5.839   3.829  17.122
   6423SM   C4S 8220   5.767   3.996  16.852
   6423SM   H4S 8221   5.858   3.931  16.806
   6423SM   C5S 8222   5.679   4.078  16.773
   6423SM   H5S 8223   5.587   4.140  16.816
   6423SM   C6S 8224   5.699   4.095  16.624
   6423SM   H6S 8225   5.646   4.200  16.590
   6423SM   H6T 8226   5.643   4.005  16.571
   6423SM   C7S 8227   5.855   4.087  16.569
   6423SM   H7S 8228   5.908   3.982  16.601
   6423SM   H7T 8229   5.925   4.178  16.608
   6423SM   C8S 8230   5.849   4.084  16.416
   6423SM   H8S 8231   5.790   3.982  16.386
   6423SM   H8T 8232   5.962   4.073  16.376
   6423SM   C9S 8233   5.766   4.214  16.350
   6423SM   H9S 8234   5.790   4.320  16.401
   6423SM   H9T 8235   5.646   4.193  16.363
   6423SM  C10S 8236   5.801   4.226  16.201
   6423SM  H10S 8237   5.809   4.113  16.159
   6423SM  H10T 8238   5.910   4.279  16.188
   6423SM  C11S 8239   5.687   4.310  16.117
   6423SM  H11S 8240   5.685   4.428  16.146
   6423SM  H11T 8241   5.577   4.266  16.139
   6423SM  C12S 8242   5.717   4.293  15.967
   6423SM  H12S 8243   5.712   4.176  15.938
   6423SM  H12T 8244   5.831   4.332  15.949
   6423SM  C13S 8245   5.610   4.381  15.878
   6423SM  H13S 8246   5.584   4.488  15.927
   6423SM  H13T 8247   5.506   4.318  15.870
   6423SM  C14S 8248   5.668   4.408  15.735
   6423SM  H14S 8249   5.711   4.302  15.697
   6423SM  H14T 8250   5.760   4.490  15.738
   6423SM  C15S 8251   5.547   4.447  15.635
   6423SM  H15S 8252   5.510   4.561  15.660
   6423SM  H15T 8253   5.456   4.368  15.649
   6423SM  C16S 8254   5.587   4.440  15.484
   6423SM  H16S 8255   5.708   4.450  15.469
   6423SM  H16T 8256   5.535   4.537  15.438
   6423SM  C17S 8257   5.529   4.303  15.409
   6423SM  H17S 8258   5.409   4.312  15.386
   6423SM  H17T 8259   5.540   4.205  15.475
   6423SM  C18S 8260   5.609   4.277  15.277
   6423SM  H18S 8261   5.575   4.359  15.202
   6423SM  H18T 8262   5.581   4.168  15.234
   6423SM  H18U 8263   5.730   4.286  15.291
   6423SM   C1F 8264   5.892   4.360  17.041
   6423SM    OF 8265   5.993   4.353  17.123
   6423SM   C2F 8266   5.859   4.497  16.963
   6423SM   H2F 8267   5.825   4.582  17.036
   6423SM   H2G 8268   5.764   4.477  16.895
   6423SM   C3F 8269   5.991   4.552  16.878
   6423SM   H3F 8270   6.093   4.554  16.939
   6423SM   H3G 8271   5.966   4.667  16.847
   6423SM   C4F 8272   6.020   4.463  16.750
   6423SM   H4F 8273   5.916   4.446  16.695
   6423SM   H4G 8274   6.063   4.353  16.777
   6423SM   C5F 8275   6.129   4.542  16.656
   6423SM   H5F 8276   6.213   4.598  16.719
   6423SM   H5G 8277   6.071   4.629  16.598
   6423SM   C6F 8278   6.212   4.441  16.557
   6423SM   H6F 8279   6.259   4.345  16.612
   6423SM   H6G 8280   6.304   4.503  16.512
   6423SM   C7F 8281   6.116   4.385  16.441
   6423SM   H7F 8282   6.078   4.479  16.380
   6423SM   H7G 8283   6.017   4.333  16.484
   6423SM   C8F 8284   6.194   4.271  16.351
   6423SM   H8F 8285   6.110   4.201  16.301
   6423SM   H8G 8286   6.263   4.198  16.413
   6423SM   C9F 8287   6.283   4.336  16.235
   6423SM   H9F 8288   6.350   4.247  16.189
   6423SM   H9G 8289   6.358   4.422  16.274
   6423SM  C10F 8290   6.183   4.403  16.126
   6423SM  H10F 8291   6.109   4.487  16.172
   6423SM  H10G 8292   6.112   4.315  16.083
   6423SM  C11F 8293   6.270   4.477  16.013
   6423SM  H11F 8294   6.360   4.542  16.058
   6423SM  H11G 8295   6.196   4.556  15.960
   6423SM  C12F 8296   6.332   4.367  15.912
   6423SM  H12F 8297   6.331   4.255  15.957
   6423SM  H12G 8298   6.448   4.394  15.889
   6423SM  C13F 8299   6.245   4.361  15.780
   6423SM  H13F 8300   6.302   4.286  15.710
   6423SM  H13G 8301   6.243   4.473  15.733
   6423SM  C14F 8302   6.087   4.308  15.804
   6423SM  H14F 8303   6.028   4.392  15.864
   6423SM  H14G 8304   6.091   4.204  15.863
   6423SM  C15F 8305   5.997   4.277  15.678
   6423SM  H15F 8306   5.965   4.381  15.627
   6423SM  H15G 8307   5.898   4.219  15.714
   6423SM  C16F 8308   6.068   4.172  15.577
   6423SM  H16F 8309   6.106   4.072  15.632
   6423SM  H16G 8310   6.163   4.227  15.531
   6423SM  C17F 8311   5.957   4.124  15.471
   6423SM  H17F 8312   5.905   4.223  15.426
   6423SM  H17G 8313   5.865   4.061  15.518
   6423SM  C18F 8314   6.029   4.028  15.363
   6423SM  H18F 8315   5.944   3.981  15.296
   6423SM  H18G 8316   6.087   3.936  15.413
   6423SM  C19F 8317   6.137   4.115  15.276
   6423SM  H19F 8318   6.191   4.038  15.204
   6423SM  H19G 8319   6.225   4.165  15.338
   6423SM  C20F 8320   6.059   4.236  15.197
   6423SM  H20F 8321   6.007   4.318  15.265
   6423SM  H20G 8322   5.971   4.187  15.135
   6423SM  C21F 8323   6.164   4.319  15.106
   6423SM  H21F 8324   6.201   4.242  15.026
   6423SM  H21G 8325   6.265   4.354  15.162
   6423SM  C22F 8326   6.090   4.452  15.044
   6423SM  H22F 8327   6.090   4.546  15.115
   6423SM  H22G 8328   5.973   4.423  15.023
   6423SM  C23F 8329   6.163   4.494  14.913
   6423SM  H23F 8330   6.262   4.562  14.932
   6423SM  H23G 8331   6.085   4.553  14.849
   6423SM  H23H 8332   6.200   4.393  14.859
   6523SM     N 8333   5.872   4.919  17.776
   6523SM   C15 8334   5.743   4.952  17.688
   6523SM  H15A 8335   5.638   4.926  17.730
   6523SM  H15B 8336   5.756   4.899  17.591
   6523SM  H15C 8337   5.746   5.069  17.662
   6523SM   C14 8338   5.848   5.000  17.905
   6523SM  H14A 8339   5.751   4.958  17.956
   6523SM  H14B 8340   5.833   5.116  17.887
   6523SM  H14C 8341   5.939   4.981  17.972
   6523SM   C13 8342   5.887   4.760  17.808
   6523SM  H13A 8343   5.984   4.741  17.872
   6523SM  H13B 8344   5.908   4.697  17.717
   6523SM  H13C 8345   5.792   4.718  17.860
   6523SM   C12 8346   6.010   4.979  17.708
   6523SM  H12A 8347   6.103   4.969  17.775
   6523SM  H12B 8348   5.997   5.096  17.690
   6523SM   C11 8349   6.051   4.915  17.569
   6523SM  H11A 8350   6.062   4.794  17.576
   6523SM  H11B 8351   6.163   4.958  17.541
   6523SM     P 8352   5.932   5.118  17.415
   6523SM   O13 8353   5.794   5.124  17.338
   6523SM   O14 8354   5.952   5.218  17.530
   6523SM   O11 8355   6.073   5.114  17.319
   6523SM   O12 8356   5.944   4.953  17.469
   6523SM   C1S 8357   6.131   5.243  17.254
   6523SM   H1S 8358   6.251   5.251  17.274
   6523SM   H1T 8359   6.083   5.347  17.294
   6523SM    NF 8360   5.952   5.233  17.075
   6523SM   HNF 8361   5.908   5.133  17.066
   6523SM   C2S 8362   6.106   5.239  17.099
   6523SM   H2S 8363   6.150   5.344  17.057
   6523SM   C3S 8364   6.188   5.111  17.029
   6523SM   H3S 8365   6.145   5.004  17.066
   6523SM    O3 8366   6.341   5.109  17.053
   6523SM   HO3 8367   6.357   5.181  17.123
   6523SM   C4S 8368   6.156   5.115  16.879
   6523SM   H4S 8369   6.065   5.042  16.847
   6523SM   C5S 8370   6.225   5.195  16.785
   6523SM   H5S 8371   6.316   5.267  16.816
   6523SM   C6S 8372   6.191   5.200  16.636
   6523SM   H6S 8373   6.295   5.187  16.578
   6523SM   H6T 8374   6.146   5.310  16.612
   6523SM   C7S 8375   6.079   5.095  16.570
   6523SM   H7S 8376   5.973   5.104  16.626
   6523SM   H7T 8377   6.117   4.980  16.576
   6523SM   C8S 8378   6.048   5.137  16.423
   6523SM   H8S 8379   6.028   5.257  16.413
   6523SM   H8T 8380   5.947   5.078  16.392
   6523SM   C9S 8381   6.166   5.089  16.323
   6523SM   H9S 8382   6.188   4.969  16.340
   6523SM   H9T 8383   6.269   5.149  16.343
   6523SM  C10S 8384   6.118   5.106  16.176
   6523SM  H10S 8385   6.118   5.226  16.149
   6523SM  H10T 8386   6.006   5.062  16.158
   6523SM  C11S 8387   6.225   5.022  16.086
   6523SM  H11S 8388   6.218   4.903  16.106
   6523SM  H11T 8389   6.332   5.058  16.126
   6523SM  C12S 8390   6.208   5.052  15.935
   6523SM  H12S 8391   6.246   5.166  15.915
   6523SM  H12T 8392   6.090   5.046  15.910
   6523SM  C13S 8393   6.295   4.946  15.846
   6523SM  H13S 8394   6.255   4.832  15.865
   6523SM  H13T 8395   6.413   4.949  15.877
   6523SM  C14S 8396   6.288   4.976  15.694
   6523SM  H14S 8397   6.368   4.903  15.644
   6523SM  H14T 8398   6.323   5.092  15.673
   6523SM  C15S 8399   6.135   4.950  15.631
   6523SM  H15S 8400   6.078   5.057  15.630
   6523SM  H15T 8401   6.071   4.873  15.695
   6523SM  C16S 8402   6.140   4.886  15.487
   6523SM  H16S 8403   6.038   4.824  15.464
   6523SM  H16T 8404   6.234   4.808  15.479
   6523SM  C17S 8405   6.160   5.008  15.383
   6523SM  H17S 8406   6.262   5.063  15.415
   6523SM  H17T 8407   6.071   5.091  15.392
   6523SM  C18S 8408   6.176   4.959  15.236
   6523SM  H18S 8409   6.289   4.916  15.219
   6523SM  H18T 8410   6.162   5.058  15.171
   6523SM  H18U 8411   6.097   4.874  15.205
   6523SM   C1F 8412   5.862   5.342  17.101
   6523SM    OF 8413   5.906   5.464  17.136
   6523SM   C2F 8414   5.704   5.303  17.090
   6523SM   H2F 8415   5.641   5.367  17.166
   6523SM   H2G 8416   5.690   5.183  17.113
   6523SM   C3F 8417   5.646   5.336  16.949
   6523SM   H3F 8418   5.650   5.457  16.930
   6523SM   H3G 8419   5.529   5.301  16.953
   6523SM   C4F 8420   5.717   5.255  16.829
   6523SM   H4F 8421   5.730   5.136  16.852
   6523SM   H4G 8422   5.828   5.301  16.808
   6523SM   C5F 8423   5.615   5.272  16.706
   6523SM   H5F 8424   5.612   5.390  16.678
   6523SM   H5G 8425   5.503   5.240  16.741
   6523SM   C6F 8426   5.649   5.179  16.583
   6523SM   H6F 8427   5.545   5.128  16.546
   6523SM   H6G 8428   5.723   5.088  16.613
   6523SM   C7F 8429   5.717   5.266  16.467
   6523SM   H7F 8430   5.757   5.185  16.392
   6523SM   H7G 8431   5.812   5.326  16.508
   6523SM   C8F 8432   5.615   5.374  16.391
   6523SM   H8F 8433   5.681   5.424  16.308
   6523SM   H8G 8434   5.580   5.464  16.458
   6523SM   C9F 8435   5.487   5.304  16.316
   6523SM   H9F 8436   5.430   5.393  16.259
   6523SM   H9G 8437   5.405   5.257  16.387
   6523SM  C10F 8438   5.537   5.185  16.216
   6523SM  H10F 8439   5.578   5.088  16.272
   6523SM  H10G 8440   5.631   5.229  16.157
   6523SM  C11F 8441   5.415   5.137  16.121
   6523SM  H11F 8442   5.382   5.232  16.057
   6523SM  H11G 8443   5.317   5.106  16.181
   6523SM  C12F 8444   5.458   5.005  16.033
   6523SM  H12F 8445   5.365   4.978  15.966
   6523SM  H12G 8446   5.479   4.908  16.099
   6523SM  C13F 8447   5.595   5.030  15.946
   6523SM  H13F 8448   5.614   4.928  15.886
   6523SM  H13G 8449   5.694   5.047  16.009
   6523SM  C14F 8450   5.577   5.161  15.851
   6523SM  H14F 8451   5.551   5.262  15.910
   6523SM  H14G 8452   5.485   5.140  15.782
   6523SM  C15F 8453   5.717   5.194  15.772
   6523SM  H15F 8454   5.809   5.216  15.843
   6523SM  H15G 8455   5.699   5.295  15.711
   6523SM  C16F 8456   5.763   5.071  15.678
   6523SM  H16F 8457   5.786   4.968  15.733
   6523SM  H16G 8458   5.867   5.107  15.629
   6523SM  C17F 8459   5.653   5.043  15.565
   6523SM  H17F 8460   5.638   5.150  15.512
   6523SM  H17G 8461   5.544   5.006  15.603
   6523SM  C18F 8462   5.716   4.930  15.468
   6523SM  H18F 8463   5.687   4.817  15.498
   6523SM  H18G 8464   5.838   4.940  15.475
   6523SM  C19F 8465   5.676   4.961  15.323
   6523SM  H19F 8466   5.681   5.082  15.306
   6523SM  H19G 8467   5.563   4.923  15.304
   6523SM  C20F 8468   5.787   4.891  15.229
   6523SM  H20F 8469   5.895   4.929  15.266
   6523SM  H20G 8470   5.774   4.932  15.126
   6523SM  C21F 8471   5.781   4.721  15.229
   6523SM  H21F 8472   5.794   4.677  15.331
   6523SM  H21G 8473   5.875   4.681  15.170
   6523SM  C22F 8474   5.639   4.662  15.166
   6523SM  H22F 8475   5.565   4.753  15.137
   6523SM  H22G 8476   5.578   4.596  15.241
   6523SM  C23F 8477   5.667   4.566  15.043
   6523SM  H23F 8478   5.728   4.630  14.965
   6523SM  H23G 8479   5.563   4.525  15.000
   6523SM  H23H 8480   5.737   4.470  15.071
   6623SM     N 8481   4.537   2.158  17.749
   6623SM   C15 8482   4.631   2.258  17.667
   6623SM  H15A 8483   4.718   2.199  17.614
   6623SM  H15B 8484   4.687   2.333  17.732
   6623SM  H15C 8485   4.562   2.314  17.595
   6623SM   C14 8486   4.630   2.091  17.857
   6623SM  H14A 8487   4.722   2.033  17.814
   6623SM  H14B 8488   4.563   2.012  17.912
   6623SM  H14C 8489   4.668   2.173  17.928
   6623SM   C13 8490   4.418   2.245  17.810
   6623SM  H13A 8491   4.339   2.279  17.733
   6623SM  H13B 8492   4.460   2.341  17.862
   6623SM  H13C 8493   4.358   2.180  17.883
   6623SM   C12 8494   4.477   2.037  17.660
   6623SM  H12A 8495   4.389   1.979  17.712
   6623SM  H12B 8496   4.562   1.955  17.644
   6623SM   C11 8497   4.415   2.081  17.523
   6623SM  H11A 8498   4.410   1.980  17.462
   6623SM  H11B 8499   4.497   2.154  17.471
   6623SM     P 8500   4.220   2.281  17.449
   6623SM   O13 8501   4.087   2.237  17.372
   6623SM   O14 8502   4.205   2.407  17.543
   6623SM   O11 8503   4.355   2.312  17.351
   6623SM   O12 8504   4.272   2.144  17.536
   6623SM   C1S 8505   4.380   2.226  17.233
   6623SM   H1S 8506   4.285   2.158  17.205
   6623SM   H1T 8507   4.474   2.151  17.251
   6623SM    NF 8508   4.292   2.331  17.024
   6623SM   HNF 8509   4.294   2.276  16.938
   6623SM   C2S 8510   4.417   2.328  17.112
   6623SM   H2S 8511   4.437   2.441  17.150
   6623SM   C3S 8512   4.556   2.276  17.037
   6623SM   H3S 8513   4.545   2.158  17.009
   6623SM    O3 8514   4.684   2.285  17.118
   6623SM   HO3 8515   4.648   2.288  17.209
   6623SM   C4S 8516   4.567   2.366  16.909
   6623SM   H4S 8517   4.561   2.485  16.927
   6623SM   C5S 8518   4.571   2.314  16.783
   6623SM   H5S 8519   4.574   2.196  16.762
   6623SM   C6S 8520   4.579   2.411  16.660
   6623SM   H6S 8521   4.688   2.465  16.654
   6623SM   H6T 8522   4.492   2.497  16.665
   6623SM   C7S 8523   4.561   2.322  16.530
   6623SM   H7S 8524   4.452   2.269  16.530
   6623SM   H7T 8525   4.637   2.228  16.525
   6623SM   C8S 8526   4.578   2.414  16.401
   6623SM   H8S 8527   4.689   2.463  16.394
   6623SM   H8T 8528   4.494   2.503  16.406
   6623SM   C9S 8529   4.542   2.327  16.275
   6623SM   H9S 8530   4.462   2.243  16.305
   6623SM   H9T 8531   4.638   2.265  16.236
   6623SM  C10S 8532   4.480   2.419  16.159
   6623SM  H10S 8533   4.573   2.477  16.109
   6623SM  H10T 8534   4.406   2.506  16.198
   6623SM  C11S 8535   4.396   2.324  16.057
   6623SM  H11S 8536   4.285   2.298  16.097
   6623SM  H11T 8537   4.455   2.220  16.041
   6623SM  C12S 8538   4.378   2.404  15.924
   6623SM  H12S 8539   4.491   2.425  15.885
   6623SM  H12T 8540   4.322   2.510  15.939
   6623SM  C13S 8541   4.296   2.316  15.816
   6623SM  H13S 8542   4.180   2.294  15.845
   6623SM  H13T 8543   4.353   2.210  15.800
   6623SM  C14S 8544   4.300   2.404  15.686
   6623SM  H14S 8545   4.412   2.454  15.685
   6623SM  H14T 8546   4.220   2.496  15.689
   6623SM  C15S 8547   4.289   2.318  15.555
   6623SM  H15S 8548   4.172   2.316  15.519
   6623SM  H15T 8549   4.324   2.201  15.570
   6623SM  C16S 8550   4.389   2.388  15.450
   6623SM  H16S 8551   4.379   2.333  15.351
   6623SM  H16T 8552   4.506   2.374  15.484
   6623SM  C17S 8553   4.360   2.552  15.435
   6623SM  H17S 8554   4.322   2.605  15.529
   6623SM  H17T 8555   4.271   2.569  15.361
   6623SM  C18S 8556   4.496   2.637  15.391
   6623SM  H18S 8557   4.465   2.754  15.381
   6623SM  H18T 8558   4.532   2.596  15.292
   6623SM  H18U 8559   4.588   2.628  15.464
   6623SM   C1F 8560   4.168   2.400  17.056
   6623SM    OF 8561   4.162   2.498  17.141
   6623SM   C2F 8562   4.039   2.353  16.977
   6623SM   H2F 8563   3.950   2.318  17.047
   6623SM   H2G 8564   4.067   2.257  16.913
   6623SM   C3F 8565   3.985   2.482  16.891
   6623SM   H3F 8566   3.927   2.555  16.962
   6623SM   H3G 8567   3.905   2.435  16.819
   6623SM   C4F 8568   4.099   2.575  16.815
   6623SM   H4F 8569   4.173   2.631  16.887
   6623SM   H4G 8570   4.038   2.664  16.761
   6623SM   C5F 8571   4.189   2.488  16.713
   6623SM   H5F 8572   4.254   2.404  16.767
   6623SM   H5G 8573   4.270   2.563  16.666
   6623SM   C6F 8574   4.097   2.409  16.604
   6623SM   H6F 8575   4.011   2.479  16.562
   6623SM   H6G 8576   4.041   2.316  16.655
   6623SM   C7F 8577   4.200   2.347  16.496
   6623SM   H7F 8578   4.238   2.240  16.534
   6623SM   H7G 8579   4.294   2.425  16.493
   6623SM   C8F 8580   4.157   2.324  16.348
   6623SM   H8F 8581   4.243   2.385  16.291
   6623SM   H8G 8582   4.055   2.377  16.315
   6623SM   C9F 8583   4.173   2.160  16.305
   6623SM   H9F 8584   4.160   2.088  16.393
   6623SM   H9G 8585   4.286   2.140  16.267
   6623SM  C10F 8586   4.068   2.113  16.195
   6623SM  H10F 8587   4.050   2.209  16.128
   6623SM  H10G 8588   3.962   2.082  16.241
   6623SM  C11F 8589   4.114   1.981  16.112
   6623SM  H11F 8590   4.016   1.909  16.102
   6623SM  H11G 8591   4.203   1.915  16.159
   6623SM  C12F 8592   4.153   2.026  15.970
   6623SM  H12F 8593   4.268   2.066  15.964
   6623SM  H12G 8594   4.079   2.118  15.938
   6623SM  C13F 8595   4.125   1.899  15.875
   6623SM  H13F 8596   4.125   1.943  15.772
   6623SM  H13G 8597   4.014   1.852  15.892
   6623SM  C14F 8598   4.238   1.775  15.891
   6623SM  H14F 8599   4.193   1.684  15.952
   6623SM  H14G 8600   4.336   1.815  15.947
   6623SM  C15F 8601   4.282   1.722  15.753
   6623SM  H15F 8602   4.180   1.691  15.699
   6623SM  H15G 8603   4.353   1.621  15.763
   6623SM  C16F 8604   4.365   1.836  15.668
   6623SM  H16F 8605   4.288   1.919  15.627
   6623SM  H16G 8606   4.411   1.778  15.581
   6623SM  C17F 8607   4.484   1.914  15.751
   6623SM  H17F 8608   4.543   1.830  15.812
   6623SM  H17G 8609   4.429   1.991  15.822
   6623SM  C18F 8610   4.595   2.000  15.669
   6623SM  H18F 8611   4.668   2.064  15.737
   6623SM  H18G 8612   4.532   2.082  15.610
   6623SM  C19F 8613   4.686   1.898  15.580
   6623SM  H19F 8614   4.613   1.824  15.521
   6623SM  H19G 8615   4.754   1.824  15.646
   6623SM  C20F 8616   4.784   1.977  15.479
   6623SM  H20F 8617   4.827   1.894  15.406
   6623SM  H20G 8618   4.881   2.023  15.532
   6623SM  C21F 8619   4.706   2.102  15.404
   6623SM  H21F 8620   4.777   2.132  15.319
   6623SM  H21G 8621   4.698   2.199  15.472
   6623SM  C22F 8622   4.555   2.075  15.339
   6623SM  H22F 8623   4.531   2.175  15.278
   6623SM  H22G 8624   4.466   2.067  15.415
   6623SM  C23F 8625   4.549   1.940  15.249
   6623SM  H23F 8626   4.466   1.956  15.168
   6623SM  H23G 8627   4.521   1.841  15.308
   6623SM  H23H 8628   4.657   1.921  15.204
   6723SM     N 8629   3.670   6.565  17.739
   6723SM   C15 8630   3.687   6.727  17.731
   6723SM  H15A 8631   3.795   6.756  17.768
   6723SM  H15B 8632   3.606   6.779  17.795
   6723SM  H15C 8633   3.674   6.763  17.628
   6723SM   C14 8634   3.789   6.497  17.656
   6723SM  H14A 8635   3.771   6.523  17.550
   6723SM  H14B 8636   3.781   6.378  17.662
   6723SM  H14C 8637   3.897   6.534  17.684
   6723SM   C13 8638   3.680   6.521  17.883
   6723SM  H13A 8639   3.781   6.556  17.931
   6723SM  H13B 8640   3.673   6.402  17.890
   6723SM  H13C 8641   3.588   6.566  17.939
   6723SM   C12 8642   3.522   6.514  17.684
   6723SM  H12A 8643   3.433   6.556  17.745
   6723SM  H12B 8644   3.517   6.394  17.691
   6723SM   C11 8645   3.485   6.547  17.536
   6723SM  H11A 8646   3.496   6.666  17.517
   6723SM  H11B 8647   3.366   6.521  17.519
   6723SM     P 8648   3.534   6.293  17.430
   6723SM   O13 8649   3.667   6.215  17.382
   6723SM   O14 8650   3.472   6.240  17.558
   6723SM   O11 8651   3.417   6.295  17.313
   6723SM   O12 8652   3.576   6.465  17.447
   6723SM   C1S 8653   3.384   6.422  17.234
   6723SM   H1S 8654   3.427   6.525  17.277
   6723SM   H1T 8655   3.263   6.435  17.231
   6723SM    NF 8656   3.452   6.566  17.036
   6723SM   HNF 8657   3.389   6.599  16.961
   6723SM   C2S 8658   3.439   6.414  17.086
   6723SM   H2S 8659   3.549   6.360  17.081
   6723SM   C3S 8660   3.331   6.318  17.005
   6723SM   H3S 8661   3.214   6.349  17.027
   6723SM    O3 8662   3.352   6.168  17.039
   6723SM   HO3 8663   3.407   6.173  17.121
   6723SM   C4S 8664   3.356   6.327  16.858
   6723SM   H4S 8665   3.454   6.267  16.826
   6723SM   C5S 8666   3.271   6.395  16.766
   6723SM   H5S 8667   3.170   6.451  16.797
   6723SM   C6S 8668   3.303   6.400  16.618
   6723SM   H6S 8669   3.335   6.514  16.589
   6723SM   H6T 8670   3.203   6.373  16.559
   6723SM   C7S 8671   3.423   6.291  16.571
   6723SM   H7S 8672   3.384   6.176  16.583
   6723SM   H7T 8673   3.523   6.306  16.633
   6723SM   C8S 8674   3.472   6.318  16.427
   6723SM   H8S 8675   3.576   6.258  16.406
   6723SM   H8T 8676   3.497   6.437  16.421
   6723SM   C9S 8677   3.359   6.282  16.317
   6723SM   H9S 8678   3.258   6.346  16.338
   6723SM   H9T 8679   3.330   6.163  16.320
   6723SM  C10S 8680   3.417   6.326  16.178
   6723SM  H10S 8681   3.511   6.403  16.189
   6723SM  H10T 8682   3.325   6.388  16.129
   6723SM  C11S 8683   3.462   6.201  16.084
   6723SM  H11S 8684   3.381   6.109  16.095
   6723SM  H11T 8685   3.572   6.157  16.112
   6723SM  C12S 8686   3.464   6.249  15.936
   6723SM  H12S 8687   3.566   6.313  15.916
   6723SM  H12T 8688   3.370   6.325  15.918
   6723SM  C13S 8689   3.450   6.119  15.838
   6723SM  H13S 8690   3.342   6.122  15.788
   6723SM  H13T 8691   3.451   6.015  15.895
   6723SM  C14S 8692   3.567   6.112  15.729
   6723SM  H14S 8693   3.608   5.996  15.724
   6723SM  H14T 8694   3.663   6.182  15.756
   6723SM  C15S 8695   3.514   6.148  15.588
   6723SM  H15S 8696   3.482   6.266  15.580
   6723SM  H15T 8697   3.416   6.080  15.564
   6723SM  C16S 8698   3.637   6.110  15.489
   6723SM  H16S 8699   3.673   5.995  15.504
   6723SM  H16T 8700   3.732   6.183  15.509
   6723SM  C17S 8701   3.588   6.127  15.344
   6723SM  H17S 8702   3.549   6.241  15.330
   6723SM  H17T 8703   3.498   6.046  15.325
   6723SM  C18S 8704   3.706   6.098  15.241
   6723SM  H18S 8705   3.795   6.180  15.254
   6723SM  H18T 8706   3.663   6.108  15.137
   6723SM  H18U 8707   3.751   5.985  15.255
   6723SM   C1F 8708   3.567   6.643  17.082
   6723SM    OF 8709   3.671   6.580  17.136
   6723SM   C2F 8710   3.568   6.807  17.067
   6723SM   H2F 8711   3.648   6.853  17.141
   6723SM   H2G 8712   3.458   6.854  17.087
   6723SM   C3F 8713   3.627   6.846  16.929
   6723SM   H3F 8714   3.732   6.787  16.911
   6723SM   H3G 8715   3.656   6.965  16.923
   6723SM   C4F 8716   3.520   6.805  16.819
   6723SM   H4F 8717   3.408   6.851  16.834
   6723SM   H4G 8718   3.508   6.682  16.816
   6723SM   C5F 8719   3.585   6.849  16.687
   6723SM   H5F 8720   3.707   6.837  16.693
   6723SM   H5G 8721   3.561   6.965  16.662
   6723SM   C6F 8722   3.535   6.746  16.576
   6723SM   H6F 8723   3.414   6.761  16.561
   6723SM   H6G 8724   3.555   6.629  16.603
   6723SM   C7F 8725   3.622   6.785  16.453
   6723SM   H7F 8726   3.741   6.762  16.469
   6723SM   H7G 8727   3.609   6.906  16.440
   6723SM   C8F 8728   3.571   6.707  16.328
   6723SM   H8F 8729   3.607   6.590  16.330
   6723SM   H8G 8730   3.629   6.756  16.241
   6723SM   C9F 8731   3.403   6.717  16.304
   6723SM   H9F 8732   3.361   6.824  16.340
   6723SM   H9G 8733   3.345   6.629  16.361
   6723SM  C10F 8734   3.379   6.704  16.153
   6723SM  H10F 8735   3.438   6.604  16.119
   6723SM  H10G 8736   3.435   6.799  16.106
   6723SM  C11F 8737   3.223   6.698  16.098
   6723SM  H11F 8738   3.168   6.805  16.115
   6723SM  H11G 8739   3.158   6.612  16.151
   6723SM  C12F 8740   3.230   6.662  15.947
   6723SM  H12F 8741   3.118   6.636  15.909
   6723SM  H12G 8742   3.297   6.559  15.934
   6723SM  C13F 8743   3.299   6.785  15.862
   6723SM  H13F 8744   3.416   6.796  15.889
   6723SM  H13G 8745   3.241   6.888  15.890
   6723SM  C14F 8746   3.282   6.765  15.708
   6723SM  H14F 8747   3.287   6.875  15.660
   6723SM  H14G 8748   3.169   6.722  15.693
   6723SM  C15F 8749   3.389   6.659  15.637
   6723SM  H15F 8750   3.321   6.576  15.585
   6723SM  H15G 8751   3.460   6.601  15.711
   6723SM  C16F 8752   3.488   6.722  15.524
   6723SM  H16F 8753   3.579   6.786  15.566
   6723SM  H16G 8754   3.425   6.799  15.459
   6723SM  C17F 8755   3.557   6.601  15.436
   6723SM  H17F 8756   3.473   6.521  15.401
   6723SM  H17G 8757   3.634   6.538  15.502
   6723SM  C18F 8758   3.647   6.663  15.317
   6723SM  H18F 8759   3.708   6.569  15.271
   6723SM  H18G 8760   3.729   6.742  15.357
   6723SM  C19F 8761   3.559   6.735  15.202
   6723SM  H19F 8762   3.629   6.820  15.152
   6723SM  H19G 8763   3.465   6.799  15.242
   6723SM  C20F 8764   3.520   6.614  15.100
   6723SM  H20F 8765   3.502   6.513  15.161
   6723SM  H20G 8766   3.620   6.595  15.039
   6723SM  C21F 8767   3.384   6.614  15.007
   6723SM  H21F 8768   3.293   6.563  15.066
   6723SM  H21G 8769   3.410   6.538  14.923
   6723SM  C22F 8770   3.311   6.753  14.948
   6723SM  H22F 8771   3.333   6.754  14.838
   6723SM  H22G 8772   3.355   6.856  14.991
   6723SM  C23F 8773   3.143   6.741  14.965
   6723SM  H23F 8774   3.081   6.826  14.910
   6723SM  H23G 8775   3.110   6.752  15.071
   6723SM  H23H 8776   3.104   6.631  14.932
   6823SM     N 8777   3.731   1.551  17.678
   6823SM   C15 8778   3.655   1.582  17.809
   6823SM  H15A 8779   3.614   1.482  17.855
   6823SM  H15B 8780   3.563   1.657  17.797
   6823SM  H15C 8781   3.729   1.631  17.882
   6823SM   C14 8782   3.846   1.436  17.699
   6823SM  H14A 8783   3.907   1.416  17.607
   6823SM  H14B 8784   3.795   1.332  17.729
   6823SM  H14C 8785   3.920   1.466  17.778
   6823SM   C13 8786   3.618   1.493  17.581
   6823SM  H13A 8787   3.547   1.584  17.550
   6823SM  H13B 8788   3.553   1.406  17.624
   6823SM  H13C 8789   3.666   1.450  17.489
   6823SM   C12 8790   3.805   1.685  17.617
   6823SM  H12A 8791   3.847   1.659  17.517
   6823SM  H12B 8792   3.902   1.716  17.673
   6823SM   C11 8793   3.709   1.824  17.600
   6823SM  H11A 8794   3.782   1.916  17.569
   6823SM  H11B 8795   3.660   1.850  17.699
   6823SM     P 8796   3.478   1.922  17.487
   6823SM   O13 8797   3.390   1.929  17.610
   6823SM   O14 8798   3.543   2.060  17.441
   6823SM   O11 8799   3.375   1.861  17.374
   6823SM   O12 8800   3.600   1.796  17.500
   6823SM   C1S 8801   3.414   1.747  17.284
   6823SM   H1S 8802   3.367   1.641  17.321
   6823SM   H1T 8803   3.535   1.731  17.274
   6823SM    NF 8804   3.364   1.659  17.055
   6823SM   HNF 8805   3.416   1.681  16.969
   6823SM   C2S 8806   3.350   1.782  17.145
   6823SM   H2S 8807   3.230   1.806  17.157
   6823SM   C3S 8808   3.423   1.922  17.085
   6823SM   H3S 8809   3.544   1.906  17.085
   6823SM    O3 8810   3.396   2.054  17.156
   6823SM   HO3 8811   3.377   2.024  17.247
   6823SM   C4S 8812   3.372   1.932  16.941
   6823SM   H4S 8813   3.453   1.888  16.871
   6823SM   C5S 8814   3.245   1.987  16.894
   6823SM   H5S 8815   3.170   2.042  16.966
   6823SM   C6S 8816   3.198   1.990  16.749
   6823SM   H6S 8817   3.183   2.106  16.717
   6823SM   H6T 8818   3.087   1.938  16.746
   6823SM   C7S 8819   3.290   1.911  16.640
   6823SM   H7S 8820   3.289   1.790  16.659
   6823SM   H7T 8821   3.407   1.947  16.645
   6823SM   C8S 8822   3.231   1.940  16.498
   6823SM   H8S 8823   3.236   2.061  16.480
   6823SM   H8T 8824   3.112   1.907  16.496
   6823SM   C9S 8825   3.309   1.863  16.380
   6823SM   H9S 8826   3.296   1.744  16.393
   6823SM   H9T 8827   3.429   1.887  16.384
   6823SM  C10S 8828   3.249   1.913  16.240
   6823SM  H10S 8829   3.303   2.016  16.209
   6823SM  H10T 8830   3.131   1.932  16.256
   6823SM  C11S 8831   3.249   1.796  16.128
   6823SM  H11S 8832   3.150   1.731  16.148
   6823SM  H11T 8833   3.344   1.720  16.139
   6823SM  C12S 8834   3.227   1.837  15.979
   6823SM  H12S 8835   3.296   1.933  15.951
   6823SM  H12T 8836   3.111   1.867  15.964
   6823SM  C13S 8837   3.259   1.701  15.891
   6823SM  H13S 8838   3.208   1.603  15.937
   6823SM  H13T 8839   3.379   1.683  15.890
   6823SM  C14S 8840   3.211   1.711  15.744
   6823SM  H14S 8841   3.253   1.817  15.704
   6823SM  H14T 8842   3.090   1.713  15.736
   6823SM  C15S 8843   3.274   1.585  15.654
   6823SM  H15S 8844   3.205   1.485  15.667
   6823SM  H15T 8845   3.388   1.558  15.685
   6823SM  C16S 8846   3.275   1.635  15.507
   6823SM  H16S 8847   3.358   1.723  15.495
   6823SM  H16T 8848   3.165   1.682  15.486
   6823SM  C17S 8849   3.307   1.521  15.396
   6823SM  H17S 8850   3.230   1.427  15.405
   6823SM  H17T 8851   3.421   1.480  15.408
   6823SM  C18S 8852   3.290   1.591  15.257
   6823SM  H18S 8853   3.328   1.516  15.176
   6823SM  H18T 8854   3.355   1.694  15.250
   6823SM  H18U 8855   3.174   1.620  15.237
   6823SM   C1F 8856   3.294   1.532  17.069
   6823SM    OF 8857   3.216   1.508  17.166
   6823SM   C2F 8858   3.307   1.430  16.953
   6823SM   H2F 8859   3.308   1.495  16.858
   6823SM   H2G 8860   3.205   1.361  16.952
   6823SM   C3F 8861   3.441   1.326  16.957
   6823SM   H3F 8862   3.450   1.275  16.856
   6823SM   H3G 8863   3.413   1.234  17.028
   6823SM   C4F 8864   3.592   1.389  16.996
   6823SM   H4F 8865   3.671   1.296  16.987
   6823SM   H4G 8866   3.590   1.423  17.103
   6823SM   C5F 8867   3.649   1.515  16.908
   6823SM   H5F 8868   3.601   1.621  16.939
   6823SM   H5G 8869   3.614   1.494  16.802
   6823SM   C6F 8870   3.817   1.531  16.913
   6823SM   H6F 8871   3.868   1.424  16.887
   6823SM   H6G 8872   3.850   1.559  17.018
   6823SM   C7F 8873   3.875   1.650  16.818
   6823SM   H7F 8874   3.992   1.669  16.844
   6823SM   H7G 8875   3.817   1.756  16.834
   6823SM   C8F 8876   3.864   1.606  16.669
   6823SM   H8F 8877   3.748   1.623  16.638
   6823SM   H8G 8878   3.891   1.487  16.657
   6823SM   C9F 8879   3.966   1.694  16.576
   6823SM   H9F 8880   4.081   1.659  16.592
   6823SM   H9G 8881   3.959   1.813  16.601
   6823SM  C10F 8882   3.939   1.670  16.427
   6823SM  H10F 8883   3.963   1.553  16.401
   6823SM  H10G 8884   4.017   1.741  16.370
   6823SM  C11F 8885   3.784   1.698  16.378
   6823SM  H11F 8886   3.744   1.806  16.415
   6823SM  H11G 8887   3.707   1.613  16.415
   6823SM  C12F 8888   3.782   1.699  16.225
   6823SM  H12F 8889   3.815   1.590  16.184
   6823SM  H12G 8890   3.863   1.781  16.189
   6823SM  C13F 8891   3.630   1.742  16.178
   6823SM  H13F 8892   3.603   1.851  16.222
   6823SM  H13G 8893   3.549   1.664  16.222
   6823SM  C14F 8894   3.606   1.753  16.027
   6823SM  H14F 8895   3.503   1.818  16.021
   6823SM  H14G 8896   3.586   1.643  15.983
   6823SM  C15F 8897   3.714   1.840  15.942
   6823SM  H15F 8898   3.802   1.768  15.903
   6823SM  H15G 8899   3.766   1.929  16.003
   6823SM  C16F 8900   3.632   1.916  15.826
   6823SM  H16F 8901   3.697   2.015  15.798
   6823SM  H16G 8902   3.522   1.955  15.857
   6823SM  C17F 8903   3.619   1.825  15.698
   6823SM  H17F 8904   3.523   1.750  15.704
   6823SM  H17G 8905   3.719   1.757  15.685
   6823SM  C18F 8906   3.603   1.925  15.576
   6823SM  H18F 8907   3.662   2.031  15.590
   6823SM  H18G 8908   3.484   1.952  15.565
   6823SM  C19F 8909   3.656   1.854  15.447
   6823SM  H19F 8910   3.618   1.737  15.447
   6823SM  H19G 8911   3.779   1.852  15.446
   6823SM  C20F 8912   3.598   1.928  15.321
   6823SM  H20F 8913   3.476   1.933  15.323
   6823SM  H20G 8914   3.630   1.855  15.238
   6823SM  C21F 8915   3.658   2.085  15.298
   6823SM  H21F 8916   3.779   2.087  15.312
   6823SM  H21G 8917   3.608   2.161  15.372
   6823SM  C22F 8918   3.622   2.138  15.156
   6823SM  H22F 8919   3.663   2.254  15.145
   6823SM  H22G 8920   3.501   2.140  15.143
   6823SM  C23F 8921   3.693   2.045  15.046
   6823SM  H23F 8922   3.653   2.078  14.947
   6823SM  H23G 8923   3.663   1.927  15.055
   6823SM  H23H 8924   3.814   2.056  15.048
   6923SM     N 8925   5.966   2.281  17.791
   6923SM   C15 8926   5.806   2.244  17.792
   6923SM  H15A 8927   5.749   2.294  17.875
   6923SM  H15B 8928   5.793   2.126  17.798
   6923SM  H15C 8929   5.757   2.278  17.697
   6923SM   C14 8930   5.990   2.444  17.802
   6923SM  H14A 8931   5.937   2.501  17.719
   6923SM  H14B 8932   6.106   2.473  17.808
   6923SM  H14C 8933   5.943   2.488  17.894
   6923SM   C13 8934   6.035   2.210  17.910
   6923SM  H13A 8935   5.978   2.248  18.000
   6923SM  H13B 8936   6.148   2.246  17.924
   6923SM  H13C 8937   6.035   2.091  17.907
   6923SM   C12 8938   6.032   2.219  17.663
   6923SM  H12A 8939   5.994   2.105  17.652
   6923SM  H12B 8940   6.151   2.215  17.671
   6923SM   C11 8941   5.991   2.296  17.531
   6923SM  H11A 8942   6.053   2.236  17.451
   6923SM  H11B 8943   6.034   2.410  17.534
   6923SM     P 8944   5.761   2.174  17.416
   6923SM   O13 8945   5.774   2.034  17.491
   6923SM   O14 8946   5.611   2.219  17.378
   6923SM   O11 8947   5.861   2.171  17.285
   6923SM   O12 8948   5.837   2.299  17.506
   6923SM   C1S 8949   5.908   2.308  17.226
   6923SM   H1S 8950   6.028   2.324  17.247
   6923SM   H1T 8951   5.848   2.406  17.265
   6923SM    NF 8952   5.732   2.305  17.043
   6923SM   HNF 8953   5.679   2.210  17.048
   6923SM   C2S 8954   5.889   2.308  17.072
   6923SM   H2S 8955   5.936   2.412  17.032
   6923SM   C3S 8956   5.974   2.178  17.007
   6923SM   H3S 8957   5.939   2.071  17.048
   6923SM    O3 8958   6.131   2.184  17.023
   6923SM   HO3 8959   6.152   2.268  17.077
   6923SM   C4S 8960   5.946   2.188  16.859
   6923SM   H4S 8961   6.002   2.279  16.809
   6923SM   C5S 8962   5.867   2.092  16.785
   6923SM   H5S 8963   5.817   1.995  16.832
   6923SM   C6S 8964   5.842   2.112  16.637
   6923SM   H6S 8965   5.847   2.232  16.611
   6923SM   H6T 8966   5.729   2.072  16.615
   6923SM   C7S 8967   5.944   2.035  16.538
   6923SM   H7S 8968   5.947   1.916  16.563
   6923SM   H7T 8969   6.057   2.081  16.553
   6923SM   C8S 8970   5.906   2.052  16.388
   6923SM   H8S 8971   5.933   2.164  16.353
   6923SM   H8T 8972   5.787   2.033  16.368
   6923SM   C9S 8973   6.001   1.938  16.314
   6923SM   H9S 8974   5.978   1.826  16.352
   6923SM   H9T 8975   6.113   1.967  16.340
   6923SM  C10S 8976   6.004   1.940  16.162
   6923SM  H10S 8977   6.123   1.937  16.130
   6923SM  H10T 8978   5.957   2.046  16.125
   6923SM  C11S 8979   5.929   1.806  16.101
   6923SM  H11S 8980   5.849   1.761  16.172
   6923SM  H11T 8981   6.015   1.720  16.084
   6923SM  C12S 8982   5.852   1.845  15.971
   6923SM  H12S 8983   5.769   1.933  15.992
   6923SM  H12T 8984   5.793   1.748  15.929
   6923SM  C13S 8985   5.963   1.905  15.872
   6923SM  H13S 8986   6.049   1.822  15.854
   6923SM  H13T 8987   6.018   2.004  15.915
   6923SM  C14S 8988   5.897   1.952  15.740
   6923SM  H14S 8989   5.817   2.045  15.756
   6923SM  H14T 8990   5.835   1.860  15.693
   6923SM  C15S 8991   6.023   2.003  15.649
   6923SM  H15S 8992   6.105   1.914  15.639
   6923SM  H15T 8993   6.078   2.099  15.696
   6923SM  C16S 8994   5.963   2.044  15.513
   6923SM  H16S 8995   5.893   2.143  15.528
   6923SM  H16T 8996   5.892   1.952  15.477
   6923SM  C17S 8997   6.079   2.076  15.407
   6923SM  H17S 8998   6.142   1.976  15.382
   6923SM  H17T 8999   6.156   2.163  15.443
   6923SM  C18S 9000   6.002   2.128  15.282
   6923SM  H18S 9001   5.954   2.037  15.222
   6923SM  H18T 9002   6.075   2.193  15.216
   6923SM  H18U 9003   5.911   2.200  15.315
   6923SM   C1F 9004   5.657   2.431  17.047
   6923SM    OF 9005   5.715   2.544  17.089
   6923SM   C2F 9006   5.506   2.429  16.992
   6923SM   H2F 9007   5.423   2.468  17.066
   6923SM   H2G 9008   5.471   2.318  16.957
   6923SM   C3F 9009   5.500   2.532  16.871
   6923SM   H3F 9010   5.518   2.650  16.896
   6923SM   H3G 9011   5.381   2.523  16.850
   6923SM   C4F 9012   5.595   2.483  16.753
   6923SM   H4F 9013   5.712   2.473  16.784
   6923SM   H4G 9014   5.591   2.567  16.672
   6923SM   C5F 9015   5.544   2.335  16.695
   6923SM   H5F 9016   5.423   2.325  16.704
   6923SM   H5G 9017   5.594   2.244  16.754
   6923SM   C6F 9018   5.585   2.324  16.547
   6923SM   H6F 9019   5.598   2.210  16.511
   6923SM   H6G 9020   5.693   2.383  16.533
   6923SM   C7F 9021   5.471   2.399  16.458
   6923SM   H7F 9022   5.413   2.482  16.519
   6923SM   H7G 9023   5.388   2.318  16.425
   6923SM   C8F 9024   5.543   2.483  16.344
   6923SM   H8F 9025   5.613   2.571  16.386
   6923SM   H8G 9026   5.456   2.538  16.285
   6923SM   C9F 9027   5.634   2.382  16.256
   6923SM   H9F 9028   5.709   2.314  16.320
   6923SM   H9G 9029   5.705   2.446  16.187
   6923SM  C10F 9030   5.535   2.278  16.177
   6923SM  H10F 9031   5.458   2.220  16.245
   6923SM  H10G 9032   5.603   2.193  16.125
   6923SM  C11F 9033   5.445   2.358  16.072
   6923SM  H11F 9034   5.369   2.442  16.114
   6923SM  H11G 9035   5.374   2.270  16.031
   6923SM  C12F 9036   5.543   2.431  15.967
   6923SM  H12F 9037   5.643   2.362  15.952
   6923SM  H12G 9038   5.582   2.540  16.004
   6923SM  C13F 9039   5.466   2.451  15.833
   6923SM  H13F 9040   5.545   2.493  15.757
   6923SM  H13G 9041   5.378   2.536  15.844
   6923SM  C14F 9042   5.394   2.308  15.783
   6923SM  H14F 9043   5.338   2.331  15.688
   6923SM  H14G 9044   5.304   2.273  15.850
   6923SM  C15F 9045   5.495   2.175  15.769
   6923SM  H15F 9046   5.427   2.079  15.802
   6923SM  H15G 9047   5.594   2.180  15.833
   6923SM  C16F 9048   5.534   2.148  15.624
   6923SM  H16F 9049   5.430   2.140  15.568
   6923SM  H16G 9050   5.595   2.043  15.609
   6923SM  C17F 9051   5.620   2.275  15.560
   6923SM  H17F 9052   5.728   2.287  15.609
   6923SM  H17G 9053   5.557   2.378  15.570
   6923SM  C18F 9054   5.630   2.234  15.414
   6923SM  H18F 9055   5.518   2.201  15.382
   6923SM  H18G 9056   5.700   2.134  15.405
   6923SM  C19F 9057   5.679   2.349  15.313
   6923SM  H19F 9058   5.790   2.388  15.344
   6923SM  H19G 9059   5.606   2.445  15.310
   6923SM  C20F 9060   5.683   2.265  15.180
   6923SM  H20F 9061   5.734   2.156  15.196
   6923SM  H20G 9062   5.750   2.318  15.102
   6923SM  C21F 9063   5.533   2.234  15.119
   6923SM  H21F 9064   5.471   2.341  15.118
   6923SM  H21G 9065   5.470   2.155  15.180
   6923SM  C22F 9066   5.554   2.185  14.974
   6923SM  H22F 9067   5.599   2.287  14.931
   6923SM  H22G 9068   5.451   2.170  14.921
   6923SM  C23F 9069   5.662   2.058  14.939
   6923SM  H23F 9070   5.743   2.098  14.865
   6923SM  H23G 9071   5.604   1.962  14.893
   6923SM  H23H 9072   5.721   2.019  15.029
   7023SM     N 9073   5.235   1.753  17.786
   7023SM   C15 9074   5.301   1.614  17.734
   7023SM  H15A 9075   5.267   1.595  17.630
   7023SM  H15B 9076   5.266   1.517  17.791
   7023SM  H15C 9077   5.420   1.619  17.738
   7023SM   C14 9078   5.075   1.724  17.810
   7023SM  H14A 9079   5.027   1.678  17.719
   7023SM  H14B 9080   5.015   1.822  17.832
   7023SM  H14C 9081   5.060   1.645  17.889
   7023SM   C13 9082   5.313   1.786  17.912
   7023SM  H13A 9083   5.426   1.816  17.892
   7023SM  H13B 9084   5.319   1.690  17.976
   7023SM  H13C 9085   5.259   1.873  17.968
   7023SM   C12 9086   5.259   1.876  17.685
   7023SM  H12A 9087   5.371   1.865  17.648
   7023SM  H12B 9088   5.248   1.983  17.731
   7023SM   C11 9089   5.161   1.874  17.559
   7023SM  H11A 9090   5.196   1.966  17.491
   7023SM  H11B 9091   5.046   1.898  17.588
   7023SM     P 9092   5.047   1.663  17.418
   7023SM   O13 9093   5.082   1.506  17.397
   7023SM   O14 9094   4.912   1.701  17.491
   7023SM   O11 9095   5.049   1.748  17.279
   7023SM   O12 9096   5.182   1.737  17.492
   7023SM   C1S 9097   5.188   1.800  17.229
   7023SM   H1S 9098   5.282   1.727  17.258
   7023SM   H1T 9099   5.210   1.912  17.269
   7023SM    NF 9100   5.314   1.728  17.019
   7023SM   HNF 9101   5.405   1.788  17.005
   7023SM   C2S 9102   5.189   1.809  17.074
   7023SM   H2S 9103   5.084   1.760  17.035
   7023SM   C3S 9104   5.192   1.973  17.031
   7023SM   H3S 9105   5.291   2.028  17.073
   7023SM    O3 9106   5.069   2.060  17.073
   7023SM   HO3 9107   5.030   2.013  17.152
   7023SM   C4S 9108   5.195   1.976  16.882
   7023SM   H4S 9109   5.088   1.952  16.836
   7023SM   C5S 9110   5.311   2.008  16.804
   7023SM   H5S 9111   5.418   2.036  16.849
   7023SM   C6S 9112   5.303   2.005  16.654
   7023SM   H6S 9113   5.321   2.118  16.613
   7023SM   H6T 9114   5.193   1.969  16.617
   7023SM   C7S 9115   5.419   1.901  16.596
   7023SM   H7S 9116   5.404   1.788  16.633
   7023SM   H7T 9117   5.530   1.938  16.626
   7023SM   C8S 9118   5.408   1.902  16.443
   7023SM   H8S 9119   5.411   2.021  16.413
   7023SM   H8T 9120   5.301   1.857  16.409
   7023SM   C9S 9121   5.534   1.826  16.371
   7023SM   H9S 9122   5.519   1.704  16.367
   7023SM   H9T 9123   5.639   1.849  16.424
   7023SM  C10S 9124   5.547   1.890  16.230
   7023SM  H10S 9125   5.650   1.850  16.183
   7023SM  H10T 9126   5.557   2.011  16.240
   7023SM  C11S 9127   5.421   1.854  16.135
   7023SM  H11S 9128   5.320   1.917  16.158
   7023SM  H11T 9129   5.394   1.735  16.145
   7023SM  C12S 9130   5.474   1.881  15.991
   7023SM  H12S 9131   5.575   1.816  15.978
   7023SM  H12T 9132   5.500   2.000  15.979
   7023SM  C13S 9133   5.363   1.823  15.891
   7023SM  H13S 9134   5.258   1.887  15.901
   7023SM  H13T 9135   5.345   1.709  15.929
   7023SM  C14S 9136   5.403   1.803  15.742
   7023SM  H14S 9137   5.437   1.686  15.724
   7023SM  H14T 9138   5.500   1.871  15.715
   7023SM  C15S 9139   5.268   1.839  15.656
   7023SM  H15S 9140   5.222   1.945  15.695
   7023SM  H15T 9141   5.181   1.756  15.669
   7023SM  C16S 9142   5.283   1.865  15.506
   7023SM  H16S 9143   5.307   1.983  15.493
   7023SM  H16T 9144   5.175   1.846  15.456
   7023SM  C17S 9145   5.401   1.790  15.422
   7023SM  H17S 9146   5.369   1.675  15.396
   7023SM  H17T 9147   5.510   1.788  15.473
   7023SM  C18S 9148   5.408   1.883  15.297
   7023SM  H18S 9149   5.464   1.828  15.213
   7023SM  H18T 9150   5.470   1.985  15.321
   7023SM  H18U 9151   5.295   1.915  15.263
   7023SM   C1F 9152   5.304   1.584  16.997
   7023SM    OF 9153   5.214   1.507  17.054
   7023SM   C2F 9154   5.402   1.519  16.892
   7023SM   H2F 9155   5.475   1.436  16.939
   7023SM   H2G 9156   5.470   1.607  16.846
   7023SM   C3F 9157   5.304   1.445  16.784
   7023SM   H3F 9158   5.247   1.349  16.828
   7023SM   H3G 9159   5.378   1.403  16.704
   7023SM   C4F 9160   5.187   1.550  16.726
   7023SM   H4F 9161   5.239   1.650  16.685
   7023SM   H4G 9162   5.112   1.587  16.807
   7023SM   C5F 9163   5.089   1.483  16.618
   7023SM   H5F 9164   4.996   1.559  16.596
   7023SM   H5G 9165   5.041   1.378  16.658
   7023SM   C6F 9166   5.170   1.452  16.488
   7023SM   H6F 9167   5.272   1.393  16.516
   7023SM   H6G 9168   5.204   1.554  16.436
   7023SM   C7F 9169   5.080   1.352  16.397
   7023SM   H7F 9170   5.030   1.269  16.465
   7023SM   H7G 9171   5.154   1.295  16.324
   7023SM   C8F 9172   4.950   1.422  16.323
   7023SM   H8F 9173   4.876   1.477  16.397
   7023SM   H8G 9174   4.885   1.334  16.273
   7023SM   C9F 9175   4.997   1.533  16.218
   7023SM   H9F 9176   5.089   1.603  16.257
   7023SM   H9G 9177   4.905   1.607  16.194
   7023SM  C10F 9178   5.048   1.458  16.089
   7023SM  H10F 9179   4.957   1.397  16.044
   7023SM  H10G 9180   5.137   1.377  16.110
   7023SM  C11F 9181   5.104   1.574  15.993
   7023SM  H11F 9182   5.190   1.636  16.050
   7023SM  H11G 9183   5.015   1.654  15.968
   7023SM  C12F 9184   5.171   1.509  15.866
   7023SM  H12F 9185   5.269   1.442  15.892
   7023SM  H12G 9186   5.211   1.602  15.805
   7023SM  C13F 9187   5.069   1.423  15.775
   7023SM  H13F 9188   4.962   1.485  15.767
   7023SM  H13G 9189   5.046   1.313  15.817
   7023SM  C14F 9190   5.133   1.412  15.633
   7023SM  H14F 9191   5.138   1.526  15.590
   7023SM  H14G 9192   5.053   1.346  15.573
   7023SM  C15F 9193   5.289   1.344  15.621
   7023SM  H15F 9194   5.282   1.225  15.647
   7023SM  H15G 9195   5.366   1.397  15.692
   7023SM  C16F 9196   5.356   1.360  15.480
   7023SM  H16F 9197   5.455   1.289  15.470
   7023SM  H16G 9198   5.393   1.475  15.470
   7023SM  C17F 9199   5.247   1.324  15.368
   7023SM  H17F 9200   5.139   1.377  15.388
   7023SM  H17G 9201   5.229   1.203  15.366
   7023SM  C18F 9202   5.286   1.381  15.230
   7023SM  H18F 9203   5.390   1.332  15.192
   7023SM  H18G 9204   5.299   1.503  15.234
   7023SM  C19F 9205   5.159   1.346  15.135
   7023SM  H19F 9206   5.052   1.386  15.177
   7023SM  H19G 9207   5.149   1.228  15.125
   7023SM  C20F 9208   5.179   1.408  14.996
   7023SM  H20F 9209   5.283   1.366  14.952
   7023SM  H20G 9210   5.192   1.528  15.003
   7023SM  C21F 9211   5.047   1.368  14.908
   7023SM  H21F 9212   4.942   1.387  14.963
   7023SM  H21G 9213   5.052   1.250  14.881
   7023SM  C22F 9214   5.049   1.462  14.782
   7023SM  H22F 9215   4.975   1.412  14.705
   7023SM  H22G 9216   5.163   1.460  14.746
   7023SM  C23F 9217   5.012   1.625  14.799
   7023SM  H23F 9218   5.038   1.690  14.709
   7023SM  H23G 9219   5.071   1.674  14.885
   7023SM  H23H 9220   4.893   1.631  14.821
   7123SM     N 9221   5.056   7.204  17.693
   7123SM   C15 9222   5.210   7.224  17.744
   7123SM  H15A 9223   5.248   7.335  17.719
   7123SM  H15B 9224   5.284   7.150  17.694
   7123SM  H15C 9225   5.218   7.207  17.851
   7123SM   C14 9226   4.997   7.058  17.736
   7123SM  H14A 9227   5.059   6.969  17.690
   7123SM  H14B 9228   4.882   7.042  17.714
   7123SM  H14C 9229   5.016   7.039  17.842
   7123SM   C13 9230   4.962   7.325  17.748
   7123SM  H13A 9231   4.998   7.428  17.703
   7123SM  H13B 9232   4.970   7.336  17.856
   7123SM  H13C 9233   4.849   7.310  17.720
   7123SM   C12 9234   5.058   7.217  17.541
   7123SM  H12A 9235   4.952   7.185  17.501
   7123SM  H12B 9236   5.141   7.145  17.501
   7123SM   C11 9237   5.096   7.369  17.480
   7123SM  H11A 9238   5.025   7.457  17.522
   7123SM  H11B 9239   5.073   7.363  17.370
   7123SM     P 9240   5.313   7.556  17.471
   7123SM   O13 9241   5.204   7.665  17.519
   7123SM   O14 9242   5.464   7.568  17.527
   7123SM   O11 9243   5.326   7.564  17.311
   7123SM   O12 9244   5.248   7.398  17.502
   7123SM   C1S 9245   5.379   7.436  17.243
   7123SM   H1S 9246   5.338   7.333  17.290
   7123SM   H1T 9247   5.501   7.433  17.245
   7123SM    NF 9248   5.315   7.283  17.040
   7123SM   HNF 9249   5.359   7.272  16.950
   7123SM   C2S 9250   5.323   7.433  17.096
   7123SM   H2S 9251   5.210   7.479  17.095
   7123SM   C3S 9252   5.422   7.531  17.005
   7123SM   H3S 9253   5.536   7.488  17.009
   7123SM    O3 9254   5.430   7.684  17.040
   7123SM   HO3 9255   5.399   7.688  17.133
   7123SM   C4S 9256   5.361   7.512  16.865
   7123SM   H4S 9257   5.251   7.559  16.852
   7123SM   C5S 9258   5.425   7.445  16.760
   7123SM   H5S 9259   5.538   7.402  16.767
   7123SM   C6S 9260   5.350   7.432  16.626
   7123SM   H6S 9261   5.229   7.449  16.635
   7123SM   H6T 9262   5.365   7.318  16.586
   7123SM   C7S 9263   5.406   7.541  16.522
   7123SM   H7S 9264   5.525   7.519  16.505
   7123SM   H7T 9265   5.392   7.655  16.559
   7123SM   C8S 9266   5.325   7.525  16.388
   7123SM   H8S 9267   5.205   7.538  16.405
   7123SM   H8T 9268   5.344   7.413  16.347
   7123SM   C9S 9269   5.377   7.640  16.287
   7123SM   H9S 9270   5.497   7.626  16.267
   7123SM   H9T 9271   5.359   7.752  16.329
   7123SM  C10S 9272   5.295   7.626  16.154
   7123SM  H10S 9273   5.184   7.578  16.172
   7123SM  H10T 9274   5.360   7.547  16.093
   7123SM  C11S 9275   5.276   7.774  16.084
   7123SM  H11S 9276   5.376   7.841  16.106
   7123SM  H11T 9277   5.182   7.833  16.131
   7123SM  C12S 9278   5.255   7.774  15.931
   7123SM  H12S 9279   5.301   7.879  15.896
   7123SM  H12T 9280   5.136   7.774  15.904
   7123SM  C13S 9281   5.334   7.653  15.854
   7123SM  H13S 9282   5.268   7.553  15.842
   7123SM  H13T 9283   5.436   7.620  15.906
   7123SM  C14S 9284   5.374   7.708  15.714
   7123SM  H14S 9285   5.405   7.825  15.717
   7123SM  H14T 9286   5.277   7.697  15.648
   7123SM  C15S 9287   5.504   7.625  15.656
   7123SM  H15S 9288   5.492   7.505  15.669
   7123SM  H15T 9289   5.602   7.651  15.714
   7123SM  C16S 9290   5.518   7.664  15.508
   7123SM  H16S 9291   5.635   7.669  15.479
   7123SM  H16T 9292   5.463   7.769  15.486
   7123SM  C17S 9293   5.444   7.539  15.434
   7123SM  H17S 9294   5.341   7.514  15.490
   7123SM  H17T 9295   5.526   7.453  15.448
   7123SM  C18S 9296   5.404   7.548  15.288
   7123SM  H18S 9297   5.410   7.662  15.249
   7123SM  H18T 9298   5.293   7.502  15.270
   7123SM  H18U 9299   5.481   7.473  15.234
   7123SM   C1F 9300   5.231   7.173  17.083
   7123SM    OF 9301   5.154   7.181  17.182
   7123SM   C2F 9302   5.233   7.042  16.995
   7123SM   H2F 9303   5.263   6.943  17.054
   7123SM   H2G 9304   5.316   7.060  16.915
   7123SM   C3F 9305   5.080   7.022  16.932
   7123SM   H3F 9306   5.041   7.124  16.881
   7123SM   H3G 9307   4.998   6.996  17.012
   7123SM   C4F 9308   5.082   6.896  16.832
   7123SM   H4F 9309   4.969   6.873  16.795
   7123SM   H4G 9310   5.117   6.797  16.889
   7123SM   C5F 9311   5.188   6.913  16.712
   7123SM   H5F 9312   5.169   6.819  16.643
   7123SM   H5G 9313   5.303   6.904  16.748
   7123SM   C6F 9314   5.171   7.060  16.637
   7123SM   H6F 9315   5.259   7.066  16.560
   7123SM   H6G 9316   5.188   7.152  16.708
   7123SM   C7F 9317   5.023   7.084  16.566
   7123SM   H7F 9318   4.930   7.064  16.637
   7123SM   H7G 9319   5.013   7.003  16.484
   7123SM   C8F 9320   5.015   7.241  16.510
   7123SM   H8F 9321   5.117   7.263  16.453
   7123SM   H8G 9322   5.014   7.319  16.596
   7123SM   C9F 9323   4.881   7.272  16.420
   7123SM   H9F 9324   4.865   7.392  16.408
   7123SM   H9G 9325   4.782   7.227  16.472
   7123SM  C10F 9326   4.893   7.200  16.282
   7123SM  H10F 9327   4.787   7.213  16.227
   7123SM  H10G 9328   4.908   7.080  16.301
   7123SM  C11F 9329   5.018   7.250  16.188
   7123SM  H11F 9330   5.052   7.151  16.132
   7123SM  H11G 9331   5.115   7.288  16.246
   7123SM  C12F 9332   4.979   7.367  16.083
   7123SM  H12F 9333   4.963   7.476  16.134
   7123SM  H12G 9334   4.873   7.341  16.032
   7123SM  C13F 9335   5.100   7.389  15.977
   7123SM  H13F 9336   5.204   7.406  16.031
   7123SM  H13G 9337   5.073   7.488  15.917
   7123SM  C14F 9338   5.137   7.261  15.884
   7123SM  H14F 9339   5.169   7.167  15.947
   7123SM  H14G 9340   5.237   7.291  15.824
   7123SM  C15F 9341   5.013   7.217  15.789
   7123SM  H15F 9342   4.913   7.195  15.847
   7123SM  H15G 9343   5.039   7.110  15.745
   7123SM  C16F 9344   4.979   7.325  15.675
   7123SM  H16F 9345   4.928   7.423  15.723
   7123SM  H16G 9346   4.896   7.275  15.607
   7123SM  C17F 9347   5.109   7.381  15.590
   7123SM  H17F 9348   5.189   7.439  15.656
   7123SM  H17G 9349   5.066   7.466  15.520
   7123SM  C18F 9350   5.194   7.268  15.504
   7123SM  H18F 9351   5.216   7.324  15.407
   7123SM  H18G 9352   5.127   7.171  15.475
   7123SM  C19F 9353   5.348   7.231  15.562
   7123SM  H19F 9354   5.350   7.153  15.646
   7123SM  H19G 9355   5.385   7.334  15.610
   7123SM  C20F 9356   5.466   7.202  15.457
   7123SM  H20F 9357   5.574   7.247  15.491
   7123SM  H20G 9358   5.432   7.260  15.364
   7123SM  C21F 9359   5.499   7.046  15.420
   7123SM  H21F 9360   5.394   6.986  15.410
   7123SM  H21G 9361   5.572   6.989  15.494
   7123SM  C22F 9362   5.559   7.042  15.281
   7123SM  H22F 9363   5.673   7.090  15.273
   7123SM  H22G 9364   5.485   7.108  15.215
   7123SM  C23F 9365   5.553   6.886  15.235
   7123SM  H23F 9366   5.657   6.829  15.256
   7123SM  H23G 9367   5.526   6.884  15.127
   7123SM  H23H 9368   5.463   6.827  15.285
   7223SM     N 9369   7.400   2.929  17.673
   7223SM   C15 9370   7.428   3.043  17.779
   7223SM  H15A 9371   7.332   3.055  17.842
   7223SM  H15B 9372   7.444   3.148  17.730
   7223SM  H15C 9373   7.524   3.014  17.836
   7223SM   C14 9374   7.527   2.919  17.582
   7223SM  H14A 9375   7.628   2.900  17.636
   7223SM  H14B 9376   7.537   3.022  17.526
   7223SM  H14C 9377   7.511   2.834  17.508
   7223SM   C13 9378   7.376   2.784  17.735
   7223SM  H13A 9379   7.368   2.703  17.655
   7223SM  H13B 9380   7.274   2.781  17.791
   7223SM  H13C 9381   7.468   2.753  17.797
   7223SM   C12 9382   7.271   2.977  17.584
   7223SM  H12A 9383   7.169   2.931  17.622
   7223SM  H12B 9384   7.288   2.930  17.485
   7223SM   C11 9385   7.248   3.143  17.565
   7223SM  H11A 9386   7.196   3.188  17.658
   7223SM  H11B 9387   7.169   3.158  17.480
   7223SM     P 9388   7.382   3.385  17.514
   7223SM   O13 9389   7.258   3.430  17.429
   7223SM   O14 9390   7.403   3.457  17.646
   7223SM   O11 9391   7.526   3.412  17.429
   7223SM   O12 9392   7.383   3.214  17.536
   7223SM   C1S 9393   7.586   3.309  17.336
   7223SM   H1S 9394   7.590   3.197  17.380
   7223SM   H1T 9395   7.701   3.341  17.313
   7223SM    NF 9396   7.566   3.169  17.125
   7223SM   HNF 9397   7.624   3.196  17.044
   7223SM   C2S 9398   7.502   3.293  17.199
   7223SM   H2S 9399   7.384   3.273  17.221
   7223SM   C3S 9400   7.506   3.436  17.112
   7223SM   H3S 9401   7.623   3.466  17.092
   7223SM    O3 9402   7.439   3.566  17.163
   7223SM   HO3 9403   7.418   3.544  17.255
   7223SM   C4S 9404   7.442   3.389  16.979
   7223SM   H4S 9405   7.528   3.354  16.910
   7223SM   C5S 9406   7.301   3.376  16.938
   7223SM   H5S 9407   7.210   3.409  17.007
   7223SM   C6S 9408   7.256   3.324  16.800
   7223SM   H6S 9409   7.146   3.369  16.774
   7223SM   H6T 9410   7.246   3.202  16.798
   7223SM   C7S 9411   7.363   3.375  16.691
   7223SM   H7S 9412   7.482   3.357  16.715
   7223SM   H7T 9413   7.345   3.494  16.684
   7223SM   C8S 9414   7.341   3.314  16.550
   7223SM   H8S 9415   7.225   3.326  16.517
   7223SM   H8T 9416   7.372   3.197  16.545
   7223SM   C9S 9417   7.444   3.396  16.454
   7223SM   H9S 9418   7.559   3.369  16.480
   7223SM   H9T 9419   7.433   3.517  16.468
   7223SM  C10S 9420   7.421   3.350  16.308
   7223SM  H10S 9421   7.304   3.319  16.289
   7223SM  H10T 9422   7.489   3.250  16.292
   7223SM  C11S 9423   7.467   3.476  16.215
   7223SM  H11S 9424   7.582   3.505  16.242
   7223SM  H11T 9425   7.395   3.571  16.239
   7223SM  C12S 9426   7.460   3.447  16.064
   7223SM  H12S 9427   7.346   3.424  16.031
   7223SM  H12T 9428   7.525   3.347  16.041
   7223SM  C13S 9429   7.524   3.578  15.985
   7223SM  H13S 9430   7.619   3.625  16.042
   7223SM  H13T 9431   7.440   3.667  15.977
   7223SM  C14S 9432   7.577   3.527  15.847
   7223SM  H14S 9433   7.480   3.482  15.794
   7223SM  H14T 9434   7.655   3.434  15.864
   7223SM  C15S 9435   7.655   3.636  15.752
   7223SM  H15S 9436   7.755   3.683  15.799
   7223SM  H15T 9437   7.580   3.729  15.728
   7223SM  C16S 9438   7.692   3.547  15.625
   7223SM  H16S 9439   7.600   3.470  15.608
   7223SM  H16T 9440   7.792   3.479  15.643
   7223SM  C17S 9441   7.711   3.633  15.494
   7223SM  H17S 9442   7.829   3.662  15.487
   7223SM  H17T 9443   7.652   3.739  15.495
   7223SM  C18S 9444   7.658   3.543  15.373
   7223SM  H18S 9445   7.741   3.458  15.344
   7223SM  H18T 9446   7.636   3.614  15.284
   7223SM  H18U 9447   7.554   3.485  15.396
   7223SM   C1F 9448   7.504   3.037  17.134
   7223SM    OF 9449   7.399   3.014  17.206
   7223SM   C2F 9450   7.559   2.917  17.042
   7223SM   H2F 9451   7.498   2.815  17.067
   7223SM   H2G 9452   7.677   2.895  17.060
   7223SM   C3F 9453   7.530   2.957  16.894
   7223SM   H3F 9454   7.589   3.059  16.865
   7223SM   H3G 9455   7.410   2.979  16.880
   7223SM   C4F 9456   7.574   2.831  16.799
   7223SM   H4F 9457   7.503   2.735  16.824
   7223SM   H4G 9458   7.688   2.795  16.817
   7223SM   C5F 9459   7.553   2.867  16.650
   7223SM   H5F 9460   7.435   2.897  16.633
   7223SM   H5G 9461   7.574   2.763  16.592
   7223SM   C6F 9462   7.652   2.987  16.590
   7223SM   H6F 9463   7.769   2.962  16.612
   7223SM   H6G 9464   7.625   3.095  16.635
   7223SM   C7F 9465   7.632   2.997  16.437
   7223SM   H7F 9466   7.520   3.039  16.415
   7223SM   H7G 9467   7.640   2.885  16.394
   7223SM   C8F 9468   7.745   3.095  16.365
   7223SM   H8F 9469   7.858   3.067  16.396
   7223SM   H8G 9470   7.725   3.212  16.394
   7223SM   C9F 9471   7.732   3.081  16.212
   7223SM   H9F 9472   7.613   3.079  16.186
   7223SM   H9G 9473   7.779   2.973  16.180
   7223SM  C10F 9474   7.805   3.208  16.134
   7223SM  H10F 9475   7.809   3.307  16.200
   7223SM  H10G 9476   7.734   3.237  16.047
   7223SM  C11F 9477   7.959   3.171  16.082
   7223SM  H11F 9478   8.020   3.116  16.165
   7223SM  H11G 9479   8.017   3.276  16.057
   7223SM  C12F 9480   7.962   3.070  15.959
   7223SM  H12F 9481   7.902   2.967  15.981
   7223SM  H12G 9482   8.080   3.040  15.939
   7223SM  C13F 9483   7.898   3.141  15.832
   7223SM  H13F 9484   7.949   3.250  15.816
   7223SM  H13G 9485   7.777   3.156  15.845
   7223SM  C14F 9486   7.928   3.045  15.709
   7223SM  H14F 9487   7.884   2.931  15.726
   7223SM  H14G 9488   8.049   3.035  15.695
   7223SM  C15F 9489   7.859   3.106  15.580
   7223SM  H15F 9490   7.905   3.044  15.494
   7223SM  H15G 9491   7.893   3.223  15.567
   7223SM  C16F 9492   7.691   3.097  15.577
   7223SM  H16F 9493   7.647   3.167  15.659
   7223SM  H16G 9494   7.656   2.982  15.599
   7223SM  C17F 9495   7.624   3.150  15.445
   7223SM  H17F 9496   7.674   3.260  15.424
   7223SM  H17G 9497   7.504   3.167  15.457
   7223SM  C18F 9498   7.653   3.051  15.323
   7223SM  H18F 9499   7.774   3.048  15.306
   7223SM  H18G 9500   7.604   3.102  15.232
   7223SM  C19F 9501   7.594   2.894  15.340
   7223SM  H19F 9502   7.644   2.847  15.432
   7223SM  H19G 9503   7.630   2.825  15.255
   7223SM  C20F 9504   7.427   2.880  15.351
   7223SM  H20F 9505   7.377   2.971  15.408
   7223SM  H20G 9506   7.407   2.778  15.410
   7223SM  C21F 9507   7.353   2.858  15.215
   7223SM  H21F 9508   7.257   2.785  15.228
   7223SM  H21G 9509   7.432   2.798  15.148
   7223SM  C22F 9510   7.301   2.996  15.144
   7223SM  H22F 9511   7.389   3.082  15.144
   7223SM  H22G 9512   7.205   3.043  15.198
   7223SM  C23F 9513   7.259   2.961  14.999
   7223SM  H23F 9514   7.183   2.865  14.997
   7223SM  H23G 9515   7.359   2.931  14.941
   7223SM  H23H 9516   7.205   3.056  14.950
   7323SM     N 9517   5.872   1.176  17.772
   7323SM   C15 9518   5.961   1.312  17.756
   7323SM  H15A 9519   6.029   1.333  17.843
   7323SM  H15B 9520   5.895   1.409  17.738
   7323SM  H15C 9521   6.029   1.300  17.667
   7323SM   C14 9522   5.980   1.057  17.804
   7323SM  H14A 9523   6.041   1.085  17.894
   7323SM  H14B 9524   6.058   1.047  17.723
   7323SM  H14C 9525   5.927   0.950  17.818
   7323SM   C13 9526   5.762   1.190  17.883
   7323SM  H13A 9527   5.812   1.163  17.978
   7323SM  H13B 9528   5.669   1.115  17.867
   7323SM  H13C 9529   5.718   1.301  17.887
   7323SM   C12 9530   5.792   1.140  17.642
   7323SM  H12A 9531   5.718   1.231  17.617
   7323SM  H12B 9532   5.718   1.046  17.661
   7323SM   C11 9533   5.889   1.109  17.518
   7323SM  H11A 9534   5.821   1.058  17.438
   7323SM  H11B 9535   5.974   1.025  17.544
   7323SM     P 9536   5.870   1.371  17.414
   7323SM   O13 9537   5.720   1.319  17.377
   7323SM   O14 9538   5.878   1.494  17.509
   7323SM   O11 9539   5.959   1.407  17.283
   7323SM   O12 9540   5.963   1.236  17.468
   7323SM   C1S 9541   5.988   1.291  17.190
   7323SM   H1S 9542   5.949   1.181  17.223
   7323SM   H1T 9543   6.109   1.280  17.175
   7323SM    NF 9544   5.939   1.201  16.960
   7323SM   HNF 9545   6.005   1.221  16.882
   7323SM   C2S 9546   5.918   1.323  17.052
   7323SM   H2S 9547   5.797   1.340  17.065
   7323SM   C3S 9548   5.985   1.469  16.998
   7323SM   H3S 9549   6.107   1.461  17.004
   7323SM    O3 9550   5.946   1.594  17.074
   7323SM   HO3 9551   5.953   1.560  17.166
   7323SM   C4S 9552   5.943   1.489  16.855
   7323SM   H4S 9553   6.036   1.474  16.785
   7323SM   C5S 9554   5.810   1.527  16.807
   7323SM   H5S 9555   5.720   1.547  16.879
   7323SM   C6S 9556   5.773   1.548  16.663
   7323SM   H6S 9557   5.752   1.666  16.645
   7323SM   H6T 9558   5.668   1.488  16.640
   7323SM   C7S 9559   5.889   1.497  16.560
   7323SM   H7S 9560   5.901   1.376  16.563
   7323SM   H7T 9561   5.997   1.549  16.582
   7323SM   C8S 9562   5.842   1.549  16.421
   7323SM   H8S 9563   5.820   1.669  16.425
   7323SM   H8T 9564   5.738   1.496  16.394
   7323SM   C9S 9565   5.952   1.519  16.308
   7323SM   H9S 9566   6.048   1.594  16.319
   7323SM   H9T 9567   5.894   1.547  16.213
   7323SM  C10S 9568   6.005   1.362  16.293
   7323SM  H10S 9569   5.910   1.286  16.281
   7323SM  H10T 9570   6.067   1.326  16.383
   7323SM  C11S 9571   6.103   1.348  16.170
   7323SM  H11S 9572   6.144   1.232  16.165
   7323SM  H11T 9573   6.201   1.421  16.180
   7323SM  C12S 9574   6.027   1.389  16.039
   7323SM  H12S 9575   6.049   1.507  16.014
   7323SM  H12T 9576   5.906   1.374  16.045
   7323SM  C13S 9577   6.085   1.302  15.922
   7323SM  H13S 9578   6.039   1.352  15.830
   7323SM  H13T 9579   6.052   1.185  15.925
   7323SM  C14S 9580   6.252   1.311  15.918
   7323SM  H14S 9581   6.305   1.273  16.012
   7323SM  H14T 9582   6.287   1.427  15.903
   7323SM  C15S 9583   6.311   1.217  15.806
   7323SM  H15S 9584   6.288   1.099  15.823
   7323SM  H15T 9585   6.428   1.238  15.821
   7323SM  C16S 9586   6.260   1.269  15.669
   7323SM  H16S 9587   6.314   1.376  15.651
   7323SM  H16T 9588   6.140   1.286  15.667
   7323SM  C17S 9589   6.294   1.174  15.549
   7323SM  H17S 9590   6.301   1.055  15.574
   7323SM  H17T 9591   6.399   1.211  15.507
   7323SM  C18S 9592   6.194   1.205  15.433
   7323SM  H18S 9593   6.230   1.307  15.384
   7323SM  H18T 9594   6.078   1.217  15.462
   7323SM  H18U 9595   6.207   1.113  15.360
   7323SM   C1F 9596   5.884   1.068  16.976
   7323SM    OF 9597   5.803   1.035  17.070
   7323SM   C2F 9598   5.939   0.958  16.877
   7323SM   H2F 9599   6.007   0.878  16.931
   7323SM   H2G 9600   6.012   1.015  16.804
   7323SM   C3F 9601   5.815   0.883  16.798
   7323SM   H3F 9602   5.739   0.823  16.866
   7323SM   H3G 9603   5.864   0.802  16.727
   7323SM   C4F 9604   5.723   0.992  16.715
   7323SM   H4F 9605   5.798   1.067  16.660
   7323SM   H4G 9606   5.655   1.061  16.783
   7323SM   C5F 9607   5.622   0.912  16.617
   7323SM   H5F 9608   5.511   0.963  16.623
   7323SM   H5G 9609   5.608   0.795  16.649
   7323SM   C6F 9610   5.677   0.917  16.473
   7323SM   H6F 9611   5.607   0.845  16.409
   7323SM   H6G 9612   5.792   0.872  16.469
   7323SM   C7F 9613   5.675   1.072  16.411
   7323SM   H7F 9614   5.723   1.065  16.309
   7323SM   H7G 9615   5.746   1.147  16.470
   7323SM   C8F 9616   5.520   1.140  16.402
   7323SM   H8F 9617   5.465   1.135  16.502
   7323SM   H8G 9618   5.453   1.076  16.331
   7323SM   C9F 9619   5.521   1.302  16.363
   7323SM   H9F 9620   5.581   1.362  16.443
   7323SM   H9G 9621   5.408   1.348  16.362
   7323SM  C10F 9622   5.587   1.334  16.225
   7323SM  H10F 9623   5.690   1.272  16.211
   7323SM  H10G 9624   5.615   1.453  16.216
   7323SM  C11F 9625   5.478   1.297  16.113
   7323SM  H11F 9626   5.380   1.371  16.123
   7323SM  H11G 9627   5.441   1.181  16.125
   7323SM  C12F 9628   5.545   1.318  15.975
   7323SM  H12F 9629   5.595   1.429  15.965
   7323SM  H12G 9630   5.456   1.308  15.899
   7323SM  C13F 9631   5.658   1.199  15.943
   7323SM  H13F 9632   5.609   1.089  15.962
   7323SM  H13G 9633   5.757   1.208  16.008
   7323SM  C14F 9634   5.706   1.206  15.796
   7323SM  H14F 9635   5.776   1.305  15.780
   7323SM  H14G 9636   5.606   1.218  15.732
   7323SM  C15F 9637   5.786   1.066  15.756
   7323SM  H15F 9638   5.706   0.974  15.757
   7323SM  H15G 9639   5.874   1.039  15.830
   7323SM  C16F 9640   5.855   1.078  15.618
   7323SM  H16F 9641   5.961   1.138  15.627
   7323SM  H16G 9642   5.782   1.143  15.551
   7323SM  C17F 9643   5.879   0.925  15.560
   7323SM  H17F 9644   5.769   0.872  15.545
   7323SM  H17G 9645   5.941   0.859  15.634
   7323SM  C18F 9646   5.962   0.921  15.427
   7323SM  H18F 9647   5.961   0.804  15.398
   7323SM  H18G 9648   6.079   0.949  15.445
   7323SM  C19F 9649   5.897   1.020  15.316
   7323SM  H19F 9650   5.894   1.134  15.354
   7323SM  H19G 9651   5.782   0.989  15.296
   7323SM  C20F 9652   5.983   1.027  15.183
   7323SM  H20F 9653   6.101   1.045  15.202
   7323SM  H20G 9654   5.941   1.124  15.126
   7323SM  C21F 9655   5.971   0.894  15.089
   7323SM  H21F 9656   6.035   0.926  14.999
   7323SM  H21G 9657   5.855   0.876  15.059
   7323SM  C22F 9658   6.038   0.752  15.146
   7323SM  H22F 9659   5.964   0.713  15.227
   7323SM  H22G 9660   6.148   0.777  15.188
   7323SM  C23F 9661   6.048   0.624  15.047
   7323SM  H23F 9662   6.129   0.648  14.967
   7323SM  H23G 9663   5.939   0.603  15.001
   7323SM  H23H 9664   6.083   0.524  15.101
   7423SM     N 9665   0.542   4.908  17.697
   7423SM   C15 9666   0.616   4.921  17.830
   7423SM  H15A 9667   0.717   4.982  17.827
   7423SM  H15B 9668   0.641   4.814  17.871
   7423SM  H15C 9669   0.544   4.975  17.903
   7423SM   C14 9670   0.413   4.809  17.707
   7423SM  H14A 9671   0.444   4.695  17.717
   7423SM  H14B 9672   0.353   4.810  17.611
   7423SM  H14C 9673   0.337   4.837  17.785
   7423SM   C13 9674   0.488   5.055  17.646
   7423SM  H13A 9675   0.443   5.041  17.546
   7423SM  H13B 9676   0.574   5.138  17.644
   7423SM  H13C 9677   0.398   5.097  17.705
   7423SM   C12 9678   0.645   4.846  17.592
   7423SM  H12A 9679   0.712   4.756  17.634
   7423SM  H12B 9680   0.719   4.932  17.563
   7423SM   C11 9681   0.567   4.777  17.469
   7423SM  H11A 9682   0.646   4.770  17.384
   7423SM  H11B 9683   0.479   4.852  17.433
   7423SM     P 9684   0.608   4.503  17.512
   7423SM   O13 9685   0.718   4.544  17.612
   7423SM   O14 9686   0.529   4.361  17.531
   7423SM   O11 9687   0.686   4.499  17.369
   7423SM   O12 9688   0.499   4.638  17.501
   7423SM   C1S 9689   0.585   4.467  17.262
   7423SM   H1S 9690   0.486   4.536  17.273
   7423SM   H1T 9691   0.548   4.349  17.264
   7423SM    NF 9692   0.542   4.501  17.020
   7423SM   HNF 9693   0.575   4.455  16.934
   7423SM   C2S 9694   0.656   4.501  17.125
   7423SM   H2S 9695   0.704   4.613  17.129
   7423SM   C3S 9696   0.781   4.388  17.093
   7423SM   H3S 9697   0.734   4.275  17.102
   7423SM    O3 9698   0.905   4.387  17.183
   7423SM   HO3 9699   0.873   4.444  17.258
   7423SM   C4S 9700   0.827   4.415  16.951
   7423SM   H4S 9701   0.883   4.521  16.933
   7423SM   C5S 9702   0.804   4.320  16.850
   7423SM   H5S 9703   0.761   4.210  16.873
   7423SM   C6S 9704   0.844   4.337  16.705
   7423SM   H6S 9705   0.754   4.291  16.642
   7423SM   H6T 9706   0.942   4.269  16.680
   7423SM   C7S 9707   0.877   4.494  16.657
   7423SM   H7S 9708   0.971   4.535  16.717
   7423SM   H7T 9709   0.782   4.568  16.675
   7423SM   C8S 9710   0.920   4.496  16.509
   7423SM   H8S 9711   0.995   4.403  16.488
   7423SM   H8T 9712   0.981   4.597  16.483
   7423SM   C9S 9713   0.788   4.487  16.414
   7423SM   H9S 9714   0.715   4.585  16.426
   7423SM   H9T 9715   0.723   4.388  16.440
   7423SM  C10S 9716   0.838   4.475  16.269
   7423SM  H10S 9717   0.919   4.382  16.261
   7423SM  H10T 9718   0.896   4.577  16.238
   7423SM  C11S 9719   0.710   4.445  16.175
   7423SM  H11S 9720   0.631   4.539  16.179
   7423SM  H11T 9721   0.651   4.344  16.209
   7423SM  C12S 9722   0.765   4.423  16.032
   7423SM  H12S 9723   0.841   4.327  16.030
   7423SM  H12T 9724   0.827   4.522  16.000
   7423SM  C13S 9725   0.639   4.396  15.934
   7423SM  H13S 9726   0.558   4.488  15.940
   7423SM  H13T 9727   0.581   4.293  15.962
   7423SM  C14S 9728   0.695   4.386  15.790
   7423SM  H14S 9729   0.785   4.304  15.783
   7423SM  H14T 9730   0.743   4.492  15.759
   7423SM  C15S 9731   0.575   4.336  15.693
   7423SM  H15S 9732   0.481   4.413  15.699
   7423SM  H15T 9733   0.532   4.227  15.725
   7423SM  C16S 9734   0.634   4.331  15.550
   7423SM  H16S 9735   0.723   4.247  15.542
   7423SM  H16T 9736   0.685   4.437  15.526
   7423SM  C17S 9737   0.516   4.294  15.445
   7423SM  H17S 9738   0.422   4.374  15.454
   7423SM  H17T 9739   0.469   4.184  15.464
   7423SM  C18S 9740   0.579   4.300  15.304
   7423SM  H18S 9741   0.675   4.226  15.294
   7423SM  H18T 9742   0.616   4.413  15.280
   7423SM  H18U 9743   0.495   4.266  15.229
   7423SM   C1F 9744   0.416   4.579  17.017
   7423SM    OF 9745   0.372   4.659  17.108
   7423SM   C2F 9746   0.328   4.561  16.891
   7423SM   H2F 9747   0.246   4.470  16.911
   7423SM   H2G 9748   0.400   4.524  16.808
   7423SM   C3F 9749   0.244   4.701  16.849
   7423SM   H3F 9750   0.321   4.781  16.802
   7423SM   H3G 9751   0.199   4.757  16.939
   7423SM   C4F 9752   0.114   4.667  16.756
   7423SM   H4F 9753   0.041   4.765  16.752
   7423SM   H4G 9754   0.051   4.575  16.801
   7423SM   C5F 9755   0.151   4.617  16.614
   7423SM   H5F 9756   0.045   4.600  16.560
   7423SM   H5G 9757   0.208   4.509  16.619
   7423SM   C6F 9758   0.246   4.725  16.534
   7423SM   H6F 9759   0.263   4.676  16.432
   7423SM   H6G 9760   0.356   4.734  16.582
   7423SM   C7F 9761   0.180   4.878  16.519
   7423SM   H7F 9762   0.151   4.923  16.619
   7423SM   H7G 9763   0.077   4.872  16.460
   7423SM   C8F 9764   0.290   4.986  16.455
   7423SM   H8F 9765   0.389   4.995  16.520
   7423SM   H8G 9766   0.242   5.096  16.448
   7423SM   C9F 9767   0.337   4.949  16.312
   7423SM   H9F 9768   0.382   4.836  16.306
   7423SM   H9G 9769   0.425   5.027  16.281
   7423SM  C10F 9770   0.206   4.966  16.217
   7423SM  H10F 9771   0.161   5.081  16.224
   7423SM  H10G 9772   0.117   4.890  16.248
   7423SM  C11F 9773   0.245   4.936  16.072
   7423SM  H11F 9774   0.143   4.925  16.012
   7423SM  H11G 9775   0.305   4.829  16.068
   7423SM  C12F 9776   0.341   5.055  16.008
   7423SM  H12F 9777   0.452   5.055  16.055
   7423SM  H12G 9778   0.290   5.165  16.025
   7423SM  C13F 9779   0.359   5.028  15.858
   7423SM  H13F 9780   0.431   5.113  15.813
   7423SM  H13G 9781   0.249   5.037  15.809
   7423SM  C14F 9782   0.419   4.875  15.829
   7423SM  H14F 9783   0.338   4.789  15.860
   7423SM  H14G 9784   0.522   4.854  15.885
   7423SM  C15F 9785   0.446   4.855  15.681
   7423SM  H15F 9786   0.539   4.925  15.647
   7423SM  H15G 9787   0.345   4.895  15.627
   7423SM  C16F 9788   0.472   4.696  15.645
   7423SM  H16F 9789   0.383   4.624  15.685
   7423SM  H16G 9790   0.577   4.660  15.692
   7423SM  C17F 9791   0.480   4.685  15.495
   7423SM  H17F 9792   0.537   4.584  15.464
   7423SM  H17G 9793   0.547   4.780  15.459
   7423SM  C18F 9794   0.329   4.686  15.428
   7423SM  H18F 9795   0.271   4.791  15.449
   7423SM  H18G 9796   0.260   4.595  15.469
   7423SM  C19F 9797   0.339   4.665  15.277
   7423SM  H19F 9798   0.249   4.728  15.229
   7423SM  H19G 9799   0.319   4.546  15.256
   7423SM  C20F 9800   0.490   4.711  15.219
   7423SM  H20F 9801   0.580   4.642  15.261
   7423SM  H20G 9802   0.513   4.828  15.248
   7423SM  C21F 9803   0.492   4.697  15.068
   7423SM  H21F 9804   0.510   4.806  15.020
   7423SM  H21G 9805   0.376   4.668  15.046
   7423SM  C22F 9806   0.596   4.578  15.010
   7423SM  H22F 9807   0.528   4.497  14.958
   7423SM  H22G 9808   0.657   4.518  15.088
   7423SM  C23F 9809   0.694   4.619  14.893
   7423SM  H23F 9810   0.795   4.671  14.930
   7423SM  H23G 9811   0.635   4.697  14.827
   7423SM  H23H 9812   0.725   4.521  14.833
   7523SM     N 9813   7.442   5.976  17.690
   7523SM   C15 9814   7.371   5.931  17.817
   7523SM  H15A 9815   7.261   5.891  17.801
   7523SM  H15B 9816   7.362   6.024  17.886
   7523SM  H15C 9817   7.434   5.847  17.868
   7523SM   C14 9818   7.466   5.850  17.597
   7523SM  H14A 9819   7.495   5.891  17.498
   7523SM  H14B 9820   7.366   5.788  17.582
   7523SM  H14C 9821   7.557   5.781  17.627
   7523SM   C13 9822   7.338   6.074  17.615
   7523SM  H13A 9823   7.321   6.180  17.664
   7523SM  H13B 9824   7.233   6.020  17.603
   7523SM  H13C 9825   7.382   6.096  17.516
   7523SM   C12 9826   7.587   6.050  17.721
   7523SM  H12A 9827   7.655   5.969  17.773
   7523SM  H12B 9828   7.568   6.142  17.787
   7523SM   C11 9829   7.682   6.097  17.604
   7523SM  H11A 9830   7.760   6.183  17.643
   7523SM  H11B 9831   7.615   6.149  17.523
   7523SM     P 9832   7.888   6.006  17.457
   7523SM   O13 9833   7.987   6.114  17.521
   7523SM   O14 9834   7.955   5.867  17.407
   7523SM   O11 9835   7.797   6.085  17.347
   7523SM   O12 9836   7.759   5.970  17.558
   7523SM   C1S 9837   7.690   6.013  17.266
   7523SM   H1S 9838   7.585   6.068  17.284
   7523SM   H1T 9839   7.673   5.896  17.295
   7523SM    NF 9840   7.825   5.901  17.081
   7523SM   HNF 9841   7.932   5.904  17.099
   7523SM   C2S 9842   7.739   6.029  17.117
   7523SM   H2S 9843   7.638   6.034  17.052
   7523SM   C3S 9844   7.822   6.178  17.104
   7523SM   H3S 9845   7.929   6.171  17.157
   7523SM    O3 9846   7.742   6.295  17.164
   7523SM   HO3 9847   7.697   6.247  17.239
   7523SM   C4S 9848   7.847   6.224  16.962
   7523SM   H4S 9849   7.791   6.323  16.926
   7523SM   C5S 9850   7.952   6.161  16.887
   7523SM   H5S 9851   8.019   6.075  16.934
   7523SM   C6S 9852   8.000   6.196  16.748
   7523SM   H6S 9853   8.096   6.124  16.730
   7523SM   H6T 9854   8.057   6.304  16.743
   7523SM   C7S 9855   7.879   6.201  16.643
   7523SM   H7S 9856   7.814   6.292  16.681
   7523SM   H7T 9857   7.807   6.103  16.639
   7523SM   C8S 9858   7.923   6.251  16.503
   7523SM   H8S 9859   8.040   6.238  16.481
   7523SM   H8T 9860   7.915   6.373  16.509
   7523SM   C9S 9861   7.817   6.217  16.386
   7523SM   H9S 9862   7.865   6.309  16.330
   7523SM   H9T 9863   7.704   6.255  16.407
   7523SM  C10S 9864   7.814   6.096  16.274
   7523SM  H10S 9865   7.713   6.027  16.284
   7523SM  H10T 9866   7.904   6.015  16.259
   7523SM  C11S 9867   7.809   6.180  16.141
   7523SM  H11S 9868   7.845   6.296  16.150
   7523SM  H11T 9869   7.690   6.184  16.114
   7523SM  C12S 9870   7.910   6.138  16.025
   7523SM  H12S 9871   7.908   6.018  16.009
   7523SM  H12T 9872   8.027   6.171  16.044
   7523SM  C13S 9873   7.846   6.233  15.912
   7523SM  H13S 9874   7.854   6.350  15.945
   7523SM  H13T 9875   7.729   6.201  15.901
   7523SM  C14S 9876   7.921   6.230  15.779
   7523SM  H14S 9877   7.928   6.117  15.742
   7523SM  H14T 9878   8.032   6.278  15.799
   7523SM  C15S 9879   7.846   6.319  15.667
   7523SM  H15S 9880   7.784   6.413  15.710
   7523SM  H15T 9881   7.769   6.245  15.613
   7523SM  C16S 9882   7.960   6.378  15.568
   7523SM  H16S 9883   7.991   6.283  15.507
   7523SM  H16T 9884   8.059   6.416  15.624
   7523SM  C17S 9885   7.912   6.502  15.474
   7523SM  H17S 9886   7.851   6.587  15.531
   7523SM  H17T 9887   7.838   6.457  15.396
   7523SM  C18S 9888   8.045   6.579  15.413
   7523SM  H18S 9889   8.118   6.620  15.494
   7523SM  H18T 9890   8.009   6.675  15.353
   7523SM  H18U 9891   8.111   6.507  15.347
   7523SM   C1F 9892   7.753   5.775  17.073
   7523SM    OF 9893   7.620   5.771  17.093
   7523SM   C2F 9894   7.835   5.640  17.034
   7523SM   H2F 9895   7.864   5.577  17.125
   7523SM   H2G 9896   7.937   5.671  16.979
   7523SM   C3F 9897   7.726   5.553  16.946
   7523SM   H3F 9898   7.681   5.633  16.872
   7523SM   H3G 9899   7.636   5.513  17.012
   7523SM   C4F 9900   7.776   5.424  16.859
   7523SM   H4F 9901   7.671   5.371  16.825
   7523SM   H4G 9902   7.834   5.338  16.914
   7523SM   C5F 9903   7.846   5.474  16.728
   7523SM   H5F 9904   7.776   5.561  16.683
   7523SM   H5G 9905   7.844   5.378  16.658
   7523SM   C6F 9906   8.001   5.538  16.732
   7523SM   H6F 9907   8.059   5.518  16.828
   7523SM   H6G 9908   7.991   5.661  16.727
   7523SM   C7F 9909   8.088   5.487  16.609
   7523SM   H7F 9910   8.089   5.365  16.606
   7523SM   H7G 9911   8.204   5.528  16.613
   7523SM   C8F 9912   8.011   5.549  16.484
   7523SM   H8F 9913   7.995   5.663  16.506
   7523SM   H8G 9914   7.898   5.507  16.476
   7523SM   C9F 9915   8.081   5.551  16.343
   7523SM   H9F 9916   7.998   5.608  16.279
   7523SM   H9G 9917   8.095   5.436  16.310
   7523SM  C10F 9918   8.228   5.625  16.317
   7523SM  H10F 9919   8.311   5.535  16.318
   7523SM  H10G 9920   8.254   5.695  16.404
   7523SM  C11F 9921   8.250   5.728  16.195
   7523SM  H11F 9922   8.363   5.708  16.160
   7523SM  H11G 9923   8.237   5.845  16.220
   7523SM  C12F 9924   8.170   5.717  16.063
   7523SM  H12F 9925   8.049   5.729  16.067
   7523SM  H12G 9926   8.197   5.609  16.022
   7523SM  C13F 9927   8.230   5.830  15.966
   7523SM  H13F 9928   8.354   5.821  15.974
   7523SM  H13G 9929   8.186   5.940  16.001
   7523SM  C14F 9930   8.176   5.790  15.824
   7523SM  H14F 9931   8.192   5.671  15.821
   7523SM  H14G 9932   8.248   5.844  15.747
   7523SM  C15F 9933   8.010   5.831  15.805
   7523SM  H15F 9934   8.024   5.952  15.805
   7523SM  H15G 9935   7.941   5.807  15.893
   7523SM  C16F 9936   7.921   5.786  15.677
   7523SM  H16F 9937   7.997   5.740  15.601
   7523SM  H16G 9938   7.874   5.888  15.634
   7523SM  C17F 9939   7.791   5.677  15.703
   7523SM  H17F 9940   7.753   5.693  15.807
   7523SM  H17G 9941   7.836   5.565  15.692
   7523SM  C18F 9942   7.651   5.656  15.616
   7523SM  H18F 9943   7.570   5.594  15.678
   7523SM  H18G 9944   7.675   5.580  15.532
   7523SM  C19F 9945   7.577   5.794  15.561
   7523SM  H19F 9946   7.653   5.888  15.570
   7523SM  H19G 9947   7.476   5.820  15.620
   7523SM  C20F 9948   7.537   5.771  15.414
   7523SM  H20F 9949   7.468   5.864  15.380
   7523SM  H20G 9950   7.468   5.671  15.402
   7523SM  C21F 9951   7.675   5.756  15.325
   7523SM  H21F 9952   7.745   5.663  15.357
   7523SM  H21G 9953   7.743   5.858  15.335
   7523SM  C22F 9954   7.630   5.732  15.180
   7523SM  H22F 9955   7.591   5.841  15.146
   7523SM  H22G 9956   7.532   5.658  15.174
   7523SM  C23F 9957   7.748   5.671  15.087
   7523SM  H23F 9958   7.703   5.649  14.985
   7523SM  H23G 9959   7.789   5.564  15.127
   7523SM  H23H 9960   7.841   5.749  15.077
   7623SM     N 9961   0.646   6.547  17.740
   7623SM   C15 9962   0.568   6.406  17.778
   7623SM  H15A 9963   0.485   6.381  17.702
   7623SM  H15B 9964   0.519   6.410  17.876
   7623SM  H15C 9965   0.645   6.315  17.771
   7623SM   C14 9966   0.531   6.665  17.732
   7623SM  H14A 9967   0.458   6.665  17.818
   7623SM  H14B 9968   0.461   6.643  17.646
   7623SM  H14C 9969   0.576   6.774  17.718
   7623SM   C13 9970   0.760   6.577  17.843
   7623SM  H13A 9971   0.827   6.478  17.858
   7623SM  H13B 9972   0.708   6.603  17.938
   7623SM  H13C 9973   0.832   6.667  17.814
   7623SM   C12 9974   0.718   6.520  17.606
   7623SM  H12A 9975   0.780   6.415  17.610
   7623SM  H12B 9976   0.799   6.603  17.581
   7623SM   C11 9977   0.614   6.503  17.487
   7623SM  H11A 9978   0.690   6.508  17.399
   7623SM  H11B 9979   0.540   6.599  17.476
   7623SM     P 9980   0.614   6.223  17.456
   7623SM   O13 9981   0.744   6.207  17.544
   7623SM   O14 9982   0.514   6.094  17.452
   7623SM   O11 9983   0.669   6.260  17.311
   7623SM   O12 9984   0.528   6.370  17.496
   7623SM   C1S 9985   0.577   6.349  17.225
   7623SM   H1S 9986   0.628   6.459  17.211
   7623SM   H1T 9987   0.464   6.368  17.264
   7623SM    NF 9988   0.526   6.124  17.111
   7623SM   HNF 9989   0.602   6.048  17.089
   7623SM   C2S 9990   0.563   6.275  17.089
   7623SM   H2S 9991   0.472   6.328  17.032
   7623SM   C3S 9992   0.710   6.299  17.012
   7623SM   H3S 9993   0.804   6.272  17.077
   7623SM    O3 9994   0.734   6.447  16.973
   7623SM   HO3 9995   0.693   6.504  17.045
   7623SM   C4S 9996   0.715   6.207  16.888
   7623SM   H4S 9997   0.627   6.225  16.814
   7623SM   C5S 9998   0.822   6.109  16.864
   7623SM   H5S 9999   0.912   6.100  16.938
   7623SM   C6S10000   0.841   6.012  16.745
   7623SM   H6S10001   0.804   5.897  16.767
   7623SM   H6T10002   0.963   6.003  16.730
   7623SM   C7S10003   0.775   6.063  16.612
   7623SM   H7S10004   0.763   6.185  16.610
   7623SM   H7T10005   0.664   6.015  16.599
   7623SM   C8S10006   0.879   6.023  16.496
   7623SM   H8S10007   0.913   5.907  16.500
   7623SM   H8T10008   0.977   6.085  16.526
   7623SM   C9S10009   0.826   6.078  16.358
   7623SM   H9S10010   0.880   6.185  16.342
   7623SM   H9T10011   0.708   6.105  16.370
   7623SM  C10S10012   0.848   5.982  16.228
   7623SM  H10S10013   0.774   5.889  16.232
   7623SM  H10T10014   0.957   5.930  16.228
   7623SM  C11S10015   0.810   6.072  16.100
   7623SM  H11S10016   0.845   6.185  16.128
   7623SM  H11T10017   0.690   6.063  16.084
   7623SM  C12S10018   0.875   6.057  15.957
   7623SM  H12S10019   0.975   5.988  15.957
   7623SM  H12T10020   0.904   6.171  15.927
   7623SM  C13S10021   0.775   6.008  15.840
   7623SM  H13S10022   0.679   6.082  15.828
   7623SM  H13T10023   0.730   5.897  15.855
   7623SM  C14S10024   0.865   6.009  15.708
   7623SM  H14S10025   0.947   5.920  15.709
   7623SM  H14T10026   0.926   6.116  15.701
   7623SM  C15S10027   0.767   5.996  15.584
   7623SM  H15S10028   0.700   6.097  15.580
   7623SM  H15T10029   0.690   5.901  15.596
   7623SM  C16S10030   0.855   5.981  15.454
   7623SM  H16S10031   0.909   5.871  15.451
   7623SM  H16T10032   0.944   6.065  15.455
   7623SM  C17S10033   0.762   6.005  15.328
   7623SM  H17S10034   0.800   6.107  15.278
   7623SM  H17T10035   0.647   6.023  15.359
   7623SM  C18S10036   0.762   5.877  15.228
   7623SM  H18S10037   0.717   5.914  15.130
   7623SM  H18T10038   0.690   5.788  15.266
   7623SM  H18U10039   0.875   5.833  15.213
   7623SM   C1F10040   0.397   6.082  17.159
   7623SM    OF10041   0.306   6.168  17.205
   7623SM   C2F10042   0.364   5.924  17.138
   7623SM   H2F10043   0.330   5.866  17.231
   7623SM   H2G10044   0.460   5.863  17.104
   7623SM   C3F10045   0.246   5.920  17.029
   7623SM   H3F10046   0.150   5.982  17.069
   7623SM   H3G10047   0.209   5.807  17.011
   7623SM   C4F10048   0.299   5.993  16.897
   7623SM   H4F10049   0.398   6.061  16.908
   7623SM   H4G10050   0.216   6.074  16.864
   7623SM   C5F10051   0.327   5.886  16.784
   7623SM   H5F10052   0.295   5.772  16.811
   7623SM   H5G10053   0.447   5.887  16.763
   7623SM   C6F10054   0.241   5.932  16.660
   7623SM   H6F10055   0.254   6.053  16.647
   7623SM   H6G10056   0.122   5.908  16.674
   7623SM   C7F10057   0.295   5.851  16.536
   7623SM   H7F10058   0.238   5.743  16.534
   7623SM   H7G10059   0.414   5.832  16.549
   7623SM   C8F10060   0.285   5.932  16.403
   7623SM   H8F10061   0.172   5.977  16.391
   7623SM   H8G10062   0.305   5.855  16.320
   7623SM   C9F10063   0.405   6.051  16.399
   7623SM   H9F10064   0.505   6.015  16.453
   7623SM   H9G10065   0.363   6.146  16.456
   7623SM  C10F10066   0.455   6.102  16.260
   7623SM  H10F10067   0.377   6.063  16.182
   7623SM  H10G10068   0.556   6.039  16.236
   7623SM  C11F10069   0.477   6.271  16.255
   7623SM  H11F10070   0.476   6.316  16.359
   7623SM  H11G10071   0.385   6.321  16.201
   7623SM  C12F10072   0.613   6.325  16.181
   7623SM  H12F10073   0.613   6.258  16.091
   7623SM  H12G10074   0.710   6.305  16.245
   7623SM  C13F10075   0.619   6.484  16.131
   7623SM  H13F10076   0.729   6.529  16.159
   7623SM  H13G10077   0.536   6.552  16.184
   7623SM  C14F10078   0.604   6.503  15.977
   7623SM  H14F10079   0.629   6.619  15.952
   7623SM  H14G10080   0.487   6.481  15.949
   7623SM  C15F10081   0.705   6.404  15.891
   7623SM  H15F10082   0.677   6.288  15.909
   7623SM  H15G10083   0.820   6.418  15.926
   7623SM  C16F10084   0.696   6.424  15.738
   7623SM  H16F10085   0.794   6.368  15.694
   7623SM  H16G10086   0.702   6.542  15.710
   7623SM  C17F10087   0.559   6.349  15.680
   7623SM  H17F10088   0.459   6.404  15.720
   7623SM  H17G10089   0.557   6.234  15.716
   7623SM  C18F10090   0.549   6.344  15.526
   7623SM  H18F10091   0.658   6.322  15.481
   7623SM  H18G10092   0.510   6.453  15.489
   7623SM  C19F10093   0.441   6.224  15.480
   7623SM  H19F10094   0.347   6.219  15.552
   7623SM  H19G10095   0.493   6.114  15.484
   7623SM  C20F10096   0.376   6.250  15.342
   7623SM  H20F10097   0.318   6.358  15.344
   7623SM  H20G10098   0.295   6.161  15.322
   7623SM  C21F10099   0.480   6.255  15.223
   7623SM  H21F10100   0.538   6.148  15.213
   7623SM  H21G10101   0.562   6.344  15.235
   7623SM  C22F10102   0.385   6.280  15.098
   7623SM  H22F10103   0.283   6.215  15.107
   7623SM  H22G10104   0.441   6.235  15.009
   7623SM  C23F10105   0.347   6.443  15.079
   7623SM  H23F10106   0.278   6.456  14.988
   7623SM  H23G10107   0.446   6.513  15.068
   7623SM  H23H10108   0.288   6.488  15.166
   7723SM     N10109   0.319   2.145  17.785
   7723SM   C1510110   0.362   1.995  17.735
   7723SM  H15A10111   0.265   1.925  17.721
   7723SM  H15B10112   0.431   1.938  17.806
   7723SM  H15C10113   0.420   2.003  17.642
   7723SM   C1410114   0.223   2.124  17.906
   7723SM  H14A10115   0.288   2.082  17.989
   7723SM  H14B10116   0.138   2.044  17.884
   7723SM  H14C10117   0.172   2.225  17.936
   7723SM   C1310118   0.456   2.222  17.824
   7723SM  H13A10119   0.522   2.157  17.893
   7723SM  H13B10120   0.435   2.329  17.870
   7723SM  H13C10121   0.524   2.243  17.735
   7723SM   C1210122   0.238   2.229  17.677
   7723SM  H12A10123   0.245   2.344  17.703
   7723SM  H12B10124   0.123   2.196  17.677
   7723SM   C1110125   0.292   2.219  17.532
   7723SM  H11A10126   0.216   2.289  17.471
   7723SM  H11B10127   0.284   2.103  17.496
   7723SM     P10128   0.514   2.289  17.378
   7723SM   O1310129   0.479   2.434  17.321
   7723SM   O1410130   0.670   2.250  17.389
   7723SM   O1110131   0.432   2.169  17.286
   7723SM   O1210132   0.438   2.273  17.521
   7723SM   C1S10133   0.312   2.209  17.201
   7723SM   H1S10134   0.246   2.300  17.243
   7723SM   H1T10135   0.237   2.113  17.192
   7723SM    NF10136   0.240   2.289  16.967
   7723SM   HNF10137   0.233   2.237  16.879
   7723SM   C2S10138   0.362   2.247  17.055
   7723SM   H2S10139   0.439   2.343  17.060
   7723SM   C3S10140   0.449   2.111  17.000
   7723SM   H3S10141   0.378   2.012  17.012
   7723SM    O310142   0.580   2.083  17.073
   7723SM   HO310143   0.556   2.127  17.159
   7723SM   C4S10144   0.490   2.132  16.855
   7723SM   H4S10145   0.571   2.219  16.835
   7723SM   C5S10146   0.440   2.049  16.752
   7723SM   H5S10147   0.367   1.954  16.772
   7723SM   C6S10148   0.477   2.066  16.606
   7723SM   H6S10149   0.373   2.066  16.548
   7723SM   H6T10150   0.538   1.966  16.572
   7723SM   C7S10151   0.565   2.203  16.564
   7723SM   H7S10152   0.672   2.209  16.617
   7723SM   H7T10153   0.499   2.302  16.593
   7723SM   C8S10154   0.593   2.212  16.411
   7723SM   H8S10155   0.616   2.328  16.382
   7723SM   H8T10156   0.488   2.179  16.360
   7723SM   C9S10157   0.719   2.113  16.362
   7723SM   H9S10158   0.723   2.021  16.435
   7723SM   H9T10159   0.827   2.169  16.371
   7723SM  C10S10160   0.696   2.041  16.224
   7723SM  H10S10161   0.576   2.027  16.210
   7723SM  H10T10162   0.750   1.929  16.229
   7723SM  C11S10163   0.750   2.114  16.096
   7723SM  H11S10164   0.871   2.133  16.099
   7723SM  H11T10165   0.697   2.224  16.089
   7723SM  C12S10166   0.711   2.021  15.971
   7723SM  H12S10167   0.594   1.987  15.977
   7723SM  H12T10168   0.781   1.922  15.966
   7723SM  C13S10169   0.728   2.116  15.847
   7723SM  H13S10170   0.844   2.152  15.846
   7723SM  H13T10171   0.658   2.212  15.874
   7723SM  C14S10172   0.679   2.072  15.705
   7723SM  H14S10173   0.608   2.166  15.673
   7723SM  H14T10174   0.607   1.977  15.707
   7723SM  C15S10175   0.793   2.076  15.589
   7723SM  H15S10176   0.881   1.992  15.600
   7723SM  H15T10177   0.846   2.186  15.589
   7723SM  C16S10178   0.714   2.058  15.454
   7723SM  H16S10179   0.596   2.078  15.477
   7723SM  H16T10180   0.724   1.944  15.415
   7723SM  C17S10181   0.741   2.168  15.341
   7723SM  H17S10182   0.860   2.193  15.330
   7723SM  H17T10183   0.683   2.272  15.370
   7723SM  C18S10184   0.678   2.114  15.208
   7723SM  H18S10185   0.765   2.068  15.142
   7723SM  H18T10186   0.620   2.204  15.155
   7723SM  H18U10187   0.594   2.026  15.226
   7723SM   C1F10188   0.160   2.410  16.984
   7723SM    OF10189   0.143   2.472  17.091
   7723SM   C2F10190   0.090   2.468  16.860
   7723SM   H2F10191  -0.024   2.497  16.883
   7723SM   H2G10192   0.089   2.380  16.783
   7723SM   C3F10193   0.172   2.608  16.813
   7723SM   H3F10194   0.289   2.578  16.799
   7723SM   H3G10195   0.166   2.694  16.892
   7723SM   C4F10196   0.112   2.669  16.681
   7723SM   H4F10197   0.175   2.768  16.650
   7723SM   H4G10198  -0.007   2.698  16.690
   7723SM   C5F10199   0.128   2.551  16.572
   7723SM   H5F10200   0.043   2.466  16.590
   7723SM   H5G10201   0.239   2.500  16.583
   7723SM   C6F10202   0.110   2.606  16.429
   7723SM   H6F10203   0.190   2.693  16.405
   7723SM   H6G10204   0.003   2.663  16.418
   7723SM   C7F10205   0.119   2.478  16.327
   7723SM   H7F10206   0.185   2.512  16.239
   7723SM   H7G10207   0.005   2.458  16.289
   7723SM   C8F10208   0.177   2.331  16.382
   7723SM   H8F10209   0.110   2.298  16.469
   7723SM   H8G10210   0.294   2.341  16.415
   7723SM   C9F10211   0.162   2.208  16.280
   7723SM   H9F10212   0.255   2.210  16.209
   7723SM   H9G10213   0.058   2.229  16.222
   7723SM  C10F10214   0.146   2.055  16.344
   7723SM  H10F10215   0.079   2.061  16.437
   7723SM  H10G10216   0.256   2.011  16.371
   7723SM  C11F10217   0.069   1.950  16.248
   7723SM  H11F10218  -0.036   2.001  16.216
   7723SM  H11G10219   0.044   1.844  16.297
   7723SM  C12F10220   0.164   1.921  16.124
   7723SM  H12F10221   0.253   1.845  16.150
   7723SM  H12G10222   0.216   2.024  16.087
   7723SM  C13F10223   0.070   1.860  16.013
   7723SM  H13F10224  -0.045   1.854  16.050
   7723SM  H13G10225   0.103   1.745  15.988
   7723SM  C14F10226   0.073   1.965  15.892
   7723SM  H14F10227   0.182   2.019  15.881
   7723SM  H14G10228  -0.011   2.050  15.912
   7723SM  C15F10229   0.045   1.876  15.766
   7723SM  H15F10230  -0.066   1.825  15.772
   7723SM  H15G10231   0.123   1.783  15.776
   7723SM  C16F10232   0.071   1.932  15.623
   7723SM  H16F10233  -0.033   1.956  15.572
   7723SM  H16G10234   0.115   1.833  15.572
   7723SM  C17F10235   0.184   2.053  15.587
   7723SM  H17F10236   0.283   2.052  15.651
   7723SM  H17G10237   0.131   2.160  15.603
   7723SM  C18F10238   0.227   2.031  15.438
   7723SM  H18F10239   0.123   2.014  15.382
   7723SM  H18G10240   0.287   1.925  15.427
   7723SM  C19F10241   0.315   2.155  15.373
   7723SM  H19F10242   0.430   2.121  15.358
   7723SM  H19G10243   0.311   2.245  15.446
   7723SM  C20F10244   0.261   2.228  15.242
   7723SM  H20F10245   0.345   2.305  15.204
   7723SM  H20G10246   0.166   2.298  15.273
   7723SM  C21F10247   0.207   2.128  15.128
   7723SM  H21F10248   0.097   2.174  15.102
   7723SM  H21G10249   0.192   2.013  15.160
   7723SM  C22F10250   0.290   2.136  14.995
   7723SM  H22F10251   0.387   2.062  14.998
   7723SM  H22G10252   0.330   2.251  14.980
   7723SM  C23F10253   0.190   2.095  14.876
   7723SM  H23F10254   0.151   1.981  14.886
   7723SM  H23G10255   0.250   2.106  14.780
   7723SM  H23H10256   0.092   2.169  14.873
   7823SM     N10257   1.363   7.803  17.774
   7823SM   C1510258   1.484   7.693  17.754
   7823SM  H15A10259   1.499   7.674  17.647
   7823SM  H15B10260   1.456   7.589  17.799
   7823SM  H15C10261   1.586   7.732  17.798
   7823SM   C1410262   1.221   7.744  17.720
   7823SM  H14A10263   1.231   7.732  17.612
   7823SM  H14B10264   1.130   7.817  17.739
   7823SM  H14C10265   1.196   7.635  17.759
   7823SM   C1310266   1.348   7.829  17.921
   7823SM  H13A10267   1.305   7.730  17.969
   7823SM  H13B10268   1.274   7.918  17.946
   7823SM  H13C10269   1.455   7.850  17.964
   7823SM   C1210270   1.400   7.945  17.700
   7823SM  H12A10271   1.493   7.999  17.747
   7823SM  H12B10272   1.308   8.020  17.705
   7823SM   C1110273   1.439   7.931  17.549
   7823SM  H11A10274   1.543   7.866  17.540
   7823SM  H11B10275   1.465   8.044  17.512
   7823SM     P10276   1.346   7.748  17.366
   7823SM   O1310277   1.401   7.620  17.441
   7823SM   O1410278   1.215   7.724  17.281
   7823SM   O1110279   1.471   7.814  17.272
   7823SM   O1210280   1.320   7.876  17.472
   7823SM   C1S10281   1.467   7.966  17.234
   7823SM   H1S10282   1.570   8.018  17.274
   7823SM   H1T10283   1.373   8.029  17.278
   7823SM    NF10284   1.320   7.972  17.025
   7823SM   HNF10285   1.305   7.880  16.972
   7823SM   C2S10286   1.467   7.988  17.080
   7823SM   H2S10287   1.504   8.104  17.060
   7823SM   C3S10288   1.578   7.880  17.013
   7823SM   H3S10289   1.546   7.764  17.029
   7823SM    O310290   1.729   7.896  17.056
   7823SM   HO310291   1.735   7.994  17.091
   7823SM   C4S10292   1.578   7.913  16.865
   7823SM   H4S10293   1.609   8.028  16.843
   7823SM   C5S10294   1.549   7.821  16.763
   7823SM   H5S10295   1.522   7.704  16.785
   7823SM   C6S10296   1.550   7.862  16.616
   7823SM   H6S10297   1.448   7.819  16.568
   7823SM   H6T10298   1.643   7.810  16.564
   7823SM   C7S10299   1.551   8.028  16.582
   7823SM   H7S10300   1.654   8.081  16.617
   7823SM   H7T10301   1.460   8.084  16.636
   7823SM   C8S10302   1.531   8.055  16.431
   7823SM   H8S10303   1.423   8.012  16.399
   7823SM   H8T10304   1.617   8.000  16.370
   7823SM   C9S10305   1.537   8.220  16.403
   7823SM   H9S10306   1.651   8.259  16.414
   7823SM   H9T10307   1.474   8.278  16.483
   7823SM  C10S10308   1.473   8.269  16.269
   7823SM  H10S10309   1.494   8.386  16.264
   7823SM  H10T10310   1.353   8.254  16.262
   7823SM  C11S10311   1.530   8.208  16.138
   7823SM  H11S10312   1.487   8.096  16.117
   7823SM  H11T10313   1.651   8.203  16.137
   7823SM  C12S10314   1.483   8.317  16.031
   7823SM  H12S10315   1.526   8.428  16.057
   7823SM  H12T10316   1.361   8.325  16.025
   7823SM  C13S10317   1.549   8.276  15.898
   7823SM  H13S10318   1.504   8.169  15.866
   7823SM  H13T10319   1.670   8.267  15.909
   7823SM  C14S10320   1.517   8.391  15.791
   7823SM  H14S10321   1.555   8.502  15.822
   7823SM  H14T10322   1.395   8.397  15.779
   7823SM  C15S10323   1.594   8.344  15.663
   7823SM  H15S10324   1.632   8.228  15.678
   7823SM  H15T10325   1.693   8.412  15.644
   7823SM  C16S10326   1.487   8.342  15.545
   7823SM  H16S10327   1.515   8.436  15.478
   7823SM  H16T10328   1.374   8.361  15.582
   7823SM  C17S10329   1.481   8.196  15.467
   7823SM  H17S10330   1.393   8.126  15.510
   7823SM  H17T10331   1.586   8.135  15.472
   7823SM  C18S10332   1.450   8.228  15.322
   7823SM  H18S10333   1.453   8.132  15.254
   7823SM  H18T10334   1.544   8.295  15.293
   7823SM  H18U10335   1.346   8.292  15.309
   7823SM   C1F10336   1.205   8.055  17.051
   7823SM    OF10337   1.208   8.162  17.127
   7823SM   C2F10338   1.063   8.003  16.987
   7823SM   H2F10339   0.987   7.975  17.070
   7823SM   H2G10340   1.085   7.899  16.932
   7823SM   C3F10341   0.989   8.111  16.889
   7823SM   H3F10342   0.971   8.219  16.937
   7823SM   H3G10343   0.880   8.065  16.858
   7823SM   C4F10344   1.074   8.136  16.758
   7823SM   H4F10345   1.095   8.028  16.707
   7823SM   H4G10346   1.184   8.185  16.781
   7823SM   C5F10347   0.990   8.238  16.663
   7823SM   H5F10348   0.935   8.326  16.722
   7823SM   H5G10349   0.903   8.174  16.609
   7823SM   C6F10350   1.092   8.315  16.564
   7823SM   H6F10351   1.186   8.363  16.620
   7823SM   H6G10352   1.034   8.406  16.512
   7823SM   C7F10353   1.153   8.210  16.458
   7823SM   H7F10354   1.196   8.107  16.503
   7823SM   H7G10355   1.247   8.273  16.419
   7823SM   C8F10356   1.044   8.180  16.345
   7823SM   H8F10357   1.002   8.286  16.306
   7823SM   H8G10358   0.949   8.118  16.389
   7823SM   C9F10359   1.102   8.089  16.225
   7823SM   H9F10360   1.197   8.143  16.177
   7823SM   H9G10361   1.018   8.083  16.145
   7823SM  C10F10362   1.140   7.932  16.265
   7823SM  H10F10363   1.036   7.874  16.294
   7823SM  H10G10364   1.212   7.933  16.355
   7823SM  C11F10365   1.217   7.845  16.156
   7823SM  H11F10366   1.320   7.904  16.128
   7823SM  H11G10367   1.147   7.842  16.064
   7823SM  C12F10368   1.251   7.690  16.206
   7823SM  H12F10369   1.148   7.627  16.226
   7823SM  H12G10370   1.311   7.702  16.302
   7823SM  C13F10371   1.350   7.604  16.111
   7823SM  H13F10372   1.422   7.528  16.169
   7823SM  H13G10373   1.421   7.686  16.063
   7823SM  C14F10374   1.269   7.514  16.004
   7823SM  H14F10375   1.202   7.429  16.056
   7823SM  H14G10376   1.355   7.456  15.944
   7823SM  C15F10377   1.172   7.598  15.905
   7823SM  H15F10378   1.235   7.686  15.856
   7823SM  H15G10379   1.076   7.648  15.957
   7823SM  C16F10380   1.114   7.491  15.798
   7823SM  H16F10381   1.039   7.410  15.846
   7823SM  H16G10382   1.210   7.426  15.762
   7823SM  C17F10383   1.033   7.566  15.682
   7823SM  H17F10384   0.977   7.667  15.718
   7823SM  H17G10385   0.946   7.489  15.647
   7823SM  C18F10386   1.131   7.600  15.560
   7823SM  H18F10387   1.218   7.680  15.586
   7823SM  H18G10388   1.061   7.648  15.480
   7823SM  C19F10389   1.199   7.456  15.510
   7823SM  H19F10390   1.110   7.371  15.511
   7823SM  H19G10391   1.289   7.419  15.577
   7823SM  C20F10392   1.262   7.456  15.369
   7823SM  H20F10393   1.355   7.533  15.359
   7823SM  H20G10394   1.175   7.491  15.297
   7823SM  C21F10395   1.309   7.297  15.338
   7823SM  H21F10396   1.227   7.217  15.375
   7823SM  H21G10397   1.416   7.274  15.387
   7823SM  C22F10398   1.321   7.280  15.188
   7823SM  H22F10399   1.396   7.371  15.163
   7823SM  H22G10400   1.215   7.306  15.138
   7823SM  C23F10401   1.379   7.134  15.136
   7823SM  H23F10402   1.297   7.046  15.151
   7823SM  H23G10403   1.483   7.101  15.188
   7823SM  H23H10404   1.403   7.142  15.028
   7923SM     N10405   7.533   0.546  17.781
   7923SM   C1510406   7.472   0.691  17.827
   7923SM  H15A10407   7.379   0.680  17.892
   7923SM  H15B10408   7.445   0.757  17.740
   7923SM  H15C10409   7.551   0.757  17.882
   7923SM   C1410410   7.649   0.570  17.678
   7923SM  H14A10411   7.666   0.468  17.622
   7923SM  H14B10412   7.756   0.603  17.715
   7923SM  H14C10413   7.611   0.646  17.601
   7923SM   C1310414   7.594   0.463  17.897
   7923SM  H13A10415   7.654   0.366  17.860
   7923SM  H13B10416   7.510   0.421  17.964
   7923SM  H13C10417   7.671   0.528  17.954
   7923SM   C1210418   7.411   0.454  17.716
   7923SM  H12A10419   7.335   0.417  17.791
   7923SM  H12B10420   7.460   0.354  17.674
   7923SM   C1110421   7.325   0.526  17.600
   7923SM  H11A10422   7.293   0.640  17.627
   7923SM  H11B10423   7.219   0.466  17.582
   7923SM     P10424   7.431   0.382  17.399
   7923SM   O1310425   7.465   0.260  17.493
   7923SM   O1410426   7.300   0.365  17.312
   7923SM   O1110427   7.575   0.403  17.314
   7923SM   O1210428   7.413   0.529  17.482
   7923SM   C1S10429   7.626   0.541  17.264
   7923SM   H1S10430   7.748   0.541  17.268
   7923SM   H1T10431   7.591   0.636  17.328
   7923SM    NF10432   7.426   0.611  17.116
   7923SM   HNF10433   7.353   0.531  17.136
   7923SM   C2S10434   7.579   0.567  17.116
   7923SM   H2S10435   7.647   0.656  17.073
   7923SM   C3S10436   7.613   0.425  17.034
   7923SM   H3S10437   7.560   0.328  17.081
   7923SM    O310438   7.767   0.394  17.026
   7923SM   HO310439   7.811   0.443  17.100
   7923SM   C4S10440   7.559   0.433  16.891
   7923SM   H4S10441   7.458   0.371  16.873
   7923SM   C5S10442   7.622   0.504  16.787
   7923SM   H5S10443   7.725   0.565  16.802
   7923SM   C6S10444   7.561   0.502  16.647
   7923SM   H6S10445   7.493   0.601  16.628
   7923SM   H6T10446   7.491   0.403  16.630
   7923SM   C7S10447   7.690   0.495  16.547
   7923SM   H7S10448   7.752   0.389  16.559
   7923SM   H7T10449   7.767   0.586  16.570
   7923SM   C8S10450   7.645   0.509  16.399
   7923SM   H8S10451   7.537   0.567  16.395
   7923SM   H8T10452   7.631   0.399  16.351
   7923SM   C9S10453   7.757   0.604  16.322
   7923SM   H9S10454   7.867   0.550  16.317
   7923SM   H9T10455   7.770   0.704  16.387
   7923SM  C10S10456   7.708   0.658  16.183
   7923SM  H10S10457   7.731   0.778  16.178
   7923SM  H10T10458   7.587   0.646  16.173
   7923SM  C11S10459   7.778   0.587  16.058
   7923SM  H11S10460   7.739   0.472  16.053
   7923SM  H11T10461   7.900   0.585  16.062
   7923SM  C12S10462   7.730   0.675  15.933
   7923SM  H12S10463   7.817   0.748  15.894
   7923SM  H12T10464   7.645   0.754  15.968
   7923SM  C13S10465   7.666   0.577  15.822
   7923SM  H13S10466   7.598   0.501  15.879
   7923SM  H13T10467   7.755   0.517  15.770
   7923SM  C14S10468   7.565   0.653  15.720
   7923SM  H14S10469   7.641   0.700  15.646
   7923SM  H14T10470   7.506   0.745  15.768
   7923SM  C15S10471   7.457   0.564  15.633
   7923SM  H15S10472   7.373   0.505  15.694
   7923SM  H15T10473   7.515   0.482  15.571
   7923SM  C16S10474   7.382   0.670  15.535
   7923SM  H16S10475   7.467   0.743  15.490
   7923SM  H16T10476   7.310   0.744  15.594
   7923SM  C17S10477   7.300   0.591  15.421
   7923SM  H17S10478   7.216   0.516  15.465
   7923SM  H17T10479   7.380   0.521  15.366
   7923SM  C18S10480   7.226   0.693  15.321
   7923SM  H18S10481   7.308   0.769  15.276
   7923SM  H18T10482   7.140   0.765  15.365
   7923SM  H18U10483   7.172   0.629  15.240
   7923SM   C1F10484   7.400   0.748  17.156
   7923SM    OF10485   7.501   0.831  17.183
   7923SM   C2F10486   7.245   0.798  17.166
   7923SM   H2F10487   7.227   0.853  17.264
   7923SM   H2G10488   7.168   0.704  17.156
   7923SM   C3F10489   7.225   0.910  17.053
   7923SM   H3F10490   7.296   1.007  17.072
   7923SM   H3G10491   7.112   0.952  17.055
   7923SM   C4F10492   7.264   0.848  16.914
   7923SM   H4F10493   7.385   0.838  16.901
   7923SM   H4G10494   7.224   0.927  16.838
   7923SM   C5F10495   7.191   0.703  16.878
   7923SM   H5F10496   7.085   0.696  16.933
   7923SM   H5G10497   7.258   0.607  16.909
   7923SM   C6F10498   7.162   0.695  16.728
   7923SM   H6F10499   7.268   0.710  16.674
   7923SM   H6G10500   7.088   0.789  16.699
   7923SM   C7F10501   7.093   0.551  16.681
   7923SM   H7F10502   6.979   0.540  16.721
   7923SM   H7G10503   7.157   0.456  16.721
   7923SM   C8F10504   7.090   0.548  16.528
   7923SM   H8F10505   7.092   0.661  16.488
   7923SM   H8G10506   6.985   0.498  16.492
   7923SM   C9F10507   7.219   0.462  16.470
   7923SM   H9F10508   7.271   0.394  16.550
   7923SM   H9G10509   7.305   0.542  16.438
   7923SM  C10F10510   7.176   0.360  16.354
   7923SM  H10F10511   7.071   0.304  16.374
   7923SM  H10G10512   7.263   0.274  16.343
   7923SM  C11F10513   7.173   0.453  16.227
   7923SM  H11F10514   7.289   0.488  16.218
   7923SM  H11G10515   7.098   0.548  16.248
   7923SM  C12F10516   7.129   0.386  16.093
   7923SM  H12F10517   7.096   0.479  16.025
   7923SM  H12G10518   7.029   0.318  16.109
   7923SM  C13F10519   7.245   0.294  16.017
   7923SM  H13F10520   7.209   0.296  15.911
   7923SM  H13G10521   7.238   0.179  16.056
   7923SM  C14F10522   7.406   0.339  16.008
   7923SM  H14F10523   7.450   0.367  16.108
   7923SM  H14G10524   7.413   0.439  15.945
   7923SM  C15F10525   7.500   0.216  15.942
   7923SM  H15F10526   7.431   0.114  15.943
   7923SM  H15G10527   7.597   0.195  16.007
   7923SM  C16F10528   7.551   0.240  15.796
   7923SM  H16F10529   7.641   0.321  15.792
   7923SM  H16G10530   7.458   0.277  15.733
   7923SM  C17F10531   7.632   0.112  15.727
   7923SM  H17F10532   7.558   0.016  15.736
   7923SM  H17G10533   7.736   0.090  15.782
   7923SM  C18F10534   7.666   0.129  15.575
   7923SM  H18F10535   7.558   0.131  15.522
   7923SM  H18G10536   7.725   0.028  15.545
   7923SM  C19F10537   7.753   0.264  15.524
   7923SM  H19F10538   7.838   0.299  15.598
   7923SM  H19G10539   7.675   0.356  15.511
   7923SM  C20F10540   7.825   0.245  15.384
   7923SM  H20F10541   7.917   0.164  15.390
   7923SM  H20G10542   7.875   0.352  15.354
   7923SM  C21F10543   7.716   0.198  15.275
   7923SM  H21F10544   7.632   0.285  15.259
   7923SM  H21G10545   7.659   0.100  15.315
   7923SM  C22F10546   7.786   0.153  15.140
   7923SM  H22F10547   7.706   0.081  15.087
   7923SM  H22G10548   7.885   0.085  15.158
   7923SM  C23F10549   7.823   0.280  15.046
   7923SM  H23F10550   7.871   0.237  14.953
   7923SM  H23G10551   7.906   0.356  15.090
   7923SM  H23H10552   7.723   0.343  15.018
   8023SM     N10553   0.649   0.558  17.713
   8023SM   C1510554   0.766   0.608  17.808
   8023SM  H15A10555   0.827   0.514  17.844
   8023SM  H15B10556   0.718   0.662  17.896
   8023SM  H15C10557   0.841   0.684  17.761
   8023SM   C1410558   0.713   0.472  17.597
   8023SM  H14A10559   0.782   0.536  17.532
   8023SM  H14B10560   0.623   0.433  17.532
   8023SM  H14C10561   0.771   0.373  17.629
   8023SM   C1310562   0.550   0.450  17.780
   8023SM  H13A10563   0.609   0.347  17.795
   8023SM  H13B10564   0.458   0.420  17.714
   8023SM  H13C10565   0.507   0.486  17.874
   8023SM   C1210566   0.570   0.689  17.656
   8023SM  H12A10567   0.640   0.740  17.582
   8023SM  H12B10568   0.551   0.770  17.734
   8023SM   C1110569   0.421   0.658  17.588
   8023SM  H11A10570   0.392   0.763  17.540
   8023SM  H11B10571   0.337   0.631  17.664
   8023SM     P10572   0.334   0.410  17.473
   8023SM   O1310573   0.430   0.284  17.458
   8023SM   O1410574   0.231   0.406  17.587
   8023SM   O1110575   0.243   0.443  17.340
   8023SM   O1210576   0.433   0.550  17.488
   8023SM   C1S10577   0.317   0.516  17.232
   8023SM   H1S10578   0.409   0.587  17.263
   8023SM   H1T10579   0.239   0.592  17.182
   8023SM    NF10580   0.510   0.440  17.068
   8023SM   HNF10581   0.516   0.430  16.969
   8023SM   C2S10582   0.371   0.399  17.130
   8023SM   H2S10583   0.389   0.293  17.181
   8023SM   C3S10584   0.242   0.383  17.027
   8023SM   H3S10585   0.208   0.492  16.989
   8023SM    O310586   0.114   0.324  17.093
   8023SM   HO310587   0.112   0.378  17.177
   8023SM   C4S10588   0.286   0.286  16.910
   8023SM   H4S10589   0.317   0.173  16.936
   8023SM   C5S10590   0.290   0.327  16.779
   8023SM   H5S10591   0.260   0.441  16.750
   8023SM   C6S10592   0.336   0.229  16.663
   8023SM   H6S10593   0.237   0.178  16.617
   8023SM   H6T10594   0.407   0.138  16.698
   8023SM   C7S10595   0.418   0.308  16.548
   8023SM   H7S10596   0.520   0.359  16.588
   8023SM   H7T10597   0.345   0.395  16.507
   8023SM   C8S10598   0.462   0.211  16.428
   8023SM   H8S10599   0.369   0.136  16.406
   8023SM   H8T10600   0.561   0.147  16.458
   8023SM   C9S10601   0.499   0.293  16.297
   8023SM   H9S10602   0.584   0.378  16.316
   8023SM   H9T10603   0.399   0.349  16.260
   8023SM  C10S10604   0.559   0.189  16.188
   8023SM  H10S10605   0.491   0.088  16.184
   8023SM  H10T10606   0.673   0.157  16.216
   8023SM  C11S10607   0.565   0.257  16.047
   8023SM  H11S10608   0.625   0.363  16.057
   8023SM  H11T10609   0.451   0.277  16.009
   8023SM  C12S10610   0.653   0.171  15.943
   8023SM  H12S10611   0.696   0.070  15.993
   8023SM  H12T10612   0.750   0.237  15.909
   8023SM  C13S10613   0.565   0.123  15.821
   8023SM  H13S10614   0.451   0.094  15.849
   8023SM  H13T10615   0.620   0.021  15.785
   8023SM  C14S10616   0.563   0.226  15.700
   8023SM  H14S10617   0.668   0.288  15.693
   8023SM  H14T10618   0.471   0.306  15.709
   8023SM  C15S10619   0.546   0.129  15.574
   8023SM  H15S10620   0.444   0.062  15.588
   8023SM  H15T10621   0.641   0.054  15.567
   8023SM  C16S10622   0.526   0.210  15.442
   8023SM  H16S10623   0.609   0.298  15.429
   8023SM  H16T10624   0.415   0.257  15.450
   8023SM  C17S10625   0.520   0.107  15.321
   8023SM  H17S10626   0.438   0.020  15.342
   8023SM  H17T10627   0.629   0.054  15.310
   8023SM  C18S10628   0.477   0.184  15.191
   8023SM  H18S10629   0.519   0.120  15.104
   8023SM  H18T10630   0.521   0.297  15.187
   8023SM  H18U10631   0.356   0.190  15.180
   8023SM   C1F10632   0.636   0.470  17.132
   8023SM    OF10633   0.648   0.482  17.253
   8023SM   C2F10634   0.769   0.492  17.047
   8023SM   H2F10635   0.743   0.466  16.941
   8023SM   H2G10636   0.856   0.416  17.081
   8023SM   C3F10637   0.822   0.652  17.061
   8023SM   H3F10638   0.912   0.670  16.988
   8023SM   H3G10639   0.869   0.669  17.163
   8023SM   C4F10640   0.700   0.768  17.039
   8023SM   H4F10641   0.751   0.879  17.040
   8023SM   H4G10642   0.622   0.763  17.125
   8023SM   C5F10643   0.613   0.749  16.907
   8023SM   H5F10644   0.525   0.833  16.901
   8023SM   H5G10645   0.552   0.643  16.905
   8023SM   C6F10646   0.714   0.760  16.784
   8023SM   H6F10647   0.782   0.660  16.776
   8023SM   H6G10648   0.790   0.856  16.799
   8023SM   C7F10649   0.628   0.782  16.654
   8023SM   H7F10650   0.704   0.820  16.574
   8023SM   H7G10651   0.547   0.872  16.673
   8023SM   C8F10652   0.548   0.643  16.606
   8023SM   H8F10653   0.494   0.590  16.694
   8023SM   H8G10654   0.626   0.563  16.562
   8023SM   C9F10655   0.424   0.680  16.506
   8023SM   H9F10656   0.392   0.790  16.537
   8023SM   H9G10657   0.326   0.609  16.522
   8023SM  C10F10658   0.463   0.689  16.357
   8023SM  H10F10659   0.543   0.601  16.333
   8023SM  H10G10660   0.518   0.796  16.341
   8023SM  C11F10661   0.329   0.678  16.262
   8023SM  H11F10662   0.245   0.760  16.293
   8023SM  H11G10663   0.276   0.568  16.271
   8023SM  C12F10664   0.364   0.706  16.112
   8023SM  H12F10665   0.441   0.800  16.112
   8023SM  H12G10666   0.262   0.739  16.059
   8023SM  C13F10667   0.432   0.573  16.042
   8023SM  H13F10668   0.350   0.483  16.042
   8023SM  H13G10669   0.522   0.542  16.111
   8023SM  C14F10670   0.501   0.584  15.900
   8023SM  H14F10671   0.567   0.483  15.881
   8023SM  H14G10672   0.579   0.675  15.893
   8023SM  C15F10673   0.397   0.600  15.780
   8023SM  H15F10674   0.337   0.704  15.792
   8023SM  H15G10675   0.319   0.506  15.778
   8023SM  C16F10676   0.477   0.612  15.644
   8023SM  H16F10677   0.551   0.517  15.627
   8023SM  H16G10678   0.546   0.713  15.648
   8023SM  C17F10679   0.367   0.631  15.528
   8023SM  H17F10680   0.428   0.666  15.436
   8023SM  H17G10681   0.298   0.724  15.559
   8023SM  C18F10682   0.274   0.495  15.494
   8023SM  H18F10683   0.267   0.420  15.582
   8023SM  H18G10684   0.338   0.441  15.413
   8023SM  C19F10685   0.118   0.510  15.432
   8023SM  H19F10686   0.122   0.556  15.332
   8023SM  H19G10687   0.043   0.584  15.485
   8023SM  C20F10688   0.032   0.365  15.422
   8023SM  H20F10689  -0.086   0.394  15.409
   8023SM  H20G10690   0.046   0.306  15.517
   8023SM  C21F10691   0.083   0.273  15.302
   8023SM  H21F10692   0.051   0.156  15.317
   8023SM  H21G10693   0.205   0.278  15.300
   8023SM  C22F10694   0.019   0.327  15.168
   8023SM  H22F10695   0.009   0.449  15.173
   8023SM  H22G10696  -0.096   0.285  15.157
   8023SM  C23F10697   0.109   0.286  15.044
   8023SM  H23F10698   0.222   0.330  15.050
   8023SM  H23G10699   0.057   0.333  14.953
   8023SM  H23H10700   0.117   0.165  15.031
   8123SM     N10701   3.748   4.114  12.185
   8123SM   C1510702   3.651   3.981  12.191
   8123SM  H15A10703   3.705   3.889  12.141
   8123SM  H15B10704   3.545   4.002  12.147
   8123SM  H15C10705   3.634   3.948  12.295
   8123SM   C1410706   3.781   4.150  12.042
   8123SM  H14A10707   3.870   4.228  12.032
   8123SM  H14B10708   3.686   4.193  11.989
   8123SM  H14C10709   3.807   4.050  11.987
   8123SM   C1310710   3.674   4.240  12.253
   8123SM  H13A10711   3.567   4.264  12.210
   8123SM  H13B10712   3.742   4.337  12.248
   8123SM  H13C10713   3.661   4.217  12.359
   8123SM   C1210714   3.891   4.080  12.259
   8123SM  H12A10715   3.956   4.180  12.267
   8123SM  H12B10716   3.953   4.001  12.201
   8123SM   C1110717   3.879   4.019  12.404
   8123SM  H11A10718   3.993   3.995  12.441
   8123SM  H11B10719   3.820   3.913  12.403
   8123SM     P10720   3.892   4.254  12.551
   8123SM   O1310721   4.029   4.271  12.473
   8123SM   O1410722   3.797   4.387  12.553
   8123SM   O1110723   3.925   4.198  12.699
   8123SM   O1210724   3.803   4.121  12.489
   8123SM   C1S10725   3.820   4.103  12.766
   8123SM   H1S10726   3.814   3.994  12.715
   8123SM   H1T10727   3.708   4.153  12.764
   8123SM    NF10728   3.727   4.011  12.988
   8123SM   HNF10729   3.689   4.073  13.062
   8123SM   C2S10730   3.856   4.070  12.917
   8123SM   H2S10731   3.945   3.986  12.921
   8123SM   C3S10732   3.913   4.213  12.988
   8123SM   H3S10733   3.822   4.297  12.987
   8123SM    O310734   4.039   4.280  12.931
   8123SM   HO310735   4.046   4.235  12.844
   8123SM   C4S10736   3.947   4.181  13.133
   8123SM   H4S10737   3.872   4.239  13.201
   8123SM   C5S10738   4.055   4.097  13.186
   8123SM   H5S10739   4.131   4.038  13.119
   8123SM   C6S10740   4.078   4.076  13.335
   8123SM   H6S10741   4.199   4.073  13.355
   8123SM   H6T10742   4.035   3.967  13.367
   8123SM   C7S10743   4.011   4.198  13.424
   8123SM   H7S10744   3.890   4.203  13.410
   8123SM   H7T10745   4.059   4.305  13.393
   8123SM   C8S10746   4.039   4.178  13.574
   8123SM   H8S10747   4.158   4.156  13.591
   8123SM   H8T10748   3.975   4.082  13.611
   8123SM   C9S10749   3.995   4.316  13.653
   8123SM   H9S10750   3.881   4.348  13.626
   8123SM   H9T10751   4.070   4.408  13.622
   8123SM  C10S10752   4.005   4.300  13.806
   8123SM  H10S10753   4.021   4.411  13.851
   8123SM  H10T10754   4.102   4.232  13.834
   8123SM  C11S10755   3.864   4.234  13.866
   8123SM  H11S10756   3.867   4.113  13.848
   8123SM  H11T10757   3.766   4.279  13.814
   8123SM  C12S10758   3.843   4.260  14.016
   8123SM  H12S10759   3.738   4.207  14.047
   8123SM  H12T10760   3.831   4.380  14.036
   8123SM  C13S10761   3.969   4.199  14.102
   8123SM  H13S10762   4.069   4.266  14.087
   8123SM  H13T10763   3.994   4.084  14.068
   8123SM  C14S10764   3.926   4.194  14.250
   8123SM  H14S10765   3.833   4.115  14.262
   8123SM  H14T10766   3.887   4.304  14.283
   8123SM  C15S10767   4.054   4.144  14.338
   8123SM  H15S10768   4.139   4.231  14.346
   8123SM  H15T10769   4.105   4.046  14.288
   8123SM  C16S10770   4.003   4.092  14.476
   8123SM  H16S10771   4.093   4.024  14.519
   8123SM  H16T10772   3.904   4.022  14.462
   8123SM  C17S10773   3.964   4.211  14.578
   8123SM  H17S10774   3.868   4.276  14.541
   8123SM  H17T10775   4.059   4.288  14.589
   8123SM  C18S10776   3.928   4.141  14.713
   8123SM  H18S10777   4.026   4.081  14.752
   8123SM  H18T10778   3.838   4.060  14.702
   8123SM  H18U10779   3.894   4.225  14.788
   8123SM   C1F10780   3.653   3.884  12.968
   8123SM    OF10781   3.676   3.807  12.870
   8123SM   C2F10782   3.533   3.850  13.068
   8123SM   H2F10783   3.441   3.797  13.013
   8123SM   H2G10784   3.489   3.953  13.111
   8123SM   C3F10785   3.582   3.747  13.183
   8123SM   H3F10786   3.634   3.647  13.143
   8123SM   H3G10787   3.483   3.710  13.240
   8123SM   C4F10788   3.691   3.810  13.285
   8123SM   H4F10789   3.788   3.859  13.234
   8123SM   H4G10790   3.732   3.717  13.346
   8123SM   C5F10791   3.620   3.920  13.380
   8123SM   H5F10792   3.506   3.884  13.405
   8123SM   H5G10793   3.612   4.030  13.331
   8123SM   C6F10794   3.706   3.933  13.511
   8123SM   H6F10795   3.825   3.947  13.485
   8123SM   H6G10796   3.698   3.827  13.568
   8123SM   C7F10797   3.655   4.061  13.597
   8123SM   H7F10798   3.652   4.162  13.535
   8123SM   H7G10799   3.739   4.080  13.675
   8123SM   C8F10800   3.505   4.038  13.665
   8123SM   H8F10801   3.421   4.017  13.587
   8123SM   H8G10802   3.474   4.143  13.717
   8123SM   C9F10803   3.502   3.914  13.769
   8123SM   H9F10804   3.524   3.806  13.720
   8123SM   H9G10805   3.391   3.909  13.815
   8123SM  C10F10806   3.615   3.935  13.882
   8123SM  H10F10807   3.594   4.046  13.924
   8123SM  H10G10808   3.728   3.931  13.842
   8123SM  C11F10809   3.604   3.821  13.995
   8123SM  H11F10810   3.685   3.732  13.979
   8123SM  H11G10811   3.493   3.770  13.996
   8123SM  C12F10812   3.627   3.896  14.130
   8123SM  H12F10813   3.700   3.992  14.117
   8123SM  H12G10814   3.682   3.822  14.203
   8123SM  C13F10815   3.477   3.947  14.184
   8123SM  H13F10816   3.408   3.849  14.203
   8123SM  H13G10817   3.422   4.012  14.104
   8123SM  C14F10818   3.487   4.043  14.310
   8123SM  H14F10819   3.379   4.096  14.328
   8123SM  H14G10820   3.569   4.131  14.291
   8123SM  C15F10821   3.531   3.957  14.434
   8123SM  H15F10822   3.641   3.906  14.414
   8123SM  H15G10823   3.453   3.865  14.455
   8123SM  C16F10824   3.549   4.056  14.557
   8123SM  H16F10825   3.608   4.156  14.524
   8123SM  H16G10826   3.619   3.999  14.631
   8123SM  C17F10827   3.406   4.097  14.631
   8123SM  H17F10828   3.337   3.997  14.646
   8123SM  H17G10829   3.342   4.174  14.567
   8123SM  C18F10830   3.439   4.170  14.767
   8123SM  H18F10831   3.487   4.087  14.836
   8123SM  H18G10832   3.334   4.207  14.813
   8123SM  C19F10833   3.542   4.302  14.753
   8123SM  H19F10834   3.484   4.386  14.692
   8123SM  H19G10835   3.643   4.270  14.697
   8123SM  C20F10836   3.598   4.375  14.882
   8123SM  H20F10837   3.689   4.309  14.925
   8123SM  H20G10838   3.510   4.377  14.958
   8123SM  C21F10839   3.654   4.530  14.846
   8123SM  H21F10840   3.559   4.602  14.824
   8123SM  H21G10841   3.717   4.519  14.750
   8123SM  C22F10842   3.758   4.607  14.946
   8123SM  H22F10843   3.797   4.710  14.898
   8123SM  H22G10844   3.856   4.535  14.962
   8123SM  C23F10845   3.688   4.646  15.080
   8123SM  H23F10846   3.771   4.692  15.150
   8123SM  H23G10847   3.639   4.547  15.127
   8123SM  H23H10848   3.600   4.729  15.067
   8223SM     N10849   4.335   4.756  12.275
   8223SM   C1510850   4.203   4.850  12.244
   8223SM  H15A10851   4.183   4.860  12.138
   8223SM  H15B10852   4.224   4.961  12.281
   8223SM  H15C10853   4.106   4.812  12.297
   8223SM   C1410854   4.301   4.599  12.248
   8223SM  H14A10855   4.396   4.530  12.271
   8223SM  H14B10856   4.269   4.583  12.145
   8223SM  H14C10857   4.209   4.564  12.309
   8223SM   C1310858   4.463   4.807  12.195
   8223SM  H13A10859   4.444   4.800  12.089
   8223SM  H13B10860   4.563   4.748  12.220
   8223SM  H13C10861   4.487   4.923  12.219
   8223SM   C1210862   4.369   4.769  12.424
   8223SM  H12A10863   4.448   4.683  12.450
   8223SM  H12B10864   4.269   4.743  12.479
   8223SM   C1110865   4.421   4.916  12.480
   8223SM  H11A10866   4.528   4.942  12.429
   8223SM  H11B10867   4.444   4.905  12.589
   8223SM     P10868   4.360   5.188  12.451
   8223SM   O1310869   4.489   5.196  12.358
   8223SM   O1410870   4.231   5.282  12.421
   8223SM   O1110871   4.414   5.212  12.603
   8223SM   O1210872   4.309   5.024  12.458
   8223SM   C1S10873   4.294   5.198  12.697
   8223SM   H1S10874   4.217   5.105  12.669
   8223SM   H1T10875   4.230   5.301  12.699
   8223SM    NF10876   4.199   5.132  12.911
   8223SM   HNF10877   4.143   5.218  12.945
   8223SM   C2S10878   4.336   5.158  12.844
   8223SM   H2S10879   4.404   5.057  12.843
   8223SM   C3S10880   4.428   5.279  12.912
   8223SM   H3S10881   4.370   5.387  12.901
   8223SM    O310882   4.569   5.293  12.852
   8223SM   HO310883   4.547   5.287  12.757
   8223SM   C4S10884   4.441   5.249  13.061
   8223SM   H4S10885   4.381   5.329  13.122
   8223SM   C5S10886   4.516   5.141  13.126
   8223SM   H5S10887   4.577   5.059  13.066
   8223SM   C6S10888   4.521   5.121  13.276
   8223SM   H6S10889   4.478   5.008  13.300
   8223SM   H6T10890   4.448   5.200  13.329
   8223SM   C7S10891   4.677   5.133  13.336
   8223SM   H7S10892   4.720   5.246  13.323
   8223SM   H7T10893   4.751   5.058  13.279
   8223SM   C8S10894   4.690   5.088  13.485
   8223SM   H8S10895   4.810   5.075  13.506
   8223SM   H8T10896   4.640   4.979  13.503
   8223SM   C9S10897   4.630   5.201  13.586
   8223SM   H9S10898   4.510   5.185  13.599
   8223SM   H9T10899   4.649   5.312  13.544
   8223SM  C10S10900   4.708   5.198  13.724
   8223SM  H10S10901   4.672   5.298  13.780
   8223SM  H10T10902   4.829   5.209  13.709
   8223SM  C11S10903   4.677   5.062  13.812
   8223SM  H11S10904   4.727   4.963  13.766
   8223SM  H11T10905   4.556   5.045  13.818
   8223SM  C12S10906   4.738   5.083  13.954
   8223SM  H12S10907   4.689   5.187  13.996
   8223SM  H12T10908   4.859   5.100  13.950
   8223SM  C13S10909   4.704   4.957  14.051
   8223SM  H13S10910   4.765   4.857  14.020
   8223SM  H13T10911   4.584   4.930  14.045
   8223SM  C14S10912   4.741   4.995  14.197
   8223SM  H14S10913   4.678   5.095  14.225
   8223SM  H14T10914   4.860   5.020  14.205
   8223SM  C15S10915   4.703   4.872  14.297
   8223SM  H15S10916   4.772   4.774  14.277
   8223SM  H15T10917   4.586   4.840  14.282
   8223SM  C16S10918   4.722   4.920  14.443
   8223SM  H16S10919   4.661   5.025  14.460
   8223SM  H16T10920   4.841   4.943  14.462
   8223SM  C17S10921   4.668   4.805  14.544
   8223SM  H17S10922   4.725   4.699  14.523
   8223SM  H17T10923   4.549   4.787  14.529
   8223SM  C18S10924   4.697   4.849  14.690
   8223SM  H18S10925   4.816   4.869  14.705
   8223SM  H18T10926   4.662   4.759  14.759
   8223SM  H18U10927   4.635   4.950  14.716
   8223SM   C1F10928   4.135   5.001  12.902
   8223SM    OF10929   4.193   4.899  12.842
   8223SM   C2F10930   3.982   4.987  12.955
   8223SM   H2F10931   3.920   4.932  12.873
   8223SM   H2G10932   3.936   5.099  12.968
   8223SM   C3F10933   3.962   4.895  13.085
   8223SM   H3F10934   3.977   4.776  13.060
   8223SM   H3G10935   3.847   4.909  13.118
   8223SM   C4F10936   4.061   4.927  13.207
   8223SM   H4F10937   4.164   4.860  13.200
   8223SM   H4G10938   4.002   4.887  13.298
   8223SM   C5F10939   4.104   5.088  13.232
   8223SM   H5F10940   4.179   5.125  13.152
   8223SM   H5G10941   4.171   5.093  13.325
   8223SM   C6F10942   3.974   5.194  13.245
   8223SM   H6F10943   3.902   5.191  13.156
   8223SM   H6G10944   4.019   5.307  13.251
   8223SM   C7F10945   3.881   5.166  13.370
   8223SM   H7F10946   3.819   5.060  13.361
   8223SM   H7G10947   3.799   5.256  13.374
   8223SM   C8F10948   3.971   5.166  13.500
   8223SM   H8F10949   4.045   5.263  13.497
   8223SM   H8G10950   4.041   5.067  13.503
   8223SM   C9F10951   3.879   5.173  13.628
   8223SM   H9F10952   3.760   5.177  13.600
   8223SM   H9G10953   3.898   5.278  13.681
   8223SM  C10F10954   3.905   5.052  13.732
   8223SM  H10F10955   3.863   4.948  13.690
   8223SM  H10G10956   3.839   5.080  13.822
   8223SM  C11F10957   4.063   5.031  13.785
   8223SM  H11F10958   4.145   5.043  13.703
   8223SM  H11G10959   4.070   4.916  13.822
   8223SM  C12F10960   4.102   5.133  13.904
   8223SM  H12F10961   4.001   5.187  13.942
   8223SM  H12G10962   4.174   5.222  13.866
   8223SM  C13F10963   4.177   5.055  14.025
   8223SM  H13F10964   4.267   4.983  13.988
   8223SM  H13G10965   4.092   4.983  14.073
   8223SM  C14F10966   4.238   5.163  14.129
   8223SM  H14F10967   4.157   5.254  14.134
   8223SM  H14G10968   4.343   5.211  14.088
   8223SM  C15F10969   4.267   5.109  14.274
   8223SM  H15F10970   4.321   5.201  14.329
   8223SM  H15G10971   4.346   5.016  14.273
   8223SM  C16F10972   4.127   5.068  14.354
   8223SM  H16F10973   4.082   4.966  14.307
   8223SM  H16G10974   4.043   5.155  14.341
   8223SM  C17F10975   4.150   5.035  14.505
   8223SM  H17F10976   4.236   4.947  14.510
   8223SM  H17G10977   4.047   4.987  14.546
   8223SM  C18F10978   4.201   5.159  14.601
   8223SM  H18F10979   4.296   5.220  14.557
   8223SM  H18G10980   4.245   5.103  14.692
   8223SM  C19F10981   4.079   5.263  14.653
   8223SM  H19F10982   3.995   5.195  14.705
   8223SM  H19G10983   4.024   5.315  14.565
   8223SM  C20F10984   4.125   5.388  14.751
   8223SM  H20F10985   4.021   5.436  14.791
   8223SM  H20G10986   4.181   5.478  14.697
   8223SM  C21F10987   4.219   5.339  14.872
   8223SM  H21F10988   4.320   5.282  14.840
   8223SM  H21G10989   4.153   5.257  14.928
   8223SM  C22F10990   4.263   5.466  14.968
   8223SM  H22F10991   4.162   5.532  14.986
   8223SM  H22G10992   4.341   5.545  14.925
   8223SM  C23F10993   4.328   5.418  15.102
   8223SM  H23F10994   4.267   5.322  15.138
   8223SM  H23G10995   4.319   5.506  15.179
   8223SM  H23H10996   4.445   5.383  15.091
   8323SM     N10997   5.298   5.016  12.181
   8323SM   C1510998   5.408   5.137  12.161
   8323SM  H15A10999   5.358   5.235  12.117
   8323SM  H15B11000   5.495   5.103  12.093
   8323SM  H15C11001   5.462   5.166  12.255
   8323SM   C1411002   5.236   4.970  12.050
   8323SM  H14A11003   5.183   5.059  11.997
   8323SM  H14B11004   5.156   4.881  12.057
   8323SM  H14C11005   5.324   4.930  11.987
   8323SM   C1311006   5.372   4.885  12.240
   8323SM  H13A11007   5.456   4.839  12.176
   8323SM  H13B11008   5.291   4.800  12.259
   8323SM  H13C11009   5.420   4.914  12.337
   8323SM   C1211010   5.178   5.062  12.279
   8323SM  H12A11011   5.102   4.971  12.292
   8323SM  H12B11012   5.114   5.151  12.238
   8323SM   C1111013   5.229   5.105  12.421
   8323SM  H11A11014   5.139   5.166  12.473
   8323SM  H11B11015   5.323   5.183  12.415
   8323SM     P11016   5.158   4.883  12.569
   8323SM   O1311017   5.023   4.871  12.489
   8323SM   O1411018   5.217   4.738  12.609
   8323SM   O1111019   5.122   4.975  12.698
   8323SM   O1211020   5.277   4.978  12.491
   8323SM   C1S11021   5.236   5.046  12.772
   8323SM   H1S11022   5.191   5.149  12.815
   8323SM   H1T11023   5.326   5.084  12.705
   8323SM    NF11024   5.389   4.832  12.844
   8323SM   HNF11025   5.342   4.737  12.821
   8323SM   C2S11026   5.297   4.952  12.892
   8323SM   H2S11027   5.365   5.025  12.957
   8323SM   C3S11028   5.165   4.898  12.977
   8323SM   H3S11029   5.092   4.826  12.916
   8323SM    O311030   5.080   5.022  13.020
   8323SM   HO311031   5.101   5.101  12.959
   8323SM   C4S11032   5.205   4.821  13.105
   8323SM   H4S11033   5.288   4.881  13.165
   8323SM   C5S11034   5.146   4.695  13.151
   8323SM   H5S11035   5.059   4.641  13.091
   8323SM   C6S11036   5.182   4.618  13.280
   8323SM   H6S11037   5.284   4.551  13.271
   8323SM   H6T11038   5.092   4.537  13.300
   8323SM   C7S11039   5.189   4.719  13.405
   8323SM   H7S11040   5.088   4.788  13.409
   8323SM   H7T11041   5.284   4.794  13.400
   8323SM   C8S11042   5.195   4.626  13.533
   8323SM   H8S11043   5.289   4.547  13.523
   8323SM   H8T11044   5.092   4.560  13.537
   8323SM   C9S11045   5.207   4.704  13.669
   8323SM   H9S11046   5.112   4.777  13.686
   8323SM   H9T11047   5.307   4.774  13.670
   8323SM  C10S11048   5.212   4.585  13.779
   8323SM  H10S11049   5.266   4.485  13.737
   8323SM  H10T11050   5.095   4.562  13.800
   8323SM  C11S11051   5.290   4.617  13.912
   8323SM  H11S11052   5.240   4.717  13.957
   8323SM  H11T11053   5.408   4.634  13.892
   8323SM  C12S11054   5.281   4.496  14.019
   8323SM  H12S11055   5.328   4.390  13.983
   8323SM  H12T11056   5.161   4.489  14.036
   8323SM  C13S11057   5.335   4.534  14.159
   8323SM  H13S11058   5.270   4.635  14.180
   8323SM  H13T11059   5.455   4.557  14.161
   8323SM  C14S11060   5.291   4.425  14.270
   8323SM  H14S11061   5.342   4.316  14.252
   8323SM  H14T11062   5.170   4.412  14.265
   8323SM  C15S11063   5.323   4.476  14.415
   8323SM  H15S11064   5.267   4.397  14.483
   8323SM  H15T11065   5.272   4.586  14.433
   8323SM  C16S11066   5.486   4.481  14.455
   8323SM  H16S11067   5.538   4.577  14.404
   8323SM  H16T11068   5.543   4.379  14.421
   8323SM  C17S11069   5.507   4.497  14.607
   8323SM  H17S11070   5.472   4.392  14.656
   8323SM  H17T11071   5.431   4.585  14.643
   8323SM  C18S11072   5.663   4.535  14.652
   8323SM  H18S11073   5.708   4.628  14.594
   8323SM  H18T11074   5.737   4.440  14.640
   8323SM  H18U11075   5.663   4.567  14.759
   8323SM   C1F11076   5.524   4.875  12.805
   8323SM    OF11077   5.554   5.005  12.789
   8323SM   C2F11078   5.645   4.766  12.792
   8323SM   H2F11079   5.730   4.816  12.726
   8323SM   H2G11080   5.609   4.661  12.748
   8323SM   C3F11081   5.716   4.745  12.930
   8323SM   H3F11082   5.737   4.855  12.977
   8323SM   H3G11083   5.826   4.695  12.918
   8323SM   C4F11084   5.625   4.651  13.026
   8323SM   H4F11085   5.619   4.539  12.982
   8323SM   H4G11086   5.511   4.693  13.039
   8323SM   C5F11087   5.698   4.643  13.163
   8323SM   H5F11088   5.820   4.650  13.152
   8323SM   H5G11089   5.675   4.534  13.207
   8323SM   C6F11090   5.646   4.760  13.264
   8323SM   H6F11091   5.568   4.839  13.219
   8323SM   H6G11092   5.745   4.822  13.295
   8323SM   C7F11093   5.578   4.687  13.389
   8323SM   H7F11094   5.636   4.584  13.411
   8323SM   H7G11095   5.464   4.654  13.367
   8323SM   C8F11096   5.590   4.775  13.518
   8323SM   H8F11097   5.510   4.866  13.516
   8323SM   H8G11098   5.705   4.818  13.524
   8323SM   C9F11099   5.579   4.683  13.645
   8323SM   H9F11100   5.666   4.597  13.639
   8323SM   H9G11101   5.475   4.621  13.650
   8323SM  C10F11102   5.609   4.771  13.774
   8323SM  H10F11103   5.729   4.793  13.766
   8323SM  H10G11104   5.602   4.703  13.864
   8323SM  C11F11105   5.532   4.923  13.792
   8323SM  H11F11106   5.496   4.971  13.696
   8323SM  H11G11107   5.619   4.996  13.829
   8323SM  C12F11108   5.413   4.948  13.900
   8323SM  H12F11109   5.305   4.903  13.868
   8323SM  H12G11110   5.394   5.069  13.904
   8323SM  C13F11111   5.455   4.897  14.042
   8323SM  H13F11112   5.559   4.951  14.072
   8323SM  H13G11113   5.477   4.778  14.043
   8323SM  C14F11114   5.335   4.930  14.147
   8323SM  H14F11115   5.229   4.882  14.113
   8323SM  H14G11116   5.319   5.051  14.154
   8323SM  C15F11117   5.369   4.871  14.288
   8323SM  H15F11118   5.394   4.752  14.287
   8323SM  H15G11119   5.273   4.886  14.355
   8323SM  C16F11120   5.508   4.934  14.350
   8323SM  H16F11121   5.557   5.015  14.281
   8323SM  H16G11122   5.589   4.842  14.361
   8323SM  C17F11123   5.479   5.002  14.486
   8323SM  H17F11124   5.386   5.080  14.481
   8323SM  H17G11125   5.580   5.066  14.511
   8323SM  C18F11126   5.457   4.888  14.597
   8323SM  H18F11127   5.551   4.810  14.588
   8323SM  H18G11128   5.354   4.826  14.584
   8323SM  C19F11129   5.468   4.956  14.738
   8323SM  H19F11130   5.570   5.019  14.740
   8323SM  H19G11131   5.481   4.865  14.813
   8323SM  C20F11132   5.346   5.062  14.781
   8323SM  H20F11133   5.236   5.010  14.775
   8323SM  H20G11134   5.339   5.154  14.708
   8323SM  C21F11135   5.376   5.127  14.921
   8323SM  H21F11136   5.279   5.195  14.947
   8323SM  H21G11137   5.472   5.202  14.910
   8323SM  C22F11138   5.418   5.028  15.043
   8323SM  H22F11139   5.535   4.998  15.032
   8323SM  H22G11140   5.358   4.924  15.051
   8323SM  C23F11141   5.391   5.101  15.179
   8323SM  H23F11142   5.491   5.161  15.210
   8323SM  H23G11143   5.368   5.019  15.258
   8323SM  H23H11144   5.297   5.179  15.176
   8423SM     N11145   4.631   2.506  12.183
   8423SM   C1511146   4.494   2.417  12.175
   8423SM  H15A11147   4.412   2.463  12.108
   8423SM  H15B11148   4.445   2.413  12.276
   8423SM  H15C11149   4.518   2.305  12.147
   8423SM   C1411150   4.734   2.435  12.282
   8423SM  H14A11151   4.688   2.443  12.383
   8423SM  H14B11152   4.839   2.490  12.289
   8423SM  H14C11153   4.756   2.321  12.261
   8423SM   C1311154   4.705   2.516  12.050
   8423SM  H13A11155   4.748   2.410  12.021
   8423SM  H13B11156   4.797   2.593  12.055
   8423SM  H13C11157   4.627   2.555  11.976
   8423SM   C1211158   4.596   2.661  12.230
   8423SM  H12A11159   4.544   2.718  12.147
   8423SM  H12B11160   4.698   2.718  12.251
   8423SM   C1111161   4.498   2.683  12.355
   8423SM  H11A11162   4.382   2.654  12.328
   8423SM  H11B11163   4.497   2.803  12.382
   8423SM     P11164   4.654   2.639  12.578
   8423SM   O1311165   4.784   2.541  12.575
   8423SM   O1411166   4.684   2.798  12.574
   8423SM   O1111167   4.558   2.603  12.705
   8423SM   O1211168   4.541   2.594  12.464
   8423SM   C1S11169   4.475   2.713  12.771
   8423SM   H1S11170   4.358   2.709  12.735
   8423SM   H1T11171   4.517   2.826  12.752
   8423SM    NF11172   4.639   2.676  12.963
   8423SM   HNF11173   4.683   2.576  12.960
   8423SM   C2S11174   4.485   2.687  12.924
   8423SM   H2S11175   4.433   2.786  12.972
   8423SM   C3S11176   4.397   2.550  12.968
   8423SM   H3S11177   4.454   2.450  12.934
   8423SM    O311178   4.250   2.547  12.915
   8423SM   HO311179   4.254   2.611  12.840
   8423SM   C4S11180   4.391   2.555  13.118
   8423SM   H4S11181   4.328   2.649  13.158
   8423SM   C5S11182   4.456   2.462  13.204
   8423SM   H5S11183   4.520   2.368  13.163
   8423SM   C6S11184   4.452   2.469  13.355
   8423SM   H6S11185   4.567   2.471  13.392
   8423SM   H6T11186   4.401   2.368  13.395
   8423SM   C7S11187   4.375   2.604  13.419
   8423SM   H7S11188   4.254   2.595  13.406
   8423SM   H7T11189   4.412   2.706  13.367
   8423SM   C8S11190   4.412   2.625  13.568
   8423SM   H8S11191   4.366   2.731  13.603
   8423SM   H8T11192   4.534   2.633  13.577
   8423SM   C9S11193   4.359   2.504  13.663
   8423SM   H9S11194   4.388   2.394  13.623
   8423SM   H9T11195   4.237   2.509  13.672
   8423SM  C10S11196   4.430   2.522  13.801
   8423SM  H10S11197   4.409   2.637  13.838
   8423SM  H10T11198   4.551   2.509  13.792
   8423SM  C11S11199   4.375   2.412  13.905
   8423SM  H11S11200   4.392   2.298  13.867
   8423SM  H11T11201   4.254   2.428  13.917
   8423SM  C12S11202   4.451   2.429  14.041
   8423SM  H12S11203   4.444   2.544  14.075
   8423SM  H12T11204   4.568   2.398  14.034
   8423SM  C13S11205   4.372   2.330  14.142
   8423SM  H13S11206   4.379   2.213  14.106
   8423SM  H13T11207   4.255   2.363  14.138
   8423SM  C14S11208   4.422   2.336  14.288
   8423SM  H14S11209   4.409   2.451  14.326
   8423SM  H14T11210   4.540   2.307  14.296
   8423SM  C15S11211   4.323   2.232  14.368
   8423SM  H15S11212   4.314   2.124  14.316
   8423SM  H15T11213   4.214   2.285  14.368
   8423SM  C16S11214   4.355   2.207  14.516
   8423SM  H16S11215   4.438   2.122  14.526
   8423SM  H16T11216   4.255   2.158  14.564
   8423SM  C17S11217   4.398   2.345  14.592
   8423SM  H17S11218   4.321   2.437  14.566
   8423SM  H17T11219   4.510   2.379  14.559
   8423SM  C18S11220   4.397   2.319  14.742
   8423SM  H18S11221   4.476   2.231  14.768
   8423SM  H18T11222   4.286   2.283  14.775
   8423SM  H18U11223   4.428   2.421  14.797
   8423SM   C1F11224   4.718   2.798  12.962
   8423SM    OF11225   4.656   2.918  12.956
   8423SM   C2F11226   4.881   2.784  12.976
   8423SM   H2F11227   4.938   2.849  12.899
   8423SM   H2G11228   4.915   2.668  12.966
   8423SM   C3F11229   4.924   2.842  13.115
   8423SM   H3F11230   4.885   2.958  13.125
   8423SM   H3G11231   5.045   2.844  13.125
   8423SM   C4F11232   4.853   2.749  13.225
   8423SM   H4F11233   4.863   2.631  13.195
   8423SM   H4G11234   4.733   2.773  13.233
   8423SM   C5F11235   4.927   2.765  13.361
   8423SM   H5F11236   4.899   2.873  13.406
   8423SM   H5G11237   5.048   2.757  13.351
   8423SM   C6F11238   4.873   2.642  13.453
   8423SM   H6F11239   4.905   2.533  13.411
   8423SM   H6G11240   4.750   2.644  13.456
   8423SM   C7F11241   4.931   2.655  13.595
   8423SM   H7F11242   4.904   2.764  13.638
   8423SM   H7G11243   5.053   2.643  13.593
   8423SM   C8F11244   4.869   2.533  13.683
   8423SM   H8F11245   4.886   2.425  13.631
   8423SM   H8G11246   4.748   2.549  13.694
   8423SM   C9F11247   4.942   2.526  13.820
   8423SM   H9F11248   4.913   2.625  13.880
   8423SM   H9G11249   5.063   2.529  13.804
   8423SM  C10F11250   4.904   2.385  13.896
   8423SM  H10F11251   4.920   2.289  13.828
   8423SM  H10G11252   4.786   2.386  13.925
   8423SM  C11F11253   5.001   2.363  14.020
   8423SM  H11F11254   5.118   2.366  13.990
   8423SM  H11G11255   4.979   2.252  14.062
   8423SM  C12F11256   4.973   2.477  14.129
   8423SM  H12F11257   4.852   2.488  14.146
   8423SM  H12G11258   5.016   2.585  14.095
   8423SM  C13F11259   5.049   2.435  14.260
   8423SM  H13F11260   5.166   2.407  14.237
   8423SM  H13G11261   4.997   2.335  14.304
   8423SM  C14F11262   5.048   2.559  14.363
   8423SM  H14F11263   5.103   2.657  14.319
   8423SM  H14G11264   5.114   2.521  14.450
   8423SM  C15F11265   4.896   2.605  14.415
   8423SM  H15F11266   4.841   2.508  14.461
   8423SM  H15G11267   4.826   2.644  14.330
   8423SM  C16F11268   4.914   2.729  14.518
   8423SM  H16F11269   4.971   2.823  14.468
   8423SM  H16G11270   4.986   2.692  14.600
   8423SM  C17F11271   4.770   2.789  14.579
   8423SM  H17F11272   4.703   2.837  14.496
   8423SM  H17G11273   4.798   2.880  14.649
   8423SM  C18F11274   4.676   2.674  14.652
   8423SM  H18F11275   4.655   2.578  14.585
   8423SM  H18G11276   4.567   2.724  14.675
   8423SM  C19F11277   4.743   2.618  14.784
   8423SM  H19F11278   4.855   2.575  14.769
   8423SM  H19G11279   4.674   2.523  14.816
   8423SM  C20F11280   4.741   2.735  14.895
   8423SM  H20F11281   4.642   2.804  14.879
   8423SM  H20G11282   4.839   2.807  14.890
   8423SM  C21F11283   4.726   2.668  15.036
   8423SM  H21F11284   4.673   2.558  15.028
   8423SM  H21G11285   4.648   2.736  15.095
   8423SM  C22F11286   4.869   2.653  15.116
   8423SM  H22F11287   4.930   2.757  15.126
   8423SM  H22G11288   4.947   2.581  15.062
   8423SM  C23F11289   4.832   2.595  15.255
   8423SM  H23F11290   4.919   2.522  15.297
   8423SM  H23G11291   4.730   2.529  15.249
   8423SM  H23H11292   4.809   2.687  15.324
   8523SM     N11293   6.530   3.968  12.342
   8523SM   C1511294   6.381   4.003  12.283
   8523SM  H15A11295   6.353   4.117  12.304
   8523SM  H15B11296   6.294   3.934  12.323
   8523SM  H15C11297   6.380   3.990  12.175
   8523SM   C1411298   6.516   3.964  12.491
   8523SM  H14A11299   6.420   3.903  12.523
   8523SM  H14B11300   6.501   4.076  12.528
   8523SM  H14C11301   6.613   3.918  12.539
   8523SM   C1311302   6.575   3.818  12.293
   8523SM  H13A11303   6.569   3.808  12.186
   8523SM  H13B11304   6.500   3.736  12.333
   8523SM  H13C11305   6.685   3.792  12.328
   8523SM   C1211306   6.634   4.089  12.299
   8523SM  H12A11307   6.616   4.113  12.194
   8523SM  H12B11308   6.746   4.049  12.308
   8523SM   C1111309   6.623   4.239  12.372
   8523SM  H11A11310   6.702   4.316  12.322
   8523SM  H11B11311   6.658   4.227  12.479
   8523SM     P11312   6.442   4.460  12.401
   8523SM   O1311313   6.527   4.561  12.314
   8523SM   O1411314   6.280   4.479  12.404
   8523SM   O1111315   6.507   4.474  12.550
   8523SM   O1211316   6.477   4.294  12.363
   8523SM   C1S11317   6.392   4.451  12.647
   8523SM   H1S11318   6.335   4.345  12.625
   8523SM   H1T11319   6.310   4.542  12.646
   8523SM    NF11320   6.314   4.410  12.872
   8523SM   HNF11321   6.274   4.495  12.925
   8523SM   C2S11322   6.445   4.434  12.793
   8523SM   H2S11323   6.518   4.336  12.800
   8523SM   C3S11324   6.533   4.569  12.839
   8523SM   H3S11325   6.458   4.664  12.831
   8523SM    O311326   6.663   4.594  12.762
   8523SM   HO311327   6.634   4.561  12.673
   8523SM   C4S11328   6.576   4.552  12.985
   8523SM   H4S11329   6.625   4.446  13.011
   8523SM   C5S11330   6.552   4.655  13.079
   8523SM   H5S11331   6.503   4.760  13.045
   8523SM   C6S11332   6.590   4.648  13.226
   8523SM   H6S11333   6.488   4.645  13.286
   8523SM   H6T11334   6.653   4.749  13.254
   8523SM   C7S11335   6.686   4.518  13.275
   8523SM   H7S11336   6.780   4.500  13.207
   8523SM   H7T11337   6.616   4.418  13.270
   8523SM   C8S11338   6.747   4.535  13.419
   8523SM   H8S11339   6.833   4.622  13.416
   8523SM   H8T11340   6.804   4.432  13.449
   8523SM   C9S11341   6.632   4.576  13.526
   8523SM   H9S11342   6.553   4.484  13.537
   8523SM   H9T11343   6.569   4.674  13.492
   8523SM  C10S11344   6.696   4.617  13.664
   8523SM  H10S11345   6.773   4.711  13.654
   8523SM  H10T11346   6.761   4.522  13.704
   8523SM  C11S11347   6.573   4.657  13.763
   8523SM  H11S11348   6.491   4.566  13.759
   8523SM  H11T11349   6.515   4.757  13.725
   8523SM  C12S11350   6.621   4.684  13.909
   8523SM  H12S11351   6.717   4.760  13.909
   8523SM  H12T11352   6.661   4.578  13.951
   8523SM  C13S11353   6.498   4.748  14.002
   8523SM  H13S11354   6.392   4.697  13.972
   8523SM  H13T11355   6.487   4.868  13.984
   8523SM  C14S11356   6.521   4.718  14.153
   8523SM  H14S11357   6.586   4.804  14.201
   8523SM  H14T11358   6.588   4.618  14.161
   8523SM  C15S11359   6.381   4.710  14.242
   8523SM  H15S11360   6.321   4.609  14.226
   8523SM  H15T11361   6.301   4.796  14.214
   8523SM  C16S11362   6.406   4.695  14.394
   8523SM  H16S11363   6.423   4.805  14.437
   8523SM  H16T11364   6.510   4.635  14.413
   8523SM  C17S11365   6.278   4.613  14.465
   8523SM  H17S11366   6.268   4.499  14.434
   8523SM  H17T11367   6.172   4.661  14.430
   8523SM  C18S11368   6.282   4.606  14.618
   8523SM  H18S11369   6.327   4.707  14.661
   8523SM  H18T11370   6.351   4.513  14.655
   8523SM  H18U11371   6.169   4.588  14.655
   8523SM   C1F11372   6.247   4.281  12.866
   8523SM    OF11373   6.292   4.182  12.795
   8523SM   C2F11374   6.122   4.257  12.954
   8523SM   H2F11375   6.028   4.210  12.898
   8523SM   H2G11376   6.084   4.358  13.005
   8523SM   C3F11377   6.178   4.141  13.053
   8523SM   H3F11378   6.248   4.055  13.007
   8523SM   H3G11379   6.079   4.082  13.087
   8523SM   C4F11380   6.258   4.214  13.169
   8523SM   H4F11381   6.205   4.181  13.263
   8523SM   H4G11382   6.248   4.336  13.165
   8523SM   C5F11383   6.418   4.171  13.185
   8523SM   H5F11384   6.488   4.240  13.118
   8523SM   H5G11385   6.438   4.055  13.157
   8523SM   C6F11386   6.463   4.192  13.331
   8523SM   H6F11387   6.403   4.289  13.374
   8523SM   H6G11388   6.582   4.216  13.335
   8523SM   C7F11389   6.436   4.060  13.422
   8523SM   H7F11390   6.507   3.967  13.390
   8523SM   H7G11391   6.321   4.023  13.418
   8523SM   C8F11392   6.474   4.099  13.567
   8523SM   H8F11393   6.449   4.000  13.629
   8523SM   H8G11394   6.399   4.188  13.601
   8523SM   C9F11395   6.633   4.149  13.582
   8523SM   H9F11396   6.634   4.271  13.580
   8523SM   H9G11397   6.697   4.112  13.493
   8523SM  C10F11398   6.717   4.094  13.705
   8523SM  H10F11399   6.802   4.177  13.730
   8523SM  H10G11400   6.774   3.990  13.679
   8523SM  C11F11401   6.619   4.066  13.827
   8523SM  H11F11402   6.576   3.952  13.819
   8523SM  H11G11403   6.522   4.139  13.822
   8523SM  C12F11404   6.701   4.089  13.959
   8523SM  H12F11405   6.749   4.202  13.958
   8523SM  H12G11406   6.794   4.010  13.965
   8523SM  C13F11407   6.607   4.073  14.085
   8523SM  H13F11408   6.520   4.157  14.082
   8523SM  H13G11409   6.674   4.093  14.177
   8523SM  C14F11410   6.524   3.928  14.098
   8523SM  H14F11411   6.597   3.852  14.152
   8523SM  H14G11412   6.507   3.884  13.997
   8523SM  C15F11413   6.372   3.939  14.169
   8523SM  H15F11414   6.309   3.838  14.152
   8523SM  H15G11415   6.310   4.029  14.121
   8523SM  C16F11416   6.394   3.967  14.319
   8523SM  H16F11417   6.463   4.066  14.322
   8523SM  H16G11418   6.467   3.878  14.355
   8523SM  C17F11419   6.259   3.981  14.414
   8523SM  H17F11420   6.201   3.873  14.415
   8523SM  H17G11421   6.182   4.066  14.374
   8523SM  C18F11422   6.294   4.025  14.561
   8523SM  H18F11423   6.300   4.146  14.569
   8523SM  H18G11424   6.404   3.984  14.589
   8523SM  C19F11425   6.180   3.983  14.667
   8523SM  H19F11426   6.235   3.938  14.758
   8523SM  H19G11427   6.106   3.897  14.626
   8523SM  C20F11428   6.091   4.122  14.705
   8523SM  H20F11429   6.037   4.161  14.612
   8523SM  H20G11430   6.170   4.209  14.738
   8523SM  C21F11431   5.972   4.107  14.813
   8523SM  H21F11432   6.023   4.111  14.915
   8523SM  H21G11433   5.918   3.999  14.802
   8523SM  C22F11434   5.854   4.228  14.799
   8523SM  H22F11435   5.805   4.215  14.698
   8523SM  H22G11436   5.909   4.338  14.801
   8523SM  C23F11437   5.731   4.224  14.903
   8523SM  H23F11438   5.653   4.135  14.883
   8523SM  H23G11439   5.663   4.325  14.897
   8523SM  H23H11440   5.774   4.210  15.005
   8623SM     N11441   4.114   1.821  12.187
   8623SM   C1511442   3.955   1.818  12.223
   8623SM  H15A11443   3.920   1.711  12.258
   8623SM  H15B11444   3.885   1.855  12.142
   8623SM  H15C11445   3.937   1.890  12.310
   8623SM   C1411446   4.141   1.716  12.073
   8623SM  H14A11447   4.134   1.602  12.102
   8623SM  H14B11448   4.249   1.731  12.029
   8623SM  H14C11449   4.063   1.733  11.994
   8623SM   C1311450   4.148   1.972  12.137
   8623SM  H13A11451   4.110   2.054  12.208
   8623SM  H13B11452   4.093   1.993  12.041
   8623SM  H13C11453   4.263   1.990  12.120
   8623SM   C1211454   4.201   1.775  12.310
   8623SM  H12A11455   4.314   1.756  12.284
   8623SM  H12B11456   4.158   1.671  12.348
   8623SM   C1111457   4.198   1.880  12.433
   8623SM  H11A11458   4.234   1.991  12.402
   8623SM  H11B11459   4.278   1.840  12.509
   8623SM     P11460   3.984   1.756  12.573
   8623SM   O1311461   3.826   1.752  12.540
   8623SM   O1411462   4.074   1.624  12.544
   8623SM   O1111463   4.004   1.806  12.724
   8623SM   O1211464   4.052   1.889  12.489
   8623SM   C1S11465   4.006   1.960  12.751
   8623SM   H1S11466   3.896   2.008  12.728
   8623SM   H1T11467   4.090   2.019  12.689
   8623SM    NF11468   4.192   1.935  12.926
   8623SM   HNF11469   4.195   1.827  12.935
   8623SM   C2S11470   4.048   1.998  12.898
   8623SM   H2S11471   4.054   2.120  12.908
   8623SM   C3S11472   3.930   1.943  12.997
   8623SM   H3S11473   3.914   1.823  12.995
   8623SM    O311474   3.792   2.006  12.964
   8623SM   HO311475   3.796   2.021  12.869
   8623SM   C4S11476   3.974   1.994  13.134
   8623SM   H4S11477   3.934   2.103  13.163
   8623SM   C5S11478   4.059   1.918  13.220
   8623SM   H5S11479   4.101   1.808  13.192
   8623SM   C6S11480   4.104   1.971  13.356
   8623SM   H6S11481   4.039   2.068  13.390
   8623SM   H6T11482   4.222   2.005  13.353
   8623SM   C7S11483   4.090   1.846  13.457
   8623SM   H7S11484   4.149   1.746  13.420
   8623SM   H7T11485   3.972   1.817  13.469
   8623SM   C8S11486   4.155   1.884  13.594
   8623SM   H8S11487   4.268   1.926  13.580
   8623SM   H8T11488   4.160   1.783  13.656
   8623SM   C9S11489   4.058   1.998  13.665
   8623SM   H9S11490   3.946   1.949  13.676
   8623SM   H9T11491   4.048   2.099  13.604
   8623SM  C10S11492   4.115   2.039  13.803
   8623SM  H10S11493   4.222   2.098  13.795
   8623SM  H10T11494   4.136   1.936  13.860
   8623SM  C11S11495   4.000   2.134  13.875
   8623SM  H11S11496   3.890   2.082  13.861
   8623SM  H11T11497   3.997   2.245  13.829
   8623SM  C12S11498   4.028   2.145  14.024
   8623SM  H12S11499   4.140   2.189  14.039
   8623SM  H12T11500   4.030   2.033  14.065
   8623SM  C13S11501   3.916   2.237  14.104
   8623SM  H13S11502   3.808   2.181  14.106
   8623SM  H13T11503   3.902   2.346  14.056
   8623SM  C14S11504   3.979   2.255  14.245
   8623SM  H14S11505   4.069   2.336  14.236
   8623SM  H14T11506   4.026   2.146  14.275
   8623SM  C15S11507   3.882   2.308  14.360
   8623SM  H15S11508   3.767   2.270  14.341
   8623SM  H15T11509   3.883   2.431  14.363
   8623SM  C16S11510   3.934   2.242  14.495
   8623SM  H16S11511   4.047   2.199  14.485
   8623SM  H16T11512   3.863   2.145  14.516
   8623SM  C17S11513   3.933   2.344  14.617
   8623SM  H17S11514   3.848   2.432  14.603
   8623SM  H17T11515   4.039   2.401  14.623
   8623SM  C18S11516   3.898   2.263  14.749
   8623SM  H18S11517   3.994   2.202  14.788
   8623SM  H18T11518   3.809   2.180  14.732
   8623SM  H18U11519   3.859   2.340  14.827
   8623SM   C1F11520   4.309   2.003  12.879
   8623SM    OF11521   4.298   2.132  12.842
   8623SM   C2F11522   4.452   1.919  12.873
   8623SM   H2F11523   4.489   1.896  12.976
   8623SM   H2G11524   4.534   1.994  12.825
   8623SM   C3F11525   4.445   1.775  12.791
   8623SM   H3F11526   4.558   1.728  12.789
   8623SM   H3G11527   4.417   1.803  12.686
   8623SM   C4F11528   4.338   1.653  12.837
   8623SM   H4F11529   4.360   1.552  12.778
   8623SM   H4G11530   4.225   1.686  12.810
   8623SM   C5F11531   4.344   1.614  12.986
   8623SM   H5F11532   4.333   1.712  13.051
   8623SM   H5G11533   4.452   1.563  13.007
   8623SM   C6F11534   4.227   1.500  13.026
   8623SM   H6F11535   4.239   1.474  13.134
   8623SM   H6G11536   4.252   1.398  12.969
   8623SM   C7F11537   4.069   1.547  12.995
   8623SM   H7F11538   4.052   1.536  12.885
   8623SM   H7G11539   4.057   1.663  13.021
   8623SM   C8F11540   3.950   1.455  13.066
   8623SM   H8F11541   3.992   1.344  13.091
   8623SM   H8G11542   3.859   1.440  12.993
   8623SM   C9F11543   3.890   1.528  13.194
   8623SM   H9F11544   3.776   1.486  13.208
   8623SM   H9G11545   3.885   1.649  13.182
   8623SM  C10F11546   3.973   1.485  13.322
   8623SM  H10F11547   4.081   1.543  13.325
   8623SM  H10G11548   3.999   1.366  13.318
   8623SM  C11F11549   3.882   1.517  13.448
   8623SM  H11F11550   3.786   1.440  13.452
   8623SM  H11G11551   3.837   1.630  13.439
   8623SM  C12F11552   3.967   1.508  13.581
   8623SM  H12F11553   4.077   1.558  13.569
   8623SM  H12G11554   3.983   1.390  13.610
   8623SM  C13F11555   3.883   1.588  13.694
   8623SM  H13F11556   3.769   1.543  13.695
   8623SM  H13G11557   3.875   1.707  13.669
   8623SM  C14F11558   3.946   1.570  13.835
   8623SM  H14F11559   4.056   1.623  13.844
   8623SM  H14G11560   3.961   1.450  13.853
   8623SM  C15F11561   3.842   1.631  13.944
   8623SM  H15F11562   3.853   1.561  14.034
   8623SM  H15G11563   3.726   1.621  13.912
   8623SM  C16F11564   3.875   1.790  13.989
   8623SM  H16F11565   3.818   1.863  13.917
   8623SM  H16G11566   3.995   1.809  13.979
   8623SM  C17F11567   3.829   1.827  14.133
   8623SM  H17F11568   3.732   1.761  14.162
   8623SM  H17G11569   3.795   1.945  14.137
   8623SM  C18F11570   3.955   1.808  14.236
   8623SM  H18F11571   4.045   1.889  14.217
   8623SM  H18G11572   4.006   1.699  14.222
   8623SM  C19F11573   3.907   1.826  14.382
   8623SM  H19F11574   3.814   1.753  14.405
   8623SM  H19G11575   3.870   1.942  14.398
   8623SM  C20F11576   4.036   1.791  14.478
   8623SM  H20F11577   4.137   1.845  14.438
   8623SM  H20G11578   4.056   1.670  14.478
   8623SM  C21F11579   4.014   1.845  14.622
   8623SM  H21F11580   3.994   1.966  14.621
   8623SM  H21G11581   4.117   1.826  14.679
   8623SM  C22F11582   3.887   1.769  14.695
   8623SM  H22F11583   3.906   1.648  14.696
   8623SM  H22G11584   3.783   1.790  14.640
   8623SM  C23F11585   3.870   1.825  14.838
   8623SM  H23F11586   3.964   1.790  14.901
   8623SM  H23G11587   3.767   1.782  14.885
   8623SM  H23H11588   3.867   1.947  14.839
   8723SM     N11589   4.941   1.827  12.180
   8723SM   C1511590   4.953   1.992  12.177
   8723SM  H15A11591   5.053   2.028  12.126
   8723SM  H15B11592   4.961   2.036  12.279
   8723SM  H15C11593   4.862   2.043  12.127
   8723SM   C1411594   4.811   1.785  12.263
   8723SM  H14A11595   4.811   1.669  12.286
   8723SM  H14B11596   4.707   1.821  12.224
   8723SM  H14C11597   4.825   1.838  12.362
   8723SM   C1311598   4.924   1.772  12.040
   8723SM  H13A11599   5.023   1.786  11.980
   8723SM  H13B11600   4.838   1.833  11.989
   8723SM  H13C11601   4.895   1.657  12.037
   8723SM   C1211602   5.078   1.767  12.250
   8723SM  H12A11603   5.173   1.784  12.187
   8723SM  H12B11604   5.062   1.649  12.264
   8723SM   C1111605   5.116   1.830  12.390
   8723SM  H11A11606   5.145   1.948  12.378
   8723SM  H11B11607   5.218   1.775  12.428
   8723SM     P11608   4.963   1.668  12.558
   8723SM   O1311609   4.805   1.679  12.591
   8723SM   O1411610   5.010   1.547  12.467
   8723SM   O1111611   5.064   1.689  12.687
   8723SM   O1211612   4.998   1.818  12.485
   8723SM   C1S11613   5.038   1.821  12.764
   8723SM   H1S11614   4.919   1.851  12.766
   8723SM   H1T11615   5.101   1.912  12.718
   8723SM    NF11616   4.950   1.772  12.993
   8723SM   HNF11617   4.902   1.852  13.044
   8723SM   C2S11618   5.081   1.809  12.916
   8723SM   H2S11619   5.166   1.722  12.929
   8723SM   C3S11620   5.149   1.959  12.965
   8723SM   H3S11621   5.069   2.048  12.942
   8723SM    O311622   5.283   2.005  12.904
   8723SM   HO311623   5.310   1.926  12.845
   8723SM   C4S11624   5.168   1.948  13.115
   8723SM   H4S11625   5.214   1.841  13.146
   8723SM   C5S11626   5.134   2.047  13.211
   8723SM   H5S11627   5.094   2.157  13.183
   8723SM   C6S11628   5.156   2.019  13.359
   8723SM   H6S11629   5.107   2.110  13.418
   8723SM   H6T11630   5.276   2.015  13.383
   8723SM   C7S11631   5.082   1.874  13.407
   8723SM   H7S11632   5.108   1.783  13.337
   8723SM   H7T11633   4.960   1.889  13.407
   8723SM   C8S11634   5.133   1.823  13.546
   8723SM   H8S11635   5.244   1.869  13.561
   8723SM   H8T11636   5.143   1.701  13.542
   8723SM   C9S11637   5.032   1.858  13.665
   8723SM   H9S11638   4.937   1.784  13.651
   8723SM   H9T11639   4.994   1.973  13.662
   8723SM  C10S11640   5.100   1.822  13.802
   8723SM  H10S11641   5.169   1.916  13.834
   8723SM  H10T11642   5.171   1.723  13.791
   8723SM  C11S11643   4.986   1.783  13.910
   8723SM  H11S11644   4.928   1.681  13.881
   8723SM  H11T11645   4.905   1.873  13.917
   8723SM  C12S11646   5.053   1.759  14.050
   8723SM  H12S11647   5.139   1.672  14.048
   8723SM  H12T11648   4.965   1.722  14.120
   8723SM  C13S11649   5.119   1.900  14.106
   8723SM  H13S11650   5.042   1.993  14.091
   8723SM  H13T11651   5.222   1.928  14.051
   8723SM  C14S11652   5.156   1.885  14.254
   8723SM  H14S11653   5.231   1.790  14.272
   8723SM  H14T11654   5.056   1.870  14.316
   8723SM  C15S11655   5.231   2.026  14.295
   8723SM  H15S11656   5.158   2.123  14.279
   8723SM  H15T11657   5.331   2.039  14.230
   8723SM  C16S11658   5.282   2.027  14.437
   8723SM  H16S11659   5.354   1.932  14.454
   8723SM  H16T11660   5.191   2.022  14.511
   8723SM  C17S11661   5.372   2.167  14.450
   8723SM  H17S11662   5.297   2.263  14.444
   8723SM  H17T11663   5.449   2.174  14.363
   8723SM  C18S11664   5.460   2.163  14.578
   8723SM  H18S11665   5.391   2.201  14.662
   8723SM  H18T11666   5.561   2.232  14.568
   8723SM  H18U11667   5.493   2.048  14.600
   8723SM   C1F11668   4.893   1.637  12.998
   8723SM    OF11669   4.965   1.529  12.968
   8723SM   C2F11670   4.737   1.626  13.045
   8723SM   H2F11671   4.667   1.612  12.954
   8723SM   H2G11672   4.703   1.729  13.095
   8723SM   C3F11673   4.709   1.494  13.140
   8723SM   H3F11674   4.731   1.390  13.083
   8723SM   H3G11675   4.591   1.491  13.169
   8723SM   C4F11676   4.803   1.494  13.269
   8723SM   H4F11677   4.919   1.471  13.242
   8723SM   H4G11678   4.765   1.403  13.335
   8723SM   C5F11679   4.796   1.638  13.351
   8723SM   H5F11680   4.840   1.729  13.288
   8723SM   H5G11681   4.870   1.627  13.439
   8723SM   C6F11682   4.640   1.679  13.398
   8723SM   H6F11683   4.589   1.584  13.450
   8723SM   H6G11684   4.573   1.699  13.307
   8723SM   C7F11685   4.632   1.816  13.487
   8723SM   H7F11686   4.522   1.869  13.477
   8723SM   H7G11687   4.716   1.896  13.448
   8723SM   C8F11688   4.663   1.790  13.636
   8723SM   H8F11689   4.723   1.888  13.674
   8723SM   H8G11690   4.734   1.692  13.649
   8723SM   C9F11691   4.529   1.770  13.728
   8723SM   H9F11692   4.475   1.663  13.703
   8723SM   H9G11693   4.446   1.859  13.710
   8723SM  C10F11694   4.573   1.771  13.877
   8723SM  H10F11695   4.674   1.704  13.889
   8723SM  H10G11696   4.484   1.719  13.937
   8723SM  C11F11697   4.603   1.926  13.931
   8723SM  H11F11698   4.503   1.995  13.921
   8723SM  H11G11699   4.692   1.978  13.870
   8723SM  C12F11700   4.655   1.928  14.078
   8723SM  H12F11701   4.748   1.850  14.090
   8723SM  H12G11702   4.564   1.890  14.144
   8723SM  C13F11703   4.707   2.082  14.121
   8723SM  H13F11704   4.610   2.156  14.127
   8723SM  H13G11705   4.780   2.126  14.041
   8723SM  C14F11706   4.791   2.086  14.254
   8723SM  H14F11707   4.822   2.202  14.274
   8723SM  H14G11708   4.892   2.020  14.246
   8723SM  C15F11709   4.699   2.031  14.372
   8723SM  H15F11710   4.635   1.932  14.345
   8723SM  H15G11711   4.620   2.121  14.393
   8723SM  C16F11712   4.783   1.998  14.502
   8723SM  H16F11713   4.873   2.079  14.518
   8723SM  H16G11714   4.831   1.887  14.499
   8723SM  C17F11715   4.665   2.011  14.611
   8723SM  H17F11716   4.568   1.943  14.583
   8723SM  H17G11717   4.633   2.131  14.610
   8723SM  C18F11718   4.705   1.983  14.756
   8723SM  H18F11719   4.633   2.053  14.819
   8723SM  H18G11720   4.816   2.026  14.770
   8723SM  C19F11721   4.685   1.825  14.807
   8723SM  H19F11722   4.744   1.750  14.739
   8723SM  H19G11723   4.567   1.797  14.799
   8723SM  C20F11724   4.735   1.815  14.954
   8723SM  H20F11725   4.675   1.905  15.004
   8723SM  H20G11726   4.854   1.840  14.958
   8723SM  C21F11727   4.703   1.673  15.033
   8723SM  H21F11728   4.718   1.575  14.969
   8723SM  H21G11729   4.585   1.679  15.060
   8723SM  C22F11730   4.788   1.647  15.166
   8723SM  H22F11731   4.772   1.530  15.196
   8723SM  H22G11732   4.740   1.714  15.248
   8723SM  C23F11733   4.952   1.680  15.158
   8723SM  H23F11734   5.000   1.617  15.074
   8723SM  H23G11735   5.012   1.646  15.251
   8723SM  H23H11736   4.974   1.799  15.141
   8823SM     N11737   1.968   2.548  12.197
   8823SM   C1511738   1.989   2.481  12.063
   8823SM  H15A11739   1.904   2.518  11.996
   8823SM  H15B11740   1.985   2.362  12.068
   8823SM  H15C11741   2.094   2.516  12.021
   8823SM   C1411742   2.085   2.492  12.290
   8823SM  H14A11743   2.080   2.374  12.302
   8823SM  H14B11744   2.066   2.538  12.390
   8823SM  H14C11745   2.193   2.529  12.261
   8823SM   C1311746   1.991   2.710  12.187
   8823SM  H13A11747   1.980   2.760  12.286
   8823SM  H13B11748   1.907   2.762  12.126
   8823SM  H13C11749   2.099   2.740  12.150
   8823SM   C1211750   1.816   2.515  12.256
   8823SM  H12A11751   1.799   2.397  12.262
   8823SM  H12B11752   1.731   2.562  12.192
   8823SM   C1111753   1.784   2.578  12.395
   8823SM  H11A11754   1.872   2.537  12.465
   8823SM  H11B11755   1.679   2.532  12.432
   8823SM     P11756   1.802   2.816  12.527
   8823SM   O1311757   1.942   2.763  12.586
   8823SM   O1411758   1.790   2.977  12.504
   8823SM   O1111759   1.662   2.759  12.611
   8823SM   O1211760   1.777   2.736  12.389
   8823SM   C1S11761   1.682   2.655  12.720
   8823SM   H1S11762   1.788   2.594  12.714
   8823SM   H1T11763   1.594   2.570  12.717
   8823SM    NF11764   1.702   2.615  12.964
   8823SM   HNF11765   1.615   2.574  13.014
   8823SM   C2S11766   1.670   2.726  12.862
   8823SM   H2S11767   1.756   2.814  12.869
   8823SM   C3S11768   1.516   2.797  12.888
   8823SM   H3S11769   1.428   2.713  12.883
   8823SM    O311770   1.472   2.904  12.791
   8823SM   HO311771   1.542   2.893  12.719
   8823SM   C4S11772   1.525   2.858  13.029
   8823SM   H4S11773   1.585   2.962  13.040
   8823SM   C5S11774   1.469   2.793  13.139
   8823SM   H5S11775   1.407   2.688  13.129
   8823SM   C6S11776   1.478   2.848  13.282
   8823SM   H6S11777   1.371   2.846  13.332
   8823SM   H6T11778   1.522   2.962  13.289
   8823SM   C7S11779   1.586   2.741  13.353
   8823SM   H7S11780   1.699   2.761  13.315
   8823SM   H7T11781   1.560   2.625  13.329
   8823SM   C8S11782   1.587   2.750  13.506
   8823SM   H8S11783   1.590   2.867  13.538
   8823SM   H8T11784   1.689   2.695  13.544
   8823SM   C9S11785   1.454   2.670  13.565
   8823SM   H9S11786   1.456   2.552  13.535
   8823SM   H9T11787   1.355   2.721  13.520
   8823SM  C10S11788   1.434   2.682  13.716
   8823SM  H10S11789   1.341   2.609  13.746
   8823SM  H10T11790   1.400   2.797  13.739
   8823SM  C11S11791   1.567   2.644  13.802
   8823SM  H11S11792   1.670   2.697  13.763
   8823SM  H11T11793   1.585   2.523  13.802
   8823SM  C12S11794   1.539   2.701  13.944
   8823SM  H12S11795   1.419   2.693  13.963
   8823SM  H12T11796   1.570   2.818  13.951
   8823SM  C13S11797   1.615   2.612  14.054
   8823SM  H13S11798   1.736   2.631  14.050
   8823SM  H13T11799   1.595   2.493  14.038
   8823SM  C14S11800   1.552   2.659  14.189
   8823SM  H14S11801   1.431   2.641  14.188
   8823SM  H14T11802   1.573   2.779  14.203
   8823SM  C15S11803   1.618   2.575  14.306
   8823SM  H15S11804   1.739   2.589  14.303
   8823SM  H15T11805   1.593   2.455  14.296
   8823SM  C16S11806   1.559   2.631  14.440
   8823SM  H16S11807   1.447   2.588  14.458
   8823SM  H16T11808   1.553   2.753  14.435
   8823SM  C17S11809   1.661   2.589  14.555
   8823SM  H17S11810   1.778   2.599  14.522
   8823SM  H17T11811   1.641   2.473  14.584
   8823SM  C18S11812   1.641   2.690  14.676
   8823SM  H18S11813   1.528   2.676  14.718
   8823SM  H18T11814   1.658   2.806  14.648
   8823SM  H18U11815   1.723   2.659  14.754
   8823SM   C1F11816   1.833   2.554  12.981
   8823SM    OF11817   1.938   2.593  12.916
   8823SM   C2F11818   1.840   2.433  13.080
   8823SM   H2F11819   1.866   2.329  13.026
   8823SM   H2G11820   1.733   2.420  13.131
   8823SM   C3F11821   1.959   2.464  13.185
   8823SM   H3F11822   1.942   2.573  13.233
   8823SM   H3G11823   2.071   2.465  13.139
   8823SM   C4F11824   1.950   2.344  13.293
   8823SM   H4F11825   1.974   2.236  13.243
   8823SM   H4G11826   1.837   2.340  13.333
   8823SM   C5F11827   2.058   2.367  13.407
   8823SM   H5F11828   2.169   2.390  13.364
   8823SM   H5G11829   2.062   2.263  13.465
   8823SM   C6F11830   2.020   2.490  13.505
   8823SM   H6F11831   1.910   2.468  13.548
   8823SM   H6G11832   2.012   2.597  13.452
   8823SM   C7F11833   2.138   2.500  13.613
   8823SM   H7F11834   2.200   2.604  13.604
   8823SM   H7G11835   2.222   2.414  13.593
   8823SM   C8F11836   2.088   2.488  13.758
   8823SM   H8F11837   2.039   2.595  13.790
   8823SM   H8G11838   2.187   2.467  13.821
   8823SM   C9F11839   1.978   2.366  13.787
   8823SM   H9F11840   2.027   2.259  13.756
   8823SM   H9G11841   1.874   2.380  13.730
   8823SM  C10F11842   1.944   2.363  13.935
   8823SM  H10F11843   1.879   2.462  13.962
   8823SM  H10G11844   2.049   2.367  13.991
   8823SM  C11F11845   1.860   2.224  13.973
   8823SM  H11F11846   1.903   2.130  13.913
   8823SM  H11G11847   1.742   2.237  13.947
   8823SM  C12F11848   1.879   2.185  14.120
   8823SM  H12F11849   1.980   2.116  14.131
   8823SM  H12G11850   1.783   2.115  14.147
   8823SM  C13F11851   1.888   2.313  14.221
   8823SM  H13F11852   1.788   2.379  14.211
   8823SM  H13G11853   1.985   2.384  14.202
   8823SM  C14F11854   1.902   2.243  14.360
   8823SM  H14F11855   1.998   2.167  14.347
   8823SM  H14G11856   1.799   2.179  14.378
   8823SM  C15F11857   1.935   2.330  14.487
   8823SM  H15F11858   1.830   2.347  14.542
   8823SM  H15G11859   1.984   2.439  14.464
   8823SM  C16F11860   2.041   2.239  14.576
   8823SM  H16F11861   2.153   2.251  14.532
   8823SM  H16G11862   2.011   2.120  14.567
   8823SM  C17F11863   2.046   2.278  14.725
   8823SM  H17F11864   2.037   2.399  14.738
   8823SM  H17G11865   2.156   2.245  14.763
   8823SM  C18F11866   1.934   2.197  14.815
   8823SM  H18F11867   1.935   2.078  14.790
   8823SM  H18G11868   1.823   2.240  14.792
   8823SM  C19F11869   1.964   2.211  14.968
   8823SM  H19F11870   2.055   2.136  14.996
   8823SM  H19G11871   1.865   2.175  15.024
   8823SM  C20F11872   2.008   2.369  15.007
   8823SM  H20F11873   1.929   2.447  14.959
   8823SM  H20G11874   2.118   2.386  14.960
   8823SM  C21F11875   2.027   2.409  15.156
   8823SM  H21F11876   2.110   2.336  15.205
   8823SM  H21G11877   1.923   2.407  15.215
   8823SM  C22F11878   2.090   2.565  15.165
   8823SM  H22F11879   2.009   2.649  15.135
   8823SM  H22G11880   2.163   2.573  15.080
   8823SM  C23F11881   2.176   2.607  15.290
   8823SM  H23F11882   2.181   2.728  15.302
   8823SM  H23G11883   2.290   2.566  15.283
   8823SM  H23H11884   2.123   2.558  15.379
   8923SM     N11885   6.709   2.879  12.219
   8923SM   C1511886   6.642   2.991  12.127
   8923SM  H15A11887   6.522   2.991  12.132
   8923SM  H15B11888   6.673   2.967  12.024
   8923SM  H15C11889   6.679   3.101  12.149
   8923SM   C1411890   6.642   2.731  12.189
   8923SM  H14A11891   6.530   2.725  12.225
   8923SM  H14B11892   6.701   2.645  12.243
   8923SM  H14C11893   6.642   2.706  12.084
   8923SM   C1311894   6.870   2.868  12.190
   8923SM  H13A11895   6.918   2.784  12.256
   8923SM  H13B11896   6.928   2.970  12.207
   8923SM  H13C11897   6.890   2.836  12.087
   8923SM   C1211898   6.675   2.918  12.364
   8923SM  H12A11899   6.560   2.886  12.384
   8923SM  H12B11900   6.678   3.036  12.376
   8923SM   C1111901   6.764   2.844  12.476
   8923SM  H11A11902   6.735   2.894  12.575
   8923SM  H11B11903   6.884   2.863  12.460
   8923SM     P11904   6.585   2.622  12.524
   8923SM   O1311905   6.471   2.706  12.451
   8923SM   O1411906   6.595   2.461  12.509
   8923SM   O1111907   6.568   2.663  12.676
   8923SM   O1211908   6.740   2.688  12.479
   8923SM   C1S11909   6.688   2.649  12.766
   8923SM   H1S11910   6.790   2.701  12.726
   8923SM   H1T11911   6.711   2.530  12.788
   8923SM    NF11912   6.771   2.730  12.988
   8923SM   HNF11913   6.778   2.654  13.060
   8923SM   C2S11914   6.646   2.728  12.897
   8923SM   H2S11915   6.615   2.844  12.874
   8923SM   C3S11916   6.509   2.649  12.957
   8923SM   H3S11917   6.532   2.529  12.966
   8923SM    O311918   6.379   2.660  12.878
   8923SM   HO311919   6.418   2.669  12.788
   8923SM   C4S11920   6.469   2.711  13.089
   8923SM   H4S11921   6.430   2.825  13.082
   8923SM   C5S11922   6.472   2.644  13.208
   8923SM   H5S11923   6.512   2.530  13.215
   8923SM   C6S11924   6.428   2.719  13.336
   8923SM   H6S11925   6.444   2.840  13.328
   8923SM   H6T11926   6.498   2.677  13.419
   8923SM   C7S11927   6.268   2.693  13.374
   8923SM   H7S11928   6.249   2.573  13.390
   8923SM   H7T11929   6.195   2.728  13.290
   8923SM   C8S11930   6.219   2.775  13.501
   8923SM   H8S11931   6.109   2.826  13.483
   8923SM   H8T11932   6.298   2.865  13.526
   8923SM   C9S11933   6.203   2.671  13.620
   8923SM   H9S11934   6.310   2.616  13.641
   8923SM   H9T11935   6.122   2.584  13.592
   8923SM  C10S11936   6.147   2.744  13.749
   8923SM  H10S11937   6.112   2.657  13.819
   8923SM  H10T11938   6.050   2.816  13.728
   8923SM  C11S11939   6.268   2.834  13.817
   8923SM  H11S11940   6.301   2.927  13.751
   8923SM  H11T11941   6.367   2.763  13.831
   8923SM  C12S11942   6.221   2.895  13.952
   8923SM  H12S11943   6.126   2.971  13.943
   8923SM  H12T11944   6.314   2.961  13.985
   8923SM  C13S11945   6.196   2.781  14.062
   8923SM  H13S11946   6.295   2.708  14.065
   8923SM  H13T11947   6.100   2.711  14.038
   8923SM  C14S11948   6.176   2.853  14.200
   8923SM  H14S11949   6.060   2.889  14.213
   8923SM  H14T11950   6.245   2.955  14.206
   8923SM  C15S11951   6.225   2.751  14.312
   8923SM  H15S11952   6.335   2.704  14.289
   8923SM  H15T11953   6.146   2.660  14.319
   8923SM  C16S11954   6.229   2.824  14.450
   8923SM  H16S11955   6.115   2.857  14.478
   8923SM  H16T11956   6.299   2.924  14.447
   8923SM  C17S11957   6.290   2.717  14.555
   8923SM  H17S11958   6.406   2.690  14.531
   8923SM  H17T11959   6.225   2.612  14.550
   8923SM  C18S11960   6.278   2.780  14.695
   8923SM  H18S11961   6.310   2.697  14.772
   8923SM  H18T11962   6.162   2.813  14.713
   8923SM  H18U11963   6.349   2.879  14.706
   8923SM   C1F11964   6.886   2.817  12.962
   8923SM    OF11965   6.879   2.905  12.870
   8923SM   C2F11966   7.019   2.794  13.048
   8923SM   H2F11967   7.083   2.699  13.008
   8923SM   H2G11968   6.983   2.762  13.150
   8923SM   C3F11969   7.119   2.931  13.056
   8923SM   H3F11970   7.171   2.952  12.957
   8923SM   H3G11971   7.209   2.907  13.128
   8923SM   C4F11972   7.040   3.071  13.104
   8923SM   H4F11973   6.950   3.101  13.034
   8923SM   H4G11974   7.116   3.167  13.104
   8923SM   C5F11975   6.981   3.051  13.247
   8923SM   H5F11976   7.046   3.128  13.311
   8923SM   H5G11977   7.004   2.939  13.284
   8923SM   C6F11978   6.817   3.086  13.265
   8923SM   H6F11979   6.744   2.996  13.229
   8923SM   H6G11980   6.793   3.188  13.206
   8923SM   C7F11981   6.788   3.127  13.410
   8923SM   H7F11982   6.682   3.184  13.418
   8923SM   H7G11983   6.877   3.204  13.442
   8923SM   C8F11984   6.783   3.005  13.513
   8923SM   H8F11985   6.805   3.059  13.611
   8923SM   H8G11986   6.868   2.921  13.496
   8923SM   C9F11987   6.630   2.939  13.525
   8923SM   H9F11988   6.629   2.853  13.448
   8923SM   H9G11989   6.542   3.022  13.505
   8923SM  C10F11990   6.601   2.872  13.662
   8923SM  H10F11991   6.516   2.784  13.652
   8923SM  H10G11992   6.558   2.956  13.733
   8923SM  C11F11993   6.743   2.806  13.716
   8923SM  H11F11994   6.818   2.893  13.754
   8923SM  H11G11995   6.799   2.746  13.633
   8923SM  C12F11996   6.713   2.695  13.825
   8923SM  H12F11997   6.642   2.607  13.782
   8923SM  H12G11998   6.651   2.751  13.907
   8923SM  C13F11999   6.856   2.629  13.876
   8923SM  H13F12000   6.928   2.716  13.920
   8923SM  H13G12001   6.917   2.581  13.790
   8923SM  C14F12002   6.826   2.509  13.979
   8923SM  H14F12003   6.929   2.447  14.000
   8923SM  H14G12004   6.744   2.431  13.935
   8923SM  C15F12005   6.764   2.570  14.111
   8923SM  H15F12006   6.662   2.635  14.090
   8923SM  H15G12007   6.844   2.647  14.156
   8923SM  C16F12008   6.724   2.447  14.210
   8923SM  H16F12009   6.704   2.344  14.153
   8923SM  H16G12010   6.619   2.476  14.261
   8923SM  C17F12011   6.842   2.422  14.317
   8923SM  H17F12012   6.952   2.412  14.270
   8923SM  H17G12013   6.822   2.317  14.369
   8923SM  C18F12014   6.840   2.541  14.425
   8923SM  H18F12015   6.724   2.575  14.445
   8923SM  H18G12016   6.899   2.637  14.384
   8923SM  C19F12017   6.908   2.488  14.557
   8923SM  H19F12018   7.025   2.456  14.542
   8923SM  H19G12019   6.847   2.387  14.586
   8923SM  C20F12020   6.893   2.597  14.673
   8923SM  H20F12021   6.784   2.653  14.666
   8923SM  H20G12022   6.978   2.683  14.666
   8923SM  C21F12023   6.905   2.526  14.811
   8923SM  H21F12024   6.802   2.462  14.831
   8923SM  H21G12025   6.912   2.611  14.889
   8923SM  C22F12026   7.036   2.421  14.826
   8923SM  H22F12027   7.140   2.481  14.805
   8923SM  H22G12028   7.029   2.333  14.750
   8923SM  C23F12029   7.039   2.354  14.965
   8923SM  H23F12030   7.044   2.443  15.040
   8923SM  H23G12031   7.136   2.280  14.976
   8923SM  H23H12032   6.939   2.289  14.989
   9023SM     N12033   6.307   2.062  12.189
   9023SM   C1512034   6.394   1.931  12.151
   9023SM  H15A12035   6.511   1.952  12.155
   9023SM  H15B12036   6.367   1.902  12.048
   9023SM  H15C12037   6.364   1.840  12.216
   9023SM   C1412038   6.337   2.179  12.090
   9023SM  H14A12039   6.453   2.211  12.089
   9023SM  H14B12040   6.277   2.280  12.109
   9023SM  H14C12041   6.310   2.146  11.989
   9023SM   C1312042   6.148   2.021  12.185
   9023SM  H13A12043   6.128   1.937  12.262
   9023SM  H13B12044   6.112   1.983  12.088
   9023SM  H13C12045   6.081   2.113  12.214
   9023SM   C1212046   6.339   2.116  12.331
   9023SM  H12A12047   6.261   2.203  12.356
   9023SM  H12B12048   6.447   2.167  12.337
   9023SM   C1112049   6.319   2.002  12.445
   9023SM  H11A12050   6.367   2.047  12.539
   9023SM  H11B12051   6.382   1.901  12.421
   9023SM     P12052   6.065   2.073  12.540
   9023SM   O1312053   6.108   2.224  12.502
   9023SM   O1412054   5.910   2.033  12.517
   9023SM   O1112055   6.104   2.042  12.692
   9023SM   O1212056   6.168   1.962  12.460
   9023SM   C1S12057   6.113   1.890  12.729
   9023SM   H1S12058   6.190   1.828  12.663
   9023SM   H1T12059   6.004   1.834  12.719
   9023SM    NF12060   6.298   1.780  12.873
   9023SM   HNF12061   6.277   1.678  12.900
   9023SM   C2S12062   6.170   1.878  12.874
   9023SM   H2S12063   6.205   1.989  12.908
   9023SM   C3S12064   6.042   1.824  12.965
   9023SM   H3S12065   6.019   1.706  12.941
   9023SM    O312066   5.909   1.903  12.944
   9023SM   HO312067   5.931   1.976  12.877
   9023SM   C4S12068   6.089   1.833  13.111
   9023SM   H4S12069   6.150   1.738  13.150
   9023SM   C5S12070   6.058   1.947  13.193
   9023SM   H5S12071   5.992   2.039  13.152
   9023SM   C6S12072   6.100   1.966  13.337
   9023SM   H6S12073   6.035   2.058  13.380
   9023SM   H6T12074   6.216   2.001  13.343
   9023SM   C7S12075   6.080   1.835  13.432
   9023SM   H7S12076   6.170   1.840  13.508
   9023SM   H7T12077   6.092   1.726  13.381
   9023SM   C8S12078   5.935   1.839  13.509
   9023SM   H8S12079   5.844   1.795  13.445
   9023SM   H8T12080   5.904   1.954  13.536
   9023SM   C9S12081   5.949   1.748  13.636
   9023SM   H9S12082   6.025   1.654  13.619
   9023SM   H9T12083   5.839   1.701  13.658
   9023SM  C10S12084   5.998   1.834  13.760
   9023SM  H10S12085   5.929   1.934  13.774
   9023SM  H10T12086   6.116   1.870  13.752
   9023SM  C11S12087   5.976   1.728  13.877
   9023SM  H11S12088   6.046   1.629  13.864
   9023SM  H11T12089   5.863   1.689  13.866
   9023SM  C12S12090   5.987   1.791  14.017
   9023SM  H12S12091   5.911   1.729  14.084
   9023SM  H12T12092   5.955   1.910  14.020
   9023SM  C13S12093   6.142   1.769  14.068
   9023SM  H13S12094   6.212   1.854  14.017
   9023SM  H13T12095   6.184   1.659  14.035
   9023SM  C14S12096   6.158   1.779  14.220
   9023SM  H14S12097   6.105   1.878  14.263
   9023SM  H14T12098   6.277   1.793  14.237
   9023SM  C15S12099   6.129   1.637  14.300
   9023SM  H15S12100   6.102   1.548  14.229
   9023SM  H15T12101   6.035   1.656  14.368
   9023SM  C16S12102   6.267   1.594  14.382
   9023SM  H16S12103   6.291   1.693  14.443
   9023SM  H16T12104   6.362   1.580  14.314
   9023SM  C17S12105   6.258   1.463  14.479
   9023SM  H17S12106   6.332   1.374  14.442
   9023SM  H17T12107   6.145   1.419  14.481
   9023SM  C18S12108   6.299   1.500  14.624
   9023SM  H18S12109   6.269   1.407  14.691
   9023SM  H18T12110   6.237   1.599  14.658
   9023SM  H18U12111   6.416   1.525  14.636
   9023SM   C1F12112   6.426   1.818  12.816
   9023SM    OF12113   6.442   1.936  12.761
   9023SM   C2F12114   6.549   1.707  12.811
   9023SM   H2F12115   6.619   1.736  12.724
   9023SM   H2G12116   6.507   1.596  12.794
   9023SM   C3F12117   6.651   1.718  12.935
   9023SM   H3F12118   6.699   1.832  12.938
   9023SM   H3G12119   6.745   1.640  12.925
   9023SM   C4F12120   6.571   1.694  13.067
   9023SM   H4F12121   6.575   1.578  13.101
   9023SM   H4G12122   6.454   1.726  13.062
   9023SM   C5F12123   6.631   1.786  13.180
   9023SM   H5F12124   6.609   1.905  13.159
   9023SM   H5G12125   6.752   1.772  13.188
   9023SM   C6F12126   6.553   1.734  13.306
   9023SM   H6F12127   6.585   1.616  13.322
   9023SM   H6G12128   6.432   1.739  13.292
   9023SM   C7F12129   6.592   1.821  13.430
   9023SM   H7F12130   6.540   1.931  13.426
   9023SM   H7G12131   6.713   1.838  13.434
   9023SM   C8F12132   6.542   1.738  13.556
   9023SM   H8F12133   6.579   1.621  13.552
   9023SM   H8G12134   6.420   1.738  13.560
   9023SM   C9F12135   6.608   1.817  13.676
   9023SM   H9F12136   6.568   1.933  13.671
   9023SM   H9G12137   6.730   1.817  13.667
   9023SM  C10F12138   6.564   1.756  13.813
   9023SM  H10F12139   6.656   1.690  13.855
   9023SM  H10G12140   6.467   1.682  13.805
   9023SM  C11F12141   6.526   1.883  13.908
   9023SM  H11F12142   6.425   1.939  13.873
   9023SM  H11G12143   6.618   1.965  13.908
   9023SM  C12F12144   6.505   1.825  14.049
   9023SM  H12F12145   6.599   1.755  14.078
   9023SM  H12G12146   6.413   1.746  14.047
   9023SM  C13F12147   6.476   1.940  14.159
   9023SM  H13F12148   6.468   1.867  14.247
   9023SM  H13G12149   6.368   1.995  14.146
   9023SM  C14F12150   6.592   2.054  14.198
   9023SM  H14F12151   6.600   2.143  14.123
   9023SM  H14G12152   6.699   1.998  14.201
   9023SM  C15F12153   6.582   2.110  14.343
   9023SM  H15F12154   6.502   2.201  14.351
   9023SM  H15G12155   6.692   2.153  14.368
   9023SM  C16F12156   6.552   1.989  14.447
   9023SM  H16F12157   6.623   2.004  14.534
   9023SM  H16G12158   6.586   1.879  14.411
   9023SM  C17F12159   6.391   1.991  14.491
   9023SM  H17F12160   6.319   1.966  14.404
   9023SM  H17G12161   6.360   2.103  14.525
   9023SM  C18F12162   6.359   1.881  14.603
   9023SM  H18F12163   6.424   1.779  14.587
   9023SM  H18G12164   6.239   1.854  14.601
   9023SM  C19F12165   6.397   1.940  14.740
   9023SM  H19F12166   6.380   2.062  14.736
   9023SM  H19G12167   6.513   1.917  14.765
   9023SM  C20F12168   6.298   1.890  14.853
   9023SM  H20F12169   6.319   1.771  14.875
   9023SM  H20G12170   6.180   1.902  14.823
   9023SM  C21F12171   6.329   1.989  14.973
   9023SM  H21F12172   6.316   2.105  14.943
   9023SM  H21G12173   6.446   1.972  15.004
   9023SM  C22F12174   6.229   1.961  15.091
   9023SM  H22F12175   6.117   2.002  15.065
   9023SM  H22G12176   6.270   2.023  15.180
   9023SM  C23F12177   6.216   1.800  15.126
   9023SM  H23F12178   6.326   1.746  15.126
   9023SM  H23G12179   6.142   1.740  15.056
   9023SM  H23H12180   6.171   1.791  15.227
   9123SM     N12181   7.209   4.822  12.327
   9123SM   C1512182   7.291   4.682  12.306
   9123SM  H15A12183   7.409   4.700  12.305
   9123SM  H15B12184   7.260   4.632  12.214
   9123SM  H15C12185   7.269   4.607  12.389
   9123SM   C1412186   7.257   4.875  12.463
   9123SM  H14A12187   7.201   4.979  12.483
   9123SM  H14B12188   7.374   4.890  12.472
   9123SM  H14C12189   7.223   4.800  12.542
   9123SM   C1312190   7.249   4.938  12.227
   9123SM  H13A12191   7.203   5.043  12.259
   9123SM  H13B12192   7.200   4.914  12.130
   9123SM  H13C12193   7.367   4.950  12.216
   9123SM   C1212194   7.043   4.798  12.326
   9123SM  H12A12195   7.016   4.732  12.413
   9123SM  H12B12196   7.010   4.740  12.237
   9123SM   C1112197   6.942   4.935  12.329
   9123SM  H11A12198   6.826   4.897  12.339
   9123SM  H11B12199   6.950   4.994  12.232
   9123SM     P12200   6.970   5.196  12.434
   9123SM   O1312201   7.079   5.246  12.333
   9123SM   O1412202   6.816   5.245  12.413
   9123SM   O1112203   7.016   5.244  12.582
   9123SM   O1212204   6.977   5.024  12.440
   9123SM   C1S12205   7.082   5.136  12.669
   9123SM   H1S12206   7.201   5.130  12.645
   9123SM   H1T12207   7.037   5.023  12.657
   9123SM    NF12208   7.198   5.149  12.891
   9123SM   HNF12209   7.195   5.086  12.973
   9123SM   C2S12210   7.062   5.174  12.820
   9123SM   H2S12211   7.037   5.293  12.829
   9123SM   C3S12212   6.937   5.084  12.885
   9123SM   H3S12213   6.959   4.964  12.870
   9123SM    O312214   6.795   5.114  12.833
   9123SM   HO312215   6.809   5.155  12.745
   9123SM   C4S12216   6.930   5.116  13.033
   9123SM   H4S12217   6.881   5.222  13.059
   9123SM   C5S12218   6.979   5.025  13.130
   9123SM   H5S12219   7.028   4.918  13.102
   9123SM   C6S12220   6.974   5.055  13.278
   9123SM   H6S12221   7.087   5.056  13.321
   9123SM   H6T12222   6.916   4.961  13.325
   9123SM   C7S12223   6.898   5.199  13.319
   9123SM   H7S12224   6.786   5.204  13.276
   9123SM   H7T12225   6.962   5.295  13.281
   9123SM   C8S12226   6.882   5.214  13.471
   9123SM   H8S12227   6.819   5.316  13.493
   9123SM   H8T12228   6.993   5.226  13.516
   9123SM   C9S12229   6.806   5.081  13.536
   9123SM   H9S12230   6.885   4.987  13.540
   9123SM   H9T12231   6.710   5.048  13.475
   9123SM  C10S12232   6.756   5.114  13.679
   9123SM  H10S12233   6.699   5.016  13.720
   9123SM  H10T12234   6.676   5.207  13.678
   9123SM  C11S12235   6.887   5.155  13.767
   9123SM  H11S12236   6.936   5.260  13.731
   9123SM  H11T12237   6.972   5.068  13.758
   9123SM  C12S12238   6.847   5.171  13.914
   9123SM  H12S12239   6.744   5.235  13.917
   9123SM  H12T12240   6.936   5.231  13.969
   9123SM  C13S12241   6.810   5.028  13.983
   9123SM  H13S12242   6.903   4.948  13.975
   9123SM  H13T12243   6.712   4.982  13.932
   9123SM  C14S12244   6.768   5.053  14.129
   9123SM  H14S12245   6.718   4.951  14.163
   9123SM  H14T12246   6.686   5.143  14.138
   9123SM  C15S12247   6.896   5.080  14.224
   9123SM  H15S12248   6.947   5.189  14.204
   9123SM  H15T12249   6.981   4.993  14.207
   9123SM  C16S12250   6.846   5.068  14.370
   9123SM  H16S12251   6.794   4.958  14.381
   9123SM  H16T12252   6.769   5.158  14.395
   9123SM  C17S12253   6.973   5.075  14.467
   9123SM  H17S12254   7.021   5.189  14.465
   9123SM  H17T12255   7.049   4.997  14.419
   9123SM  C18S12256   6.947   5.025  14.611
   9123SM  H18S12257   6.904   4.910  14.612
   9123SM  H18T12258   6.872   5.099  14.665
   9123SM  H18U12259   7.051   5.027  14.668
   9123SM   C1F12260   7.319   5.223  12.863
   9123SM    OF12261   7.315   5.339  12.801
   9123SM   C2F12262   7.458   5.162  12.917
   9123SM   H2F12263   7.543   5.162  12.837
   9123SM   H2G12264   7.445   5.048  12.956
   9123SM   C3F12265   7.499   5.268  13.030
   9123SM   H3F12266   7.499   5.378  12.985
   9123SM   H3G12267   7.612   5.250  13.060
   9123SM   C4F12268   7.406   5.256  13.157
   9123SM   H4F12269   7.401   5.138  13.188
   9123SM   H4G12270   7.293   5.294  13.140
   9123SM   C5F12271   7.478   5.343  13.272
   9123SM   H5F12272   7.485   5.462  13.253
   9123SM   H5G12273   7.593   5.303  13.286
   9123SM   C6F12274   7.394   5.335  13.403
   9123SM   H6F12275   7.293   5.269  13.391
   9123SM   H6G12276   7.361   5.448  13.434
   9123SM   C7F12277   7.492   5.270  13.513
   9123SM   H7F12278   7.601   5.324  13.511
   9123SM   H7G12279   7.512   5.152  13.491
   9123SM   C8F12280   7.423   5.291  13.652
   9123SM   H8F12281   7.413   5.411  13.672
   9123SM   H8G12282   7.499   5.244  13.728
   9123SM   C9F12283   7.270   5.223  13.666
   9123SM   H9F12284   7.188   5.294  13.615
   9123SM   H9G12285   7.239   5.223  13.774
   9123SM  C10F12286   7.256   5.066  13.609
   9123SM  H10F12287   7.263   5.070  13.499
   9123SM  H10G12288   7.145   5.023  13.632
   9123SM  C11F12289   7.371   4.954  13.660
   9123SM  H11F12290   7.481   4.983  13.618
   9123SM  H11G12291   7.344   4.843  13.621
   9123SM  C12F12292   7.388   4.949  13.812
   9123SM  H12F12293   7.433   5.057  13.847
   9123SM  H12G12294   7.471   4.864  13.836
   9123SM  C13F12295   7.244   4.915  13.885
   9123SM  H13F12296   7.206   4.803  13.857
   9123SM  H13G12297   7.159   4.994  13.850
   9123SM  C14F12298   7.251   4.932  14.038
   9123SM  H14F12299   7.325   4.846  14.079
   9123SM  H14G12300   7.139   4.910  14.077
   9123SM  C15F12301   7.303   5.086  14.084
   9123SM  H15F12302   7.247   5.172  14.023
   9123SM  H15G12303   7.423   5.093  14.062
   9123SM  C16F12304   7.281   5.119  14.234
   9123SM  H16F12305   7.168   5.161  14.251
   9123SM  H16G12306   7.357   5.210  14.265
   9123SM  C17F12307   7.307   4.981  14.318
   9123SM  H17F12308   7.417   4.942  14.286
   9123SM  H17G12309   7.226   4.896  14.289
   9123SM  C18F12310   7.307   4.990  14.473
   9123SM  H18F12311   7.230   5.073  14.512
   9123SM  H18G12312   7.415   5.031  14.507
   9123SM  C19F12313   7.266   4.837  14.534
   9123SM  H19F12314   7.327   4.747  14.485
   9123SM  H19G12315   7.150   4.811  14.510
   9123SM  C20F12316   7.288   4.825  14.686
   9123SM  H20F12317   7.239   4.924  14.733
   9123SM  H20G12318   7.405   4.826  14.713
   9123SM  C21F12319   7.215   4.686  14.747
   9123SM  H21F12320   7.281   4.588  14.719
   9123SM  H21G12321   7.103   4.672  14.704
   9123SM  C22F12322   7.200   4.694  14.900
   9123SM  H22F12323   7.308   4.725  14.944
   9123SM  H22G12324   7.171   4.583  14.939
   9123SM  C23F12325   7.083   4.804  14.944
   9123SM  H23F12326   7.112   4.915  14.906
   9123SM  H23G12327   7.075   4.811  15.054
   9123SM  H23H12328   6.973   4.773  14.904
   9223SM     N12329   5.838   1.298  12.182
   9223SM   C1512330   5.747   1.162  12.186
   9223SM  H15A12331   5.667   1.164  12.106
   9223SM  H15B12332   5.688   1.156  12.281
   9223SM  H15C12333   5.816   1.065  12.177
   9223SM   C1412334   5.954   1.285  12.288
   9223SM  H14A12335   6.047   1.359  12.272
   9223SM  H14B12336   6.005   1.176  12.293
   9223SM  H14C12337   5.909   1.312  12.387
   9223SM   C1312338   5.908   1.306  12.047
   9223SM  H13A12339   5.960   1.412  12.031
   9223SM  H13B12340   5.831   1.294  11.965
   9223SM  H13C12341   5.993   1.223  12.039
   9223SM   C1212342   5.738   1.432  12.197
   9223SM  H12A12343   5.671   1.438  12.107
   9223SM  H12B12344   5.800   1.533  12.203
   9223SM   C1112345   5.625   1.434  12.312
   9223SM  H11A12346   5.561   1.331  12.311
   9223SM  H11B12347   5.545   1.526  12.288
   9223SM     P12348   5.587   1.450  12.559
   9223SM   O1312349   5.469   1.559  12.530
   9223SM   O1412350   5.548   1.293  12.572
   9223SM   O1112351   5.676   1.506  12.686
   9223SM   O1212352   5.699   1.458  12.438
   9223SM   C1S12353   5.600   1.556  12.803
   9223SM   H1S12354   5.480   1.578  12.786
   9223SM   H1T12355   5.649   1.662  12.838
   9223SM    NF12356   5.521   1.483  13.030
   9223SM   HNF12357   5.573   1.517  13.112
   9223SM   C2S12358   5.611   1.440  12.917
   9223SM   H2S12359   5.569   1.334  12.877
   9223SM   C3S12360   5.774   1.418  12.961
   9223SM   H3S12361   5.822   1.526  12.990
   9223SM    O312362   5.871   1.351  12.867
   9223SM   HO312363   5.815   1.342  12.786
   9223SM   C4S12364   5.771   1.319  13.083
   9223SM   H4S12365   5.727   1.208  13.064
   9223SM   C5S12366   5.811   1.357  13.208
   9223SM   H5S12367   5.853   1.470  13.225
   9223SM   C6S12368   5.807   1.261  13.330
   9223SM   H6S12369   5.917   1.210  13.347
   9223SM   H6T12370   5.728   1.169  13.318
   9223SM   C7S12371   5.763   1.346  13.457
   9223SM   H7S12372   5.641   1.353  13.462
   9223SM   H7T12373   5.805   1.462  13.453
   9223SM   C8S12374   5.819   1.279  13.590
   9223SM   H8S12375   5.941   1.286  13.591
   9223SM   H8T12376   5.788   1.162  13.596
   9223SM   C9S12377   5.757   1.361  13.712
   9223SM   H9S12378   5.643   1.326  13.735
   9223SM   H9T12379   5.747   1.478  13.682
   9223SM  C10S12380   5.855   1.362  13.837
   9223SM  H10S12381   5.837   1.471  13.883
   9223SM  H10T12382   5.974   1.360  13.811
   9223SM  C11S12383   5.823   1.254  13.953
   9223SM  H11S12384   5.858   1.141  13.927
   9223SM  H11T12385   5.705   1.254  13.977
   9223SM  C12S12386   5.909   1.310  14.075
   9223SM  H12S12387   5.897   1.432  14.080
   9223SM  H12T12388   6.028   1.288  14.064
   9223SM  C13S12389   5.853   1.252  14.209
   9223SM  H13S12390   5.883   1.134  14.221
   9223SM  H13T12391   5.731   1.263  14.214
   9223SM  C14S12392   5.919   1.340  14.324
   9223SM  H14S12393   5.887   1.459  14.316
   9223SM  H14T12394   6.040   1.335  14.316
   9223SM  C15S12395   5.867   1.284  14.460
   9223SM  H15S12396   5.942   1.191  14.490
   9223SM  H15T12397   5.754   1.239  14.451
   9223SM  C16S12398   5.866   1.404  14.567
   9223SM  H16S12399   5.754   1.451  14.566
   9223SM  H16T12400   5.941   1.496  14.540
   9223SM  C17S12401   5.900   1.341  14.706
   9223SM  H17S12402   5.988   1.257  14.695
   9223SM  H17T12403   5.799   1.283  14.740
   9223SM  C18S12404   5.948   1.451  14.813
   9223SM  H18S12405   6.059   1.495  14.793
   9223SM  H18T12406   5.949   1.395  14.911
   9223SM  H18U12407   5.872   1.547  14.818
   9223SM   C1F12408   5.375   1.472  13.026
   9223SM    OF12409   5.312   1.431  12.926
   9223SM   C2F12410   5.297   1.508  13.153
   9223SM   H2F12411   5.175   1.508  13.134
   9223SM   H2G12412   5.328   1.621  13.181
   9223SM   C3F12413   5.333   1.396  13.264
   9223SM   H3F12414   5.448   1.356  13.259
   9223SM   H3G12415   5.260   1.298  13.252
   9223SM   C4F12416   5.313   1.463  13.404
   9223SM   H4F12417   5.334   1.378  13.481
   9223SM   H4G12418   5.198   1.502  13.417
   9223SM   C5F12419   5.421   1.592  13.425
   9223SM   H5F12420   5.376   1.691  13.373
   9223SM   H5G12421   5.529   1.565  13.380
   9223SM   C6F12422   5.444   1.629  13.572
   9223SM   H6F12423   5.510   1.541  13.620
   9223SM   H6G12424   5.335   1.628  13.620
   9223SM   C7F12425   5.518   1.781  13.592
   9223SM   H7F12426   5.490   1.855  13.507
   9223SM   H7G12427   5.639   1.763  13.589
   9223SM   C8F12428   5.474   1.860  13.723
   9223SM   H8F12429   5.371   1.923  13.708
   9223SM   H8G12430   5.558   1.943  13.752
   9223SM   C9F12431   5.451   1.758  13.841
   9223SM   H9F12432   5.394   1.653  13.814
   9223SM   H9G12433   5.385   1.808  13.922
   9223SM  C10F12434   5.601   1.722  13.891
   9223SM  H10F12435   5.657   1.825  13.926
   9223SM  H10G12436   5.662   1.679  13.802
   9223SM  C11F12437   5.602   1.605  13.997
   9223SM  H11F12438   5.720   1.578  14.019
   9223SM  H11G12439   5.549   1.504  13.958
   9223SM  C12F12440   5.535   1.652  14.129
   9223SM  H12F12441   5.413   1.650  14.123
   9223SM  H12G12442   5.572   1.767  14.153
   9223SM  C13F12443   5.595   1.544  14.232
   9223SM  H13F12444   5.717   1.559  14.234
   9223SM  H13G12445   5.570   1.431  14.195
   9223SM  C14F12446   5.534   1.559  14.373
   9223SM  H14F12447   5.589   1.474  14.436
   9223SM  H14G12448   5.415   1.530  14.369
   9223SM  C15F12449   5.554   1.709  14.438
   9223SM  H15F12450   5.506   1.793  14.370
   9223SM  H15G12451   5.672   1.736  14.452
   9223SM  C16F12452   5.474   1.716  14.573
   9223SM  H16F12453   5.367   1.658  14.566
   9223SM  H16G12454   5.451   1.830  14.605
   9223SM  C17F12455   5.565   1.657  14.687
   9223SM  H17F12456   5.662   1.729  14.704
   9223SM  H17G12457   5.603   1.543  14.668
   9223SM  C18F12458   5.467   1.649  14.809
   9223SM  H18F12459   5.360   1.596  14.782
   9223SM  H18G12460   5.442   1.762  14.844
   9223SM  C19F12461   5.543   1.559  14.916
   9223SM  H19F12462   5.664   1.562  14.897
   9223SM  H19G12463   5.509   1.442  14.905
   9223SM  C20F12464   5.515   1.624  15.054
   9223SM  H20F12465   5.397   1.616  15.077
   9223SM  H20G12466   5.544   1.742  15.046
   9223SM  C21F12467   5.607   1.559  15.167
   9223SM  H21F12468   5.629   1.441  15.144
   9223SM  H21G12469   5.547   1.562  15.264
   9223SM  C22F12470   5.754   1.640  15.182
   9223SM  H22F12471   5.792   1.684  15.085
   9223SM  H22G12472   5.826   1.546  15.203
   9223SM  C23F12473   5.771   1.759  15.291
   9223SM  H23F12474   5.772   1.713  15.394
   9223SM  H23G12475   5.685   1.845  15.285
   9223SM  H23H12476   5.877   1.818  15.279
   9323SM     N12477   7.501   4.126  12.214
   9323SM   C1512478   7.410   4.052  12.319
   9323SM  H15A12479   7.457   3.947  12.344
   9323SM  H15B12480   7.297   4.035  12.286
   9323SM  H15C12481   7.406   4.122  12.408
   9323SM   C1412482   7.499   4.039  12.090
   9323SM  H14A12483   7.554   3.936  12.102
   9323SM  H14B12484   7.548   4.096  12.006
   9323SM  H14C12485   7.387   4.014  12.059
   9323SM   C1312486   7.442   4.276  12.189
   9323SM  H13A12487   7.431   4.333  12.284
   9323SM  H13B12488   7.337   4.277  12.138
   9323SM  H13C12489   7.519   4.343  12.131
   9323SM   C1212490   7.657   4.140  12.268
   9323SM  H12A12491   7.721   4.202  12.196
   9323SM  H12B12492   7.706   4.033  12.279
   9323SM   C1112493   7.678   4.216  12.405
   9323SM  H11A12494   7.798   4.225  12.427
   9323SM  H11B12495   7.631   4.141  12.484
   9323SM     P12496   7.554   4.422  12.544
   9323SM   O1312497   7.567   4.585  12.547
   9323SM   O1412498   7.406   4.359  12.571
   9323SM   O1112499   7.670   4.351  12.645
   9323SM   O1212500   7.614   4.360  12.406
   9323SM   C1S12501   7.706   4.430  12.764
   9323SM   H1S12502   7.607   4.486  12.805
   9323SM   H1T12503   7.790   4.514  12.742
   9323SM    NF12504   7.670   4.206  12.904
   9323SM   HNF12505   7.612   4.214  12.987
   9323SM   C2S12506   7.765   4.332  12.881
   9323SM   H2S12507   7.877   4.293  12.856
   9323SM   C3S12508   7.766   4.428  13.010
   9323SM   H3S12509   7.652   4.466  13.029
   9323SM    O312510   7.854   4.557  13.008
   9323SM   HO312511   7.930   4.546  12.941
   9323SM   C4S12512   7.812   4.331  13.126
   9323SM   H4S12513   7.910   4.264  13.107
   9323SM   C5S12514   7.742   4.316  13.246
   9323SM   H5S12515   7.643   4.381  13.267
   9323SM   C6S12516   7.792   4.215  13.357
   9323SM   H6S12517   7.908   4.179  13.343
   9323SM   H6T12518   7.724   4.114  13.353
   9323SM   C7S12519   7.777   4.272  13.502
   9323SM   H7S12520   7.664   4.315  13.518
   9323SM   H7T12521   7.853   4.366  13.521
   9323SM   C8S12522   7.802   4.148  13.603
   9323SM   H8S12523   7.922   4.125  13.610
   9323SM   H8T12524   7.745   4.049  13.566
   9323SM   C9S12525   7.745   4.181  13.744
   9323SM   H9S12526   7.763   4.082  13.808
   9323SM   H9T12527   7.624   4.201  13.741
   9323SM  C10S12528   7.826   4.314  13.800
   9323SM  H10S12529   7.776   4.415  13.758
   9323SM  H10T12530   7.942   4.308  13.761
   9323SM  C11S12531   7.836   4.325  13.952
   9323SM  H11S12532   7.830   4.215  13.998
   9323SM  H11T12533   7.742   4.392  13.988
   9323SM  C12S12534   7.985   4.391  13.996
   9323SM  H12S12535   8.026   4.475  13.924
   9323SM  H12T12536   8.067   4.302  14.001
   9323SM  C13S12537   7.981   4.462  14.133
   9323SM  H13S12538   7.990   4.369  14.207
   9323SM  H13T12539   7.873   4.516  14.145
   9323SM  C14S12540   8.105   4.575  14.154
   9323SM  H14S12541   8.098   4.659  14.074
   9323SM  H14T12542   8.208   4.511  14.138
   9323SM  C15S12543   8.108   4.652  14.291
   9323SM  H15S12544   8.222   4.694  14.307
   9323SM  H15T12545   8.033   4.750  14.296
   9323SM  C16S12546   8.064   4.543  14.401
   9323SM  H16S12547   8.111   4.578  14.498
   9323SM  H16T12548   8.116   4.436  14.377
   9323SM  C17S12549   7.897   4.530  14.422
   9323SM  H17S12550   7.834   4.517  14.328
   9323SM  H17T12551   7.856   4.638  14.458
   9323SM  C18S12552   7.847   4.403  14.511
   9323SM  H18S12553   7.726   4.392  14.505
   9323SM  H18T12554   7.879   4.422  14.616
   9323SM  H18U12555   7.894   4.298  14.475
   9323SM   C1F12556   7.652   4.084  12.834
   9323SM    OF12557   7.736   4.041  12.747
   9323SM   C2F12558   7.525   3.992  12.879
   9323SM   H2F12559   7.560   3.875  12.880
   9323SM   H2G12560   7.435   4.005  12.805
   9323SM   C3F12561   7.468   4.036  13.020
   9323SM   H3F12562   7.433   4.154  13.022
   9323SM   H3G12563   7.554   4.019  13.098
   9323SM   C4F12564   7.330   3.947  13.056
   9323SM   H4F12565   7.362   3.830  13.073
   9323SM   H4G12566   7.258   3.957  12.967
   9323SM   C5F12567   7.240   4.003  13.175
   9323SM   H5F12568   7.122   3.980  13.156
   9323SM   H5G12569   7.251   4.124  13.182
   9323SM   C6F12570   7.279   3.928  13.309
   9323SM   H6F12571   7.341   3.825  13.290
   9323SM   H6G12572   7.175   3.895  13.361
   9323SM   C7F12573   7.366   4.030  13.400
   9323SM   H7F12574   7.460   4.077  13.342
   9323SM   H7G12575   7.413   3.969  13.486
   9323SM   C8F12576   7.270   4.156  13.453
   9323SM   H8F12577   7.196   4.111  13.532
   9323SM   H8G12578   7.197   4.201  13.373
   9323SM   C9F12579   7.361   4.283  13.506
   9323SM   H9F12580   7.428   4.331  13.423
   9323SM   H9G12581   7.440   4.242  13.582
   9323SM  C10F12582   7.267   4.407  13.566
   9323SM  H10F12583   7.185   4.445  13.490
   9323SM  H10G12584   7.339   4.500  13.593
   9323SM  C11F12585   7.183   4.358  13.691
   9323SM  H11F12586   7.102   4.271  13.668
   9323SM  H11G12587   7.120   4.454  13.731
   9323SM  C12F12588   7.286   4.301  13.800
   9323SM  H12F12589   7.383   4.376  13.807
   9323SM  H12G12590   7.330   4.191  13.772
   9323SM  C13F12591   7.206   4.291  13.933
   9323SM  H13F12592   7.251   4.197  13.989
   9323SM  H13G12593   7.088   4.264  13.915
   9323SM  C14F12594   7.218   4.435  14.012
   9323SM  H14F12595   7.140   4.432  14.098
   9323SM  H14G12596   7.185   4.530  13.947
   9323SM  C15F12597   7.373   4.459  14.067
   9323SM  H15F12598   7.382   4.572  14.112
   9323SM  H15G12599   7.459   4.452  13.988
   9323SM  C16F12600   7.401   4.344  14.175
   9323SM  H16F12601   7.384   4.231  14.135
   9323SM  H16G12602   7.315   4.361  14.253
   9323SM  C17F12603   7.553   4.338  14.236
   9323SM  H17F12604   7.585   4.448  14.274
   9323SM  H17G12605   7.636   4.303  14.162
   9323SM  C18F12606   7.546   4.232  14.354
   9323SM  H18F12607   7.659   4.201  14.383
   9323SM  H18G12608   7.488   4.129  14.323
   9323SM  C19F12609   7.464   4.306  14.468
   9323SM  H19F12610   7.343   4.293  14.451
   9323SM  H19G12611   7.485   4.426  14.465
   9323SM  C20F12612   7.501   4.252  14.609
   9323SM  H20F12613   7.611   4.287  14.642
   9323SM  H20G12614   7.504   4.131  14.605
   9323SM  C21F12615   7.387   4.311  14.708
   9323SM  H21F12616   7.285   4.342  14.650
   9323SM  H21G12617   7.429   4.413  14.754
   9323SM  C22F12618   7.338   4.202  14.815
   9323SM  H22F12619   7.250   4.254  14.878
   9323SM  H22G12620   7.433   4.181  14.882
   9323SM  C23F12621   7.278   4.056  14.759
   9323SM  H23F12622   7.248   3.978  14.840
   9323SM  H23G12623   7.360   4.000  14.696
   9323SM  H23H12624   7.178   4.077  14.698
   9423SM     N12625   5.710   7.362  12.197
   9423SM   C1512626   5.557   7.379  12.249
   9423SM  H15A12627   5.556   7.373  12.358
   9423SM  H15B12628   5.482   7.297  12.209
   9423SM  H15C12629   5.512   7.487  12.226
   9423SM   C1412630   5.757   7.209  12.229
   9423SM  H14A12631   5.664   7.136  12.227
   9423SM  H14B12632   5.796   7.203  12.333
   9423SM  H14C12633   5.844   7.169  12.166
   9423SM   C1312634   5.705   7.383  12.048
   9423SM  H13A12635   5.660   7.491  12.024
   9423SM  H13B12636   5.629   7.304  12.004
   9423SM  H13C12637   5.810   7.371  11.999
   9423SM   C1212638   5.809   7.471  12.270
   9423SM  H12A12639   5.768   7.581  12.252
   9423SM  H12B12640   5.918   7.464  12.229
   9423SM   C1112641   5.827   7.453  12.425
   9423SM  H11A12642   5.716   7.466  12.472
   9423SM  H11B12643   5.895   7.544  12.464
   9423SM     P12644   6.032   7.281  12.539
   9423SM   O1312645   6.104   7.150  12.479
   9423SM   O1412646   6.122   7.416  12.538
   9423SM   O1112647   5.975   7.245  12.685
   9423SM   O1212648   5.885   7.312  12.460
   9423SM   C1S12649   5.821   7.239  12.715
   9423SM   H1S12650   5.767   7.143  12.664
   9423SM   H1T12651   5.763   7.338  12.678
   9423SM    NF12652   5.837   7.359  12.937
   9423SM   HNF12653   5.932   7.353  12.983
   9423SM   C2S12654   5.788   7.227  12.868
   9423SM   H2S12655   5.667   7.217  12.882
   9423SM   C3S12656   5.862   7.086  12.928
   9423SM   H3S12657   5.983   7.095  12.918
   9423SM    O312658   5.817   6.952  12.863
   9423SM   HO312659   5.759   6.983  12.788
   9423SM   C4S12660   5.821   7.073  13.073
   9423SM   H4S12661   5.706   7.046  13.093
   9423SM   C5S12662   5.916   7.087  13.177
   9423SM   H5S12663   6.032   7.106  13.156
   9423SM   C6S12664   5.873   7.074  13.322
   9423SM   H6S12665   5.772   7.140  13.343
   9423SM   H6T12666   5.961   7.121  13.387
   9423SM   C7S12667   5.844   6.915  13.368
   9423SM   H7S12668   5.946   6.846  13.363
   9423SM   H7T12669   5.762   6.864  13.299
   9423SM   C8S12670   5.778   6.906  13.509
   9423SM   H8S12671   5.708   6.806  13.518
   9423SM   H8T12672   5.707   7.004  13.524
   9423SM   C9S12673   5.887   6.906  13.624
   9423SM   H9S12674   5.966   6.998  13.613
   9423SM   H9T12675   5.951   6.801  13.625
   9423SM  C10S12676   5.801   6.925  13.755
   9423SM  H10S12677   5.724   6.829  13.766
   9423SM  H10T12678   5.733   7.026  13.749
   9423SM  C11S12679   5.897   6.934  13.878
   9423SM  H11S12680   5.966   7.036  13.874
   9423SM  H11T12681   5.972   6.838  13.881
   9423SM  C12S12682   5.805   6.936  14.006
   9423SM  H12S12683   5.739   6.833  14.011
   9423SM  H12T12684   5.729   7.031  14.008
   9423SM  C13S12685   5.911   6.944  14.122
   9423SM  H13S12686   5.961   7.056  14.121
   9423SM  H13T12687   6.001   6.862  14.107
   9423SM  C14S12688   5.850   6.921  14.261
   9423SM  H14S12689   5.801   6.810  14.273
   9423SM  H14T12690   5.765   7.006  14.284
   9423SM  C15S12691   5.981   6.932  14.356
   9423SM  H15S12692   6.041   7.038  14.339
   9423SM  H15T12693   6.057   6.840  14.333
   9423SM  C16S12694   5.935   6.922  14.500
   9423SM  H16S12695   5.851   6.833  14.511
   9423SM  H16T12696   5.883   7.028  14.530
   9423SM  C17S12697   6.062   6.890  14.591
   9423SM  H17S12698   6.157   6.965  14.570
   9423SM  H17T12699   6.100   6.776  14.574
   9423SM  C18S12700   6.009   6.910  14.733
   9423SM  H18S12701   6.092   6.882  14.809
   9423SM  H18T12702   5.910   6.841  14.744
   9423SM  H18U12703   5.971   7.024  14.751
   9423SM   C1F12704   5.776   7.489  12.907
   9423SM    OF12705   5.656   7.495  12.854
   9423SM   C2F12706   5.869   7.623  12.931
   9423SM   H2F12707   5.856   7.694  12.841
   9423SM   H2G12708   5.986   7.594  12.941
   9423SM   C3F12709   5.817   7.714  13.053
   9423SM   H3F12710   5.695   7.709  13.062
   9423SM   H3G12711   5.849   7.831  13.032
   9423SM   C4F12712   5.889   7.671  13.186
   9423SM   H4F12713   6.010   7.657  13.173
   9423SM   H4G12714   5.844   7.565  13.223
   9423SM   C5F12715   5.865   7.789  13.293
   9423SM   H5F12716   5.745   7.787  13.316
   9423SM   H5G12717   5.889   7.901  13.256
   9423SM   C6F12718   5.952   7.757  13.421
   9423SM   H6F12719   6.039   7.842  13.438
   9423SM   H6G12720   6.010   7.652  13.408
   9423SM   C7F12721   5.842   7.752  13.536
   9423SM   H7F12722   5.738   7.704  13.496
   9423SM   H7G12723   5.817   7.866  13.571
   9423SM   C8F12724   5.874   7.656  13.658
   9423SM   H8F12725   5.766   7.604  13.683
   9423SM   H8G12726   5.903   7.730  13.742
   9423SM   C9F12727   5.984   7.530  13.647
   9423SM   H9F12728   6.096   7.579  13.640
   9423SM   H9G12729   5.964   7.465  13.555
   9423SM  C10F12730   5.976   7.429  13.772
   9423SM  H10F12731   6.061   7.343  13.766
   9423SM  H10G12732   5.867   7.372  13.773
   9423SM  C11F12733   5.994   7.513  13.905
   9423SM  H11F12734   5.918   7.609  13.911
   9423SM  H11G12735   6.108   7.556  13.910
   9423SM  C12F12736   5.960   7.421  14.030
   9423SM  H12F12737   6.002   7.307  14.016
   9423SM  H12G12738   5.839   7.413  14.044
   9423SM  C13F12739   6.031   7.490  14.153
   9423SM  H13F12740   5.974   7.592  14.183
   9423SM  H13G12741   6.145   7.524  14.123
   9423SM  C14F12742   6.049   7.384  14.270
   9423SM  H14F12743   6.097   7.280  14.232
   9423SM  H14G12744   5.942   7.357  14.318
   9423SM  C15F12745   6.157   7.451  14.370
   9423SM  H15F12746   6.103   7.541  14.428
   9423SM  H15G12747   6.248   7.503  14.312
   9423SM  C16F12748   6.228   7.337  14.462
   9423SM  H16F12749   6.349   7.346  14.445
   9423SM  H16G12750   6.194   7.224  14.435
   9423SM  C17F12751   6.202   7.368  14.610
   9423SM  H17F12752   6.196   7.489  14.621
   9423SM  H17G12753   6.296   7.326  14.668
   9423SM  C18F12754   6.063   7.299  14.668
   9423SM  H18F12755   6.072   7.180  14.650
   9423SM  H18G12756   5.963   7.337  14.613
   9423SM  C19F12757   6.044   7.333  14.818
   9423SM  H19F12758   6.144   7.308  14.877
   9423SM  H19G12759   5.955   7.259  14.853
   9423SM  C20F12760   5.994   7.492  14.837
   9423SM  H20F12761   5.872   7.488  14.842
   9423SM  H20G12762   6.019   7.551  14.742
   9423SM  C21F12763   6.058   7.587  14.952
   9423SM  H21F12764   6.179   7.591  14.946
   9423SM  H21G12765   6.037   7.538  15.051
   9423SM  C22F12766   5.995   7.744  14.938
   9423SM  H22F12767   5.881   7.744  14.975
   9423SM  H22G12768   5.992   7.767  14.828
   9423SM  C23F12769   6.072   7.876  15.003
   9423SM  H23F12770   6.024   7.979  14.963
   9423SM  H23G12771   6.191   7.878  14.980
   9423SM  H23H12772   6.059   7.877  15.113
   9523SM     N12773   1.280   1.865  12.165
   9523SM   C1512774   1.132   1.933  12.144
   9523SM  H15A12775   1.140   2.052  12.139
   9523SM  H15B12776   1.056   1.904  12.223
   9523SM  H15C12777   1.088   1.896  12.049
   9523SM   C1412778   1.269   1.702  12.153
   9523SM  H14A12779   1.377   1.653  12.167
   9523SM  H14B12780   1.231   1.673  12.053
   9523SM  H14C12781   1.191   1.661  12.226
   9523SM   C1312782   1.381   1.916  12.057
   9523SM  H13A12783   1.482   1.854  12.051
   9523SM  H13B12784   1.411   2.031  12.071
   9523SM  H13C12785   1.323   1.910  11.962
   9523SM   C1212786   1.340   1.907  12.298
   9523SM  H12A12787   1.345   2.027  12.305
   9523SM  H12B12788   1.453   1.871  12.311
   9523SM   C1112789   1.256   1.854  12.421
   9523SM  H11A12790   1.278   1.735  12.441
   9523SM  H11B12791   1.135   1.868  12.410
   9523SM     P12792   1.463   1.938  12.588
   9523SM   O1312793   1.569   1.935  12.474
   9523SM   O1412794   1.475   2.064  12.682
   9523SM   O1112795   1.461   1.783  12.662
   9523SM   O1212796   1.303   1.943  12.527
   9523SM   C1S12797   1.558   1.744  12.769
   9523SM   H1S12798   1.639   1.834  12.791
   9523SM   H1T12799   1.624   1.646  12.740
   9523SM    NF12800   1.571   1.666  13.013
   9523SM   HNF12801   1.550   1.577  13.068
   9523SM   C2S12802   1.473   1.706  12.902
   9523SM   H2S12803   1.412   1.808  12.929
   9523SM   C3S12804   1.357   1.581  12.886
   9523SM   H3S12805   1.416   1.474  12.878
   9523SM    O312806   1.266   1.588  12.770
   9523SM   HO312807   1.315   1.660  12.714
   9523SM   C4S12808   1.262   1.578  13.010
   9523SM   H4S12809   1.191   1.675  13.021
   9523SM   C5S12810   1.261   1.475  13.108
   9523SM   H5S12811   1.338   1.382  13.101
   9523SM   C6S12812   1.165   1.476  13.232
   9523SM   H6S12813   1.121   1.363  13.249
   9523SM   H6T12814   1.068   1.550  13.219
   9523SM   C7S12815   1.242   1.523  13.363
   9523SM   H7S12816   1.278   1.640  13.356
   9523SM   H7T12817   1.344   1.458  13.373
   9523SM   C8S12818   1.144   1.505  13.488
   9523SM   H8S12819   1.111   1.387  13.497
   9523SM   H8T12820   1.043   1.571  13.475
   9523SM   C9S12821   1.218   1.551  13.620
   9523SM   H9S12822   1.278   1.656  13.607
   9523SM   H9T12823   1.301   1.465  13.644
   9523SM  C10S12824   1.114   1.565  13.742
   9523SM  H10S12825   1.022   1.485  13.734
   9523SM  H10T12826   1.068   1.679  13.745
   9523SM  C11S12827   1.202   1.532  13.869
   9523SM  H11S12828   1.310   1.591  13.861
   9523SM  H11T12829   1.223   1.412  13.869
   9523SM  C12S12830   1.137   1.571  14.005
   9523SM  H12S12831   1.029   1.518  14.019
   9523SM  H12T12832   1.124   1.692  14.014
   9523SM  C13S12833   1.245   1.517  14.113
   9523SM  H13S12834   1.346   1.585  14.108
   9523SM  H13T12835   1.277   1.400  14.093
   9523SM  C14S12836   1.183   1.525  14.255
   9523SM  H14S12837   1.096   1.440  14.269
   9523SM  H14T12838   1.131   1.635  14.269
   9523SM  C15S12839   1.302   1.506  14.361
   9523SM  H15S12840   1.257   1.553  14.454
   9523SM  H15T12841   1.401   1.572  14.334
   9523SM  C16S12842   1.348   1.345  14.384
   9523SM  H16S12843   1.410   1.302  14.298
   9523SM  H16T12844   1.247   1.275  14.395
   9523SM  C17S12845   1.444   1.324  14.507
   9523SM  H17S12846   1.551   1.383  14.492
   9523SM  H17T12847   1.469   1.205  14.518
   9523SM  C18S12848   1.374   1.378  14.635
   9523SM  H18S12849   1.281   1.305  14.660
   9523SM  H18T12850   1.331   1.493  14.630
   9523SM  H18U12851   1.455   1.378  14.718
   9523SM   C1F12852   1.665   1.763  13.061
   9523SM    OF12853   1.662   1.892  13.027
   9523SM   C2F12854   1.780   1.715  13.155
   9523SM   H2F12855   1.829   1.816  13.199
   9523SM   H2G12856   1.867   1.657  13.098
   9523SM   C3F12857   1.729   1.616  13.269
   9523SM   H3F12858   1.699   1.503  13.235
   9523SM   H3G12859   1.634   1.662  13.325
   9523SM   C4F12860   1.865   1.612  13.358
   9523SM   H4F12861   1.890   1.726  13.391
   9523SM   H4G12862   1.961   1.570  13.301
   9523SM   C5F12863   1.844   1.519  13.480
   9523SM   H5F12864   1.837   1.400  13.451
   9523SM   H5G12865   1.738   1.549  13.530
   9523SM   C6F12866   1.971   1.544  13.575
   9523SM   H6F12867   1.979   1.661  13.607
   9523SM   H6G12868   2.078   1.510  13.529
   9523SM   C7F12869   1.931   1.448  13.690
   9523SM   H7F12870   1.929   1.330  13.657
   9523SM   H7G12871   1.814   1.477  13.716
   9523SM   C8F12872   2.019   1.464  13.816
   9523SM   H8F12873   2.038   1.581  13.844
   9523SM   H8G12874   2.125   1.407  13.814
   9523SM   C9F12875   1.929   1.384  13.919
   9523SM   H9F12876   2.011   1.318  13.976
   9523SM   H9G12877   1.858   1.303  13.866
   9523SM  C10F12878   1.847   1.487  14.012
   9523SM  H10F12879   1.731   1.513  13.985
   9523SM  H10G12880   1.901   1.597  14.008
   9523SM  C11F12881   1.858   1.423  14.151
   9523SM  H11F12882   1.901   1.309  14.150
   9523SM  H11G12883   1.748   1.418  14.199
   9523SM  C12F12884   1.956   1.525  14.231
   9523SM  H12F12885   2.044   1.570  14.166
   9523SM  H12G12886   2.011   1.475  14.318
   9523SM  C13F12887   1.852   1.641  14.281
   9523SM  H13F12888   1.773   1.593  14.355
   9523SM  H13G12889   1.785   1.684  14.196
   9523SM  C14F12890   1.936   1.766  14.342
   9523SM  H14F12891   2.032   1.795  14.278
   9523SM  H14G12892   1.980   1.734  14.442
   9523SM  C15F12893   1.833   1.896  14.348
   9523SM  H15F12894   1.797   1.925  14.245
   9523SM  H15G12895   1.903   1.982  14.392
   9523SM  C16F12896   1.699   1.879  14.438
   9523SM  H16F12897   1.637   1.778  14.415
   9523SM  H16G12898   1.623   1.973  14.423
   9523SM  C17F12899   1.755   1.879  14.581
   9523SM  H17F12900   1.806   1.987  14.605
   9523SM  H17G12901   1.840   1.792  14.592
   9523SM  C18F12902   1.636   1.842  14.682
   9523SM  H18F12903   1.698   1.808  14.772
   9523SM  H18G12904   1.567   1.749  14.648
   9523SM  C19F12905   1.539   1.976  14.714
   9523SM  H19F12906   1.472   2.008  14.626
   9523SM  H19G12907   1.612   2.070  14.737
   9523SM  C20F12908   1.439   1.943  14.834
   9523SM  H20F12909   1.363   1.851  14.806
   9523SM  H20G12910   1.372   2.042  14.858
   9523SM  C21F12911   1.526   1.895  14.958
   9523SM  H21F12912   1.609   1.980  14.984
   9523SM  H21G12913   1.586   1.792  14.940
   9523SM  C22F12914   1.426   1.866  15.077
   9523SM  H22F12915   1.345   1.779  15.046
   9523SM  H22G12916   1.363   1.967  15.103
   9523SM  C23F12917   1.515   1.811  15.197
   9523SM  H23F12918   1.442   1.757  15.272
   9523SM  H23G12919   1.573   1.903  15.245
   9523SM  H23H12920   1.599   1.730  15.162
   9623SM     N12921   2.885   8.847  12.247
   9623SM   C1512922   3.024   8.919  12.198
   9623SM  H15A12923   3.032   8.912  12.091
   9623SM  H15B12924   3.120   8.865  12.242
   9623SM  H15C12925   3.028   9.033  12.226
   9623SM   C1412926   2.756   8.923  12.188
   9623SM  H14A12927   2.653   8.872  12.214
   9623SM  H14B12928   2.764   8.930  12.079
   9623SM  H14C12929   2.750   9.038  12.221
   9623SM   C1312930   2.890   8.687  12.214
   9623SM  H13A12931   2.982   8.641  12.271
   9623SM  H13B12932   2.908   8.668  12.110
   9623SM  H13C12933   2.795   8.627  12.250
   9623SM   C1212934   2.879   8.854  12.398
   9623SM  H12A12935   2.796   8.775  12.429
   9623SM  H12B12936   2.839   8.962  12.430
   9623SM   C1112937   3.022   8.823  12.477
   9623SM  H11A12938   2.982   8.801  12.581
   9623SM  H11B12939   3.090   8.924  12.480
   9623SM     P12940   3.158   8.567  12.498
   9623SM   O1312941   3.050   8.449  12.468
   9623SM   O1412942   3.317   8.537  12.478
   9623SM   O1112943   3.138   8.621  12.645
   9623SM   O1212944   3.106   8.708  12.421
   9623SM   C1S12945   3.066   8.531  12.741
   9623SM   H1S12946   3.110   8.417  12.737
   9623SM   H1T12947   2.946   8.526  12.721
   9623SM    NF12948   3.034   8.498  12.988
   9623SM   HNF12949   2.947   8.535  13.039
   9623SM   C2S12950   3.088   8.595  12.883
   9623SM   H2S12951   3.208   8.615  12.898
   9623SM   C3S12952   3.008   8.748  12.886
   9623SM   H3S12953   2.896   8.740  12.845
   9623SM    O312954   3.077   8.855  12.805
   9623SM   HO312955   3.136   8.799  12.743
   9623SM   C4S12956   3.003   8.801  13.027
   9623SM   H4S12957   3.103   8.857  13.062
   9623SM   C5S12958   2.885   8.785  13.108
   9623SM   H5S12959   2.787   8.726  13.072
   9623SM   C6S12960   2.879   8.834  13.252
   9623SM   H6S12961   2.800   8.925  13.266
   9623SM   H6T12962   2.988   8.872  13.287
   9623SM   C7S12963   2.831   8.699  13.335
   9623SM   H7S12964   2.893   8.600  13.299
   9623SM   H7T12965   2.711   8.675  13.318
   9623SM   C8S12966   2.862   8.708  13.485
   9623SM   H8S12967   2.979   8.738  13.501
   9623SM   H8T12968   2.846   8.598  13.529
   9623SM   C9S12969   2.761   8.812  13.564
   9623SM   H9S12970   2.653   8.757  13.583
   9623SM   H9T12971   2.740   8.910  13.501
   9623SM  C10S12972   2.833   8.864  13.696
   9623SM  H10S12973   2.767   8.957  13.732
   9623SM  H10T12974   2.946   8.905  13.675
   9623SM  C11S12975   2.837   8.750  13.809
   9623SM  H11S12976   2.901   8.655  13.775
   9623SM  H11T12977   2.721   8.714  13.823
   9623SM  C12S12978   2.901   8.809  13.943
   9623SM  H12S12979   2.878   8.928  13.953
   9623SM  H12T12980   3.023   8.796  13.942
   9623SM  C13S12981   2.835   8.727  14.064
   9623SM  H13S12982   2.896   8.624  14.082
   9623SM  H13T12983   2.718   8.703  14.037
   9623SM  C14S12984   2.822   8.799  14.202
   9623SM  H14S12985   2.747   8.896  14.197
   9623SM  H14T12986   2.929   8.833  14.243
   9623SM  C15S12987   2.750   8.690  14.299
   9623SM  H15S12988   2.813   8.585  14.315
   9623SM  H15T12989   2.644   8.665  14.247
   9623SM  C16S12990   2.721   8.773  14.428
   9623SM  H16S12991   2.662   8.870  14.390
   9623SM  H16T12992   2.829   8.807  14.471
   9623SM  C17S12993   2.626   8.708  14.539
   9623SM  H17S12994   2.517   8.678  14.495
   9623SM  H17T12995   2.604   8.796  14.614
   9623SM  C18S12996   2.698   8.581  14.614
   9623SM  H18S12997   2.640   8.555  14.709
   9623SM  H18T12998   2.816   8.603  14.632
   9623SM  H18U12999   2.698   8.480  14.556
   9623SM   C1F13000   3.083   8.362  13.012
   9623SM    OF13001   3.160   8.296  12.931
   9623SM   C2F13002   3.027   8.286  13.136
   9623SM   H2F13003   2.951   8.198  13.102
   9623SM   H2G13004   2.963   8.364  13.198
   9623SM   C3F13005   3.153   8.217  13.221
   9623SM   H3F13006   3.205   8.302  13.284
   9623SM   H3G13007   3.241   8.177  13.152
   9623SM   C4F13008   3.105   8.083  13.305
   9623SM   H4F13009   3.171   7.987  13.272
   9623SM   H4G13010   2.988   8.057  13.286
   9623SM   C5F13011   3.135   8.092  13.457
   9623SM   H5F13012   3.105   8.203  13.496
   9623SM   H5G13013   3.255   8.078  13.474
   9623SM   C6F13014   3.048   7.966  13.526
   9623SM   H6F13015   3.089   7.859  13.487
   9623SM   H6G13016   2.931   7.979  13.496
   9623SM   C7F13017   3.053   7.959  13.680
   9623SM   H7F13018   3.070   8.071  13.722
   9623SM   H7G13019   3.149   7.893  13.712
   9623SM   C8F13020   2.910   7.897  13.741
   9623SM   H8F13021   2.883   7.786  13.701
   9623SM   H8G13022   2.817   7.970  13.713
   9623SM   C9F13023   2.921   7.897  13.895
   9623SM   H9F13024   3.005   7.983  13.916
   9623SM   H9G13025   2.966   7.790  13.929
   9623SM  C10F13026   2.783   7.942  13.976
   9623SM  H10F13027   2.722   7.843  14.011
   9623SM  H10G13028   2.706   8.001  13.907
   9623SM  C11F13029   2.817   8.049  14.094
   9623SM  H11F13030   2.760   8.151  14.073
   9623SM  H11G13031   2.936   8.077  14.096
   9623SM  C12F13032   2.770   7.996  14.235
   9623SM  H12F13033   2.809   7.882  14.247
   9623SM  H12G13034   2.649   7.989  14.236
   9623SM  C13F13035   2.825   8.090  14.356
   9623SM  H13F13036   2.811   8.209  14.342
   9623SM  H13G13037   2.945   8.085  14.363
   9623SM  C14F13038   2.756   8.053  14.494
   9623SM  H14F13039   2.717   7.937  14.496
   9623SM  H14G13040   2.654   8.121  14.504
   9623SM  C15F13041   2.857   8.078  14.616
   9623SM  H15F13042   2.968   8.110  14.583
   9623SM  H15G13043   2.868   7.974  14.673
   9623SM  C16F13044   2.796   8.198  14.710
   9623SM  H16F13045   2.693   8.156  14.757
   9623SM  H16G13046   2.765   8.294  14.648
   9623SM  C17F13047   2.896   8.251  14.824
   9623SM  H17F13048   2.945   8.158  14.880
   9623SM  H17G13049   2.824   8.312  14.894
   9623SM  C18F13050   3.020   8.359  14.783
   9623SM  H18F13051   2.974   8.448  14.718
   9623SM  H18G13052   3.101   8.300  14.722
   9623SM  C19F13053   3.093   8.428  14.906
   9623SM  H19F13054   3.190   8.496  14.877
   9623SM  H19G13055   3.135   8.339  14.972
   9623SM  C20F13056   2.994   8.532  14.987
   9623SM  H20F13057   3.057   8.561  15.078
   9623SM  H20G13058   2.894   8.474  15.020
   9623SM  C21F13059   2.951   8.674  14.914
   9623SM  H21F13060   2.916   8.649  14.810
   9623SM  H21G13061   3.050   8.744  14.906
   9623SM  C22F13062   2.825   8.756  14.983
   9623SM  H22F13063   2.720   8.698  14.958
   9623SM  H22G13064   2.816   8.869  14.941
   9623SM  C23F13065   2.837   8.764  15.136
   9623SM  H23F13066   2.948   8.732  15.170
   9623SM  H23G13067   2.758   8.684  15.182
   9623SM  H23H13068   2.814   8.876  15.175
   9723SM     N13069   4.703  -0.122  12.204
   9723SM   C1513070   4.544  -0.085  12.220
   9723SM  H15A13071   4.491  -0.044  12.131
   9723SM  H15B13072   4.534  -0.001  12.298
   9723SM  H15C13073   4.485  -0.183  12.253
   9723SM   C1413074   4.715  -0.250  12.113
   9723SM  H14A13075   4.659  -0.345  12.153
   9723SM  H14B13076   4.829  -0.283  12.096
   9723SM  H14C13077   4.669  -0.226  12.015
   9723SM   C1313078   4.775   0.014  12.153
   9723SM  H13A13079   4.734   0.050  12.057
   9723SM  H13B13080   4.894   0.004  12.148
   9723SM  H13C13081   4.754   0.103  12.224
   9723SM   C1213082   4.765  -0.162  12.341
   9723SM  H12A13083   4.883  -0.134  12.347
   9723SM  H12B13084   4.759  -0.280  12.354
   9723SM   C1113085   4.687  -0.095  12.464
   9723SM  H11A13086   4.747  -0.127  12.558
   9723SM  H11B13087   4.578  -0.150  12.471
   9723SM     P13088   4.783   0.172  12.507
   9723SM   O1313089   4.927   0.130  12.450
   9723SM   O1413090   4.730   0.323  12.480
   9723SM   O1113091   4.773   0.134  12.666
   9723SM   O1213092   4.664   0.060  12.453
   9723SM   C1S13093   4.624   0.143  12.719
   9723SM   H1S13094   4.558   0.051  12.681
   9723SM   H1T13095   4.568   0.248  12.689
   9723SM    NF13096   4.663   0.268  12.939
   9723SM   HNF13097   4.760   0.261  12.983
   9723SM   C2S13098   4.611   0.133  12.875
   9723SM   H2S13099   4.491   0.120  12.898
   9723SM   C3S13100   4.694  -0.002  12.932
   9723SM   H3S13101   4.814   0.008  12.913
   9723SM    O313102   4.648  -0.141  12.878
   9723SM   HO313103   4.587  -0.117  12.803
   9723SM   C4S13104   4.665   0.000  13.081
   9723SM   H4S13105   4.557  -0.046  13.109
   9723SM   C5S13106   4.757   0.053  13.175
   9723SM   H5S13107   4.865   0.095  13.142
   9723SM   C6S13108   4.731   0.058  13.324
   9723SM   H6S13109   4.665  -0.036  13.359
   9723SM   H6T13110   4.669   0.160  13.350
   9723SM   C7S13111   4.877   0.063  13.402
   9723SM   H7S13112   4.951   0.152  13.367
   9723SM   H7T13113   4.936  -0.044  13.382
   9723SM   C8S13114   4.861   0.076  13.555
   9723SM   H8S13115   4.949   0.004  13.596
   9723SM   H8T13116   4.755   0.028  13.589
   9723SM   C9S13117   4.884   0.229  13.617
   9723SM   H9S13118   4.782   0.296  13.602
   9723SM   H9T13119   4.976   0.287  13.568
   9723SM  C10S13120   4.918   0.217  13.768
   9723SM  H10S13121   5.027   0.164  13.782
   9723SM  H10T13122   4.832   0.143  13.812
   9723SM  C11S13123   4.920   0.361  13.847
   9723SM  H11S13124   4.850   0.441  13.793
   9723SM  H11T13125   5.032   0.407  13.850
   9723SM  C12S13126   4.858   0.343  13.989
   9723SM  H12S13127   4.755   0.276  13.987
   9723SM  H12T13128   4.826   0.455  14.026
   9723SM  C13S13129   4.964   0.277  14.091
   9723SM  H13S13130   5.072   0.336  14.081
   9723SM  H13T13131   4.983   0.158  14.070
   9723SM  C14S13132   4.909   0.298  14.236
   9723SM  H14S13133   4.816   0.222  14.256
   9723SM  H14T13134   4.868   0.413  14.247
   9723SM  C15S13135   5.030   0.273  14.340
   9723SM  H15S13136   5.129   0.334  14.307
   9723SM  H15T13137   5.059   0.154  14.344
   9723SM  C16S13138   4.989   0.328  14.479
   9723SM  H16S13139   4.895   0.263  14.520
   9723SM  H16T13140   4.953   0.444  14.473
   9723SM  C17S13141   5.119   0.316  14.575
   9723SM  H17S13142   5.216   0.369  14.527
   9723SM  H17T13143   5.146   0.197  14.592
   9723SM  C18S13144   5.092   0.389  14.709
   9723SM  H18S13145   5.038   0.497  14.691
   9723SM  H18T13146   5.198   0.408  14.763
   9723SM  H18U13147   5.017   0.323  14.774
   9723SM   C1F13148   4.583   0.392  12.935
   9723SM    OF13149   4.466   0.399  12.876
   9723SM   C2F13150   4.643   0.521  13.008
   9723SM   H2F13151   4.596   0.620  12.961
   9723SM   H2G13152   4.764   0.524  12.997
   9723SM   C3F13153   4.598   0.513  13.156
   9723SM   H3F13154   4.631   0.405  13.198
   9723SM   H3G13155   4.476   0.518  13.164
   9723SM   C4F13156   4.664   0.636  13.244
   9723SM   H4F13157   4.600   0.738  13.232
   9723SM   H4G13158   4.778   0.658  13.213
   9723SM   C5F13159   4.661   0.594  13.392
   9723SM   H5F13160   4.723   0.675  13.453
   9723SM   H5G13161   4.714   0.485  13.406
   9723SM   C6F13162   4.503   0.586  13.447
   9723SM   H6F13163   4.423   0.551  13.370
   9723SM   H6G13164   4.469   0.697  13.481
   9723SM   C7F13165   4.492   0.479  13.564
   9723SM   H7F13166   4.536   0.370  13.535
   9723SM   H7G13167   4.374   0.465  13.587
   9723SM   C8F13168   4.574   0.534  13.687
   9723SM   H8F13169   4.531   0.643  13.716
   9723SM   H8G13170   4.693   0.548  13.664
   9723SM   C9F13171   4.558   0.429  13.806
   9723SM   H9F13172   4.611   0.483  13.893
   9723SM   H9G13173   4.620   0.326  13.784
   9723SM  C10F13174   4.400   0.386  13.840
   9723SM  H10F13175   4.351   0.326  13.754
   9723SM  H10G13176   4.332   0.486  13.858
   9723SM  C11F13177   4.394   0.284  13.961
   9723SM  H11F13178   4.475   0.194  13.945
   9723SM  H11G13179   4.283   0.234  13.970
   9723SM  C12F13180   4.432   0.364  14.091
   9723SM  H12F13181   4.334   0.431  14.120
   9723SM  H12G13182   4.524   0.443  14.078
   9723SM  C13F13183   4.474   0.259  14.203
   9723SM  H13F13184   4.590   0.227  14.192
   9723SM  H13G13185   4.407   0.156  14.192
   9723SM  C14F13186   4.443   0.324  14.340
   9723SM  H14F13187   4.330   0.372  14.338
   9723SM  H14G13188   4.521   0.417  14.361
   9723SM  C15F13189   4.447   0.209  14.452
   9723SM  H15F13190   4.388   0.109  14.420
   9723SM  H15G13191   4.387   0.256  14.538
   9723SM  C16F13192   4.602   0.169  14.500
   9723SM  H16F13193   4.661   0.273  14.528
   9723SM  H16G13194   4.665   0.118  14.417
   9723SM  C17F13195   4.600   0.066  14.621
   9723SM  H17F13196   4.543  -0.037  14.592
   9723SM  H17G13197   4.534   0.117  14.702
   9723SM  C18F13198   4.754   0.029  14.675
   9723SM  H18F13199   4.806   0.130  14.715
   9723SM  H18G13200   4.820  -0.007  14.587
   9723SM  C19F13201   4.759  -0.097  14.779
   9723SM  H19F13202   4.864  -0.155  14.762
   9723SM  H19G13203   4.668  -0.177  14.762
   9723SM  C20F13204   4.761  -0.047  14.927
   9723SM  H20F13205   4.815   0.062  14.934
   9723SM  H20G13206   4.832  -0.124  14.985
   9723SM  C21F13207   4.609  -0.050  14.994
   9723SM  H21F13208   4.599  -0.146  15.062
   9723SM  H21G13209   4.524  -0.063  14.915
   9723SM  C22F13210   4.571   0.089  15.074
   9723SM  H22F13211   4.634   0.089  15.169
   9723SM  H22G13212   4.453   0.088  15.102
   9723SM  C23F13213   4.603   0.227  14.995
   9723SM  H23F13214   4.706   0.280  15.033
   9723SM  H23G13215   4.511   0.306  15.000
   9723SM  H23H13216   4.621   0.201  14.888
   9823SM     N13217   7.205   8.237  12.303
   9823SM   C1513218   7.227   8.393  12.341
   9823SM  H15A13219   7.145   8.430  12.412
   9823SM  H15B13220   7.217   8.466  12.256
   9823SM  H15C13221   7.336   8.411  12.383
   9823SM   C1413222   7.052   8.219  12.249
   9823SM  H14A13223   7.042   8.276  12.154
   9823SM  H14B13224   6.971   8.264  12.317
   9823SM  H14C13225   7.025   8.104  12.233
   9823SM   C1313226   7.314   8.195  12.198
   9823SM  H13A13227   7.311   8.265  12.111
   9823SM  H13B13228   7.297   8.082  12.164
   9823SM  H13C13229   7.425   8.195  12.240
   9823SM   C1213230   7.229   8.141  12.426
   9823SM  H12A13231   7.203   8.027  12.401
   9823SM  H12B13232   7.157   8.173  12.506
   9823SM   C1113233   7.389   8.135  12.482
   9823SM  H11A13234   7.385   8.087  12.584
   9823SM  H11B13235   7.433   8.248  12.494
   9823SM     P13236   7.464   7.884  12.373
   9823SM   O1313237   7.312   7.859  12.320
   9823SM   O1413238   7.586   7.834  12.287
   9823SM   O1113239   7.475   7.814  12.520
   9823SM   O1213240   7.487   8.054  12.397
   9823SM   C1S13241   7.607   7.843  12.595
   9823SM   H1S13242   7.680   7.924  12.545
   9823SM   H1T13243   7.671   7.740  12.603
   9823SM    NF13244   7.710   7.965  12.790
   9823SM   HNF13245   7.759   7.913  12.863
   9823SM   C2S13246   7.576   7.901  12.740
   9823SM   H2S13247   7.491   7.989  12.738
   9823SM   C3S13248   7.517   7.768  12.826
   9823SM   H3S13249   7.593   7.675  12.814
   9823SM    O313250   7.374   7.722  12.785
   9823SM   HO313251   7.361   7.764  12.697
   9823SM   C4S13252   7.500   7.803  12.975
   9823SM   H4S13253   7.445   7.908  12.997
   9823SM   C5S13254   7.544   7.714  13.077
   9823SM   H5S13255   7.587   7.607  13.050
   9823SM   C6S13256   7.525   7.740  13.227
   9823SM   H6S13257   7.470   7.640  13.264
   9823SM   H6T13258   7.444   7.831  13.241
   9823SM   C7S13259   7.638   7.760  13.344
   9823SM   H7S13260   7.577   7.812  13.428
   9823SM   H7T13261   7.718   7.843  13.312
   9823SM   C8S13262   7.712   7.621  13.401
   9823SM   H8S13263   7.770   7.564  13.319
   9823SM   H8T13264   7.626   7.544  13.436
   9823SM   C9S13265   7.829   7.642  13.515
   9823SM   H9S13266   7.924   7.698  13.470
   9823SM   H9T13267   7.867   7.528  13.543
   9823SM  C10S13268   7.780   7.721  13.644
   9823SM  H10S13269   7.704   7.642  13.690
   9823SM  H10T13270   7.720   7.823  13.620
   9823SM  C11S13271   7.889   7.753  13.761
   9823SM  H11S13272   7.977   7.830  13.729
   9823SM  H11T13273   7.941   7.646  13.791
   9823SM  C12S13274   7.805   7.814  13.883
   9823SM  H12S13275   7.706   7.743  13.892
   9823SM  H12T13276   7.764   7.928  13.861
   9823SM  C13S13277   7.876   7.812  14.023
   9823SM  H13S13278   7.959   7.902  14.030
   9823SM  H13T13279   7.934   7.707  14.039
   9823SM  C14S13280   7.757   7.831  14.134
   9823SM  H14S13281   7.692   7.729  14.144
   9823SM  H14T13282   7.685   7.923  14.104
   9823SM  C15S13283   7.811   7.874  14.274
   9823SM  H15S13284   7.721   7.924  14.334
   9823SM  H15T13285   7.898   7.955  14.258
   9823SM  C16S13286   7.867   7.745  14.356
   9823SM  H16S13287   7.915   7.667  14.285
   9823SM  H16T13288   7.774   7.693  14.409
   9823SM  C17S13289   7.999   7.774  14.446
   9823SM  H17S13290   8.064   7.865  14.401
   9823SM  H17T13291   8.070   7.674  14.441
   9823SM  C18S13292   7.965   7.802  14.593
   9823SM  H18S13293   8.053   7.871  14.638
   9823SM  H18T13294   7.961   7.696  14.648
   9823SM  H18U13295   7.858   7.861  14.606
   9823SM   C1F13296   7.778   8.085  12.744
   9823SM    OF13297   7.724   8.172  12.665
   9823SM   C2F13298   7.928   8.103  12.803
   9823SM   H2F13299   8.003   8.019  12.759
   9823SM   H2G13300   7.910   8.075  12.910
   9823SM   C3F13301   7.999   8.255  12.799
   9823SM   H3F13302   7.946   8.325  12.721
   9823SM   H3G13303   8.117   8.242  12.769
   9823SM   C4F13304   7.994   8.336  12.934
   9823SM   H4F13305   8.048   8.445  12.922
   9823SM   H4G13306   8.059   8.273  13.009
   9823SM   C5F13307   7.836   8.357  12.984
   9823SM   H5F13308   7.788   8.250  13.016
   9823SM   H5G13309   7.768   8.400  12.900
   9823SM   C6F13310   7.821   8.467  13.099
   9823SM   H6F13311   7.857   8.577  13.064
   9823SM   H6G13312   7.898   8.435  13.180
   9823SM   C7F13313   7.660   8.480  13.147
   9823SM   H7F13314   7.588   8.467  13.058
   9823SM   H7G13315   7.643   8.593  13.185
   9823SM   C8F13316   7.614   8.367  13.255
   9823SM   H8F13317   7.619   8.255  13.209
   9823SM   H8G13318   7.499   8.389  13.286
   9823SM   C9F13319   7.715   8.368  13.379
   9823SM   H9F13320   7.713   8.480  13.422
   9823SM   H9G13321   7.829   8.342  13.345
   9823SM  C10F13322   7.681   8.252  13.488
   9823SM  H10F13323   7.781   8.237  13.550
   9823SM  H10G13324   7.651   8.144  13.444
   9823SM  C11F13325   7.566   8.308  13.585
   9823SM  H11F13326   7.460   8.312  13.529
   9823SM  H11G13327   7.600   8.424  13.609
   9823SM  C12F13328   7.548   8.229  13.720
   9823SM  H12F13329   7.560   8.314  13.800
   9823SM  H12G13330   7.638   8.149  13.735
   9823SM  C13F13331   7.400   8.153  13.740
   9823SM  H13F13332   7.388   8.063  13.666
   9823SM  H13G13333   7.306   8.229  13.722
   9823SM  C14F13334   7.378   8.096  13.883
   9823SM  H14F13335   7.469   8.021  13.909
   9823SM  H14G13336   7.273   8.033  13.885
   9823SM  C15F13337   7.370   8.220  13.988
   9823SM  H15F13338   7.326   8.320  13.937
   9823SM  H15G13339   7.483   8.246  14.023
   9823SM  C16F13340   7.272   8.185  14.109
   9823SM  H16F13341   7.169   8.133  14.071
   9823SM  H16G13342   7.240   8.286  14.163
   9823SM  C17F13343   7.350   8.077  14.203
   9823SM  H17F13344   7.418   8.009  14.134
   9823SM  H17G13345   7.270   8.005  14.254
   9823SM  C18F13346   7.456   8.144  14.308
   9823SM  H18F13347   7.520   8.236  14.263
   9823SM  H18G13348   7.535   8.056  14.336
   9823SM  C19F13349   7.383   8.195  14.439
   9823SM  H19F13350   7.332   8.097  14.488
   9823SM  H19G13351   7.293   8.275  14.418
   9823SM  C20F13352   7.491   8.264  14.540
   9823SM  H20F13353   7.546   8.361  14.494
   9823SM  H20G13354   7.578   8.184  14.566
   9823SM  C21F13355   7.413   8.316  14.669
   9823SM  H21F13356   7.355   8.221  14.716
   9823SM  H21G13357   7.327   8.399  14.641
   9823SM  C22F13358   7.515   8.385  14.774
   9823SM  H22F13359   7.447   8.441  14.851
   9823SM  H22G13360   7.583   8.471  14.725
   9823SM  C23F13361   7.614   8.273  14.845
   9823SM  H23F13362   7.546   8.191  14.899
   9823SM  H23G13363   7.688   8.327  14.918
   9823SM  H23H13364   7.682   8.213  14.771
   9923SM     N13365   0.587   7.875  12.236
   9923SM   C1513366   0.549   7.718  12.266
   9923SM  H15A13367   0.615   7.684  12.351
   9923SM  H15B13368   0.572   7.647  12.182
   9923SM  H15C13369   0.435   7.706  12.294
   9923SM   C1413370   0.746   7.889  12.202
   9923SM  H14A13371   0.775   8.004  12.189
   9923SM  H14B13372   0.770   7.830  12.111
   9923SM  H14C13373   0.812   7.847  12.285
   9923SM   C1313374   0.501   7.931  12.120
   9923SM  H13A13375   0.529   8.047  12.108
   9923SM  H13B13376   0.383   7.922  12.138
   9923SM  H13C13377   0.530   7.875  12.027
   9923SM   C1213378   0.551   7.970  12.355
   9923SM  H12A13379   0.435   7.966  12.373
   9923SM  H12B13380   0.577   8.085  12.332
   9923SM   C1113381   0.632   7.939  12.486
   9923SM  H11A13382   0.623   7.821  12.515
   9923SM  H11B13383   0.576   8.005  12.565
   9923SM     P13384   0.824   8.146  12.483
   9923SM   O1313385   0.983   8.162  12.452
   9923SM   O1413386   0.714   8.226  12.402
   9923SM   O1113387   0.804   8.190  12.635
   9923SM   O1213388   0.785   7.975  12.477
   9923SM   C1S13389   0.882   8.103  12.731
   9923SM   H1S13390   0.993   8.149  12.746
   9923SM   H1T13391   0.899   7.986  12.698
   9923SM    NF13392   0.648   8.048  12.841
   9923SM   HNF13393   0.573   8.128  12.830
   9923SM   C2S13394   0.799   8.093  12.868
   9923SM   H2S13395   0.851   8.006  12.930
   9923SM   C3S13396   0.811   8.243  12.943
   9923SM   H3S13397   0.746   8.327  12.890
   9923SM    O313398   0.959   8.295  12.942
   9923SM   HO313399   0.979   8.291  12.848
   9923SM   C4S13400   0.755   8.234  13.087
   9923SM   H4S13401   0.636   8.253  13.095
   9923SM   C5S13402   0.831   8.207  13.201
   9923SM   H5S13403   0.948   8.182  13.193
   9923SM   C6S13404   0.771   8.201  13.343
   9923SM   H6S13405   0.794   8.309  13.389
   9923SM   H6T13406   0.836   8.121  13.404
   9923SM   C7S13407   0.607   8.175  13.376
   9923SM   H7S13408   0.568   8.067  13.339
   9923SM   H7T13409   0.542   8.265  13.328
   9923SM   C8S13410   0.583   8.184  13.527
   9923SM   H8S13411   0.469   8.218  13.548
   9923SM   H8T13412   0.659   8.268  13.570
   9923SM   C9S13413   0.609   8.039  13.601
   9923SM   H9S13414   0.729   8.015  13.603
   9923SM   H9T13415   0.553   7.950  13.544
   9923SM  C10S13416   0.550   8.043  13.744
   9923SM  H10S13417   0.541   7.929  13.782
   9923SM  H10T13418   0.436   8.087  13.744
   9923SM  C11S13419   0.648   8.130  13.842
   9923SM  H11S13420   0.653   8.248  13.811
   9923SM  H11T13421   0.761   8.086  13.837
   9923SM  C12S13422   0.592   8.121  13.988
   9923SM  H12S13423   0.579   8.004  14.015
   9923SM  H12T13424   0.483   8.175  13.994
   9923SM  C13S13425   0.700   8.187  14.090
   9923SM  H13S13426   0.741   8.291  14.045
   9923SM  H13T13427   0.793   8.110  14.103
   9923SM  C14S13428   0.630   8.225  14.226
   9923SM  H14S13429   0.576   8.126  14.267
   9923SM  H14T13430   0.541   8.306  14.210
   9923SM  C15S13431   0.740   8.284  14.330
   9923SM  H15S13432   0.782   8.393  14.299
   9923SM  H15T13433   0.837   8.209  14.335
   9923SM  C16S13434   0.674   8.296  14.471
   9923SM  H16S13435   0.655   8.182  14.504
   9923SM  H16T13436   0.570   8.359  14.474
   9923SM  C17S13437   0.782   8.352  14.576
   9923SM  H17S13438   0.802   8.471  14.565
   9923SM  H17T13439   0.884   8.297  14.548
   9923SM  C18S13440   0.741   8.317  14.721
   9923SM  H18S13441   0.838   8.320  14.788
   9923SM  H18T13442   0.690   8.208  14.735
   9923SM  H18U13443   0.658   8.397  14.758
   9923SM   C1F13444   0.615   7.912  12.800
   9923SM    OF13445   0.711   7.831  12.757
   9923SM   C2F13446   0.458   7.861  12.800
   9923SM   H2F13447   0.455   7.739  12.806
   9923SM   H2G13448   0.407   7.891  12.703
   9923SM   C3F13449   0.372   7.927  12.917
   9923SM   H3F13450   0.252   7.913  12.899
   9923SM   H3G13451   0.393   8.047  12.924
   9923SM   C4F13452   0.410   7.861  13.053
   9923SM   H4F13453   0.531   7.850  13.068
   9923SM   H4G13454   0.361   7.748  13.061
   9923SM   C5F13455   0.345   7.962  13.160
   9923SM   H5F13456   0.242   8.007  13.118
   9923SM   H5G13457   0.419   8.057  13.177
   9923SM   C6F13458   0.306   7.883  13.289
   9923SM   H6F13459   0.408   7.853  13.345
   9923SM   H6G13460   0.245   7.780  13.265
   9923SM   C7F13461   0.205   7.978  13.376
   9923SM   H7F13462   0.100   8.000  13.322
   9923SM   H7G13463   0.260   8.084  13.398
   9923SM   C8F13464   0.168   7.898  13.506
   9923SM   H8F13465   0.271   7.838  13.532
   9923SM   H8G13466   0.081   7.814  13.489
   9923SM   C9F13467   0.124   8.001  13.620
   9923SM   H9F13468   0.029   8.069  13.588
   9923SM   H9G13469   0.217   8.077  13.644
   9923SM  C10F13470   0.085   7.915  13.745
   9923SM  H10F13471  -0.005   7.838  13.719
   9923SM  H10G13472   0.043   7.987  13.826
   9923SM  C11F13473   0.216   7.826  13.796
   9923SM  H11F13474   0.307   7.813  13.723
   9923SM  H11G13475   0.176   7.713  13.816
   9923SM  C12F13476   0.277   7.882  13.928
   9923SM  H12F13477   0.182   7.886  13.997
   9923SM  H12G13478   0.324   7.994  13.928
   9923SM  C13F13479   0.385   7.765  13.979
   9923SM  H13F13480   0.498   7.807  13.986
   9923SM  H13G13481   0.388   7.670  13.909
   9923SM  C14F13482   0.326   7.719  14.113
   9923SM  H14F13483   0.218   7.662  14.098
   9923SM  H14G13484   0.305   7.823  14.165
   9923SM  C15F13485   0.427   7.630  14.200
   9923SM  H15F13486   0.469   7.533  14.143
   9923SM  H15G13487   0.364   7.589  14.288
   9923SM  C16F13488   0.558   7.720  14.250
   9923SM  H16F13489   0.626   7.752  14.163
   9923SM  H16G13490   0.619   7.646  14.317
   9923SM  C17F13491   0.524   7.857  14.331
   9923SM  H17F13492   0.458   7.934  14.270
   9923SM  H17G13493   0.630   7.915  14.350
   9923SM  C18F13494   0.448   7.833  14.467
   9923SM  H18F13495   0.526   7.775  14.535
   9923SM  H18G13496   0.349   7.764  14.456
   9923SM  C19F13497   0.408   7.985  14.523
   9923SM  H19F13498   0.314   8.032  14.470
   9923SM  H19G13499   0.499   8.055  14.492
   9923SM  C20F13500   0.393   8.001  14.676
   9923SM  H20F13501   0.491   7.953  14.726
   9923SM  H20G13502   0.294   7.941  14.710
   9923SM  C21F13503   0.380   8.165  14.716
   9923SM  H21F13504   0.286   8.213  14.659
   9923SM  H21G13505   0.477   8.226  14.682
   9923SM  C22F13506   0.353   8.193  14.866
   9923SM  H22F13507   0.280   8.105  14.905
   9923SM  H22G13508   0.292   8.298  14.875
   9923SM  C23F13509   0.492   8.207  14.953
   9923SM  H23F13510   0.463   8.230  15.059
   9923SM  H23G13511   0.559   8.303  14.919
   9923SM  H23H13512   0.560   8.106  14.948
  10023SM     N13513   0.309   0.515  12.201
  10023SM   C1513514   0.414   0.428  12.119
  10023SM  H15A13515   0.513   0.491  12.101
  10023SM  H15B13516   0.364   0.397  12.025
  10023SM  H15C13517   0.437   0.329  12.175
  10023SM   C1413518   0.271   0.655  12.132
  10023SM  H14A13519   0.367   0.717  12.104
  10023SM  H14B13520   0.200   0.722  12.196
  10023SM  H14C13521   0.208   0.632  12.042
  10023SM   C1313522   0.168   0.432  12.220
  10023SM  H13A13523   0.183   0.338  12.285
  10023SM  H13B13524   0.132   0.391  12.124
  10023SM  H13C13525   0.085   0.502  12.265
  10023SM   C1213526   0.380   0.542  12.338
  10023SM  H12A13527   0.294   0.583  12.404
  10023SM  H12B13528   0.463   0.626  12.328
  10023SM   C1113529   0.451   0.407  12.407
  10023SM  H11A13530   0.486   0.439  12.510
  10023SM  H11B13531   0.554   0.378  12.353
  10023SM     P13532   0.245   0.249  12.523
  10023SM   O1313533   0.162   0.385  12.546
  10023SM   O1413534   0.157   0.117  12.491
  10023SM   O1113535   0.339   0.220  12.652
  10023SM   O1213536   0.359   0.279  12.407
  10023SM   C1S13537   0.470   0.139  12.663
  10023SM   H1S13538   0.561   0.199  12.615
  10023SM   H1T13539   0.464   0.028  12.615
  10023SM    NF13540   0.376   0.047  12.878
  10023SM   HNF13541   0.318   0.115  12.933
  10023SM   C2S13542   0.501   0.118  12.814
  10023SM   H2S13543   0.598   0.045  12.824
  10023SM   C3S13544   0.534   0.264  12.884
  10023SM   H3S13545   0.438   0.339  12.881
  10023SM    O313546   0.652   0.342  12.824
  10023SM   HO313547   0.674   0.287  12.745
  10023SM   C4S13548   0.564   0.218  13.026
  10023SM   H4S13549   0.674   0.169  13.040
  10023SM   C5S13550   0.472   0.224  13.131
  10023SM   H5S13551   0.363   0.276  13.121
  10023SM   C6S13552   0.514   0.172  13.268
  10023SM   H6S13553   0.575   0.257  13.322
  10023SM   H6T13554   0.591   0.077  13.262
  10023SM   C7S13555   0.375   0.123  13.346
  10023SM   H7S13556   0.360   0.003  13.328
  10023SM   H7T13557   0.275   0.184  13.313
  10023SM   C8S13558   0.388   0.150  13.497
  10023SM   H8S13559   0.306   0.080  13.550
  10023SM   H8T13560   0.364   0.266  13.521
  10023SM   C9S13561   0.541   0.113  13.550
  10023SM   H9S13562   0.609   0.214  13.557
  10023SM   H9T13563   0.600   0.036  13.482
  10023SM  C10S13564   0.534   0.038  13.686
  10023SM  H10S13565   0.642  -0.013  13.703
  10023SM  H10T13566   0.450  -0.051  13.693
  10023SM  C11S13567   0.514   0.146  13.797
  10023SM  H11S13568   0.394   0.164  13.811
  10023SM  H11T13569   0.567   0.254  13.775
  10023SM  C12S13570   0.580   0.085  13.923
  10023SM  H12S13571   0.702   0.077  13.916
  10023SM  H12T13572   0.536  -0.028  13.944
  10023SM  C13S13573   0.534   0.190  14.028
  10023SM  H13S13574   0.411   0.191  14.026
  10023SM  H13T13575   0.577   0.303  14.004
  10023SM  C14S13576   0.582   0.142  14.163
  10023SM  H14S13577   0.677   0.066  14.155
  10023SM  H14T13578   0.490   0.081  14.210
  10023SM  C15S13579   0.623   0.274  14.247
  10023SM  H15S13580   0.530   0.354  14.242
  10023SM  H15T13581   0.724   0.330  14.210
  10023SM  C16S13582   0.639   0.216  14.387
  10023SM  H16S13583   0.750   0.166  14.399
  10023SM  H16T13584   0.557   0.128  14.404
  10023SM  C17S13585   0.608   0.332  14.489
  10023SM  H17S13586   0.515   0.400  14.454
  10023SM  H17T13587   0.704   0.408  14.493
  10023SM  C18S13588   0.579   0.266  14.626
  10023SM  H18S13589   0.462   0.235  14.640
  10023SM  H18T13590   0.614   0.342  14.707
  10023SM  H18U13591   0.637   0.161  14.634
  10023SM   C1F13592   0.343  -0.092  12.863
  10023SM    OF13593   0.425  -0.175  12.800
  10023SM   C2F13594   0.208  -0.144  12.933
  10023SM   H2F13595   0.206  -0.095  13.034
  10023SM   H2G13596   0.214  -0.265  12.946
  10023SM   C3F13597   0.064  -0.110  12.855
  10023SM   H3F13598  -0.031  -0.158  12.910
  10023SM   H3G13599   0.067  -0.168  12.757
  10023SM   C4F13600   0.030   0.054  12.830
  10023SM   H4F13601  -0.060   0.063  12.756
  10023SM   H4G13602   0.125   0.112  12.785
  10023SM   C5F13603  -0.015   0.130  12.960
  10023SM   H5F13604   0.071   0.110  13.035
  10023SM   H5G13605  -0.122   0.079  12.991
  10023SM   C6F13606  -0.034   0.298  12.953
  10023SM   H6F13607  -0.110   0.327  12.870
  10023SM   H6G13608   0.075   0.348  12.927
  10023SM   C7F13609  -0.091   0.367  13.085
  10023SM   H7F13610  -0.209   0.398  13.074
  10023SM   H7G13611  -0.033   0.473  13.102
  10023SM   C8F13612  -0.074   0.268  13.208
  10023SM   H8F13613   0.045   0.257  13.233
  10023SM   H8G13614  -0.122   0.160  13.185
  10023SM   C9F13615  -0.162   0.317  13.331
  10023SM   H9F13616  -0.145   0.235  13.413
  10023SM   H9G13617  -0.280   0.315  13.306
  10023SM  C10F13618  -0.115   0.466  13.383
  10023SM  H10F13619  -0.187   0.495  13.470
  10023SM  H10G13620  -0.132   0.553  13.306
  10023SM  C11F13621   0.046   0.463  13.427
  10023SM  H11F13622   0.121   0.472  13.339
  10023SM  H11G13623   0.067   0.353  13.474
  10023SM  C12F13624   0.085   0.580  13.530
  10023SM  H12F13625  -0.016   0.635  13.568
  10023SM  H12G13626   0.154   0.667  13.482
  10023SM  C13F13627   0.168   0.514  13.649
  10023SM  H13F13628   0.262   0.448  13.611
  10023SM  H13G13629   0.095   0.437  13.703
  10023SM  C14F13630   0.228   0.632  13.742
  10023SM  H14F13631   0.134   0.683  13.795
  10023SM  H14G13632   0.285   0.718  13.682
  10023SM  C15F13633   0.332   0.575  13.850
  10023SM  H15F13634   0.356   0.667  13.920
  10023SM  H15G13635   0.438   0.540  13.803
  10023SM  C16F13636   0.263   0.447  13.925
  10023SM  H16F13637   0.298   0.345  13.874
  10023SM  H16G13638   0.141   0.450  13.918
  10023SM  C17F13639   0.306   0.442  14.072
  10023SM  H17F13640   0.426   0.462  14.083
  10023SM  H17G13641   0.278   0.330  14.111
  10023SM  C18F13642   0.221   0.546  14.164
  10023SM  H18F13643   0.101   0.532  14.143
  10023SM  H18G13644   0.251   0.662  14.145
  10023SM  C19F13645   0.253   0.501  14.308
  10023SM  H19F13646   0.369   0.527  14.332
  10023SM  H19G13647   0.242   0.378  14.314
  10023SM  C20F13648   0.146   0.569  14.409
  10023SM  H20F13649   0.038   0.589  14.360
  10023SM  H20G13650   0.194   0.677  14.440
  10023SM  C21F13651   0.121   0.472  14.534
  10023SM  H21F13652   0.074   0.364  14.504
  10023SM  H21G13653   0.045   0.527  14.604
  10023SM  C22F13654   0.267   0.443  14.603
  10023SM  H22F13655   0.327   0.550  14.598
  10023SM  H22G13656   0.323   0.362  14.540
  10023SM  C23F13657   0.265   0.394  14.749
  10023SM  H23F13658   0.378   0.395  14.791
  10023SM  H23G13659   0.222   0.279  14.759
  10023SM  H23H13660   0.198   0.470  14.811
  101CHL1    C313661   4.412   5.034  16.716
  101CHL1    H313662   4.528   5.027  16.677
  101CHL1    O313663   4.417   5.045  16.857
  101CHL1   H3'13664   4.314   5.039  16.883
  101CHL1    C413665   4.335   5.168  16.655
  101CHL1   H4A13666   4.222   5.175  16.697
  101CHL1   H4B13667   4.394   5.268  16.690
  101CHL1    C513668   4.327   5.159  16.504
  101CHL1    C613669   4.387   5.263  16.426
  101CHL1    H613670   4.438   5.360  16.473
  101CHL1    C713671   4.382   5.262  16.276
  101CHL1   H7A13672   4.347   5.371  16.237
  101CHL1   H7B13673   4.496   5.241  16.238
  101CHL1    C813674   4.280   5.143  16.218
  101CHL1    H813675   4.165   5.183  16.225
  101CHL1   C1413676   4.319   5.116  16.072
  101CHL1   H1413677   4.434   5.072  16.073
  101CHL1   C1513678   4.322   5.249  15.977
  101CHL1  H15A13679   4.221   5.316  15.992
  101CHL1  H15B13680   4.420   5.320  15.995
  101CHL1   C1613681   4.322   5.180  15.838
  101CHL1  H16A13682   4.232   5.231  15.778
  101CHL1  H16B13683   4.428   5.196  15.785
  101CHL1   C1713684   4.292   5.012  15.858
  101CHL1   H1713685   4.402   4.957  15.861
  101CHL1   C1313686   4.228   4.998  16.001
  101CHL1   C1813687   4.063   5.040  15.995
  101CHL1  H18A13688   3.996   4.949  15.954
  101CHL1  H18B13689   4.019   5.066  16.096
  101CHL1  H18C13690   4.047   5.138  15.930
  101CHL1   C1213691   4.250   4.852  16.078
  101CHL1  H12A13692   4.183   4.762  16.036
  101CHL1  H12B13693   4.368   4.820  16.072
  101CHL1   C1113694   4.207   4.870  16.226
  101CHL1  H11A13695   4.088   4.891  16.231
  101CHL1  H11B13696   4.230   4.764  16.278
  101CHL1    C913697   4.293   4.998  16.295
  101CHL1    H913698   4.412   4.966  16.288
  101CHL1   C1013699   4.261   5.015  16.447
  101CHL1   C1913700   4.092   5.020  16.467
  101CHL1  H19A13701   4.043   4.913  16.442
  101CHL1  H19B13702   4.063   5.045  16.572
  101CHL1  H19C13703   4.041   5.106  16.402
  101CHL1    C113704   4.327   4.880  16.522
  101CHL1   H1A13705   4.265   4.780  16.494
  101CHL1   H1B13706   4.443   4.864  16.487
  101CHL1    C213707   4.330   4.894  16.675
  101CHL1   H2A13708   4.382   4.796  16.720
  101CHL1   H2B13709   4.214   4.900  16.712
  101CHL1   C2013710   4.206   4.946  15.741
  101CHL1   H2013711   4.104   5.010  15.725
  101CHL1   C2113712   4.164   4.786  15.773
  101CHL1  H21A13713   4.057   4.778  15.826
  101CHL1  H21B13714   4.249   4.742  15.840
  101CHL1  H21C13715   4.160   4.716  15.683
  101CHL1   C2213716   4.292   4.946  15.609
  101CHL1  H22A13717   4.357   5.049  15.599
  101CHL1  H22B13718   4.374   4.854  15.609
  101CHL1   C2313719   4.187   4.931  15.489
  101CHL1  H23A13720   4.094   4.857  15.517
  101CHL1  H23B13721   4.137   5.041  15.469
  101CHL1   C2413722   4.254   4.871  15.360
  101CHL1  H24A13723   4.286   4.753  15.376
  101CHL1  H24B13724   4.168   4.872  15.281
  101CHL1   C2513725   4.388   4.952  15.307
  101CHL1   H2513726   4.480   4.918  15.372
  101CHL1   C2613727   4.413   4.910  15.160
  101CHL1  H26A13728   4.509   4.971  15.119
  101CHL1  H26B13729   4.434   4.791  15.151
  101CHL1  H26C13730   4.316   4.939  15.099
  101CHL1   C2713731   4.387   5.121  15.321
  101CHL1  H27A13732   4.357   5.158  15.422
  101CHL1  H27B13733   4.498   5.165  15.297
  101CHL1  H27C13734   4.305   5.161  15.250
  102CHL1    C313735   2.907   5.071  16.722
  102CHL1    H313736   2.925   5.192  16.721
  102CHL1    O313737   2.903   5.019  16.856
  102CHL1   H3'13738   2.857   5.095  16.911
  102CHL1    C413739   2.762   5.030  16.656
  102CHL1   H4A13740   2.747   4.910  16.669
  102CHL1   H4B13741   2.670   5.085  16.711
  102CHL1    C513742   2.762   5.069  16.509
  102CHL1    C613743   2.666   5.165  16.457
  102CHL1    H613744   2.581   5.215  16.520
  102CHL1    C713745   2.660   5.200  16.311
  102CHL1   H7A13746   2.543   5.200  16.279
  102CHL1   H7B13747   2.705   5.312  16.291
  102CHL1    C813748   2.744   5.085  16.227
  102CHL1    H813749   2.677   4.983  16.229
  102CHL1   C1413750   2.762   5.138  16.086
  102CHL1   H1413751   2.835   5.238  16.087
  102CHL1   C1513752   2.619   5.189  16.024
  102CHL1  H15A13753   2.536   5.107  16.058
  102CHL1  H15B13754   2.591   5.302  16.053
  102CHL1   C1613755   2.640   5.174  15.876
  102CHL1  H16A13756   2.553   5.097  15.839
  102CHL1  H16B13757   2.628   5.281  15.825
  102CHL1   C1713758   2.795   5.106  15.856
  102CHL1   H1713759   2.873   5.200  15.846
  102CHL1   C1313760   2.829   5.028  15.990
  102CHL1   C1813761   2.748   4.878  15.994
  102CHL1  H18A13762   2.750   4.828  16.095
  102CHL1  H18B13763   2.631   4.890  15.965
  102CHL1  H18C13764   2.802   4.798  15.926
  102CHL1   C1213765   2.991   5.016  16.034
  102CHL1  H12A13766   3.053   4.937  15.971
  102CHL1  H12B13767   3.045   5.125  16.024
  102CHL1   C1113768   2.999   4.966  16.183
  102CHL1  H11A13769   2.968   4.849  16.183
  102CHL1  H11B13770   3.114   4.974  16.217
  102CHL1    C913771   2.897   5.055  16.281
  102CHL1    H913772   2.950   5.166  16.288
  102CHL1   C1013773   2.885   4.995  16.426
  102CHL1   C1913774   2.852   4.828  16.419
  102CHL1  H19A13775   2.945   4.766  16.373
  102CHL1  H19B13776   2.836   4.777  16.519
  102CHL1  H19C13777   2.752   4.807  16.359
  102CHL1    C113778   3.032   5.031  16.498
  102CHL1   H1A13779   3.123   4.974  16.446
  102CHL1   H1B13780   3.049   5.151  16.486
  102CHL1    C213781   3.035   4.995  16.649
  102CHL1   H2A13782   3.143   5.031  16.691
  102CHL1   H2B13783   3.025   4.874  16.662
  102CHL1   C2013784   2.795   5.018  15.727
  102CHL1   H2013785   2.725   4.918  15.740
  102CHL1   C2113786   2.951   4.968  15.690
  102CHL1  H21A13787   2.996   4.892  15.766
  102CHL1  H21B13788   3.025   5.064  15.681
  102CHL1  H21C13789   2.950   4.909  15.592
  102CHL1   C2213790   2.725   5.107  15.612
  102CHL1  H22A13791   2.617   5.157  15.641
  102CHL1  H22B13792   2.797   5.201  15.582
  102CHL1   C2313793   2.683   5.010  15.495
  102CHL1  H23A13794   2.779   5.002  15.425
  102CHL1  H23B13795   2.659   4.898  15.534
  102CHL1   C2413796   2.547   5.069  15.424
  102CHL1  H24A13797   2.447   5.061  15.489
  102CHL1  H24B13798   2.563   5.187  15.399
  102CHL1   C2513799   2.520   4.984  15.294
  102CHL1   H2513800   2.629   4.991  15.242
  102CHL1   C2613801   2.492   4.820  15.313
  102CHL1  H26A13802   2.507   4.764  15.215
  102CHL1  H26B13803   2.572   4.769  15.382
  102CHL1  H26C13804   2.378   4.800  15.349
  102CHL1   C2713805   2.401   5.058  15.208
  102CHL1  H27A13806   2.402   5.010  15.106
  102CHL1  H27B13807   2.290   5.042  15.252
  102CHL1  H27C13808   2.423   5.178  15.199
  103CHL1    C313809   2.879   3.160  16.712
  103CHL1    H313810   2.975   3.236  16.701
  103CHL1    O313811   2.842   3.145  16.849
  103CHL1   H3'13812   2.834   3.245  16.880
  103CHL1    C413813   2.744   3.219  16.637
  103CHL1   H4A13814   2.650   3.145  16.658
  103CHL1   H4B13815   2.714   3.329  16.678
  103CHL1    C513816   2.775   3.222  16.489
  103CHL1    C613817   2.767   3.346  16.421
  103CHL1    H613818   2.732   3.447  16.473
  103CHL1    C713819   2.792   3.354  16.274
  103CHL1   H7A13820   2.703   3.420  16.227
  103CHL1   H7B13821   2.898   3.409  16.252
  103CHL1    C813822   2.791   3.205  16.204
  103CHL1    H813823   2.675   3.168  16.204
  103CHL1   C1413824   2.846   3.226  16.065
  103CHL1   H1413825   2.967   3.254  16.072
  103CHL1   C1513826   2.779   3.354  15.985
  103CHL1  H15A13827   2.660   3.363  16.008
  103CHL1  H15B13828   2.835   3.460  16.008
  103CHL1   C1613829   2.802   3.307  15.840
  103CHL1  H16A13830   2.692   3.308  15.791
  103CHL1  H16B13831   2.877   3.383  15.785
  103CHL1   C1713832   2.864   3.147  15.845
  103CHL1   H1713833   2.987   3.157  15.836
  103CHL1   C1313834   2.834   3.087  15.984
  103CHL1   C1813835   2.672   3.026  15.987
  103CHL1  H18A13836   2.658   2.929  15.921
  103CHL1  H18B13837   2.638   2.990  16.087
  103CHL1  H18C13838   2.594   3.112  15.952
  103CHL1   C1213839   2.948   2.981  16.049
  103CHL1  H12A13840   2.961   2.878  15.993
  103CHL1  H12B13841   3.058   3.034  16.046
  103CHL1   C1113842   2.908   2.951  16.197
  103CHL1  H11A13843   2.807   2.883  16.196
  103CHL1  H11B13844   2.996   2.883  16.243
  103CHL1    C913845   2.885   3.095  16.278
  103CHL1    H913846   2.997   3.147  16.285
  103CHL1   C1013847   2.829   3.079  16.423
  103CHL1   C1913848   2.697   2.973  16.417
  103CHL1  H19A13849   2.617   3.006  16.339
  103CHL1  H19B13850   2.732   2.860  16.393
  103CHL1  H19C13851   2.637   2.969  16.513
  103CHL1    C113852   2.957   3.022  16.509
  103CHL1   H1A13853   2.991   2.916  16.464
  103CHL1   H1B13854   3.054   3.097  16.498
  103CHL1    C213855   2.918   3.010  16.658
  103CHL1   H2A13856   3.008   2.960  16.717
  103CHL1   H2B13857   2.817   2.941  16.669
  103CHL1   C2013858   2.808   3.060  15.726
  103CHL1   H2013859   2.686   3.054  15.729
  103CHL1   C2113860   2.870   2.903  15.732
  103CHL1  H21A13861   2.831   2.835  15.647
  103CHL1  H21B13862   2.833   2.846  15.822
  103CHL1  H21C13863   2.991   2.907  15.734
  103CHL1   C2213864   2.849   3.138  15.596
  103CHL1  H22A13865   2.775   3.235  15.583
  103CHL1  H22B13866   2.964   3.180  15.600
  103CHL1   C2313867   2.834   3.040  15.474
  103CHL1  H23A13868   2.928   2.963  15.469
  103CHL1  H23B13869   2.730   2.974  15.482
  103CHL1   C2413870   2.829   3.134  15.349
  103CHL1  H24A13871   2.728   3.202  15.356
  103CHL1  H24B13872   2.924   3.210  15.345
  103CHL1   C2513873   2.823   3.045  15.220
  103CHL1   H2513874   2.738   2.957  15.232
  103CHL1   C2613875   2.778   3.150  15.111
  103CHL1  H26A13876   2.680   3.216  15.139
  103CHL1  H26B13877   2.864   3.234  15.100
  103CHL1  H26C13878   2.756   3.094  15.014
  103CHL1   C2713879   2.972   2.973  15.185
  103CHL1  H27A13880   2.971   2.927  15.083
  103CHL1  H27B13881   3.061   3.056  15.192
  103CHL1  H27C13882   2.996   2.883  15.254
  104CHL1    C313883   6.740   4.539  16.732
  104CHL1    H313884   6.860   4.551  16.752
  104CHL1    O313885   6.663   4.529  16.854
  104CHL1   H3'13886   6.688   4.432  16.891
  104CHL1    C413887   6.682   4.675  16.657
  104CHL1   H4A13888   6.563   4.662  16.639
  104CHL1   H4B13889   6.697   4.773  16.723
  104CHL1    C513890   6.764   4.692  16.526
  104CHL1    C613891   6.841   4.814  16.501
  104CHL1    H613892   6.837   4.905  16.573
  104CHL1    C713893   6.932   4.837  16.377
  104CHL1   H7A13894   6.908   4.946  16.332
  104CHL1   H7B13895   7.050   4.837  16.407
  104CHL1    C813896   6.911   4.718  16.268
  104CHL1    H813897   6.811   4.749  16.209
  104CHL1   C1413898   7.048   4.708  16.179
  104CHL1   H1413899   7.136   4.657  16.242
  104CHL1   C1513900   7.117   4.850  16.128
  104CHL1  H15A13901   7.030   4.914  16.078
  104CHL1  H15B13902   7.170   4.916  16.207
  104CHL1   C1613903   7.225   4.796  16.022
  104CHL1  H16A13904   7.241   4.878  15.942
  104CHL1  H16B13905   7.332   4.776  16.072
  104CHL1   C1713906   7.176   4.641  15.979
  104CHL1   H1713907   7.258   4.566  16.030
  104CHL1   C1313908   7.029   4.613  16.055
  104CHL1   C1813909   6.898   4.677  15.973
  104CHL1  H18A13910   6.882   4.795  15.990
  104CHL1  H18B13911   6.912   4.668  15.865
  104CHL1  H18C13912   6.795   4.620  15.998
  104CHL1   C1213913   7.002   4.455  16.106
  104CHL1  H12A13914   6.971   4.382  16.021
  104CHL1  H12B13915   7.105   4.412  16.151
  104CHL1   C1113916   6.878   4.446  16.213
  104CHL1  H11A13917   6.772   4.457  16.159
  104CHL1  H11B13918   6.884   4.335  16.259
  104CHL1    C913919   6.888   4.564  16.326
  104CHL1    H913920   6.993   4.541  16.380
  104CHL1   C1013921   6.765   4.554  16.434
  104CHL1   C1913922   6.613   4.551  16.364
  104CHL1  H19A13923   6.599   4.645  16.295
  104CHL1  H19B13924   6.600   4.447  16.305
  104CHL1  H19C13925   6.523   4.553  16.438
  104CHL1    C113926   6.789   4.409  16.515
  104CHL1   H1A13927   6.755   4.314  16.452
  104CHL1   H1B13928   6.909   4.396  16.535
  104CHL1    C213929   6.710   4.400  16.650
  104CHL1   H2A13930   6.751   4.302  16.706
  104CHL1   H2B13931   6.590   4.388  16.634
  104CHL1   C2013932   7.188   4.605  15.828
  104CHL1   H2013933   7.086   4.632  15.775
  104CHL1   C2113934   7.210   4.440  15.821
  104CHL1  H21A13935   7.321   4.417  15.864
  104CHL1  H21B13936   7.205   4.401  15.716
  104CHL1  H21C13937   7.129   4.377  15.880
  104CHL1   C2213938   7.313   4.685  15.747
  104CHL1  H22A13939   7.290   4.805  15.743
  104CHL1  H22B13940   7.417   4.672  15.803
  104CHL1   C2313941   7.340   4.637  15.599
  104CHL1  H23A13942   7.431   4.709  15.563
  104CHL1  H23B13943   7.380   4.521  15.597
  104CHL1   C2413944   7.213   4.649  15.499
  104CHL1  H24A13945   7.124   4.573  15.532
  104CHL1  H24B13946   7.171   4.762  15.502
  104CHL1   C2513947   7.244   4.615  15.349
  104CHL1   H2513948   7.272   4.496  15.340
  104CHL1   C2613949   7.102   4.641  15.268
  104CHL1  H26A13950   7.006   4.594  15.320
  104CHL1  H26B13951   7.082   4.761  15.256
  104CHL1  H26C13952   7.108   4.591  15.167
  104CHL1   C2713953   7.370   4.705  15.289
  104CHL1  H27A13954   7.355   4.824  15.310
  104CHL1  H27B13955   7.478   4.669  15.332
  104CHL1  H27C13956   7.376   4.689  15.179
  105CHL1    C313957   6.652   3.606  16.728
  105CHL1    H313958   6.744   3.686  16.718
  105CHL1    O313959   6.614   3.590  16.864
  105CHL1   H3'13960   6.700   3.546  16.905
  105CHL1    C413961   6.518   3.663  16.649
  105CHL1   H4A13962   6.422   3.592  16.674
  105CHL1   H4B13963   6.491   3.774  16.690
  105CHL1    C513964   6.541   3.665  16.499
  105CHL1    C613965   6.518   3.787  16.427
  105CHL1    H613966   6.478   3.887  16.477
  105CHL1    C713967   6.534   3.794  16.277
  105CHL1   H7A13968   6.436   3.847  16.230
  105CHL1   H7B13969   6.631   3.863  16.252
  105CHL1    C813970   6.555   3.640  16.213
  105CHL1    H813971   6.447   3.584  16.212
  105CHL1   C1413972   6.613   3.653  16.071
  105CHL1   H1413973   6.725   3.697  16.087
  105CHL1   C1513974   6.538   3.760  15.972
  105CHL1  H15A13975   6.417   3.760  15.986
  105CHL1  H15B13976   6.579   3.873  15.987
  105CHL1   C1613977   6.581   3.702  15.833
  105CHL1  H16A13978   6.481   3.654  15.785
  105CHL1  H16B13979   6.625   3.789  15.767
  105CHL1   C1713980   6.696   3.578  15.858
  105CHL1   H1713981   6.802   3.637  15.874
  105CHL1   C1313982   6.651   3.512  15.996
  105CHL1   C1813983   6.510   3.419  15.981
  105CHL1  H18A13984   6.428   3.470  15.913
  105CHL1  H18B13985   6.537   3.309  15.940
  105CHL1  H18C13986   6.455   3.400  16.078
  105CHL1   C1213987   6.769   3.435  16.081
  105CHL1  H12A13988   6.808   3.331  16.037
  105CHL1  H12B13989   6.866   3.509  16.090
  105CHL1   C1113990   6.711   3.403  16.222
  105CHL1  H11A13991   6.619   3.324  16.214
  105CHL1  H11B13992   6.799   3.347  16.280
  105CHL1    C913993   6.661   3.545  16.296
  105CHL1    H913994   6.763   3.612  16.306
  105CHL1   C1013995   6.603   3.521  16.440
  105CHL1   C1913996   6.476   3.407  16.438
  105CHL1  H19A13997   6.515   3.298  16.403
  105CHL1  H19B13998   6.427   3.390  16.539
  105CHL1  H19C13999   6.385   3.443  16.371
  105CHL1    C114000   6.733   3.462  16.526
  105CHL1   H1A14001   6.761   3.350  16.492
  105CHL1   H1B14002   6.831   3.533  16.510
  105CHL1    C214003   6.700   3.455  16.676
  105CHL1   H2A14004   6.800   3.419  16.729
  105CHL1   H2B14005   6.610   3.375  16.694
  105CHL1   C2014006   6.719   3.470  15.742
  105CHL1   H2014007   6.634   3.383  15.752
  105CHL1   C2114008   6.873   3.399  15.755
  105CHL1  H21A14009   6.888   3.317  15.675
  105CHL1  H21B14010   6.887   3.343  15.851
  105CHL1  H21C14011   6.961   3.484  15.748
  105CHL1   C2214012   6.695   3.532  15.598
  105CHL1  H22A14013   6.685   3.434  15.532
  105CHL1  H22B14014   6.589   3.592  15.591
  105CHL1   C2314015   6.821   3.626  15.541
  105CHL1  H23A14016   6.835   3.727  15.602
  105CHL1  H23B14017   6.925   3.563  15.548
  105CHL1   C2414018   6.802   3.664  15.392
  105CHL1  H24A14019   6.900   3.729  15.362
  105CHL1  H24B14020   6.801   3.561  15.332
  105CHL1   C2514021   6.667   3.758  15.352
  105CHL1   H2514022   6.567   3.688  15.363
  105CHL1   C2614023   6.652   3.892  15.443
  105CHL1  H26A14024   6.615   3.860  15.545
  105CHL1  H26B14025   6.761   3.945  15.454
  105CHL1  H26C14026   6.573   3.972  15.401
  105CHL1   C2714027   6.679   3.804  15.205
  105CHL1  H27A14028   6.580   3.868  15.174
  105CHL1  H27B14029   6.778   3.874  15.188
  105CHL1  H27C14030   6.688   3.706  15.140
  106CHL1    C314031   2.111   2.741  16.733
  106CHL1    H314032   2.145   2.857  16.757
  106CHL1    O314033   2.078   2.666  16.854
  106CHL1   H3'14034   2.170   2.659  16.900
  106CHL1    C414035   1.972   2.742  16.647
  106CHL1   H4A14036   1.929   2.629  16.642
  106CHL1   H4B14037   1.887   2.808  16.698
  106CHL1    C514038   2.001   2.797  16.506
  106CHL1    C614039   1.933   2.916  16.459
  106CHL1    H614040   1.855   2.977  16.522
  106CHL1    C714041   1.940   2.964  16.319
  106CHL1   H7A14042   1.827   2.992  16.288
  106CHL1   H7B14043   2.009   3.065  16.308
  106CHL1    C814044   2.002   2.842  16.228
  106CHL1    H814045   1.918   2.754  16.218
  106CHL1   C1414046   2.038   2.912  16.097
  106CHL1   H1414047   2.138   2.980  16.117
  106CHL1   C1514048   1.931   3.027  16.051
  106CHL1  H15A14049   1.821   3.004  16.090
  106CHL1  H15B14050   1.969   3.137  16.086
  106CHL1   C1614051   1.934   3.015  15.901
  106CHL1  H16A14052   1.827   2.968  15.865
  106CHL1  H16B14053   1.950   3.126  15.864
  106CHL1   C1714054   2.068   2.917  15.864
  106CHL1   H1714055   2.166   2.991  15.871
  106CHL1   C1314056   2.078   2.809  15.982
  106CHL1   C1814057   1.966   2.685  15.957
  106CHL1  H18A14058   2.014   2.605  15.885
  106CHL1  H18B14059   1.939   2.624  16.049
  106CHL1  H18C14060   1.862   2.727  15.913
  106CHL1   C1214061   2.230   2.753  16.028
  106CHL1  H12A14062   2.274   2.673  15.955
  106CHL1  H12B14063   2.308   2.847  16.033
  106CHL1   C1114064   2.220   2.683  16.171
  106CHL1  H11A14065   2.160   2.577  16.157
  106CHL1  H11B14066   2.332   2.659  16.203
  106CHL1    C914067   2.143   2.779  16.282
  106CHL1    H914068   2.218   2.874  16.297
  106CHL1   C1014069   2.115   2.711  16.424
  106CHL1   C1914070   2.067   2.551  16.402
  106CHL1  H19A14071   2.031   2.495  16.494
  106CHL1  H19B14072   1.974   2.549  16.329
  106CHL1  H19C14073   2.159   2.486  16.359
  106CHL1    C114074   2.254   2.722  16.515
  106CHL1   H1A14075   2.340   2.658  16.465
  106CHL1   H1B14076   2.294   2.838  16.519
  106CHL1    C214077   2.237   2.664  16.659
  106CHL1   H2A14078   2.342   2.681  16.715
  106CHL1   H2B14079   2.215   2.544  16.654
  106CHL1   C2014080   2.055   2.865  15.717
  106CHL1   H2014081   1.972   2.776  15.711
  106CHL1   C2114082   2.203   2.803  15.669
  106CHL1  H21A14083   2.191   2.763  15.565
  106CHL1  H21B14084   2.239   2.709  15.732
  106CHL1  H21C14085   2.290   2.890  15.671
  106CHL1   C2214086   1.998   2.993  15.626
  106CHL1  H22A14087   1.880   3.013  15.647
  106CHL1  H22B14088   2.059   3.094  15.656
  106CHL1   C2314089   2.017   2.981  15.472
  106CHL1  H23A14090   2.136   2.997  15.457
  106CHL1  H23B14091   1.993   2.870  15.433
  106CHL1   C2414092   1.925   3.099  15.392
  106CHL1  H24A14093   1.809   3.061  15.390
  106CHL1  H24B14094   1.931   3.203  15.449
  106CHL1   C2514095   1.980   3.133  15.248
  106CHL1   H2514096   2.094   3.097  15.261
  106CHL1   C2614097   1.913   3.043  15.131
  106CHL1  H26A14098   1.868   2.937  15.165
  106CHL1  H26B14099   1.829   3.101  15.071
  106CHL1  H26C14100   1.999   3.018  15.057
  106CHL1   C2714101   1.993   3.296  15.210
  106CHL1  H27A14102   1.943   3.314  15.110
  106CHL1  H27B14103   1.934   3.364  15.282
  106CHL1  H27C14104   2.106   3.342  15.206
  107CHL1    C314105   4.437   6.881  16.718
  107CHL1    H314106   4.465   6.762  16.716
  107CHL1    O314107   4.423   6.923  16.853
  107CHL1   H3'14108   4.474   7.016  16.864
  107CHL1    C414109   4.564   6.969  16.655
  107CHL1   H4A14110   4.543   7.088  16.668
  107CHL1   H4B14111   4.666   6.943  16.712
  107CHL1    C514112   4.577   6.929  16.509
  107CHL1    C614113   4.700   6.866  16.461
  107CHL1    H614114   4.797   6.849  16.526
  107CHL1    C714115   4.717   6.824  16.318
  107CHL1   H7A14116   4.832   6.835  16.286
  107CHL1   H7B14117   4.684   6.708  16.302
  107CHL1    C814118   4.616   6.921  16.231
  107CHL1    H814119   4.645   7.039  16.248
  107CHL1   C1414120   4.641   6.886  16.086
  107CHL1   H1414121   4.623   6.764  16.075
  107CHL1   C1514122   4.795   6.916  16.032
  107CHL1  H15A14123   4.829   7.030  16.057
  107CHL1  H15B14124   4.876   6.838  16.074
  107CHL1   C1614125   4.773   6.896  15.882
  107CHL1  H16A14126   4.840   6.975  15.826
  107CHL1  H16B14127   4.807   6.782  15.856
  107CHL1   C1714128   4.606   6.915  15.852
  107CHL1   H1714129   4.563   6.804  15.828
  107CHL1   C1314130   4.536   6.961  15.988
  107CHL1   C1814131   4.550   7.130  16.003
  107CHL1  H18A14132   4.536   7.167  16.107
  107CHL1  H18B14133   4.659   7.171  15.967
  107CHL1  H18C14134   4.463   7.186  15.945
  107CHL1   C1214135   4.382   6.903  16.025
  107CHL1  H12A14136   4.297   6.939  15.954
  107CHL1  H12B14137   4.386   6.779  16.022
  107CHL1   C1114138   4.342   6.949  16.170
  107CHL1  H11A14139   4.328   7.070  16.169
  107CHL1  H11B14140   4.233   6.901  16.197
  107CHL1    C914141   4.457   6.898  16.276
  107CHL1    H914142   4.444   6.776  16.280
  107CHL1   C1014143   4.437   6.954  16.422
  107CHL1   C1914144   4.403   7.121  16.418
  107CHL1  H19A14145   4.299   7.142  16.366
  107CHL1  H19B14146   4.390   7.169  16.520
  107CHL1  H19C14147   4.492   7.183  16.366
  107CHL1    C114148   4.310   6.871  16.491
  107CHL1   H1A14149   4.205   6.897  16.438
  107CHL1   H1B14150   4.330   6.751  16.480
  107CHL1    C214151   4.292   6.906  16.641
  107CHL1   H2A14152   4.204   6.835  16.685
  107CHL1   H2B14153   4.258   7.022  16.654
  107CHL1   C2014154   4.582   7.016  15.729
  107CHL1   H2014155   4.630   7.126  15.753
  107CHL1   C2114156   4.415   7.036  15.705
  107CHL1  H21A14157   4.366   6.929  15.677
  107CHL1  H21B14158   4.394   7.116  15.624
  107CHL1  H21C14159   4.358   7.076  15.795
  107CHL1   C2214160   4.660   6.966  15.598
  107CHL1  H22A14161   4.780   6.951  15.617
  107CHL1  H22B14162   4.615   6.860  15.565
  107CHL1   C2314163   4.646   7.080  15.482
  107CHL1  H23A14164   4.529   7.094  15.454
  107CHL1  H23B14165   4.688   7.187  15.519
  107CHL1   C2414166   4.732   7.039  15.354
  107CHL1  H24A14167   4.847   7.014  15.386
  107CHL1  H24B14168   4.684   6.939  15.309
  107CHL1   C2514169   4.739   7.164  15.247
  107CHL1   H2514170   4.752   7.270  15.304
  107CHL1   C2614171   4.871   7.156  15.151
  107CHL1  H26A14172   4.876   7.253  15.085
  107CHL1  H26B14173   4.976   7.147  15.207
  107CHL1  H26C14174   4.859   7.056  15.085
  107CHL1   C2714175   4.599   7.174  15.161
  107CHL1  H27A14176   4.611   7.267  15.089
  107CHL1  H27B14177   4.585   7.071  15.103
  107CHL1  H27C14178   4.500   7.194  15.223
  108CHL1    C314179   6.657   2.701  16.729
  108CHL1    H314180   6.558   2.657  16.675
  108CHL1    O314181   6.645   2.661  16.865
  108CHL1   H3'14182   6.558   2.711  16.898
  108CHL1    C414183   6.798   2.631  16.675
  108CHL1   H4A14184   6.894   2.680  16.727
  108CHL1   H4B14185   6.797   2.512  16.698
  108CHL1    C514186   6.807   2.661  16.527
  108CHL1    C614187   6.812   2.548  16.442
  108CHL1    H614188   6.818   2.434  16.479
  108CHL1    C714189   6.819   2.565  16.293
  108CHL1   H7A14190   6.901   2.489  16.249
  108CHL1   H7B14191   6.708   2.537  16.254
  108CHL1    C814192   6.847   2.725  16.248
  108CHL1    H814193   6.966   2.750  16.260
  108CHL1   C1414194   6.807   2.735  16.102
  108CHL1   H1414195   6.689   2.698  16.095
  108CHL1   C1514196   6.890   2.632  16.004
  108CHL1  H15A14197   7.010   2.640  16.024
  108CHL1  H15B14198   6.855   2.516  16.014
  108CHL1   C1614199   6.854   2.698  15.867
  108CHL1  H16A14200   6.957   2.717  15.810
  108CHL1  H16B14201   6.783   2.622  15.809
  108CHL1   C1714202   6.773   2.847  15.896
  108CHL1   H1714203   6.653   2.819  15.898
  108CHL1   C1314204   6.810   2.888  16.042
  108CHL1   C1814205   6.967   2.954  16.043
  108CHL1  H18A14206   6.963   3.069  16.009
  108CHL1  H18B14207   7.015   2.952  16.145
  108CHL1  H18C14208   7.042   2.892  15.976
  108CHL1   C1214209   6.702   2.984  16.122
  108CHL1  H12A14210   6.702   3.099  16.085
  108CHL1  H12B14211   6.589   2.940  16.111
  108CHL1   C1114212   6.744   2.988  16.271
  108CHL1  H11A14213   6.851   3.045  16.282
  108CHL1  H11B14214   6.661   3.053  16.325
  108CHL1    C914215   6.754   2.830  16.331
  108CHL1    H914216   6.639   2.786  16.322
  108CHL1   C1014217   6.793   2.824  16.483
  108CHL1   C1914218   6.943   2.897  16.507
  108CHL1  H19A14219   7.031   2.841  16.449
  108CHL1  H19B14220   6.941   3.015  16.476
  108CHL1  H19C14221   6.974   2.894  16.615
  108CHL1    C114222   6.673   2.907  16.563
  108CHL1   H1A14223   6.692   3.027  16.553
  108CHL1   H1B14224   6.564   2.884  16.517
  108CHL1    C214225   6.664   2.868  16.713
  108CHL1   H2A14226   6.566   2.922  16.758
  108CHL1   H2B14227   6.763   2.910  16.765
  108CHL1   C2014228   6.797   2.963  15.790
  108CHL1   H2014229   6.912   3.004  15.792
  108CHL1   C2114230   6.695   3.092  15.822
  108CHL1  H21A14231   6.745   3.169  15.894
  108CHL1  H21B14232   6.592   3.051  15.868
  108CHL1  H21C14233   6.669   3.155  15.730
  108CHL1   C2214234   6.768   2.911  15.645
  108CHL1  H22A14235   6.768   3.008  15.578
  108CHL1  H22B14236   6.862   2.840  15.613
  108CHL1   C2314237   6.624   2.826  15.623
  108CHL1  H23A14238   6.613   2.736  15.697
  108CHL1  H23B14239   6.529   2.901  15.638
  108CHL1   C2414240   6.623   2.757  15.484
  108CHL1  H24A14241   6.654   2.840  15.408
  108CHL1  H24B14242   6.709   2.669  15.482
  108CHL1   C2514243   6.476   2.687  15.440
  108CHL1   H2514244   6.402   2.781  15.412
  108CHL1   C2614245   6.501   2.587  15.318
  108CHL1  H26A14246   6.585   2.504  15.341
  108CHL1  H26B14247   6.398   2.529  15.291
  108CHL1  H26C14248   6.537   2.653  15.230
  108CHL1   C2714249   6.398   2.600  15.551
  108CHL1  H27A14250   6.368   2.674  15.636
  108CHL1  H27B14251   6.293   2.552  15.512
  108CHL1  H27C14252   6.469   2.511  15.588
  109CHL1    C314253   2.964   6.957  16.688
  109CHL1    H314254   3.080   6.995  16.670
  109CHL1    O314255   2.940   6.945  16.827
  109CHL1   H3'14256   2.947   6.841  16.845
  109CHL1    C414257   2.859   7.069  16.619
  109CHL1   H4A14258   2.746   7.054  16.659
  109CHL1   H4B14259   2.893   7.181  16.652
  109CHL1    C514260   2.861   7.055  16.466
  109CHL1    C614261   2.886   7.168  16.383
  109CHL1    H614262   2.900   7.279  16.423
  109CHL1    C714263   2.898   7.151  16.232
  109CHL1   H7A14264   2.852   7.248  16.180
  109CHL1   H7B14265   3.015   7.147  16.201
  109CHL1    C814266   2.829   7.008  16.178
  109CHL1    H814267   2.708   7.020  16.180
  109CHL1   C1414268   2.881   6.972  16.037
  109CHL1   H1414269   2.996   6.932  16.047
  109CHL1   C1514270   2.897   7.096  15.936
  109CHL1  H15A14271   2.797   7.164  15.937
  109CHL1  H15B14272   2.993   7.168  15.959
  109CHL1   C1614273   2.922   7.010  15.805
  109CHL1  H16A14274   2.874   7.065  15.718
  109CHL1  H16B14275   3.043   7.004  15.790
  109CHL1   C1714276   2.862   6.849  15.826
  109CHL1   H1714277   2.966   6.784  15.829
  109CHL1   C1314278   2.797   6.847  15.969
  109CHL1   C1814279   2.631   6.881  15.957
  109CHL1  H18A14280   2.571   6.783  15.921
  109CHL1  H18B14281   2.581   6.911  16.053
  109CHL1  H18C14282   2.614   6.971  15.884
  109CHL1   C1214283   2.825   6.708  16.051
  109CHL1  H12A14284   2.749   6.620  16.016
  109CHL1  H12B14285   2.938   6.668  16.034
  109CHL1   C1114286   2.802   6.733  16.202
  109CHL1  H11A14287   2.681   6.729  16.217
  109CHL1  H11B14288   2.853   6.641  16.256
  109CHL1    C914289   2.868   6.876  16.262
  109CHL1    H914290   2.990   6.865  16.252
  109CHL1   C1014291   2.841   6.897  16.413
  109CHL1   C1914292   2.680   6.857  16.448
  109CHL1  H19A14293   2.649   6.745  16.418
  109CHL1  H19B14294   2.658   6.864  16.557
  109CHL1  H19C14295   2.603   6.934  16.397
  109CHL1    C114296   2.960   6.802  16.485
  109CHL1   H1A14297   2.958   6.689  16.447
  109CHL1   H1B14298   3.071   6.846  16.459
  109CHL1    C214299   2.945   6.804  16.636
  109CHL1   H2A14300   3.026   6.727  16.682
  109CHL1   H2B14301   2.833   6.764  16.664
  109CHL1   C2014302   2.767   6.776  15.716
  109CHL1   H2014303   2.648   6.805  15.727
  109CHL1   C2114304   2.780   6.608  15.732
  109CHL1  H21A14305   2.702   6.566  15.809
  109CHL1  H21B14306   2.892   6.578  15.764
  109CHL1  H21C14307   2.757   6.549  15.637
  109CHL1   C2214308   2.795   6.817  15.568
  109CHL1  H22A14309   2.738   6.734  15.505
  109CHL1  H22B14310   2.746   6.925  15.545
  109CHL1   C2314311   2.957   6.816  15.529
  109CHL1  H23A14312   3.018   6.897  15.590
  109CHL1  H23B14313   3.001   6.704  15.551
  109CHL1   C2414314   2.983   6.851  15.382
  109CHL1  H24A14315   2.925   6.768  15.320
  109CHL1  H24B14316   2.937   6.961  15.357
  109CHL1   C2514317   3.149   6.843  15.355
  109CHL1   H2514318   3.202   6.860  15.455
  109CHL1   C2614319   3.192   6.686  15.315
  109CHL1  H26A14320   3.130   6.640  15.231
  109CHL1  H26B14321   3.310   6.674  15.294
  109CHL1  H26C14322   3.174   6.614  15.402
  109CHL1   C2714323   3.214   6.970  15.269
  109CHL1  H27A14324   3.290   6.932  15.190
  109CHL1  H27B14325   3.126   7.036  15.221
  109CHL1  H27C14326   3.278   7.044  15.336
  110CHL1    C314327   1.389   6.014  16.718
  110CHL1    H314328   1.444   6.119  16.698
  110CHL1    O314329   1.379   5.984  16.858
  110CHL1   H3'14330   1.361   5.878  16.863
  110CHL1    C414331   1.242   6.042  16.649
  110CHL1   H4A14332   1.168   5.951  16.679
  110CHL1   H4B14333   1.197   6.147  16.693
  110CHL1    C514334   1.253   6.051  16.497
  110CHL1    C614335   1.198   6.159  16.422
  110CHL1    H614336   1.145   6.253  16.471
  110CHL1    C714337   1.185   6.144  16.272
  110CHL1   H7A14338   1.068   6.129  16.250
  110CHL1   H7B14339   1.205   6.246  16.220
  110CHL1    C814340   1.255   6.013  16.198
  110CHL1    H814341   1.169   5.927  16.186
  110CHL1   C1414342   1.317   6.051  16.061
  110CHL1   H1414343   1.427   6.103  16.079
  110CHL1   C1514344   1.238   6.164  15.974
  110CHL1  H15A14345   1.121   6.145  15.971
  110CHL1  H15B14346   1.250   6.279  16.009
  110CHL1   C1614347   1.305   6.141  15.836
  110CHL1  H16A14348   1.215   6.118  15.763
  110CHL1  H16B14349   1.367   6.240  15.806
  110CHL1   C1714350   1.409   6.008  15.848
  110CHL1   H1714351   1.519   6.054  15.870
  110CHL1   C1314352   1.365   5.921  15.975
  110CHL1   C1814353   1.236   5.817  15.941
  110CHL1  H18A14354   1.277   5.719  15.885
  110CHL1  H18B14355   1.181   5.774  16.031
  110CHL1  H18C14356   1.154   5.873  15.877
  110CHL1   C1214357   1.488   5.847  16.058
  110CHL1  H12A14358   1.527   5.745  16.008
  110CHL1  H12B14359   1.583   5.924  16.063
  110CHL1   C1114360   1.439   5.809  16.203
  110CHL1  H11A14361   1.352   5.724  16.196
  110CHL1  H11B14362   1.533   5.762  16.257
  110CHL1    C914363   1.377   5.946  16.279
  110CHL1    H914364   1.469   6.027  16.280
  110CHL1   C1014365   1.333   5.927  16.429
  110CHL1   C1914366   1.223   5.800  16.440
  110CHL1  H19A14367   1.199   5.773  16.546
  110CHL1  H19B14368   1.117   5.825  16.390
  110CHL1  H19C14369   1.270   5.706  16.390
  110CHL1    C114370   1.478   5.905  16.505
  110CHL1   H1A14371   1.528   5.807  16.460
  110CHL1   H1B14372   1.552   6.001  16.486
  110CHL1    C214373   1.467   5.883  16.656
  110CHL1   H2A14374   1.580   5.866  16.700
  110CHL1   H2B14375   1.403   5.783  16.677
  110CHL1   C2014376   1.423   5.927  15.716
  110CHL1   H2014377   1.315   5.879  15.689
  110CHL1   C2114378   1.535   5.806  15.739
  110CHL1  H21A14379   1.480   5.716  15.793
  110CHL1  H21B14380   1.627   5.845  15.802
  110CHL1  H21C14381   1.581   5.764  15.644
  110CHL1   C2214382   1.473   6.024  15.596
  110CHL1  H22A14383   1.436   6.138  15.607
  110CHL1  H22B14384   1.595   6.028  15.595
  110CHL1   C2314385   1.415   5.960  15.464
  110CHL1  H23A14386   1.466   5.850  15.452
  110CHL1  H23B14387   1.294   5.944  15.472
  110CHL1   C2414388   1.447   6.054  15.341
  110CHL1  H24A14389   1.390   6.162  15.354
  110CHL1  H24B14390   1.566   6.075  15.333
  110CHL1   C2514391   1.390   5.990  15.207
  110CHL1   H2514392   1.267   5.991  15.211
  110CHL1   C2614393   1.440   6.085  15.089
  110CHL1  H26A14394   1.415   6.202  15.108
  110CHL1  H26B14395   1.561   6.073  15.074
  110CHL1  H26C14396   1.384   6.050  14.996
  110CHL1   C2714397   1.440   5.830  15.186
  110CHL1  H27A14398   1.561   5.821  15.188
  110CHL1  H27B14399   1.395   5.759  15.266
  110CHL1  H27C14400   1.399   5.787  15.089
  111CHL1    C314401   3.597   0.740  16.767
  111CHL1    H314402   3.534   0.637  16.789
  111CHL1    O314403   3.597   0.827  16.885
  111CHL1   H3'14404   3.675   0.779  16.934
  111CHL1    C414405   3.757   0.705  16.731
  111CHL1   H4A14406   3.816   0.810  16.711
  111CHL1   H4B14407   3.809   0.652  16.818
  111CHL1    C514408   3.758   0.608  16.608
  111CHL1    C614409   3.814   0.473  16.613
  111CHL1    H614410   3.862   0.432  16.706
  111CHL1    C714411   3.822   0.373  16.494
  111CHL1   H7A14412   3.931   0.318  16.490
  111CHL1   H7B14413   3.737   0.287  16.503
  111CHL1    C814414   3.796   0.459  16.362
  111CHL1    H814415   3.894   0.531  16.345
  111CHL1   C1414416   3.784   0.354  16.246
  111CHL1   H1414417   3.687   0.282  16.266
  111CHL1   C1514418   3.917   0.252  16.228
  111CHL1  H15A14419   4.019   0.310  16.259
  111CHL1  H15B14420   3.904   0.151  16.288
  111CHL1   C1614421   3.918   0.220  16.078
  111CHL1  H16A14422   4.024   0.260  16.036
  111CHL1  H16B14423   3.911   0.102  16.056
  111CHL1   C1714424   3.784   0.303  16.016
  111CHL1   H1714425   3.687   0.228  16.023
  111CHL1   C1314426   3.754   0.430  16.113
  111CHL1   C1814427   3.868   0.552  16.085
  111CHL1  H18A14428   3.849   0.597  15.984
  111CHL1  H18B14429   3.861   0.645  16.155
  111CHL1  H18C14430   3.981   0.509  16.091
  111CHL1   C1214431   3.598   0.494  16.123
  111CHL1  H12A14432   3.566   0.553  16.030
  111CHL1  H12B14433   3.518   0.404  16.139
  111CHL1   C1114434   3.588   0.605  16.240
  111CHL1  H11A14435   3.643   0.706  16.206
  111CHL1  H11B14436   3.470   0.632  16.257
  111CHL1    C914437   3.656   0.551  16.375
  111CHL1    H914438   3.574   0.472  16.415
  111CHL1   C1014439   3.678   0.672  16.483
  111CHL1   C1914440   3.774   0.799  16.425
  111CHL1  H19A14441   3.878   0.758  16.380
  111CHL1  H19B14442   3.714   0.860  16.346
  111CHL1  H19C14443   3.803   0.880  16.503
  111CHL1    C114444   3.524   0.732  16.522
  111CHL1   H1A14445   3.482   0.799  16.438
  111CHL1   H1B14446   3.449   0.636  16.534
  111CHL1    C214447   3.522   0.821  16.652
  111CHL1   H2A14448   3.406   0.839  16.680
  111CHL1   H2B14449   3.577   0.930  16.635
  111CHL1   C2014450   3.810   0.331  15.867
  111CHL1   H2014451   3.918   0.389  15.857
  111CHL1   C2114452   3.695   0.432  15.800
  111CHL1  H21A14453   3.587   0.376  15.793
  111CHL1  H21B14454   3.732   0.463  15.698
  111CHL1  H21C14455   3.683   0.538  15.854
  111CHL1   C2214456   3.822   0.185  15.788
  111CHL1  H22A14457   3.917   0.119  15.827
  111CHL1  H22B14458   3.721   0.119  15.804
  111CHL1   C2314459   3.846   0.213  15.638
  111CHL1  H23A14460   3.747   0.266  15.594
  111CHL1  H23B14461   3.939   0.290  15.631
  111CHL1   C2414462   3.883   0.080  15.551
  111CHL1  H24A14463   3.963   0.009  15.604
  111CHL1  H24B14464   3.783   0.014  15.532
  111CHL1   C2514465   3.949   0.129  15.416
  111CHL1   H2514466   4.061   0.177  15.434
  111CHL1   C2614467   3.971  -0.007  15.330
  111CHL1  H26A14468   4.049  -0.077  15.385
  111CHL1  H26B14469   3.867  -0.069  15.319
  111CHL1  H26C14470   4.015   0.019  15.229
  111CHL1   C2714471   3.859   0.242  15.339
  111CHL1  H27A14472   3.868   0.224  15.229
  111CHL1  H27B14473   3.741   0.242  15.369
  111CHL1  H27C14474   3.907   0.351  15.356
  112CHL1    C314475   5.109   0.769  16.735
  112CHL1    H314476   5.092   0.649  16.750
  112CHL1    O314477   5.126   0.836  16.863
  112CHL1   H3'14478   5.086   0.934  16.850
  112CHL1    C414479   5.251   0.794  16.654
  112CHL1   H4A14480   5.288   0.910  16.672
  112CHL1   H4B14481   5.337   0.723  16.698
  112CHL1    C514482   5.241   0.773  16.504
  112CHL1    C614483   5.343   0.698  16.433
  112CHL1    H614484   5.438   0.649  16.484
  112CHL1    C714485   5.346   0.694  16.283
  112CHL1   H7A14486   5.460   0.712  16.245
  112CHL1   H7B14487   5.310   0.584  16.246
  112CHL1    C814488   5.245   0.814  16.222
  112CHL1    H814489   5.297   0.923  16.239
  112CHL1   C1414490   5.234   0.793  16.072
  112CHL1   H1414491   5.189   0.680  16.057
  112CHL1   C1514492   5.378   0.800  15.991
  112CHL1  H15A14493   5.442   0.899  16.021
  112CHL1  H15B14494   5.446   0.701  16.004
  112CHL1   C1614495   5.322   0.818  15.847
  112CHL1  H16A14496   5.376   0.916  15.800
  112CHL1  H16B14497   5.345   0.720  15.785
  112CHL1   C1714498   5.152   0.845  15.859
  112CHL1   H1714499   5.099   0.735  15.851
  112CHL1   C1314500   5.126   0.896  16.002
  112CHL1   C1814501   5.178   1.059  16.012
  112CHL1  H18A14502   5.190   1.095  16.118
  112CHL1  H18B14503   5.284   1.078  15.962
  112CHL1  H18C14504   5.096   1.134  15.965
  112CHL1   C1214505   4.973   0.871  16.063
  112CHL1  H12A14506   4.888   0.944  16.019
  112CHL1  H12B14507   4.939   0.756  16.044
  112CHL1   C1114508   4.975   0.902  16.213
  112CHL1  H11A14509   4.996   1.022  16.224
  112CHL1  H11B14510   4.864   0.880  16.255
  112CHL1    C914511   5.093   0.810  16.288
  112CHL1    H914512   5.055   0.693  16.279
  112CHL1   C1014513   5.106   0.845  16.439
  112CHL1   C1914514   5.124   1.012  16.453
  112CHL1  H19A14515   5.017   1.061  16.427
  112CHL1  H19B14516   5.150   1.048  16.556
  112CHL1  H19C14517   5.210   1.057  16.386
  112CHL1    C114518   4.965   0.800  16.516
  112CHL1   H1A14519   4.870   0.860  16.475
  112CHL1   H1B14520   4.943   0.681  16.501
  112CHL1    C214521   4.972   0.835  16.667
  112CHL1   H2A14522   4.872   0.792  16.717
  112CHL1   H2B14523   4.973   0.956  16.681
  112CHL1   C2014524   5.093   0.937  15.745
  112CHL1   H2014525   5.152   1.045  15.741
  112CHL1   C2114526   4.928   0.972  15.761
  112CHL1  H21A14527   4.862   0.871  15.775
  112CHL1  H21B14528   4.883   1.033  15.674
  112CHL1  H21C14529   4.909   1.048  15.846
  112CHL1   C2214530   5.126   0.856  15.613
  112CHL1  H22A14531   5.246   0.862  15.591
  112CHL1  H22B14532   5.094   0.738  15.620
  112CHL1   C2314533   5.040   0.925  15.500
  112CHL1  H23A14534   4.923   0.894  15.509
  112CHL1  H23B14535   5.050   1.047  15.510
  112CHL1   C2414536   5.094   0.883  15.362
  112CHL1  H24A14537   5.215   0.899  15.355
  112CHL1  H24B14538   5.069   0.767  15.338
  112CHL1   C2514539   5.022   0.988  15.263
  112CHL1   H2514540   5.042   1.103  15.296
  112CHL1   C2614541   5.094   0.966  15.128
  112CHL1  H26A14542   5.117   0.849  15.110
  112CHL1  H26B14543   5.029   1.014  15.044
  112CHL1  H26C14544   5.203   1.020  15.133
  112CHL1   C2714545   4.855   0.971  15.258
  112CHL1  H27A14546   4.815   1.051  15.183
  112CHL1  H27B14547   4.821   0.858  15.232
  112CHL1  H27C14548   4.805   1.001  15.355
  113CHL1    C314549   0.641   5.507  16.714
  113CHL1    H314550   0.640   5.385  16.704
  113CHL1    O314551   0.646   5.543  16.852
  113CHL1   H3'14552   0.601   5.460  16.898
  113CHL1    C414553   0.775   5.572  16.641
  113CHL1   H4A14554   0.778   5.693  16.652
  113CHL1   H4B14555   0.878   5.536  16.691
  113CHL1    C514556   0.769   5.521  16.497
  113CHL1    C614557   0.860   5.421  16.445
  113CHL1    H614558   0.946   5.374  16.507
  113CHL1    C714559   0.856   5.371  16.302
  113CHL1   H7A14560   0.967   5.344  16.264
  113CHL1   H7B14561   0.786   5.271  16.292
  113CHL1    C814562   0.791   5.497  16.217
  113CHL1    H814563   0.867   5.591  16.229
  113CHL1   C1414564   0.775   5.453  16.070
  113CHL1   H1414565   0.682   5.374  16.065
  113CHL1   C1514566   0.905   5.377  16.000
  113CHL1  H15A14567   1.012   5.410  16.045
  113CHL1  H15B14568   0.891   5.256  16.006
  113CHL1   C1614569   0.898   5.431  15.853
  113CHL1  H16A14570   0.990   5.508  15.833
  113CHL1  H16B14571   0.902   5.339  15.780
  113CHL1   C1714572   0.749   5.511  15.843
  113CHL1   H1714573   0.664   5.422  15.839
  113CHL1   C1314574   0.737   5.581  15.980
  113CHL1   C1814575   0.857   5.700  15.994
  113CHL1  H18A14576   0.908   5.733  15.898
  113CHL1  H18B14577   0.805   5.797  16.039
  113CHL1  H18C14578   0.949   5.664  16.058
  113CHL1   C1214579   0.584   5.632  16.021
  113CHL1  H12A14580   0.550   5.732  15.966
  113CHL1  H12B14581   0.521   5.535  15.990
  113CHL1   C1114582   0.570   5.661  16.171
  113CHL1  H11A14583   0.622   5.768  16.175
  113CHL1  H11B14584   0.456   5.681  16.203
  113CHL1    C914585   0.640   5.546  16.268
  113CHL1    H914586   0.568   5.447  16.261
  113CHL1   C1014587   0.643   5.591  16.418
  113CHL1   C1914588   0.661   5.757  16.430
  113CHL1  H19A14589   0.594   5.825  16.362
  113CHL1  H19B14590   0.632   5.799  16.530
  113CHL1  H19C14591   0.778   5.784  16.410
  113CHL1    C114592   0.506   5.538  16.495
  113CHL1   H1A14593   0.410   5.594  16.452
  113CHL1   H1B14594   0.494   5.418  16.479
  113CHL1    C214595   0.502   5.566  16.648
  113CHL1   H2A14596   0.399   5.519  16.691
  113CHL1   H2B14597   0.499   5.685  16.670
  113CHL1   C2014598   0.726   5.606  15.719
  113CHL1   H2014599   0.791   5.709  15.725
  113CHL1   C2114600   0.562   5.643  15.705
  113CHL1  H21A14601   0.532   5.671  15.601
  113CHL1  H21B14602   0.530   5.738  15.769
  113CHL1  H21C14603   0.497   5.544  15.735
  113CHL1   C2214604   0.772   5.529  15.589
  113CHL1  H22A14605   0.740   5.604  15.507
  113CHL1  H22B14606   0.894   5.516  15.584
  113CHL1   C2314607   0.698   5.378  15.568
  113CHL1  H23A14608   0.729   5.300  15.647
  113CHL1  H23B14609   0.576   5.391  15.573
  113CHL1   C2414610   0.735   5.311  15.431
  113CHL1  H24A14611   0.856   5.297  15.421
  113CHL1  H24B14612   0.684   5.200  15.430
  113CHL1   C2514613   0.671   5.405  15.317
  113CHL1   H2514614   0.587   5.480  15.363
  113CHL1   C2614615   0.786   5.503  15.248
  113CHL1  H26A14616   0.876   5.435  15.204
  113CHL1  H26B14617   0.735   5.567  15.166
  113CHL1  H26C14618   0.838   5.581  15.318
  113CHL1   C2714619   0.589   5.311  15.214
  113CHL1  H27A14620   0.487   5.368  15.179
  113CHL1  H27B14621   0.661   5.291  15.126
  113CHL1  H27C14622   0.554   5.203  15.257
  114CHL1    C314623   5.915   7.864  16.734
  114CHL1    H314624   6.028   7.909  16.727
  114CHL1    O314625   5.872   7.851  16.870
  114CHL1   H3'14626   5.777   7.802  16.866
  114CHL1    C414627   5.808   7.970  16.662
  114CHL1   H4A14628   5.693   7.935  16.684
  114CHL1   H4B14629   5.822   8.080  16.709
  114CHL1    C514630   5.831   7.975  16.513
  114CHL1    C614631   5.847   8.103  16.449
  114CHL1    H614632   5.840   8.207  16.505
  114CHL1    C714633   5.855   8.115  16.300
  114CHL1   H7A14634   5.782   8.204  16.265
  114CHL1   H7B14635   5.969   8.143  16.269
  114CHL1    C814636   5.809   7.970  16.229
  114CHL1    H814637   5.687   7.961  16.235
  114CHL1   C1414638   5.854   7.981  16.085
  114CHL1   H1414639   5.978   7.985  16.085
  114CHL1   C1514640   5.804   8.120  16.013
  114CHL1  H15A14641   5.687   8.144  16.041
  114CHL1  H15B14642   5.873   8.216  16.037
  114CHL1   C1614643   5.815   8.078  15.866
  114CHL1  H16A14644   5.705   8.090  15.818
  114CHL1  H16B14645   5.896   8.148  15.813
  114CHL1   C1714646   5.863   7.913  15.862
  114CHL1   H1714647   5.984   7.912  15.864
  114CHL1   C1314648   5.816   7.849  15.998
  114CHL1   C1814649   5.649   7.822  15.992
  114CHL1  H18A14650   5.587   7.917  15.952
  114CHL1  H18B14651   5.628   7.725  15.928
  114CHL1  H18C14652   5.602   7.797  16.092
  114CHL1   C1214653   5.897   7.715  16.058
  114CHL1  H12A14654   5.875   7.613  16.000
  114CHL1  H12B14655   6.017   7.736  16.053
  114CHL1   C1114656   5.851   7.693  16.205
  114CHL1  H11A14657   5.731   7.669  16.205
  114CHL1  H11B14658   5.903   7.593  16.248
  114CHL1    C914659   5.879   7.834  16.292
  114CHL1    H914660   6.001   7.852  16.289
  114CHL1   C1014661   5.835   7.823  16.442
  114CHL1   C1914662   5.678   7.762  16.449
  114CHL1  H19A14663   5.600   7.830  16.391
  114CHL1  H19B14664   5.678   7.648  16.409
  114CHL1  H19C14665   5.636   7.755  16.553
  114CHL1    C114666   5.943   7.720  16.517
  114CHL1   H1A14667   5.935   7.609  16.473
  114CHL1   H1B14668   6.059   7.759  16.500
  114CHL1    C214669   5.912   7.711  16.668
  114CHL1   H2A14670   5.995   7.640  16.716
  114CHL1   H2B14671   5.804   7.659  16.683
  114CHL1   C2014672   5.818   7.843  15.729
  114CHL1   H2014673   5.696   7.842  15.723
  114CHL1   C2114674   5.879   7.685  15.725
  114CHL1  H21A14675   5.870   7.636  15.624
  114CHL1  H21B14676   5.819   7.612  15.795
  114CHL1  H21C14677   5.997   7.684  15.756
  114CHL1   C2214678   5.873   7.940  15.611
  114CHL1  H22A14679   5.833   8.055  15.623
  114CHL1  H22B14680   5.994   7.942  15.621
  114CHL1   C2314681   5.828   7.900  15.467
  114CHL1  H23A14682   5.915   7.942  15.398
  114CHL1  H23B14683   5.826   7.780  15.454
  114CHL1   C2414684   5.684   7.978  15.427
  114CHL1  H24A14685   5.597   7.950  15.500
  114CHL1  H24B14686   5.701   8.099  15.436
  114CHL1   C2514687   5.625   7.951  15.284
  114CHL1   H2514688   5.504   7.933  15.291
  114CHL1   C2614689   5.653   8.084  15.192
  114CHL1  H26A14690   5.604   8.185  15.235
  114CHL1  H26B14691   5.773   8.101  15.179
  114CHL1  H26C14692   5.602   8.065  15.093
  114CHL1   C2714693   5.690   7.816  15.217
  114CHL1  H27A14694   5.642   7.799  15.117
  114CHL1  H27B14695   5.811   7.825  15.206
  114CHL1  H27C14696   5.667   7.715  15.277
  115CHL1    C314697   2.052   0.747  16.723
  115CHL1    H314698   1.934   0.723  16.697
  115CHL1    O314699   2.064   0.760  16.864
  115CHL1   H3'14700   2.061   0.660  16.898
  115CHL1    C414701   2.148   0.618  16.674
  115CHL1   H4A14702   2.261   0.632  16.714
  115CHL1   H4B14703   2.104   0.515  16.718
  115CHL1    C514704   2.154   0.609  16.522
  115CHL1    C614705   2.116   0.487  16.456
  115CHL1    H614706   2.081   0.388  16.511
  115CHL1    C714707   2.131   0.473  16.307
  115CHL1   H7A14708   2.178   0.364  16.281
  115CHL1   H7B14709   2.020   0.481  16.260
  115CHL1    C814710   2.230   0.594  16.245
  115CHL1    H814711   2.345   0.570  16.276
  115CHL1   C1414712   2.221   0.590  16.095
  115CHL1   H1414713   2.103   0.615  16.069
  115CHL1   C1514714   2.258   0.444  16.026
  115CHL1  H15A14715   2.366   0.403  16.062
  115CHL1  H15B14716   2.176   0.359  16.047
  115CHL1   C1614717   2.267   0.487  15.878
  115CHL1  H16A14718   2.363   0.432  15.831
  115CHL1  H16B14719   2.166   0.458  15.823
  115CHL1   C1714720   2.281   0.659  15.876
  115CHL1   H1714721   2.168   0.702  15.855
  115CHL1   C1314722   2.312   0.705  16.021
  115CHL1   C1814723   2.478   0.682  16.050
  115CHL1  H18A14724   2.519   0.576  16.009
  115CHL1  H18B14725   2.543   0.771  16.004
  115CHL1  H18C14726   2.503   0.684  16.158
  115CHL1   C1214727   2.258   0.858  16.066
  115CHL1  H12A14728   2.328   0.945  16.021
  115CHL1  H12B14729   2.143   0.875  16.032
  115CHL1   C1114730   2.265   0.872  16.219
  115CHL1  H11A14731   2.384   0.875  16.244
  115CHL1  H11B14732   2.218   0.980  16.249
  115CHL1    C914733   2.186   0.746  16.297
  115CHL1    H914734   2.067   0.758  16.273
  115CHL1   C1014735   2.199   0.754  16.451
  115CHL1   C1914736   2.362   0.783  16.486
  115CHL1  H19A14737   2.380   0.784  16.596
  115CHL1  H19B14738   2.437   0.702  16.439
  115CHL1  H19C14739   2.392   0.894  16.450
  115CHL1    C114740   2.100   0.879  16.505
  115CHL1   H1A14741   2.135   0.986  16.461
  115CHL1   H1B14742   1.987   0.857  16.470
  115CHL1    C214743   2.095   0.892  16.658
  115CHL1   H2A14744   2.014   0.978  16.687
  115CHL1   H2B14745   2.204   0.927  16.696
  115CHL1   C2014746   2.384   0.713  15.766
  115CHL1   H2014747   2.499   0.679  15.788
  115CHL1   C2114748   2.378   0.881  15.754
  115CHL1  H21A14749   2.264   0.922  15.749
  115CHL1  H21B14750   2.437   0.917  15.662
  115CHL1  H21C14751   2.432   0.934  15.840
  115CHL1   C2214752   2.344   0.646  15.630
  115CHL1  H22A14753   2.418   0.696  15.554
  115CHL1  H22B14754   2.366   0.526  15.626
  115CHL1   C2314755   2.184   0.674  15.591
  115CHL1  H23A14756   2.114   0.581  15.624
  115CHL1  H23B14757   2.138   0.770  15.645
  115CHL1   C2414758   2.175   0.703  15.442
  115CHL1  H24A14759   2.236   0.806  15.422
  115CHL1  H24B14760   2.231   0.613  15.387
  115CHL1   C2514761   2.020   0.719  15.386
  115CHL1   H2514762   1.964   0.609  15.384
  115CHL1   C2614763   1.919   0.825  15.464
  115CHL1  H26A14764   1.808   0.831  15.418
  115CHL1  H26B14765   1.907   0.788  15.569
  115CHL1  H26C14766   1.968   0.937  15.464
  115CHL1   C2714767   2.043   0.771  15.243
  115CHL1  H27A14768   2.119   0.868  15.240
  115CHL1  H27B14769   2.088   0.682  15.178
  115CHL1  H27C14770   1.937   0.805  15.203
  116CHL1    C314771   2.840   0.331  16.710
  116CHL1    H314772   2.760   0.245  16.678
  116CHL1    O314773   2.847   0.328  16.853
  116CHL1   H3'14774   2.877   0.229  16.873
  116CHL1    C414775   2.992   0.294  16.652
  116CHL1   H4A14776   3.075   0.367  16.699
  116CHL1   H4B14777   3.021   0.182  16.686
  116CHL1    C514778   3.001   0.309  16.501
  116CHL1    C614779   3.053   0.204  16.422
  116CHL1    H614780   3.083   0.100  16.465
  116CHL1    C714781   3.086   0.220  16.277
  116CHL1   H7A14782   3.196   0.175  16.252
  116CHL1   H7B14783   3.004   0.155  16.222
  116CHL1    C814784   3.068   0.378  16.224
  116CHL1    H814785   3.167   0.444  16.246
  116CHL1   C1414786   3.054   0.369  16.075
  116CHL1   H1414787   2.963   0.288  16.055
  116CHL1   C1514788   3.188   0.310  16.002
  116CHL1  H15A14789   3.286   0.380  16.026
  116CHL1  H15B14790   3.215   0.195  16.027
  116CHL1   C1614791   3.138   0.331  15.858
  116CHL1  H16A14792   3.236   0.363  15.799
  116CHL1  H16B14793   3.091   0.226  15.821
  116CHL1   C1714794   3.010   0.446  15.857
  116CHL1   H1714795   2.908   0.376  15.849
  116CHL1   C1314796   3.007   0.508  16.000
  116CHL1   C1814797   3.126   0.629  16.011
  116CHL1  H18A14798   3.156   0.650  16.117
  116CHL1  H18B14799   3.227   0.601  15.955
  116CHL1  H18C14800   3.083   0.734  15.968
  116CHL1   C1214801   2.860   0.559  16.060
  116CHL1  H12A14802   2.823   0.660  16.011
  116CHL1  H12B14803   2.776   0.472  16.042
  116CHL1   C1114804   2.874   0.583  16.213
  116CHL1  H11A14805   2.950   0.677  16.233
  116CHL1  H11B14806   2.764   0.616  16.252
  116CHL1    C914807   2.930   0.443  16.287
  116CHL1    H914808   2.840   0.362  16.269
  116CHL1   C1014809   2.949   0.454  16.441
  116CHL1   C1914810   3.079   0.557  16.474
  116CHL1  H19A14811   3.099   0.561  16.583
  116CHL1  H19B14812   3.184   0.518  16.431
  116CHL1  H19C14813   3.060   0.670  16.436
  116CHL1    C114814   2.798   0.495  16.506
  116CHL1   H1A14815   2.768   0.607  16.475
  116CHL1   H1B14816   2.714   0.419  16.463
  116CHL1    C214817   2.789   0.482  16.660
  116CHL1   H2A14818   2.673   0.499  16.694
  116CHL1   H2B14819   2.857   0.569  16.706
  116CHL1   C2014820   3.007   0.548  15.734
  116CHL1   H2014821   3.088   0.639  15.747
  116CHL1   C2114822   2.851   0.612  15.720
  116CHL1  H21A14823   2.838   0.670  15.623
  116CHL1  H21B14824   2.830   0.692  15.801
  116CHL1  H21C14825   2.767   0.524  15.726
  116CHL1   C2214826   3.051   0.462  15.605
  116CHL1  H22A14827   3.167   0.425  15.619
  116CHL1  H22B14828   2.980   0.364  15.596
  116CHL1   C2314829   3.060   0.541  15.469
  116CHL1  H23A14830   2.948   0.570  15.432
  116CHL1  H23B14831   3.124   0.645  15.483
  116CHL1   C2414832   3.136   0.441  15.365
  116CHL1  H24A14833   3.241   0.400  15.409
  116CHL1  H24B14834   3.064   0.345  15.346
  116CHL1   C2514835   3.179   0.513  15.232
  116CHL1   H2514836   3.081   0.572  15.192
  116CHL1   C2614837   3.304   0.620  15.256
  116CHL1  H26A14838   3.332   0.666  15.156
  116CHL1  H26B14839   3.274   0.712  15.324
  116CHL1  H26C14840   3.403   0.564  15.296
  116CHL1   C2714841   3.232   0.400  15.127
  116CHL1  H27A14842   3.176   0.294  15.141
  116CHL1  H27B14843   3.208   0.441  15.024
  116CHL1  H27C14844   3.352   0.382  15.135
  117CHL1    C314845   5.964   0.340  16.709
  117CHL1    H314846   6.084   0.318  16.697
  117CHL1    O314847   5.925   0.345  16.847
  117CHL1   H3'14848   5.964   0.437  16.884
  117CHL1    C414849   5.925   0.485  16.636
  117CHL1   H4A14850   5.810   0.516  16.664
  117CHL1   H4B14851   5.997   0.573  16.676
  117CHL1    C514852   5.938   0.473  16.486
  117CHL1    C614853   6.020   0.565  16.412
  117CHL1    H614854   6.082   0.656  16.460
  117CHL1    C714855   6.027   0.559  16.261
  117CHL1   H7A14856   6.021   0.671  16.217
  117CHL1   H7B14857   6.132   0.509  16.229
  117CHL1    C814858   5.900   0.465  16.201
  117CHL1    H814859   5.795   0.526  16.213
  117CHL1   C1414860   5.927   0.438  16.054
  117CHL1   H1414861   6.036   0.378  16.048
  117CHL1   C1514862   5.944   0.574  15.964
  117CHL1  H15A14863   5.862   0.659  15.992
  117CHL1  H15B14864   6.057   0.622  15.971
  117CHL1   C1614865   5.911   0.515  15.823
  117CHL1  H16A14866   5.812   0.572  15.782
  117CHL1  H16B14867   6.005   0.531  15.754
  117CHL1   C1714868   5.875   0.348  15.841
  117CHL1   H1714869   5.983   0.289  15.840
  117CHL1   C1314870   5.817   0.336  15.985
  117CHL1   C1814871   5.658   0.400  15.993
  117CHL1  H18A14872   5.653   0.513  15.949
  117CHL1  H18B14873   5.580   0.328  15.938
  117CHL1  H18C14874   5.621   0.408  16.098
  117CHL1   C1214875   5.825   0.185  16.054
  117CHL1  H12A14876   5.742   0.108  16.013
  117CHL1  H12B14877   5.936   0.138  16.038
  117CHL1   C1114878   5.796   0.198  16.205
  117CHL1  H11A14879   5.677   0.222  16.218
  117CHL1  H11B14880   5.817   0.089  16.252
  117CHL1    C914881   5.891   0.319  16.276
  117CHL1    H914882   6.005   0.274  16.273
  117CHL1   C1014883   5.853   0.343  16.425
  117CHL1   C1914884   5.688   0.384  16.440
  117CHL1  H19A14885   5.660   0.486  16.386
  117CHL1  H19B14886   5.617   0.294  16.401
  117CHL1  H19C14887   5.656   0.398  16.546
  117CHL1    C114888   5.887   0.198  16.501
  117CHL1   H1A14889   5.808   0.113  16.467
  117CHL1   H1B14890   5.999   0.161  16.475
  117CHL1    C214891   5.875   0.212  16.653
  117CHL1   H2A14892   5.907   0.108  16.703
  117CHL1   H2B14893   5.759   0.235  16.679
  117CHL1   C2014894   5.785   0.286  15.724
  117CHL1   H2014895   5.674   0.338  15.727
  117CHL1   C2114896   5.766   0.118  15.736
  117CHL1  H21A14897   5.873   0.064  15.754
  117CHL1  H21B14898   5.718   0.071  15.643
  117CHL1  H21C14899   5.688   0.089  15.818
  117CHL1   C2214900   5.858   0.327  15.588
  117CHL1  H22A14901   5.869   0.448  15.581
  117CHL1  H22B14902   5.970   0.279  15.584
  117CHL1   C2314903   5.769   0.282  15.464
  117CHL1  H23A14904   5.826   0.334  15.377
  117CHL1  H23B14905   5.774   0.161  15.448
  117CHL1   C2414906   5.610   0.333  15.475
  117CHL1  H24A14907   5.551   0.264  15.549
  117CHL1  H24B14908   5.611   0.448  15.514
  117CHL1   C2514909   5.521   0.333  15.345
  117CHL1   H2514910   5.510   0.218  15.308
  117CHL1   C2614911   5.366   0.393  15.375
  117CHL1  H26A14912   5.371   0.497  15.432
  117CHL1  H26B14913   5.303   0.414  15.282
  117CHL1  H26C14914   5.303   0.311  15.436
  117CHL1   C2714915   5.597   0.425  15.235
  117CHL1  H27A14916   5.687   0.359  15.190
  117CHL1  H27B14917   5.518   0.455  15.155
  117CHL1  H27C14918   5.645   0.526  15.279
  118CHL1    C314919   8.172   1.736  16.730
  118CHL1    H314920   8.220   1.845  16.706
  118CHL1    O314921   8.131   1.731  16.868
  118CHL1   H3'14922   8.065   1.813  16.883
  118CHL1    C414923   8.034   1.707  16.643
  118CHL1   H4A14924   7.979   1.609  16.684
  118CHL1   H4B14925   7.957   1.802  16.658
  118CHL1    C514926   8.067   1.681  16.497
  118CHL1    C614927   7.990   1.750  16.402
  118CHL1    H614928   7.896   1.817  16.433
  118CHL1    C714929   8.021   1.737  16.256
  118CHL1   H7A14930   7.919   1.744  16.194
  118CHL1   H7B14931   8.092   1.833  16.228
  118CHL1    C814932   8.108   1.599  16.219
  118CHL1    H814933   8.034   1.502  16.228
  118CHL1   C1414934   8.165   1.616  16.078
  118CHL1   H1414935   8.240   1.712  16.083
  118CHL1   C1514936   8.056   1.658  15.965
  118CHL1  H15A14937   7.950   1.599  15.973
  118CHL1  H15B14938   8.034   1.778  15.964
  118CHL1   C1614939   8.140   1.612  15.839
  118CHL1  H16A14940   8.074   1.527  15.786
  118CHL1  H16B14941   8.156   1.703  15.768
  118CHL1   C1714942   8.290   1.543  15.886
  118CHL1   H1714943   8.369   1.635  15.898
  118CHL1   C1314944   8.259   1.488  16.027
  118CHL1   C1814945   8.161   1.352  16.015
  118CHL1  H18A14946   8.070   1.373  15.944
  118CHL1  H18B14947   8.225   1.257  15.976
  118CHL1  H18C14948   8.114   1.319  16.112
  118CHL1   C1214949   8.391   1.462  16.119
  118CHL1  H12A14950   8.441   1.355  16.092
  118CHL1  H12B14951   8.476   1.548  16.104
  118CHL1   C1114952   8.342   1.454  16.266
  118CHL1  H11A14953   8.275   1.353  16.273
  118CHL1  H11B14954   8.440   1.443  16.331
  118CHL1    C914955   8.241   1.583  16.313
  118CHL1    H914956   8.307   1.685  16.301
  118CHL1   C1014957   8.195   1.576  16.462
  118CHL1   C1914958   8.130   1.422  16.489
  118CHL1  H19A14959   8.210   1.333  16.470
  118CHL1  H19B14960   8.099   1.413  16.595
  118CHL1  H19C14961   8.029   1.403  16.428
  118CHL1    C114962   8.328   1.604  16.556
  118CHL1   H1A14963   8.407   1.511  16.547
  118CHL1   H1B14964   8.386   1.706  16.526
  118CHL1    C214965   8.287   1.617  16.706
  118CHL1   H2A14966   8.386   1.640  16.766
  118CHL1   H2B14967   8.243   1.509  16.741
  118CHL1   C2014968   8.352   1.439  15.780
  118CHL1   H2014969   8.273   1.350  15.768
  118CHL1   C2114970   8.493   1.354  15.815
  118CHL1  H21A14971   8.528   1.285  15.729
  118CHL1  H21B14972   8.474   1.277  15.899
  118CHL1  H21C14973   8.584   1.426  15.841
  118CHL1   C2214974   8.362   1.530  15.651
  118CHL1  H22A14975   8.250   1.565  15.619
  118CHL1  H22B14976   8.427   1.630  15.673
  118CHL1   C2314977   8.428   1.465  15.527
  118CHL1  H23A14978   8.545   1.433  15.542
  118CHL1  H23B14979   8.364   1.365  15.499
  118CHL1   C2414980   8.416   1.585  15.419
  118CHL1  H24A14981   8.298   1.604  15.394
  118CHL1  H24B14982   8.461   1.691  15.456
  118CHL1   C2514983   8.500   1.543  15.294
  118CHL1   H2514984   8.617   1.530  15.324
  118CHL1   C2614985   8.435   1.399  15.246
  118CHL1  H26A14986   8.482   1.364  15.149
  118CHL1  H26B14987   8.455   1.306  15.316
  118CHL1  H26C14988   8.317   1.418  15.230
  118CHL1   C2714989   8.492   1.659  15.182
  118CHL1  H27A14990   8.543   1.614  15.089
  118CHL1  H27B14991   8.377   1.690  15.161
  118CHL1  H27C14992   8.554   1.759  15.211
  119CHL1    C314993   1.316   0.270  16.725
  119CHL1    H314994   1.243   0.171  16.717
  119CHL1    O314995   1.362   0.285  16.860
  119CHL1   H3'14996   1.272   0.284  16.914
  119CHL1    C414997   1.453   0.243  16.638
  119CHL1   H4A14998   1.546   0.311  16.674
  119CHL1   H4B14999   1.489   0.128  16.656
  119CHL1    C515000   1.424   0.273  16.491
  119CHL1    C615001   1.451   0.173  16.397
  119CHL1    H615002   1.497   0.067  16.427
  119CHL1    C715003   1.430   0.201  16.250
  119CHL1   H7A15004   1.520   0.150  16.193
  119CHL1   H7B15005   1.326   0.152  16.216
  119CHL1    C815006   1.433   0.365  16.214
  119CHL1    H815007   1.547   0.406  16.231
  119CHL1   C1415008   1.389   0.388  16.068
  119CHL1   H1415009   1.273   0.350  16.060
  119CHL1   C1515010   1.474   0.307  15.955
  119CHL1  H15A15011   1.593   0.306  15.979
  119CHL1  H15B15012   1.433   0.191  15.949
  119CHL1   C1615013   1.443   0.398  15.826
  119CHL1  H16A15014   1.548   0.431  15.779
  119CHL1  H16B15015   1.379   0.330  15.754
  119CHL1   C1715016   1.350   0.532  15.876
  119CHL1   H1715017   1.238   0.484  15.871
  119CHL1   C1315018   1.391   0.548  16.024
  119CHL1   C1815019   1.551   0.609  16.030
  119CHL1  H18A15020   1.599   0.596  16.130
  119CHL1  H18B15021   1.626   0.554  15.958
  119CHL1  H18C15022   1.551   0.728  16.007
  119CHL1   C1215023   1.286   0.635  16.115
  119CHL1  H12A15024   1.291   0.752  16.088
  119CHL1  H12B15025   1.172   0.595  16.098
  119CHL1   C1115026   1.324   0.615  16.263
  119CHL1  H11A15027   1.434   0.666  16.278
  119CHL1  H11B15028   1.245   0.677  16.325
  119CHL1    C915029   1.329   0.451  16.306
  119CHL1    H915030   1.217   0.406  16.286
  119CHL1   C1015031   1.357   0.422  16.458
  119CHL1   C1915032   1.464   0.541  16.510
  119CHL1  H19A15033   1.565   0.544  16.448
  119CHL1  H19B15034   1.408   0.650  16.506
  119CHL1  H19C15035   1.496   0.526  16.615
  119CHL1    C115036   1.210   0.427  16.535
  119CHL1   H1A15037   1.155   0.535  16.516
  119CHL1   H1B15038   1.137   0.339  16.497
  119CHL1    C215039   1.228   0.407  16.688
  119CHL1   H2A15040   1.118   0.402  16.735
  119CHL1   H2B15041   1.283   0.507  16.728
  119CHL1   C2015042   1.341   0.683  15.804
  119CHL1   H2015043   1.424   0.760  15.845
  119CHL1   C2115044   1.185   0.738  15.841
  119CHL1  H21A15045   1.190   0.843  15.897
  119CHL1  H21B15046   1.117   0.659  15.897
  119CHL1  H21C15047   1.119   0.752  15.750
  119CHL1   C2215048   1.360   0.694  15.651
  119CHL1  H22A15049   1.465   0.646  15.617
  119CHL1  H22B15050   1.270   0.624  15.610
  119CHL1   C2315051   1.348   0.850  15.584
  119CHL1  H23A15052   1.371   0.942  15.653
  119CHL1  H23B15053   1.436   0.856  15.507
  119CHL1   C2415054   1.196   0.867  15.515
  119CHL1  H24A15055   1.186   0.756  15.479
  119CHL1  H24B15056   1.114   0.879  15.593
  119CHL1   C2515057   1.156   0.952  15.384
  119CHL1   H2515058   1.093   1.052  15.409
  119CHL1   C2615059   1.290   1.007  15.318
  119CHL1  H26A15060   1.340   0.927  15.247
  119CHL1  H26B15061   1.233   1.090  15.259
  119CHL1  H26C15062   1.372   1.051  15.390
  119CHL1   C2715063   1.065   0.886  15.265
  119CHL1  H27A15064   1.134   0.816  15.200
  119CHL1  H27B15065   0.964   0.824  15.291
  119CHL1  H27C15066   1.032   0.978  15.199
  120CHL1    C315067   8.080   8.303  16.701
  120CHL1    H315068   7.963   8.265  16.706
  120CHL1    O315069   8.128   8.339  16.833
  120CHL1   H3'15070   8.070   8.419  16.864
  120CHL1    C415071   8.174   8.176  16.648
  120CHL1   H4A15072   8.288   8.214  16.661
  120CHL1   H4B15073   8.162   8.078  16.713
  120CHL1    C515074   8.159   8.141  16.501
  120CHL1    C615075   8.136   8.003  16.458
  120CHL1    H615076   8.130   7.911  16.530
  120CHL1    C715077   8.144   7.961  16.313
  120CHL1   H7A15078   8.217   7.863  16.300
  120CHL1   H7B15079   8.034   7.929  16.275
  120CHL1    C815080   8.209   8.086  16.224
  120CHL1    H815081   8.329   8.090  16.238
  120CHL1   C1415082   8.182   8.052  16.078
  120CHL1   H1415083   8.060   8.048  16.068
  120CHL1   C1515084   8.230   7.901  16.025
  120CHL1  H15A15085   8.347   7.880  16.052
  120CHL1  H15B15086   8.160   7.812  16.068
  120CHL1   C1615087   8.210   7.919  15.874
  120CHL1  H16A15088   8.312   7.883  15.820
  120CHL1  H16B15089   8.116   7.853  15.837
  120CHL1   C1715090   8.182   8.086  15.850
  120CHL1   H1715091   8.061   8.101  15.861
  120CHL1   C1315092   8.239   8.164  15.977
  120CHL1   C1815093   8.408   8.168  15.974
  120CHL1  H18A15094   8.453   8.198  16.073
  120CHL1  H18B15095   8.455   8.060  15.945
  120CHL1  H18C15096   8.447   8.250  15.900
  120CHL1   C1215097   8.174   8.316  16.010
  120CHL1  H12A15098   8.229   8.402  15.949
  120CHL1  H12B15099   8.057   8.317  15.982
  120CHL1   C1115100   8.194   8.357  16.158
  120CHL1  H11A15101   8.313   8.378  16.169
  120CHL1  H11B15102   8.135   8.461  16.179
  120CHL1    C915103   8.144   8.237  16.260
  120CHL1    H915104   8.022   8.227  16.252
  120CHL1   C1015105   8.175   8.275  16.409
  120CHL1   C1915106   8.335   8.335  16.416
  120CHL1  H19A15107   8.342   8.445  16.370
  120CHL1  H19B15108   8.373   8.348  16.520
  120CHL1  H19C15109   8.413   8.260  16.366
  120CHL1    C115110   8.066   8.396  16.460
  120CHL1   H1A15111   8.081   8.496  16.398
  120CHL1   H1B15112   7.951   8.358  16.446
  120CHL1    C215113   8.089   8.438  16.609
  120CHL1   H2A15114   8.008   8.523  16.640
  120CHL1   H2B15115   8.202   8.488  16.619
  120CHL1   C2015116   8.215   8.138  15.707
  120CHL1   H2015117   8.328   8.105  15.679
  120CHL1   C2115118   8.201   8.305  15.693
  120CHL1  H21A15119   8.209   8.338  15.586
  120CHL1  H21B15120   8.287   8.362  15.750
  120CHL1  H21C15121   8.090   8.341  15.730
  120CHL1   C2215122   8.107   8.064  15.609
  120CHL1  H22A15123   8.034   7.991  15.669
  120CHL1  H22B15124   8.038   8.147  15.557
  120CHL1   C2315125   8.165   7.950  15.512
  120CHL1  H23A15126   8.246   7.879  15.566
  120CHL1  H23B15127   8.066   7.883  15.485
  120CHL1   C2415128   8.226   8.005  15.379
  120CHL1  H24A15129   8.135   8.060  15.324
  120CHL1  H24B15130   8.311   8.089  15.397
  120CHL1   C2515131   8.281   7.876  15.291
  120CHL1   H2515132   8.181   7.808  15.271
  120CHL1   C2615133   8.334   7.927  15.154
  120CHL1  H26A15134   8.440   7.986  15.159
  120CHL1  H26B15135   8.347   7.832  15.086
  120CHL1  H26C15136   8.251   8.003  15.110
  120CHL1   C2715137   8.395   7.775  15.358
  120CHL1  H27A15138   8.494   7.836  15.392
  120CHL1  H27B15139   8.349   7.720  15.448
  120CHL1  H27C15140   8.430   7.688  15.288
  121CHL1    C315141   4.739   4.209  13.227
  121CHL1    H315142   4.708   4.326  13.232
  121CHL1    O315143   4.741   4.159  13.092
  121CHL1   H3'15144   4.795   4.234  13.041
  121CHL1    C415145   4.892   4.184  13.288
  121CHL1   H4A15146   4.930   4.073  13.261
  121CHL1   H4B15147   4.969   4.264  13.239
  121CHL1    C515148   4.896   4.197  13.439
  121CHL1    C615149   4.993   4.287  13.498
  121CHL1    H615150   5.071   4.349  13.437
  121CHL1    C715151   5.009   4.298  13.646
  121CHL1   H7A15152   5.128   4.299  13.673
  121CHL1   H7B15153   4.958   4.401  13.682
  121CHL1    C815154   4.937   4.166  13.719
  121CHL1    H815155   5.009   4.070  13.700
  121CHL1   C1415156   4.927   4.198  13.866
  121CHL1   H1415157   4.837   4.281  13.880
  121CHL1   C1515158   5.061   4.266  13.928
  121CHL1  H15A15159   5.163   4.206  13.901
  121CHL1  H15B15160   5.067   4.379  13.892
  121CHL1   C1615161   5.029   4.257  14.078
  121CHL1  H16A15162   5.133   4.223  14.127
  121CHL1  H16B15163   4.991   4.364  14.119
  121CHL1   C1715164   4.905   4.143  14.094
  121CHL1   H1715165   4.800   4.203  14.114
  121CHL1   C1315166   4.891   4.070  13.956
  121CHL1   C1815167   5.019   3.958  13.951
  121CHL1  H18A15168   4.983   3.852  13.995
  121CHL1  H18B15169   5.062   3.940  13.850
  121CHL1  H18C15170   5.117   3.995  14.008
  121CHL1   C1215171   4.738   4.016  13.913
  121CHL1  H12A15172   4.712   3.908  13.959
  121CHL1  H12B15173   4.655   4.096  13.949
  121CHL1   C1115174   4.719   4.002  13.759
  121CHL1  H11A15175   4.778   3.898  13.736
  121CHL1  H11B15176   4.601   3.985  13.735
  121CHL1    C915177   4.784   4.128  13.671
  121CHL1    H915178   4.715   4.227  13.690
  121CHL1   C1015179   4.783   4.103  13.516
  121CHL1   C1915180   4.826   3.940  13.493
  121CHL1  H19A15181   4.932   3.916  13.543
  121CHL1  H19B15182   4.741   3.867  13.537
  121CHL1  H19C15183   4.835   3.909  13.387
  121CHL1    C115184   4.629   4.137  13.456
  121CHL1   H1A15185   4.545   4.066  13.503
  121CHL1   H1B15186   4.599   4.253  13.480
  121CHL1    C215187   4.624   4.116  13.302
  121CHL1   H2A15188   4.512   4.138  13.262
  121CHL1   H2B15189   4.653   4.001  13.278
  121CHL1   C2015190   4.939   4.045  14.213
  121CHL1   H2015191   5.041   3.980  14.198
  121CHL1   C2115192   4.812   3.936  14.232
  121CHL1  H21A15193   4.797   3.865  14.143
  121CHL1  H21B15194   4.711   4.001  14.252
  121CHL1  H21C15195   4.833   3.860  14.317
  121CHL1   C2215196   4.965   4.136  14.338
  121CHL1  H22A15197   5.073   4.194  14.330
  121CHL1  H22B15198   4.878   4.222  14.351
  121CHL1   C2315199   4.971   4.038  14.461
  121CHL1  H23A15200   4.857   4.008  14.488
  121CHL1  H23B15201   5.034   3.936  14.440
  121CHL1   C2415202   5.045   4.121  14.573
  121CHL1  H24A15203   5.161   4.144  14.549
  121CHL1  H24B15204   4.989   4.230  14.576
  121CHL1   C2515205   5.031   4.046  14.709
  121CHL1   H2515206   5.078   4.131  14.776
  121CHL1   C2615207   4.872   4.008  14.748
  121CHL1  H26A15208   4.799   4.105  14.732
  121CHL1  H26B15209   4.828   3.916  14.688
  121CHL1  H26C15210   4.866   3.977  14.855
  121CHL1   C2715211   5.133   3.914  14.733
  121CHL1  H27A15212   5.103   3.820  14.668
  121CHL1  H27B15213   5.248   3.949  14.715
  121CHL1  H27C15214   5.124   3.880  14.839
  122CHL1    C315215   2.918   4.162  13.254
  122CHL1    H315216   3.013   4.094  13.291
  122CHL1    O315217   2.907   4.140  13.115
  122CHL1   H3'15218   2.822   4.193  13.085
  122CHL1    C415219   2.775   4.113  13.319
  122CHL1   H4A15220   2.683   4.181  13.282
  122CHL1   H4B15221   2.753   3.997  13.287
  122CHL1    C515222   2.789   4.128  13.469
  122CHL1    C615223   2.772   4.011  13.547
  122CHL1    H615224   2.746   3.902  13.503
  122CHL1    C715225   2.782   4.021  13.695
  122CHL1   H7A15226   2.701   3.948  13.745
  122CHL1   H7B15227   2.890   3.981  13.726
  122CHL1    C815228   2.781   4.177  13.753
  122CHL1    H815229   2.666   4.220  13.749
  122CHL1   C1415230   2.833   4.166  13.896
  122CHL1   H1415231   2.946   4.117  13.894
  122CHL1   C1515232   2.740   4.066  13.986
  122CHL1  H15A15233   2.624   4.096  13.969
  122CHL1  H15B15234   2.756   3.947  13.967
  122CHL1   C1615235   2.787   4.110  14.127
  122CHL1  H16A15236   2.687   4.134  14.186
  122CHL1  H16B15237   2.851   4.022  14.177
  122CHL1   C1715238   2.883   4.252  14.110
  122CHL1   H1715239   3.000   4.214  14.106
  122CHL1   C1315240   2.848   4.312  13.969
  122CHL1   C1815241   2.699   4.393  13.974
  122CHL1  H18A15242   2.619   4.334  14.038
  122CHL1  H18B15243   2.715   4.506  14.017
  122CHL1  H18C15244   2.650   4.406  13.874
  122CHL1   C1215245   2.964   4.401  13.891
  122CHL1  H12A15246   2.982   4.510  13.937
  122CHL1  H12B15247   3.070   4.339  13.894
  122CHL1   C1115248   2.919   4.422  13.743
  122CHL1  H11A15249   2.822   4.495  13.740
  122CHL1  H11B15250   3.010   4.479  13.689
  122CHL1    C915251   2.884   4.273  13.672
  122CHL1    H915252   2.992   4.213  13.672
  122CHL1   C1015253   2.837   4.281  13.522
  122CHL1   C1915254   2.701   4.384  13.512
  122CHL1  H19A15255   2.611   4.343  13.578
  122CHL1  H19B15256   2.728   4.497  13.542
  122CHL1  H19C15257   2.658   4.387  13.409
  122CHL1    C115258   2.967   4.343  13.437
  122CHL1   H1A15259   2.987   4.460  13.462
  122CHL1   H1B15260   3.068   4.280  13.465
  122CHL1    C215261   2.947   4.325  13.285
  122CHL1   H2A15262   3.048   4.364  13.233
  122CHL1   H2B15263   2.852   4.392  13.250
  122CHL1   C2015264   2.868   4.348  14.234
  122CHL1   H2015265   2.752   4.391  14.241
  122CHL1   C2115266   2.970   4.484  14.223
  122CHL1  H21A15267   2.937   4.553  14.137
  122CHL1  H21B15268   3.086   4.448  14.210
  122CHL1  H21C15269   2.961   4.553  14.313
  122CHL1   C2215270   2.895   4.253  14.361
  122CHL1  H22A15271   2.795   4.186  14.381
  122CHL1  H22B15272   2.988   4.176  14.341
  122CHL1   C2315273   2.934   4.336  14.490
  122CHL1  H23A15274   3.038   4.397  14.472
  122CHL1  H23B15275   2.845   4.417  14.511
  122CHL1   C2415276   2.956   4.235  14.611
  122CHL1  H24A15277   2.860   4.159  14.621
  122CHL1  H24B15278   3.056   4.166  14.595
  122CHL1   C2515279   2.974   4.319  14.745
  122CHL1   H2515280   2.869   4.374  14.766
  122CHL1   C2615281   3.005   4.216  14.863
  122CHL1  H26A15282   2.912   4.141  14.883
  122CHL1  H26B15283   3.104   4.148  14.843
  122CHL1  H26C15284   3.026   4.282  14.955
  122CHL1   C2715285   3.093   4.440  14.736
  122CHL1  H27A15286   3.089   4.510  14.826
  122CHL1  H27B15287   3.204   4.389  14.727
  122CHL1  H27C15288   3.077   4.512  14.649
  123CHL1    C315289   5.707   4.227  13.244
  123CHL1    H315290   5.705   4.105  13.244
  123CHL1    O315291   5.635   4.279  13.126
  123CHL1   H3'15292   5.601   4.376  13.149
  123CHL1    C415293   5.622   4.287  13.366
  123CHL1   H4A15294   5.563   4.389  13.339
  123CHL1   H4B15295   5.533   4.204  13.382
  123CHL1    C515296   5.708   4.313  13.495
  123CHL1    C615297   5.641   4.285  13.611
  123CHL1    H615298   5.524   4.253  13.612
  123CHL1    C715299   5.712   4.302  13.745
  123CHL1   H7A15300   5.642   4.369  13.813
  123CHL1   H7B15301   5.724   4.192  13.792
  123CHL1    C815302   5.866   4.375  13.740
  123CHL1    H815303   5.852   4.496  13.734
  123CHL1   C1415304   5.949   4.335  13.866
  123CHL1   H1415305   5.958   4.212  13.865
  123CHL1   C1515306   5.876   4.374  14.001
  123CHL1  H15A15307   5.838   4.489  13.998
  123CHL1  H15B15308   5.781   4.301  14.023
  123CHL1   C1615309   6.003   4.354  14.101
  123CHL1  H16A15310   6.014   4.456  14.161
  123CHL1  H16B15311   5.985   4.259  14.169
  123CHL1   C1715312   6.145   4.328  14.015
  123CHL1   H1715313   6.159   4.207  14.002
  123CHL1   C1315314   6.106   4.391  13.876
  123CHL1   C1815315   6.107   4.562  13.879
  123CHL1  H18A15316   6.041   4.609  13.797
  123CHL1  H18B15317   6.063   4.607  13.974
  123CHL1  H18C15318   6.221   4.603  13.866
  123CHL1   C1215319   6.192   4.332  13.754
  123CHL1  H12A15320   6.306   4.372  13.752
  123CHL1  H12B15321   6.195   4.210  13.760
  123CHL1   C1115322   6.117   4.377  13.623
  123CHL1  H11A15323   6.124   4.499  13.615
  123CHL1  H11B15324   6.182   4.330  13.540
  123CHL1    C915325   5.954   4.323  13.618
  123CHL1    H915326   5.962   4.200  13.628
  123CHL1   C1015327   5.874   4.353  13.485
  123CHL1   C1915328   5.907   4.516  13.449
  123CHL1  H19A15329   6.025   4.530  13.422
  123CHL1  H19B15330   5.845   4.549  13.359
  123CHL1  H19C15331   5.879   4.591  13.531
  123CHL1    C115332   5.941   4.256  13.374
  123CHL1   H1A15333   6.058   4.289  13.366
  123CHL1   H1B15334   5.936   4.139  13.405
  123CHL1    C215335   5.866   4.278  13.238
  123CHL1   H2A15336   5.921   4.214  13.159
  123CHL1   H2B15337   5.874   4.394  13.207
  123CHL1   C2015338   6.283   4.388  14.082
  123CHL1   H2015339   6.258   4.507  14.087
  123CHL1   C2115340   6.416   4.381  13.989
  123CHL1  H21A15341   6.522   4.399  14.042
  123CHL1  H21B15342   6.406   4.470  13.916
  123CHL1  H21C15343   6.417   4.276  13.936
  123CHL1   C2215344   6.315   4.331  14.227
  123CHL1  H22A15345   6.229   4.385  14.286
  123CHL1  H22B15346   6.285   4.214  14.234
  123CHL1   C2315347   6.474   4.354  14.287
  123CHL1  H23A15348   6.555   4.287  14.233
  123CHL1  H23B15349   6.510   4.466  14.271
  123CHL1   C2415350   6.498   4.320  14.437
  123CHL1  H24A15351   6.441   4.398  14.502
  123CHL1  H24B15352   6.449   4.213  14.455
  123CHL1   C2515353   6.655   4.310  14.495
  123CHL1   H2515354   6.722   4.238  14.429
  123CHL1   C2615355   6.727   4.462  14.508
  123CHL1  H26A15356   6.658   4.533  14.574
  123CHL1  H26B15357   6.838   4.453  14.555
  123CHL1  H26C15358   6.738   4.516  14.409
  123CHL1   C2715359   6.645   4.238  14.634
  123CHL1  H27A15360   6.574   4.304  14.701
  123CHL1  H27B15361   6.597   4.126  14.627
  123CHL1  H27C15362   6.755   4.228  14.681
  124CHL1    C315363   3.919   5.768  13.242
  124CHL1    H315364   3.857   5.860  13.289
  124CHL1    O315365   3.900   5.772  13.101
  124CHL1   H3'15366   3.794   5.763  13.084
  124CHL1    C415367   4.084   5.785  13.279
  124CHL1   H4A15368   4.144   5.690  13.234
  124CHL1   H4B15369   4.129   5.885  13.231
  124CHL1    C515370   4.104   5.785  13.430
  124CHL1    C615371   4.168   5.894  13.501
  124CHL1    H615372   4.214   5.990  13.448
  124CHL1    C715373   4.186   5.888  13.651
  124CHL1   H7A15374   4.294   5.931  13.683
  124CHL1   H7B15375   4.097   5.957  13.693
  124CHL1    C815376   4.154   5.741  13.723
  124CHL1    H815377   4.254   5.674  13.710
  124CHL1   C1415378   4.106   5.756  13.872
  124CHL1   H1415379   3.993   5.806  13.869
  124CHL1   C1515380   4.188   5.860  13.966
  124CHL1  H15A15381   4.306   5.840  13.954
  124CHL1  H15B15382   4.165   5.976  13.948
  124CHL1   C1615383   4.148   5.810  14.108
  124CHL1  H16A15384   4.249   5.815  14.166
  124CHL1  H16B15385   4.068   5.885  14.156
  124CHL1   C1715386   4.084   5.652  14.101
  124CHL1   H1715387   3.964   5.667  14.118
  124CHL1   C1315388   4.094   5.610  13.948
  124CHL1   C1815389   4.236   5.521  13.925
  124CHL1  H18A15390   4.252   5.489  13.820
  124CHL1  H18B15391   4.333   5.586  13.958
  124CHL1  H18C15392   4.233   5.416  13.981
  124CHL1   C1215393   3.958   5.536  13.884
  124CHL1  H12A15394   3.944   5.424  13.925
  124CHL1  H12B15395   3.858   5.601  13.908
  124CHL1   C1115396   3.971   5.529  13.730
  124CHL1  H11A15397   4.049   5.440  13.709
  124CHL1  H11B15398   3.861   5.498  13.690
  124CHL1    C915399   4.024   5.668  13.653
  124CHL1    H915400   3.931   5.750  13.664
  124CHL1   C1015401   4.044   5.647  13.500
  124CHL1   C1915402   4.166   5.533  13.469
  124CHL1  H19A15403   4.168   5.444  13.543
  124CHL1  H19B15404   4.148   5.484  13.369
  124CHL1  H19C15405   4.278   5.581  13.471
  124CHL1    C115406   3.890   5.600  13.443
  124CHL1   H1A15407   3.873   5.482  13.469
  124CHL1   H1B15408   3.804   5.665  13.496
  124CHL1    C215409   3.863   5.620  13.292
  124CHL1   H2A15410   3.744   5.612  13.269
  124CHL1   H2B15411   3.920   5.531  13.236
  124CHL1   C2015412   4.140   5.541  14.213
  124CHL1   H2015413   4.219   5.464  14.168
  124CHL1   C2115414   4.002   5.457  14.259
  124CHL1  H21A15415   3.959   5.387  14.177
  124CHL1  H21B15416   3.913   5.534  14.289
  124CHL1  H21C15417   4.026   5.387  14.347
  124CHL1   C2215418   4.230   5.596  14.340
  124CHL1  H22A15419   4.296   5.693  14.315
  124CHL1  H22B15420   4.150   5.635  14.416
  124CHL1   C2315421   4.347   5.496  14.412
  124CHL1  H23A15422   4.286   5.425  14.483
  124CHL1  H23B15423   4.409   5.426  14.340
  124CHL1   C2415424   4.457   5.595  14.490
  124CHL1  H24A15425   4.536   5.646  14.423
  124CHL1  H24B15426   4.384   5.679  14.532
  124CHL1   C2515427   4.567   5.563  14.604
  124CHL1   H2515428   4.665   5.502  14.566
  124CHL1   C2615429   4.616   5.717  14.655
  124CHL1  H26A15430   4.693   5.711  14.741
  124CHL1  H26B15431   4.667   5.782  14.574
  124CHL1  H26C15432   4.517   5.778  14.689
  124CHL1   C2715433   4.497   5.481  14.718
  124CHL1  H27A15434   4.400   5.548  14.744
  124CHL1  H27B15435   4.459   5.370  14.687
  124CHL1  H27C15436   4.571   5.472  14.807
  125CHL1    C315437   4.719   5.764  13.203
  125CHL1    H315438   4.600   5.776  13.180
  125CHL1    O315439   4.798   5.739  13.082
  125CHL1   H3'15440   4.756   5.650  13.042
  125CHL1    C415441   4.778   5.906  13.267
  125CHL1   H4A15442   4.900   5.896  13.271
  125CHL1   H4B15443   4.756   5.998  13.197
  125CHL1    C515444   4.719   5.937  13.406
  125CHL1    C615445   4.654   6.065  13.439
  125CHL1    H615446   4.644   6.152  13.364
  125CHL1    C715447   4.605   6.104  13.579
  125CHL1   H7A15448   4.640   6.217  13.608
  125CHL1   H7B15449   4.483   6.098  13.585
  125CHL1    C815450   4.667   5.998  13.686
  125CHL1    H815451   4.787   6.020  13.697
  125CHL1   C1415452   4.597   6.030  13.823
  125CHL1   H1415453   4.475   6.026  13.806
  125CHL1   C1515454   4.627   6.182  13.888
  125CHL1  H15A15455   4.741   6.221  13.872
  125CHL1  H15B15456   4.549   6.266  13.849
  125CHL1   C1615457   4.599   6.160  14.038
  125CHL1  H16A15458   4.698   6.176  14.101
  125CHL1  H16B15459   4.517   6.240  14.070
  125CHL1   C1715460   4.544   5.999  14.050
  125CHL1   H1715461   4.426   6.009  14.023
  125CHL1   C1315462   4.626   5.917  13.932
  125CHL1   C1815463   4.792   5.914  13.962
  125CHL1  H18A15464   4.854   5.900  13.868
  125CHL1  H18B15465   4.833   6.014  14.012
  125CHL1  H18C15466   4.819   5.817  14.026
  125CHL1   C1215467   4.578   5.765  13.874
  125CHL1  H12A15468   4.596   5.674  13.946
  125CHL1  H12B15469   4.463   5.765  13.842
  125CHL1   C1115470   4.666   5.722  13.748
  125CHL1  H11A15471   4.783   5.707  13.774
  125CHL1  H11B15472   4.626   5.614  13.711
  125CHL1    C915473   4.646   5.839  13.636
  125CHL1    H915474   4.528   5.831  13.609
  125CHL1   C1015475   4.734   5.807  13.505
  125CHL1   C1915476   4.899   5.788  13.538
  125CHL1  H19A15477   4.943   5.885  13.593
  125CHL1  H19B15478   4.918   5.689  13.599
  125CHL1  H19C15479   4.966   5.775  13.446
  125CHL1    C115480   4.676   5.664  13.436
  125CHL1   H1A15481   4.701   5.568  13.501
  125CHL1   H1B15482   4.554   5.671  13.426
  125CHL1    C215483   4.742   5.632  13.296
  125CHL1   H2A15484   4.690   5.533  13.252
  125CHL1   H2B15485   4.862   5.610  13.306
  125CHL1   C2015486   4.545   5.942  14.195
  125CHL1   H2015487   4.651   5.974  14.245
  125CHL1   C2115488   4.543   5.777  14.179
  125CHL1  H21A15489   4.656   5.734  14.160
  125CHL1  H21B15490   4.467   5.744  14.099
  125CHL1  H21C15491   4.499   5.726  14.266
  125CHL1   C2215492   4.418   6.006  14.285
  125CHL1  H22A15493   4.459   6.117  14.301
  125CHL1  H22B15494   4.314   6.019  14.228
  125CHL1   C2315495   4.391   5.962  14.434
  125CHL1  H23A15496   4.458   5.866  14.460
  125CHL1  H23B15497   4.440   6.050  14.497
  125CHL1   C2415498   4.227   5.950  14.480
  125CHL1  H24A15499   4.174   6.059  14.470
  125CHL1  H24B15500   4.169   5.875  14.410
  125CHL1   C2515501   4.198   5.894  14.626
  125CHL1   H2515502   4.267   5.795  14.643
  125CHL1   C2615503   4.242   6.003  14.736
  125CHL1  H26A15504   4.145   6.068  14.769
  125CHL1  H26B15505   4.285   5.941  14.823
  125CHL1  H26C15506   4.328   6.079  14.702
  125CHL1   C2715507   4.038   5.843  14.651
  125CHL1  H27A15508   4.033   5.772  14.740
  125CHL1  H27B15509   3.966   5.940  14.669
  125CHL1  H27C15510   3.994   5.781  14.565
  126CHL1    C315511   2.826   5.661  13.217
  126CHL1    H315512   2.842   5.541  13.199
  126CHL1    O315513   2.831   5.739  13.094
  126CHL1   H3'15514   2.817   5.662  13.028
  126CHL1    C415515   2.675   5.686  13.283
  126CHL1   H4A15516   2.639   5.801  13.266
  126CHL1   H4B15517   2.595   5.617  13.228
  126CHL1    C515518   2.673   5.653  13.432
  126CHL1    C615519   2.576   5.563  13.489
  126CHL1    H615520   2.489   5.512  13.428
  126CHL1    C715521   2.576   5.529  13.635
  126CHL1   H7A15522   2.461   5.520  13.671
  126CHL1   H7B15523   2.627   5.420  13.652
  126CHL1    C815524   2.660   5.642  13.723
  126CHL1    H815525   2.589   5.741  13.734
  126CHL1   C1415526   2.696   5.577  13.859
  126CHL1   H1415527   2.787   5.497  13.841
  126CHL1   C1515528   2.577   5.482  13.925
  126CHL1  H15A15529   2.471   5.536  13.910
  126CHL1  H15B15530   2.574   5.370  13.882
  126CHL1   C1615531   2.618   5.486  14.072
  126CHL1  H16A15532   2.538   5.557  14.121
  126CHL1  H16B15533   2.618   5.375  14.119
  126CHL1   C1715534   2.765   5.569  14.083
  126CHL1   H1715535   2.845   5.482  14.055
  126CHL1   C1315536   2.759   5.680  13.965
  126CHL1   C1815537   2.651   5.808  13.999
  126CHL1  H18A15538   2.635   5.882  13.911
  126CHL1  H18B15539   2.541   5.767  14.029
  126CHL1  H18C15540   2.695   5.878  14.081
  126CHL1   C1215541   2.903   5.742  13.907
  126CHL1  H12A15542   2.945   5.833  13.970
  126CHL1  H12B15543   2.987   5.654  13.910
  126CHL1   C1115544   2.885   5.796  13.760
  126CHL1  H11A15545   2.820   5.899  13.765
  126CHL1  H11B15546   2.995   5.826  13.720
  126CHL1    C915547   2.806   5.686  13.664
  126CHL1    H915548   2.874   5.584  13.664
  126CHL1   C1015549   2.795   5.727  13.513
  126CHL1   C1915550   2.762   5.892  13.502
  126CHL1  H19A15551   2.772   5.931  13.397
  126CHL1  H19B15552   2.650   5.918  13.538
  126CHL1  H19C15553   2.841   5.959  13.561
  126CHL1    C115554   2.940   5.675  13.446
  126CHL1   H1A15555   3.034   5.719  13.503
  126CHL1   H1B15556   2.948   5.553  13.452
  126CHL1    C215557   2.955   5.719  13.299
  126CHL1   H2A15558   3.059   5.677  13.256
  126CHL1   H2B15559   2.956   5.841  13.291
  126CHL1   C2015560   2.807   5.619  14.225
  126CHL1   H2015561   2.757   5.729  14.244
  126CHL1   C2115562   2.977   5.631  14.232
  126CHL1  H21A15563   3.028   5.522  14.216
  126CHL1  H21B15564   3.015   5.666  14.332
  126CHL1  H21C15565   3.022   5.707  14.155
  126CHL1   C2215566   2.757   5.515  14.342
  126CHL1  H22A15567   2.643   5.475  14.326
  126CHL1  H22B15568   2.830   5.419  14.343
  126CHL1   C2315569   2.757   5.591  14.481
  126CHL1  H23A15570   2.851   5.669  14.485
  126CHL1  H23B15571   2.655   5.658  14.491
  126CHL1   C2415572   2.768   5.487  14.602
  126CHL1  H24A15573   2.674   5.409  14.604
  126CHL1  H24B15574   2.869   5.419  14.588
  126CHL1   C2515575   2.782   5.563  14.740
  126CHL1   H2515576   2.794   5.475  14.818
  126CHL1   C2615577   2.922   5.656  14.745
  126CHL1  H26A15578   2.900   5.763  14.696
  126CHL1  H26B15579   2.957   5.677  14.850
  126CHL1  H26C15580   3.013   5.600  14.692
  126CHL1   C2715581   2.653   5.663  14.781
  126CHL1  H27A15582   2.617   5.732  14.696
  126CHL1  H27B15583   2.559   5.599  14.818
  126CHL1  H27C15584   2.687   5.737  14.864
  127CHL1    C315585   3.755   7.094  13.239
  127CHL1    H315586   3.874   7.066  13.242
  127CHL1    O315587   3.711   7.104  13.103
  127CHL1   H3'15588   3.674   7.008  13.078
  127CHL1    C415589   3.663   6.975  13.312
  127CHL1   H4A15590   3.545   6.995  13.287
  127CHL1   H4B15591   3.692   6.867  13.266
  127CHL1    C515592   3.684   6.973  13.463
  127CHL1    C615593   3.720   6.851  13.530
  127CHL1    H615594   3.732   6.747  13.476
  127CHL1    C715595   3.738   6.845  13.680
  127CHL1   H7A15596   3.681   6.746  13.721
  127CHL1   H7B15597   3.857   6.834  13.705
  127CHL1    C815598   3.677   6.983  13.753
  127CHL1    H815599   3.555   6.974  13.756
  127CHL1   C1415600   3.737   6.992  13.895
  127CHL1   H1415601   3.859   7.007  13.882
  127CHL1   C1515602   3.724   6.855  13.984
  127CHL1  H15A15603   3.612   6.808  13.971
  127CHL1  H15B15604   3.810   6.775  13.958
  127CHL1   C1615605   3.736   6.910  14.128
  127CHL1  H16A15606   3.630   6.891  14.181
  127CHL1  H16B15607   3.824   6.853  14.185
  127CHL1   C1715608   3.766   7.076  14.110
  127CHL1   H1715609   3.886   7.085  14.087
  127CHL1   C1315610   3.686   7.120  13.980
  127CHL1   C1815611   3.517   7.117  14.003
  127CHL1  H18A15612   3.484   7.212  14.067
  127CHL1  H18B15613   3.456   7.125  13.908
  127CHL1  H18C15614   3.480   7.015  14.054
  127CHL1   C1215615   3.733   7.261  13.906
  127CHL1  H12A15616   3.688   7.360  13.957
  127CHL1  H12B15617   3.856   7.269  13.906
  127CHL1   C1115618   3.678   7.263  13.760
  127CHL1  H11A15619   3.557   7.276  13.764
  127CHL1  H11B15620   3.726   7.362  13.712
  127CHL1    C915621   3.721   7.122  13.680
  127CHL1    H915622   3.845   7.121  13.678
  127CHL1   C1015623   3.672   7.124  13.532
  127CHL1   C1915624   3.507   7.165  13.527
  127CHL1  H19A15625   3.443   7.088  13.590
  127CHL1  H19B15626   3.488   7.278  13.565
  127CHL1  H19C15627   3.462   7.162  13.424
  127CHL1    C115628   3.770   7.235  13.455
  127CHL1   H1A15629   3.760   7.346  13.501
  127CHL1   H1B15630   3.887   7.202  13.467
  127CHL1    C215631   3.736   7.245  13.305
  127CHL1   H2A15632   3.807   7.327  13.255
  127CHL1   H2B15633   3.620   7.278  13.290
  127CHL1   C2015634   3.744   7.163  14.238
  127CHL1   H2015635   3.627   7.161  14.269
  127CHL1   C2115636   3.787   7.318  14.203
  127CHL1  H21A15637   3.828   7.384  14.288
  127CHL1  H21B15638   3.684   7.371  14.166
  127CHL1  H21C15639   3.873   7.325  14.125
  127CHL1   C2215640   3.839   7.107  14.355
  127CHL1  H22A15641   3.927   7.033  14.317
  127CHL1  H22B15642   3.896   7.200  14.405
  127CHL1   C2315643   3.746   7.027  14.458
  127CHL1  H23A15644   3.676   7.107  14.514
  127CHL1  H23B15645   3.670   6.954  14.403
  127CHL1   C2415646   3.841   6.939  14.555
  127CHL1  H24A15647   3.934   6.888  14.499
  127CHL1  H24B15648   3.889   7.014  14.631
  127CHL1   C2515649   3.758   6.813  14.625
  127CHL1   H2515650   3.658   6.859  14.674
  127CHL1   C2615651   3.710   6.696  14.523
  127CHL1  H26A15652   3.629   6.741  14.453
  127CHL1  H26B15653   3.807   6.656  14.465
  127CHL1  H26C15654   3.661   6.601  14.576
  127CHL1   C2715655   3.853   6.742  14.732
  127CHL1  H27A15656   3.792   6.657  14.788
  127CHL1  H27B15657   3.952   6.691  14.687
  127CHL1  H27C15658   3.890   6.828  14.805
  128CHL1    C315659   2.257   1.892  13.240
  128CHL1    H315660   2.143   1.914  13.276
  128CHL1    O315661   2.256   1.892  13.097
  128CHL1   H3'15662   2.193   1.808  13.074
  128CHL1    C415663   2.361   2.013  13.291
  128CHL1   H4A15664   2.473   1.993  13.252
  128CHL1   H4B15665   2.323   2.120  13.248
  128CHL1    C515666   2.358   2.016  13.442
  128CHL1    C615667   2.317   2.137  13.508
  128CHL1    H615668   2.298   2.239  13.452
  128CHL1    C715669   2.297   2.145  13.656
  128CHL1   H7A15670   2.327   2.254  13.698
  128CHL1   H7B15671   2.180   2.123  13.679
  128CHL1    C815672   2.387   2.027  13.728
  128CHL1    H815673   2.505   2.059  13.720
  128CHL1   C1415674   2.338   2.020  13.873
  128CHL1   H1415675   2.222   1.978  13.872
  128CHL1   C1515676   2.331   2.163  13.957
  128CHL1  H15A15677   2.428   2.234  13.936
  128CHL1  H15B15678   2.230   2.226  13.936
  128CHL1   C1615679   2.336   2.105  14.102
  128CHL1  H16A15680   2.431   2.156  14.154
  128CHL1  H16B15681   2.234   2.133  14.158
  128CHL1   C1715682   2.356   1.935  14.090
  128CHL1   H1715683   2.243   1.888  14.085
  128CHL1   C1315684   2.427   1.913  13.954
  128CHL1   C1815685   2.587   1.968  13.961
  128CHL1  H18A15686   2.639   1.966  13.861
  128CHL1  H18B15687   2.599   2.081  14.000
  128CHL1  H18C15688   2.653   1.895  14.027
  128CHL1   C1215689   2.416   1.757  13.894
  128CHL1  H12A15690   2.499   1.683  13.940
  128CHL1  H12B15691   2.305   1.713  13.913
  128CHL1   C1115692   2.449   1.756  13.744
  128CHL1  H11A15693   2.570   1.774  13.737
  128CHL1  H11B15694   2.424   1.645  13.704
  128CHL1    C915695   2.365   1.876  13.665
  128CHL1    H915696   2.245   1.850  13.678
  128CHL1   C1015697   2.395   1.871  13.512
  128CHL1   C1915698   2.560   1.848  13.490
  128CHL1  H19A15699   2.624   1.939  13.536
  128CHL1  H19B15700   2.599   1.742  13.533
  128CHL1  H19C15701   2.587   1.844  13.383
  128CHL1    C115702   2.308   1.742  13.448
  128CHL1   H1A15703   2.355   1.639  13.487
  128CHL1   H1B15704   2.191   1.748  13.484
  128CHL1    C215705   2.307   1.741  13.294
  128CHL1   H2A15706   2.231   1.653  13.259
  128CHL1   H2B15707   2.418   1.717  13.255
  128CHL1   C2015708   2.435   1.862  14.205
  128CHL1   H2015709   2.552   1.900  14.208
  128CHL1   C2115710   2.435   1.694  14.193
  128CHL1  H21A15711   2.441   1.647  14.294
  128CHL1  H21B15712   2.533   1.656  14.138
  128CHL1  H21C15713   2.334   1.653  14.144
  128CHL1   C2215714   2.368   1.904  14.339
  128CHL1  H22A15715   2.287   1.994  14.332
  128CHL1  H22B15716   2.310   1.808  14.384
  128CHL1   C2315717   2.493   1.954  14.430
  128CHL1  H23A15718   2.577   1.867  14.441
  128CHL1  H23B15719   2.549   2.052  14.385
  128CHL1   C2415720   2.429   1.992  14.563
  128CHL1  H24A15721   2.338   2.071  14.545
  128CHL1  H24B15722   2.382   1.894  14.614
  128CHL1   C2515723   2.545   2.066  14.650
  128CHL1   H2515724   2.645   2.091  14.589
  128CHL1   C2615725   2.481   2.211  14.693
  128CHL1  H26A15726   2.474   2.291  14.610
  128CHL1  H26B15727   2.367   2.193  14.732
  128CHL1  H26C15728   2.550   2.256  14.773
  128CHL1   C2715729   2.589   1.967  14.767
  128CHL1  H27A15730   2.645   1.867  14.730
  128CHL1  H27B15731   2.664   2.026  14.837
  128CHL1  H27C15732   2.489   1.933  14.823
  129CHL1    C315733   6.290   6.586  13.241
  129CHL1    H315734   6.353   6.483  13.221
  129CHL1    O315735   6.200   6.614  13.129
  129CHL1   H3'15736   6.260   6.601  13.050
  129CHL1    C415737   6.190   6.566  13.362
  129CHL1   H4A15738   6.112   6.659  13.368
  129CHL1   H4B15739   6.119   6.467  13.341
  129CHL1    C515740   6.275   6.550  13.490
  129CHL1    C615741   6.260   6.431  13.566
  129CHL1    H615742   6.182   6.344  13.539
  129CHL1    C715743   6.348   6.410  13.690
  129CHL1   H7A15744   6.288   6.341  13.765
  129CHL1   H7B15745   6.447   6.350  13.661
  129CHL1    C815746   6.410   6.552  13.750
  129CHL1    H815747   6.315   6.613  13.793
  129CHL1   C1415748   6.524   6.513  13.855
  129CHL1   H1415749   6.623   6.474  13.800
  129CHL1   C1515750   6.490   6.389  13.954
  129CHL1  H15A15751   6.372   6.383  13.980
  129CHL1  H15B15752   6.524   6.282  13.909
  129CHL1   C1615753   6.584   6.427  14.076
  129CHL1  H16A15754   6.511   6.437  14.165
  129CHL1  H16B15755   6.669   6.343  14.093
  129CHL1   C1715756   6.664   6.573  14.047
  129CHL1   H1715757   6.765   6.544  13.997
  129CHL1   C1315758   6.577   6.644  13.934
  129CHL1   C1815759   6.447   6.714  14.003
  129CHL1  H18A15760   6.376   6.636  14.058
  129CHL1  H18B15761   6.496   6.790  14.077
  129CHL1  H18C15762   6.380   6.777  13.931
  129CHL1   C1215763   6.661   6.743  13.834
  129CHL1  H12A15764   6.700   6.845  13.881
  129CHL1  H12B15765   6.757   6.678  13.800
  129CHL1   C1115766   6.567   6.779  13.708
  129CHL1  H11A15767   6.486   6.863  13.741
  129CHL1  H11B15768   6.640   6.832  13.633
  129CHL1    C915769   6.487   6.644  13.644
  129CHL1    H915770   6.577   6.573  13.605
  129CHL1   C1015771   6.388   6.675  13.520
  129CHL1   C1915772   6.302   6.820  13.543
  129CHL1  H19A15773   6.224   6.843  13.461
  129CHL1  H19B15774   6.239   6.815  13.638
  129CHL1  H19C15775   6.378   6.915  13.548
  129CHL1    C115776   6.487   6.688  13.393
  129CHL1   H1A15777   6.565   6.780  13.408
  129CHL1   H1B15778   6.552   6.585  13.383
  129CHL1    C215779   6.401   6.711  13.262
  129CHL1   H2A15780   6.478   6.717  13.177
  129CHL1   H2B15781   6.340   6.818  13.266
  129CHL1   C2015782   6.716   6.648  14.177
  129CHL1   H2015783   6.621   6.672  14.243
  129CHL1   C2115784   6.800   6.790  14.147
  129CHL1  H21A15785   6.899   6.761  14.088
  129CHL1  H21B15786   6.837   6.844  14.241
  129CHL1  H21C15787   6.732   6.871  14.090
  129CHL1   C2215788   6.826   6.543  14.247
  129CHL1  H22A15789   6.778   6.431  14.258
  129CHL1  H22B15790   6.921   6.535  14.178
  129CHL1   C2315791   6.887   6.585  14.385
  129CHL1  H23A15792   6.956   6.490  14.417
  129CHL1  H23B15793   6.960   6.681  14.377
  129CHL1   C2415794   6.768   6.615  14.489
  129CHL1  H24A15795   6.703   6.713  14.457
  129CHL1  H24B15796   6.691   6.520  14.493
  129CHL1   C2515797   6.831   6.645  14.629
  129CHL1   H2515798   6.904   6.743  14.625
  129CHL1   C2615799   6.704   6.676  14.724
  129CHL1  H26A15800   6.636   6.575  14.734
  129CHL1  H26B15801   6.741   6.709  14.825
  129CHL1  H26C15802   6.632   6.763  14.682
  129CHL1   C2715803   6.916   6.514  14.684
  129CHL1  H27A15804   6.844   6.415  14.688
  129CHL1  H27B15805   7.016   6.490  14.625
  129CHL1  H27C15806   6.952   6.538  14.787
  130CHL1    C315807   2.850   7.160  13.249
  130CHL1    H315808   2.749   7.204  13.299
  130CHL1    O315809   2.824   7.168  13.109
  130CHL1   H3'15810   2.918   7.181  13.067
  130CHL1    C415811   2.985   7.251  13.291
  130CHL1   H4A15812   3.087   7.196  13.255
  130CHL1   H4B15813   2.981   7.361  13.243
  130CHL1    C515814   2.985   7.261  13.443
  130CHL1    C615815   2.973   7.392  13.503
  130CHL1    H615816   2.974   7.493  13.442
  130CHL1    C715817   2.958   7.413  13.651
  130CHL1   H7A15818   3.032   7.502  13.689
  130CHL1   H7B15819   2.844   7.447  13.672
  130CHL1    C815820   2.988   7.271  13.732
  130CHL1    H815821   3.109   7.258  13.744
  130CHL1   C1415822   2.914   7.284  13.868
  130CHL1   H1415823   2.793   7.286  13.847
  130CHL1   C1515824   2.944   7.423  13.950
  130CHL1  H15A15825   3.062   7.445  13.945
  130CHL1  H15B15826   2.882   7.521  13.913
  130CHL1   C1615827   2.898   7.379  14.093
  130CHL1  H16A15828   2.993   7.399  14.160
  130CHL1  H16B15829   2.804   7.445  14.129
  130CHL1   C1715830   2.859   7.212  14.088
  130CHL1   H1715831   2.739   7.205  14.067
  130CHL1   C1315832   2.938   7.154  13.962
  130CHL1   C1815833   3.104   7.136  13.995
  130CHL1  H18A15834   3.121   7.042  14.064
  130CHL1  H18B15835   3.170   7.112  13.904
  130CHL1  H18C15836   3.150   7.234  14.043
  130CHL1   C1215837   2.871   7.020  13.892
  130CHL1  H12A15838   2.889   6.921  13.953
  130CHL1  H12B15839   2.751   7.037  13.881
  130CHL1   C1115840   2.939   6.995  13.753
  130CHL1  H11A15841   3.057   6.966  13.766
  130CHL1  H11B15842   2.884   6.899  13.706
  130CHL1    C915843   2.926   7.134  13.663
  130CHL1    H915844   2.805   7.154  13.656
  130CHL1   C1015845   2.979   7.112  13.517
  130CHL1   C1915846   3.137   7.049  13.520
  130CHL1  H19A15847   3.138   6.937  13.564
  130CHL1  H19B15848   3.183   7.038  13.417
  130CHL1  H19C15849   3.211   7.119  13.580
  130CHL1    C115850   2.875   6.998  13.449
  130CHL1   H1A15851   2.903   6.885  13.483
  130CHL1   H1B15852   2.761   7.021  13.481
  130CHL1    C215853   2.874   7.002  13.295
  130CHL1   H2A15854   2.785   6.929  13.256
  130CHL1   H2B15855   2.980   6.959  13.256
  130CHL1   C2015856   2.888   7.132  14.220
  130CHL1   H2015857   3.008   7.125  14.235
  130CHL1   C2115858   2.823   6.976  14.220
  130CHL1  H21A15859   2.827   6.928  14.323
  130CHL1  H21B15860   2.886   6.903  14.155
  130CHL1  H21C15861   2.706   6.977  14.188
  130CHL1   C2215862   2.829   7.214  14.344
  130CHL1  H22A15863   2.824   7.335  14.331
  130CHL1  H22B15864   2.715   7.176  14.366
  130CHL1   C2315865   2.929   7.184  14.464
  130CHL1  H23A15866   2.959   7.065  14.467
  130CHL1  H23B15867   3.034   7.247  14.449
  130CHL1   C2415868   2.859   7.229  14.596
  130CHL1  H24A15869   2.818   7.344  14.588
  130CHL1  H24B15870   2.761   7.158  14.615
  130CHL1   C2515871   2.968   7.218  14.713
  130CHL1   H2515872   3.067   7.282  14.686
  130CHL1   C2615873   2.900   7.285  14.837
  130CHL1  H26A15874   2.798   7.225  14.865
  130CHL1  H26B15875   2.977   7.285  14.923
  130CHL1  H26C15876   2.868   7.401  14.815
  130CHL1   C2715877   3.017   7.060  14.741
  130CHL1  H27A15878   3.072   7.055  14.840
  130CHL1  H27B15879   2.923   6.985  14.742
  130CHL1  H27C15880   3.095   7.022  14.663
  131CHL1    C315881   0.979   5.618  13.258
  131CHL1    H315882   1.014   5.501  13.253
  131CHL1    O315883   0.939   5.667  13.129
  131CHL1   H3'15884   1.029   5.664  13.078
  131CHL1    C415885   0.846   5.626  13.352
  131CHL1   H4A15886   0.791   5.735  13.343
  131CHL1   H4B15887   0.762   5.546  13.317
  131CHL1    C515888   0.890   5.599  13.495
  131CHL1    C615889   0.829   5.493  13.570
  131CHL1    H615890   0.743   5.422  13.528
  131CHL1    C715891   0.868   5.472  13.714
  131CHL1   H7A15892   0.769   5.438  13.771
  131CHL1   H7B15893   0.950   5.382  13.721
  131CHL1    C815894   0.936   5.614  13.776
  131CHL1    H815895   0.849   5.700  13.778
  131CHL1   C1415896   0.992   5.586  13.915
  131CHL1   H1415897   1.082   5.502  13.905
  131CHL1   C1515898   0.879   5.516  14.004
  131CHL1  H15A15899   0.768   5.568  13.993
  131CHL1  H15B15900   0.875   5.406  13.962
  131CHL1   C1615901   0.941   5.533  14.144
  131CHL1  H16A15902   0.853   5.581  14.208
  131CHL1  H16B15903   0.979   5.429  14.188
  131CHL1   C1715904   1.074   5.639  14.134
  131CHL1   H1715905   1.174   5.568  14.127
  131CHL1   C1315906   1.057   5.711  13.994
  131CHL1   C1815907   0.939   5.833  14.005
  131CHL1  H18A15908   0.832   5.793  14.040
  131CHL1  H18B15909   0.975   5.914  14.080
  131CHL1  H18C15910   0.923   5.889  13.907
  131CHL1   C1215911   1.197   5.755  13.916
  131CHL1  H12A15912   1.245   5.856  13.959
  131CHL1  H12B15913   1.279   5.665  13.925
  131CHL1   C1115914   1.164   5.781  13.765
  131CHL1  H11A15915   1.109   5.887  13.762
  131CHL1  H11B15916   1.269   5.792  13.710
  131CHL1    C915917   1.065   5.664  13.692
  131CHL1    H915918   1.136   5.564  13.683
  131CHL1   C1015919   1.012   5.700  13.548
  131CHL1   C1915920   0.938   5.854  13.543
  131CHL1  H19A15921   1.000   5.937  13.600
  131CHL1  H19B15922   0.931   5.896  13.439
  131CHL1  H19C15923   0.826   5.852  13.586
  131CHL1    C115924   1.145   5.680  13.452
  131CHL1   H1A15925   1.239   5.751  13.486
  131CHL1   H1B15926   1.183   5.564  13.460
  131CHL1    C215927   1.111   5.710  13.305
  131CHL1   H2A15928   1.209   5.681  13.244
  131CHL1   H2B15929   1.087   5.828  13.288
  131CHL1   C2015930   1.086   5.730  14.263
  131CHL1   H2015931   0.986   5.800  14.273
  131CHL1   C2115932   1.220   5.833  14.254
  131CHL1  H21A15933   1.209   5.911  14.170
  131CHL1  H21B15934   1.322   5.768  14.241
  131CHL1  H21C15935   1.230   5.898  14.348
  131CHL1   C2215936   1.098   5.635  14.392
  131CHL1  H22A15937   1.153   5.529  14.369
  131CHL1  H22B15938   1.170   5.695  14.463
  131CHL1   C2315939   0.953   5.607  14.468
  131CHL1  H23A15940   0.888   5.710  14.475
  131CHL1  H23B15941   0.887   5.525  14.412
  131CHL1   C2415942   0.979   5.548  14.611
  131CHL1  H24A15943   1.046   5.447  14.603
  131CHL1  H24B15944   1.043   5.630  14.670
  131CHL1   C2515945   0.837   5.507  14.686
  131CHL1   H2515946   0.759   5.602  14.683
  131CHL1   C2615947   0.768   5.376  14.614
  131CHL1  H26A15948   0.693   5.414  14.533
  131CHL1  H26B15949   0.854   5.304  14.571
  131CHL1  H26C15950   0.705   5.305  14.684
  131CHL1   C2715951   0.865   5.468  14.834
  131CHL1  H27A15952   0.927   5.364  14.842
  131CHL1  H27B15953   0.926   5.556  14.885
  131CHL1  H27C15954   0.758   5.454  14.887
  132CHL1    C315955   4.187   7.789  13.246
  132CHL1    H315956   4.155   7.906  13.264
  132CHL1    O315957   4.183   7.759  13.105
  132CHL1   H3'15958   4.113   7.825  13.063
  132CHL1    C415959   4.344   7.763  13.299
  132CHL1   H4A15960   4.380   7.653  13.262
  132CHL1   H4B15961   4.418   7.844  13.249
  132CHL1    C515962   4.359   7.768  13.450
  132CHL1    C615963   4.457   7.856  13.511
  132CHL1    H615964   4.531   7.924  13.450
  132CHL1    C715965   4.481   7.863  13.660
  132CHL1   H7A15966   4.600   7.861  13.684
  132CHL1   H7B15967   4.436   7.968  13.699
  132CHL1    C815968   4.406   7.736  13.738
  132CHL1    H815969   4.473   7.635  13.725
  132CHL1   C1415970   4.396   7.774  13.887
  132CHL1   H1415971   4.321   7.873  13.891
  132CHL1   C1515972   4.534   7.823  13.961
  132CHL1  H15A15973   4.626   7.745  13.942
  132CHL1  H15B15974   4.569   7.935  13.931
  132CHL1   C1615975   4.488   7.817  14.109
  132CHL1  H16A15976   4.574   7.757  14.167
  132CHL1  H16B15977   4.476   7.929  14.152
  132CHL1   C1715978   4.337   7.735  14.115
  132CHL1   H1715979   4.252   7.822  14.116
  132CHL1   C1315980   4.322   7.659  13.977
  132CHL1   C1815981   4.407   7.512  13.977
  132CHL1  H18A15982   4.418   7.467  13.874
  132CHL1  H18B15983   4.519   7.525  14.020
  132CHL1  H18C15984   4.346   7.429  14.038
  132CHL1   C1215985   4.166   7.641  13.922
  132CHL1  H12A15986   4.101   7.558  13.979
  132CHL1  H12B15987   4.113   7.750  13.934
  132CHL1   C1115988   4.161   7.600  13.772
  132CHL1  H11A15989   4.205   7.487  13.762
  132CHL1  H11B15990   4.045   7.600  13.739
  132CHL1    C915991   4.250   7.709  13.682
  132CHL1    H915992   4.192   7.817  13.692
  132CHL1   C1015993   4.248   7.674  13.529
  132CHL1   C1915994   4.291   7.511  13.511
  132CHL1  H19A15995   4.206   7.437  13.554
  132CHL1  H19B15996   4.300   7.481  13.403
  132CHL1  H19C15997   4.398   7.487  13.560
  132CHL1    C115998   4.091   7.702  13.471
  132CHL1   H1A15999   4.014   7.623  13.518
  132CHL1   H1B16000   4.056   7.814  13.501
  132CHL1    C216001   4.077   7.688  13.318
  132CHL1   H2A16002   3.963   7.716  13.286
  132CHL1   H2B16003   4.097   7.572  13.288
  132CHL1   C2016004   4.319   7.646  14.245
  132CHL1   H2016005   4.403   7.557  14.246
  132CHL1   C2116006   4.167   7.572  14.255
  132CHL1  H21A16007   4.156   7.509  14.349
  132CHL1  H21B16008   4.146   7.495  14.171
  132CHL1  H21C16009   4.082   7.659  14.254
  132CHL1   C2216010   4.344   7.740  14.373
  132CHL1  H22A16011   4.353   7.663  14.460
  132CHL1  H22B16012   4.452   7.797  14.366
  132CHL1   C2316013   4.224   7.855  14.406
  132CHL1  H23A16014   4.197   7.917  14.314
  132CHL1  H23B16015   4.122   7.799  14.440
  132CHL1   C2416016   4.273   7.968  14.512
  132CHL1  H24A16017   4.376   8.022  14.474
  132CHL1  H24B16018   4.190   8.056  14.520
  132CHL1   C2516019   4.305   7.907  14.653
  132CHL1   H2516020   4.379   7.810  14.642
  132CHL1   C2616021   4.387   8.024  14.735
  132CHL1  H26A16022   4.417   7.979  14.835
  132CHL1  H26B16023   4.489   8.059  14.684
  132CHL1  H26C16024   4.316   8.122  14.750
  132CHL1   C2716025   4.166   7.856  14.728
  132CHL1  H27A16026   4.103   7.775  14.668
  132CHL1  H27B16027   4.195   7.805  14.824
  132CHL1  H27C16028   4.093   7.952  14.750
  133CHL1    C316029   0.979   2.661  13.224
  133CHL1    H316030   1.061   2.571  13.211
  133CHL1    O316031   0.926   2.706  13.097
  133CHL1   H3'16032   0.995   2.665  13.032
  133CHL1    C416033   0.847   2.604  13.305
  133CHL1   H4A16034   0.761   2.690  13.298
  133CHL1   H4B16035   0.804   2.506  13.252
  133CHL1    C516036   0.875   2.575  13.452
  133CHL1    C616037   0.837   2.446  13.508
  133CHL1    H616038   0.784   2.361  13.447
  133CHL1    C716039   0.851   2.416  13.654
  133CHL1   H7A16040   0.747   2.367  13.694
  133CHL1   H7B16041   0.941   2.334  13.672
  133CHL1    C816042   0.884   2.556  13.736
  133CHL1    H816043   0.780   2.619  13.745
  133CHL1   C1416044   0.935   2.512  13.873
  133CHL1   H1416045   1.043   2.454  13.859
  133CHL1   C1516046   0.837   2.405  13.951
  133CHL1  H15A16047   0.722   2.443  13.949
  133CHL1  H15B16048   0.841   2.290  13.911
  133CHL1   C1616049   0.900   2.414  14.092
  133CHL1  H16A16050   0.809   2.427  14.164
  133CHL1  H16B16051   0.965   2.316  14.118
  133CHL1   C1716052   1.003   2.552  14.092
  133CHL1   H1716053   1.118   2.510  14.077
  133CHL1   C1316054   0.967   2.640  13.967
  133CHL1   C1816055   0.827   2.735  13.995
  133CHL1  H18A16056   0.740   2.669  14.045
  133CHL1  H18B16057   0.854   2.828  14.061
  133CHL1  H18C16058   0.782   2.780  13.901
  133CHL1   C1216059   1.092   2.730  13.905
  133CHL1  H12A16060   1.120   2.827  13.967
  133CHL1  H12B16061   1.191   2.660  13.901
  133CHL1   C1116062   1.053   2.781  13.762
  133CHL1  H11A16063   0.966   2.865  13.774
  133CHL1  H11B16064   1.150   2.836  13.717
  133CHL1    C916065   1.001   2.653  13.669
  133CHL1    H916066   1.099   2.581  13.656
  133CHL1   C1016067   0.954   2.701  13.527
  133CHL1   C1916068   0.848   2.834  13.542
  133CHL1  H19A16069   0.762   2.804  13.615
  133CHL1  H19B16070   0.905   2.933  13.579
  133CHL1  H19C16071   0.793   2.864  13.448
  133CHL1    C116072   1.088   2.748  13.442
  133CHL1   H1A16073   1.145   2.841  13.492
  133CHL1   H1B16074   1.165   2.652  13.438
  133CHL1    C216075   1.051   2.791  13.296
  133CHL1   H2A16076   1.152   2.826  13.242
  133CHL1   H2B16077   0.974   2.884  13.298
  133CHL1   C2016078   1.000   2.628  14.227
  133CHL1   H2016079   0.886   2.663  14.252
  133CHL1   C2116080   1.100   2.764  14.232
  133CHL1  H21A16081   1.104   2.814  14.333
  133CHL1  H21B16082   1.057   2.851  14.164
  133CHL1  H21C16083   1.213   2.736  14.201
  133CHL1   C2216084   1.049   2.516  14.330
  133CHL1  H22A16085   0.971   2.421  14.333
  133CHL1  H22B16086   1.160   2.471  14.306
  133CHL1   C2316087   1.048   2.580  14.469
  133CHL1  H23A16088   1.151   2.645  14.485
  133CHL1  H23B16089   0.953   2.654  14.479
  133CHL1   C2416090   1.036   2.452  14.567
  133CHL1  H24A16091   0.924   2.405  14.559
  133CHL1  H24B16092   1.118   2.365  14.541
  133CHL1   C2516093   1.063   2.504  14.709
  133CHL1   H2516094   1.046   2.406  14.773
  133CHL1   C2616095   1.224   2.554  14.724
  133CHL1  H26A16096   1.238   2.671  14.698
  133CHL1  H26B16097   1.265   2.537  14.827
  133CHL1  H26C16098   1.296   2.490  14.654
  133CHL1   C2716099   0.944   2.620  14.740
  133CHL1  H27A16100   0.963   2.724  14.684
  133CHL1  H27B16101   0.833   2.580  14.711
  133CHL1  H27C16102   0.941   2.648  14.847
  134CHL1    C316103   7.607   2.751  13.223
  134CHL1    H316104   7.701   2.672  13.228
  134CHL1    O316105   7.555   2.757  13.090
  134CHL1   H3'16106   7.516   2.658  13.073
  134CHL1    C416107   7.480   2.699  13.312
  134CHL1   H4A16108   7.390   2.782  13.308
  134CHL1   H4B16109   7.434   2.595  13.272
  134CHL1    C516110   7.537   2.683  13.453
  134CHL1    C616111   7.539   2.550  13.509
  134CHL1    H616112   7.492   2.454  13.456
  134CHL1    C716113   7.596   2.526  13.647
  134CHL1   H7A16114   7.522   2.451  13.700
  134CHL1   H7B16115   7.708   2.475  13.644
  134CHL1    C816116   7.601   2.669  13.730
  134CHL1    H816117   7.484   2.701  13.750
  134CHL1   C1416118   7.679   2.640  13.860
  134CHL1   H1416119   7.796   2.612  13.834
  134CHL1   C1516120   7.623   2.508  13.939
  134CHL1  H15A16121   7.501   2.509  13.940
  134CHL1  H15B16122   7.662   2.405  13.892
  134CHL1   C1616123   7.684   2.533  14.079
  134CHL1  H16A16124   7.590   2.522  14.150
  134CHL1  H16B16125   7.772   2.456  14.108
  134CHL1   C1716126   7.750   2.692  14.080
  134CHL1   H1716127   7.869   2.678  14.059
  134CHL1   C1316128   7.684   2.769  13.956
  134CHL1   C1816129   7.527   2.823  13.994
  134CHL1  H18A16130   7.462   2.735  14.044
  134CHL1  H18B16131   7.534   2.918  14.062
  134CHL1  H18C16132   7.465   2.859  13.905
  134CHL1   C1216133   7.775   2.889  13.885
  134CHL1  H12A16134   7.779   2.990  13.947
  134CHL1  H12B16135   7.888   2.848  13.871
  134CHL1   C1116136   7.708   2.927  13.747
  134CHL1  H11A16137   7.602   2.984  13.769
  134CHL1  H11B16138   7.779   3.007  13.695
  134CHL1    C916139   7.678   2.792  13.654
  134CHL1    H916140   7.789   2.747  13.629
  134CHL1   C1016141   7.601   2.824  13.519
  134CHL1   C1916142   7.470   2.928  13.547
  134CHL1  H19A16143   7.403   2.949  13.456
  134CHL1  H19B16144   7.398   2.881  13.625
  134CHL1  H19C16145   7.510   3.038  13.580
  134CHL1    C116146   7.712   2.895  13.420
  134CHL1   H1A16147   7.737   3.007  13.456
  134CHL1   H1B16148   7.817   2.830  13.422
  134CHL1    C216149   7.659   2.903  13.273
  134CHL1   H2A16150   7.750   2.946  13.208
  134CHL1   H2B16151   7.566   2.981  13.268
  134CHL1   C2016152   7.734   2.761  14.219
  134CHL1   H2016153   7.616   2.789  14.238
  134CHL1   C2116154   7.825   2.903  14.227
  134CHL1  H21A16155   7.818   2.954  14.327
  134CHL1  H21B16156   7.787   2.987  14.154
  134CHL1  H21C16157   7.943   2.877  14.208
  134CHL1   C2216158   7.781   2.653  14.330
  134CHL1  H22A16159   7.711   2.553  14.327
  134CHL1  H22B16160   7.897   2.617  14.313
  134CHL1   C2316161   7.765   2.714  14.471
  134CHL1  H23A16162   7.854   2.794  14.493
  134CHL1  H23B16163   7.657   2.772  14.480
  134CHL1   C2416164   7.768   2.588  14.573
  134CHL1  H24A16165   7.676   2.510  14.555
  134CHL1  H24B16166   7.873   2.527  14.558
  134CHL1   C2516167   7.762   2.642  14.718
  134CHL1   H2516168   7.850   2.728  14.729
  134CHL1   C2616169   7.613   2.708  14.758
  134CHL1  H26A16170   7.618   2.749  14.863
  134CHL1  H26B16171   7.583   2.802  14.692
  134CHL1  H26C16172   7.525   2.624  14.751
  134CHL1   C2716173   7.798   2.516  14.813
  134CHL1  H27A16174   7.831   2.562  14.911
  134CHL1  H27B16175   7.703   2.441  14.827
  134CHL1  H27C16176   7.891   2.451  14.772
  135CHL1    C316177   7.919   3.523  13.247
  135CHL1    H316178   7.985   3.422  13.263
  135CHL1    O316179   7.894   3.538  13.108
  135CHL1   H3'16180   7.832   3.455  13.087
  135CHL1    C416181   7.770   3.510  13.320
  135CHL1   H4A16182   7.704   3.609  13.295
  135CHL1   H4B16183   7.709   3.414  13.278
  135CHL1    C516184   7.788   3.498  13.470
  135CHL1    C616185   7.735   3.383  13.538
  135CHL1    H616186   7.676   3.296  13.485
  135CHL1    C716187   7.746   3.366  13.688
  135CHL1   H7A16188   7.637   3.336  13.730
  135CHL1   H7B16189   7.823   3.275  13.711
  135CHL1    C816190   7.802   3.507  13.760
  135CHL1    H816191   7.708   3.585  13.769
  135CHL1   C1416192   7.858   3.467  13.899
  135CHL1   H1416193   7.954   3.392  13.882
  135CHL1   C1516194   7.755   3.378  13.991
  135CHL1  H15A16195   7.642   3.427  13.987
  135CHL1  H15B16196   7.750   3.261  13.962
  135CHL1   C1616197   7.820   3.401  14.131
  135CHL1  H16A16198   7.734   3.451  14.195
  135CHL1  H16B16199   7.856   3.296  14.177
  135CHL1   C1716200   7.952   3.510  14.115
  135CHL1   H1716201   8.050   3.440  14.092
  135CHL1   C1316202   7.918   3.594  13.984
  135CHL1   C1816203   7.796   3.709  14.014
  135CHL1  H18A16204   7.842   3.800  14.073
  135CHL1  H18B16205   7.751   3.755  13.920
  135CHL1  H18C16206   7.702   3.660  14.070
  135CHL1   C1216207   8.047   3.662  13.904
  135CHL1  H12A16208   8.089   3.762  13.955
  135CHL1  H12B16209   8.137   3.581  13.897
  135CHL1   C1116210   7.999   3.707  13.761
  135CHL1  H11A16211   7.922   3.802  13.771
  135CHL1  H11B16212   8.098   3.748  13.707
  135CHL1    C916213   7.925   3.582  13.680
  135CHL1    H916214   8.011   3.495  13.669
  135CHL1   C1016215   7.878   3.622  13.535
  135CHL1   C1916216   7.779   3.760  13.538
  135CHL1  H19A16217   7.682   3.744  13.603
  135CHL1  H19B16218   7.845   3.852  13.576
  135CHL1  H19C16219   7.742   3.791  13.436
  135CHL1    C116220   8.018   3.660  13.450
  135CHL1   H1A16221   8.057   3.771  13.480
  135CHL1   H1B16222   8.105   3.581  13.474
  135CHL1    C216223   8.001   3.659  13.297
  135CHL1   H2A16224   8.113   3.661  13.249
  135CHL1   H2B16225   7.942   3.760  13.264
  135CHL1   C2016226   7.989   3.595  14.244
  135CHL1   H2016227   7.898   3.671  14.270
  135CHL1   C2116228   8.130   3.686  14.224
  135CHL1  H21A16229   8.169   3.732  14.320
  135CHL1  H21B16230   8.108   3.782  14.157
  135CHL1  H21C16231   8.219   3.618  14.180
  135CHL1   C2216232   8.012   3.491  14.367
  135CHL1  H22A16233   8.047   3.381  14.332
  135CHL1  H22B16234   8.104   3.534  14.429
  135CHL1   C2316235   7.877   3.477  14.459
  135CHL1  H23A16236   7.866   3.579  14.520
  135CHL1  H23B16237   7.777   3.469  14.397
  135CHL1   C2416238   7.885   3.342  14.552
  135CHL1  H24A16239   7.909   3.243  14.491
  135CHL1  H24B16240   7.978   3.357  14.623
  135CHL1   C2516241   7.743   3.314  14.633
  135CHL1   H2516242   7.714   3.419  14.686
  135CHL1   C2616243   7.613   3.271  14.542
  135CHL1  H26A16244   7.587   3.362  14.471
  135CHL1  H26B16245   7.641   3.171  14.484
  135CHL1  H26C16246   7.513   3.249  14.603
  135CHL1   C2716247   7.766   3.194  14.739
  135CHL1  H27A16248   7.664   3.178  14.798
  135CHL1  H27B16249   7.795   3.088  14.691
  135CHL1  H27C16250   7.856   3.225  14.809
  136CHL1    C316251   6.074   0.497  13.254
  136CHL1    H316252   5.958   0.515  13.285
  136CHL1    O316253   6.081   0.477  13.114
  136CHL1   H3'16254   6.084   0.576  13.080
  136CHL1    C416255   6.167   0.632  13.287
  136CHL1   H4A16256   6.282   0.613  13.253
  136CHL1   H4B16257   6.125   0.727  13.227
  136CHL1    C516258   6.163   0.666  13.435
  136CHL1    C616259   6.120   0.798  13.480
  136CHL1    H616260   6.096   0.887  13.409
  136CHL1    C716261   6.108   0.835  13.626
  136CHL1   H7A16262   6.162   0.943  13.647
  136CHL1   H7B16263   5.991   0.847  13.651
  136CHL1    C816264   6.176   0.717  13.719
  136CHL1    H816265   6.296   0.737  13.723
  136CHL1   C1416266   6.109   0.732  13.856
  136CHL1   H1416267   5.988   0.707  13.843
  136CHL1   C1516268   6.114   0.882  13.924
  136CHL1  H15A16269   6.229   0.920  13.929
  136CHL1  H15B16270   6.047   0.967  13.873
  136CHL1   C1616271   6.057   0.846  14.064
  136CHL1  H16A16272   6.109   0.919  14.138
  136CHL1  H16B16273   5.936   0.865  14.068
  136CHL1   C1716274   6.084   0.677  14.085
  136CHL1   H1716275   5.973   0.625  14.083
  136CHL1   C1316276   6.166   0.622  13.959
  136CHL1   C1816277   6.334   0.636  13.976
  136CHL1  H18A16278   6.377   0.554  14.048
  136CHL1  H18B16279   6.394   0.619  13.881
  136CHL1  H18C16280   6.364   0.747  14.012
  136CHL1   C1216281   6.124   0.466  13.910
  136CHL1  H12A16282   6.166   0.381  13.979
  136CHL1  H12B16283   6.003   0.458  13.905
  136CHL1   C1116284   6.188   0.438  13.770
  136CHL1  H11A16285   6.309   0.428  13.778
  136CHL1  H11B16286   6.146   0.330  13.736
  136CHL1    C916287   6.145   0.561  13.669
  136CHL1    H916288   6.021   0.554  13.663
  136CHL1   C1016289   6.200   0.534  13.525
  136CHL1   C1916290   6.370   0.522  13.528
  136CHL1  H19A16291   6.418   0.620  13.576
  136CHL1  H19B16292   6.407   0.424  13.583
  136CHL1  H19C16293   6.416   0.515  13.425
  136CHL1    C116294   6.131   0.385  13.476
  136CHL1   H1A16295   6.188   0.293  13.527
  136CHL1   H1B16296   6.014   0.384  13.506
  136CHL1    C216297   6.135   0.361  13.324
  136CHL1   H2A16298   6.068   0.263  13.299
  136CHL1   H2B16299   6.249   0.340  13.291
  136CHL1   C2016300   6.153   0.637  14.218
  136CHL1   H2016301   6.271   0.671  14.219
  136CHL1   C2116302   6.145   0.468  14.239
  136CHL1  H21A16303   6.169   0.437  14.344
  136CHL1  H21B16304   6.227   0.410  14.177
  136CHL1  H21C16305   6.034   0.427  14.214
  136CHL1   C2216306   6.083   0.715  14.339
  136CHL1  H22A16307   6.056   0.832  14.319
  136CHL1  H22B16308   5.980   0.658  14.366
  136CHL1   C2316309   6.196   0.716  14.451
  136CHL1  H23A16310   6.237   0.603  14.471
  136CHL1  H23B16311   6.290   0.781  14.410
  136CHL1   C2416312   6.147   0.785  14.583
  136CHL1  H24A16313   6.236   0.770  14.658
  136CHL1  H24B16314   6.131   0.905  14.569
  136CHL1   C2516315   6.005   0.716  14.638
  136CHL1   H2516316   5.917   0.725  14.561
  136CHL1   C2616317   6.026   0.553  14.675
  136CHL1  H26A16318   6.115   0.541  14.750
  136CHL1  H26B16319   5.922   0.508  14.718
  136CHL1  H26C16320   6.054   0.486  14.586
  136CHL1   C2716321   5.955   0.804  14.759
  136CHL1  H27A16322   5.861   0.751  14.810
  136CHL1  H27B16323   6.050   0.811  14.830
  136CHL1  H27C16324   5.925   0.919  14.731
  137CHL1    C316325   0.436   1.867  13.253
  137CHL1    H316326   0.396   1.751  13.255
  137CHL1    O316327   0.436   1.912  13.119
  137CHL1   H3'16328   0.496   1.999  13.121
  137CHL1    C416329   0.333   1.969  13.332
  137CHL1   H4A16330   0.367   2.086  13.316
  137CHL1   H4B16331   0.220   1.958  13.291
  137CHL1    C516332   0.340   1.933  13.479
  137CHL1    C616333   0.217   1.899  13.547
  137CHL1    H616334   0.110   1.900  13.495
  137CHL1    C716335   0.213   1.861  13.693
  137CHL1   H7A16336   0.117   1.914  13.742
  137CHL1   H7B16337   0.204   1.740  13.707
  137CHL1    C816338   0.356   1.914  13.761
  137CHL1    H816339   0.350   2.034  13.767
  137CHL1   C1416340   0.369   1.854  13.901
  137CHL1   H1416341   0.397   1.735  13.886
  137CHL1   C1516342   0.231   1.846  13.991
  137CHL1  H15A16343   0.157   1.942  13.978
  137CHL1  H15B16344   0.168   1.744  13.969
  137CHL1   C1616345   0.295   1.842  14.133
  137CHL1  H16A16346   0.255   1.939  14.190
  137CHL1  H16B16347   0.263   1.740  14.187
  137CHL1   C1716348   0.465   1.848  14.116
  137CHL1   H1716349   0.497   1.738  14.085
  137CHL1   C1316350   0.497   1.918  13.981
  137CHL1   C1816351   0.486   2.086  13.999
  137CHL1  H18A16352   0.377   2.115  14.040
  137CHL1  H18B16353   0.573   2.128  14.066
  137CHL1  H18C16354   0.503   2.138  13.901
  137CHL1   C1216355   0.640   1.870  13.911
  137CHL1  H12A16356   0.737   1.923  13.957
  137CHL1  H12B16357   0.652   1.748  13.919
  137CHL1   C1116358   0.640   1.913  13.763
  137CHL1  H11A16359   0.659   2.033  13.766
  137CHL1  H11B16360   0.736   1.861  13.712
  137CHL1    C916361   0.496   1.871  13.685
  137CHL1    H916362   0.493   1.749  13.679
  137CHL1   C1016363   0.497   1.926  13.539
  137CHL1   C1916364   0.568   2.079  13.540
  137CHL1  H19A16365   0.546   2.141  13.447
  137CHL1  H19B16366   0.525   2.140  13.628
  137CHL1  H19C16367   0.689   2.072  13.550
  137CHL1    C116368   0.601   1.830  13.452
  137CHL1   H1A16369   0.715   1.845  13.488
  137CHL1   H1B16370   0.571   1.714  13.464
  137CHL1    C216371   0.595   1.874  13.303
  137CHL1   H2A16372   0.666   1.800  13.243
  137CHL1   H2B16373   0.637   1.988  13.290
  137CHL1   C2016374   0.551   1.892  14.243
  137CHL1   H2016375   0.548   2.013  14.254
  137CHL1   C2116376   0.713   1.842  14.231
  137CHL1  H21A16377   0.720   1.723  14.210
  137CHL1  H21B16378   0.774   1.867  14.323
  137CHL1  H21C16379   0.770   1.903  14.151
  137CHL1   C2216380   0.480   1.828  14.373
  137CHL1  H22A16381   0.375   1.889  14.392
  137CHL1  H22B16382   0.449   1.712  14.356
  137CHL1   C2316383   0.572   1.834  14.503
  137CHL1  H23A16384   0.675   1.770  14.489
  137CHL1  H23B16385   0.600   1.948  14.528
  137CHL1   C2416386   0.486   1.759  14.616
  137CHL1  H24A16387   0.375   1.809  14.622
  137CHL1  H24B16388   0.475   1.645  14.580
  137CHL1   C2516389   0.554   1.758  14.759
  137CHL1   H2516390   0.613   1.865  14.773
  137CHL1   C2616391   0.435   1.745  14.867
  137CHL1  H26A16392   0.348   1.828  14.852
  137CHL1  H26B16393   0.384   1.635  14.865
  137CHL1  H26C16394   0.483   1.761  14.968
  137CHL1   C2716395   0.663   1.631  14.779
  137CHL1  H27A16396   0.748   1.628  14.699
  137CHL1  H27B16397   0.719   1.642  14.878
  137CHL1  H27C16398   0.605   1.523  14.780
  138CHL1    C316399   7.524   1.165  13.215
  138CHL1    H316400   7.559   1.047  13.219
  138CHL1    O316401   7.478   1.198  13.084
  138CHL1   H3'16402   7.437   1.107  13.047
  138CHL1    C416403   7.392   1.190  13.306
  138CHL1   H4A16404   7.353   1.306  13.295
  138CHL1   H4B16405   7.300   1.121  13.269
  138CHL1    C516406   7.433   1.155  13.448
  138CHL1    C616407   7.353   1.056  13.515
  138CHL1    H616408   7.257   1.008  13.466
  138CHL1    C716409   7.379   1.021  13.659
  138CHL1   H7A16410   7.276   1.059  13.707
  138CHL1   H7B16411   7.392   0.901  13.674
  138CHL1    C816412   7.500   1.110  13.731
  138CHL1    H816413   7.436   1.208  13.759
  138CHL1   C1416414   7.577   1.036  13.852
  138CHL1   H1416415   7.671   0.970  13.810
  138CHL1   C1516416   7.500   0.922  13.942
  138CHL1  H15A16417   7.383   0.950  13.945
  138CHL1  H15B16418   7.510   0.807  13.903
  138CHL1   C1616419   7.569   0.941  14.082
  138CHL1  H16A16420   7.478   0.972  14.150
  138CHL1  H16B16421   7.618   0.837  14.120
  138CHL1   C1716422   7.688   1.065  14.074
  138CHL1   H1716423   7.794   1.008  14.052
  138CHL1   C1316424   7.645   1.151  13.945
  138CHL1   C1816425   7.521   1.261  13.987
  138CHL1  H18A16426   7.426   1.200  14.024
  138CHL1  H18B16427   7.553   1.337  14.067
  138CHL1  H18C16428   7.481   1.333  13.906
  138CHL1   C1216429   7.773   1.217  13.862
  138CHL1  H12A16430   7.833   1.303  13.915
  138CHL1  H12B16431   7.856   1.129  13.843
  138CHL1   C1116432   7.720   1.277  13.726
  138CHL1  H11A16433   7.653   1.376  13.752
  138CHL1  H11B16434   7.816   1.315  13.666
  138CHL1    C916435   7.622   1.170  13.642
  138CHL1    H916436   7.693   1.075  13.615
  138CHL1   C1016437   7.567   1.234  13.506
  138CHL1   C1916438   7.516   1.394  13.523
  138CHL1  H19A16439   7.422   1.404  13.592
  138CHL1  H19B16440   7.604   1.463  13.563
  138CHL1  H19C16441   7.489   1.442  13.425
  138CHL1    C116442   7.697   1.225  13.404
  138CHL1   H1A16443   7.786   1.300  13.438
  138CHL1   H1B16444   7.741   1.111  13.407
  138CHL1    C216445   7.654   1.261  13.258
  138CHL1   H2A16446   7.751   1.239  13.193
  138CHL1   H2B16447   7.625   1.378  13.249
  138CHL1   C2016448   7.711   1.162  14.202
  138CHL1   H2016449   7.605   1.218  14.225
  138CHL1   C2116450   7.828   1.278  14.172
  138CHL1  H21A16451   7.921   1.235  14.111
  138CHL1  H21B16452   7.872   1.330  14.264
  138CHL1  H21C16453   7.776   1.367  14.116
  138CHL1   C2216454   7.754   1.090  14.337
  138CHL1  H22A16455   7.694   0.986  14.350
  138CHL1  H22B16456   7.873   1.063  14.336
  138CHL1   C2316457   7.722   1.190  14.461
  138CHL1  H23A16458   7.818   1.264  14.480
  138CHL1  H23B16459   7.626   1.264  14.439
  138CHL1   C2416460   7.692   1.092  14.584
  138CHL1  H24A16461   7.601   1.014  14.563
  138CHL1  H24B16462   7.797   1.029  14.593
  138CHL1   C2516463   7.664   1.156  14.724
  138CHL1   H2516464   7.660   1.058  14.793
  138CHL1   C2616465   7.792   1.251  14.773
  138CHL1  H26A16466   7.899   1.195  14.756
  138CHL1  H26B16467   7.799   1.359  14.722
  138CHL1  H26C16468   7.782   1.269  14.882
  138CHL1   C2716469   7.512   1.229  14.741
  138CHL1  H27A16470   7.422   1.150  14.733
  138CHL1  H27B16471   7.504   1.281  14.842
  138CHL1  H27C16472   7.494   1.316  14.665
  139CHL1    C316473   0.155   7.213  13.261
  139CHL1    H316474   0.034   7.210  13.284
  139CHL1    O316475   0.175   7.241  13.124
  139CHL1   H3'16476   0.175   7.142  13.082
  139CHL1    C416477   0.228   7.340  13.337
  139CHL1   H4A16478   0.340   7.361  13.297
  139CHL1   H4B16479   0.165   7.442  13.312
  139CHL1    C516480   0.229   7.312  13.486
  139CHL1    C616481   0.182   7.414  13.570
  139CHL1    H616482   0.155   7.523  13.531
  139CHL1    C716483   0.169   7.389  13.717
  139CHL1   H7A16484   0.188   7.493  13.772
  139CHL1   H7B16485   0.057   7.348  13.742
  139CHL1    C816486   0.284   7.274  13.762
  139CHL1    H816487   0.391   7.330  13.744
  139CHL1   C1416488   0.264   7.234  13.907
  139CHL1   H1416489   0.168   7.157  13.914
  139CHL1   C1516490   0.226   7.357  14.003
  139CHL1  H15A16491   0.301   7.451  13.986
  139CHL1  H15B16492   0.111   7.394  13.992
  139CHL1   C1616493   0.252   7.286  14.139
  139CHL1  H16A16494   0.296   7.372  14.206
  139CHL1  H16B16495   0.147   7.244  14.182
  139CHL1   C1716496   0.360   7.156  14.117
  139CHL1   H1716497   0.297   7.053  14.138
  139CHL1   C1316498   0.396   7.153  13.966
  139CHL1   C1816499   0.537   7.244  13.942
  139CHL1  H18A16500   0.565   7.253  13.835
  139CHL1  H18B16501   0.522   7.355  13.985
  139CHL1  H18C16502   0.636   7.192  13.987
  139CHL1   C1216503   0.402   7.003  13.895
  139CHL1  H12A16504   0.502   6.942  13.926
  139CHL1  H12B16505   0.305   6.937  13.925
  139CHL1   C1116506   0.400   7.021  13.741
  139CHL1  H11A16507   0.513   7.062  13.717
  139CHL1  H11B16508   0.388   6.913  13.692
  139CHL1    C916509   0.280   7.130  13.684
  139CHL1    H916510   0.172   7.079  13.704
  139CHL1   C1016511   0.286   7.160  13.532
  139CHL1   C1916512   0.447   7.176  13.497
  139CHL1  H19A16513   0.503   7.267  13.552
  139CHL1  H19B16514   0.509   7.076  13.514
  139CHL1  H19C16515   0.455   7.194  13.389
  139CHL1    C116516   0.218   7.033  13.449
  139CHL1   H1A16517   0.279   6.931  13.471
  139CHL1   H1B16518   0.102   7.016  13.482
  139CHL1    C216519   0.221   7.062  13.297
  139CHL1   H2A16520   0.161   6.973  13.244
  139CHL1   H2B16521   0.337   7.059  13.261
  139CHL1   C2016522   0.487   7.162  14.218
  139CHL1   H2016523   0.551   7.264  14.202
  139CHL1   C2116524   0.590   7.028  14.205
  139CHL1  H21A16525   0.671   7.028  14.288
  139CHL1  H21B16526   0.653   7.026  14.111
  139CHL1  H21C16527   0.526   6.925  14.210
  139CHL1   C2216528   0.426   7.169  14.363
  139CHL1  H22A16529   0.337   7.252  14.372
  139CHL1  H22B16530   0.376   7.061  14.388
  139CHL1   C2316531   0.539   7.214  14.468
  139CHL1  H23A16532   0.618   7.122  14.483
  139CHL1  H23B16533   0.601   7.312  14.432
  139CHL1   C2416534   0.460   7.251  14.599
  139CHL1  H24A16535   0.393   7.352  14.584
  139CHL1  H24B16536   0.383   7.160  14.623
  139CHL1   C2516537   0.562   7.272  14.720
  139CHL1   H2516538   0.492   7.302  14.808
  139CHL1   C2616539   0.640   7.127  14.753
  139CHL1  H26A16540   0.725   7.103  14.677
  139CHL1  H26B16541   0.693   7.131  14.853
  139CHL1  H26C16542   0.560   7.035  14.753
  139CHL1   C2716543   0.672   7.398  14.698
  139CHL1  H27A16544   0.750   7.404  14.783
  139CHL1  H27B16545   0.738   7.379  14.606
  139CHL1  H27C16546   0.615   7.504  14.687
  140CHL1    C316547   7.921   0.486  13.257
  140CHL1    H316548   8.041   0.494  13.277
  140CHL1    O316549   7.900   0.492  13.115
  140CHL1   H3'16550   7.951   0.406  13.076
  140CHL1    C416551   7.857   0.342  13.313
  140CHL1   H4A16552   7.741   0.334  13.277
  140CHL1   H4B16553   7.916   0.248  13.265
  140CHL1    C516554   7.857   0.330  13.464
  140CHL1    C616555   7.916   0.212  13.526
  140CHL1    H616556   7.962   0.122  13.467
  140CHL1    C716557   7.908   0.188  13.674
  140CHL1   H7A16558   7.868   0.075  13.695
  140CHL1   H7B16559   8.019   0.198  13.719
  140CHL1    C816560   7.802   0.297  13.745
  140CHL1    H816561   7.688   0.260  13.726
  140CHL1   C1416562   7.833   0.294  13.894
  140CHL1   H1416563   7.952   0.327  13.902
  140CHL1   C1516564   7.821   0.144  13.961
  140CHL1  H15A16565   7.719   0.085  13.929
  140CHL1  H15B16566   7.918   0.083  13.927
  140CHL1   C1616567   7.818   0.178  14.111
  140CHL1  H16A16568   7.713   0.132  14.151
  140CHL1  H16B16569   7.909   0.127  14.168
  140CHL1   C1716570   7.824   0.350  14.118
  140CHL1   H1716571   7.943   0.376  14.105
  140CHL1   C1316572   7.748   0.398  13.983
  140CHL1   C1816573   7.582   0.356  13.971
  140CHL1  H18A16574   7.547   0.345  13.865
  140CHL1  H18B16575   7.554   0.252  14.021
  140CHL1  H18C16576   7.514   0.446  14.012
  140CHL1   C1216577   7.774   0.556  13.934
  140CHL1  H12A16578   7.703   0.631  13.993
  140CHL1  H12B16579   7.890   0.586  13.952
  140CHL1   C1116580   7.740   0.570  13.783
  140CHL1  H11A16581   7.619   0.556  13.771
  140CHL1  H11B16582   7.766   0.683  13.751
  140CHL1    C916583   7.822   0.454  13.694
  140CHL1    H916584   7.942   0.481  13.708
  140CHL1   C1016585   7.792   0.463  13.540
  140CHL1   C1916586   7.623   0.462  13.519
  140CHL1  H19A16587   7.571   0.369  13.573
  140CHL1  H19B16588   7.575   0.565  13.556
  140CHL1  H19C16589   7.592   0.451  13.413
  140CHL1    C116590   7.862   0.605  13.480
  140CHL1   H1A16591   7.807   0.701  13.527
  140CHL1   H1B16592   7.979   0.608  13.509
  140CHL1    C216593   7.849   0.618  13.326
  140CHL1   H2A16594   7.901   0.722  13.292
  140CHL1   H2B16595   7.731   0.622  13.297
  140CHL1   C2016596   7.790   0.419  14.255
  140CHL1   H2016597   7.856   0.359  14.332
  140CHL1   C2116598   7.627   0.383  14.276
  140CHL1  H21A16599   7.602   0.264  14.271
  140CHL1  H21B16600   7.556   0.442  14.205
  140CHL1  H21C16601   7.592   0.419  14.372
  140CHL1   C2216602   7.834   0.586  14.273
  140CHL1  H22A16603   7.927   0.604  14.201
  140CHL1  H22B16604   7.746   0.653  14.228
  140CHL1   C2316605   7.894   0.658  14.410
  140CHL1  H23A16606   8.010   0.686  14.387
  140CHL1  H23B16607   7.836   0.766  14.421
  140CHL1   C2416608   7.898   0.573  14.548
  140CHL1  H24A16609   7.789   0.517  14.555
  140CHL1  H24B16610   7.983   0.487  14.536
  140CHL1   C2516611   7.916   0.650  14.694
  140CHL1   H2516612   7.899   0.563  14.772
  140CHL1   C2616613   7.792   0.761  14.713
  140CHL1  H26A16614   7.689   0.711  14.747
  140CHL1  H26B16615   7.818   0.856  14.778
  140CHL1  H26C16616   7.782   0.807  14.612
  140CHL1   C2716617   8.055   0.737  14.736
  140CHL1  H27A16618   8.104   0.794  14.649
  140CHL1  H27B16619   8.023   0.825  14.807
  140CHL1  H27C16620   8.140   0.675  14.794
  141DOPC     N16621   4.221   3.153  17.029
  141DOPC   C1216622   4.336   3.031  17.033
  141DOPC  H12A16623   4.281   2.928  17.058
  141DOPC  H12B16624   4.414   3.051  17.112
  141DOPC   C1316625   4.137   3.148  16.899
  141DOPC  H13A16626   4.057   3.235  16.894
  141DOPC  H13B16627   4.215   3.170  16.818
  141DOPC  H13C16628   4.090   3.040  16.881
  141DOPC   C1416629   4.293   3.300  17.035
  141DOPC  H14A16630   4.355   3.315  16.942
  141DOPC  H14B16631   4.213   3.387  17.043
  141DOPC  H14C16632   4.372   3.307  17.115
  141DOPC   C1516633   4.118   3.138  17.145
  141DOPC  H15A16634   4.038   3.227  17.146
  141DOPC  H15B16635   4.179   3.149  17.238
  141DOPC  H15C16636   4.060   3.035  17.145
  141DOPC   C1116637   4.425   3.002  16.904
  141DOPC  H11A16638   4.488   2.898  16.913
  141DOPC  H11B16639   4.343   2.984  16.824
  141DOPC     P16640   4.518   3.200  16.737
  141DOPC   O1316641   4.653   3.289  16.720
  141DOPC   O1416642   4.375   3.278  16.730
  141DOPC   O1216643   4.524   3.120  16.877
  141DOPC   O1116644   4.518   3.062  16.637
  141DOPC    C116645   4.654   3.024  16.576
  141DOPC    HA16646   4.738   2.999  16.653
  141DOPC    HB16647   4.699   3.124  16.527
  141DOPC    C216648   4.649   2.897  16.468
  141DOPC    HS16649   4.761   2.847  16.467
  141DOPC   O2116650   4.620   2.955  16.341
  141DOPC   C2116651   4.714   3.045  16.292
  141DOPC   O2216652   4.836   3.075  16.336
  141DOPC   C2216653   4.641   3.098  16.168
  141DOPC   H2R16654   4.522   3.064  16.168
  141DOPC   H2S16655   4.692   3.040  16.083
  141DOPC    C316656   4.539   2.767  16.469
  141DOPC    HX16657   4.550   2.688  16.552
  141DOPC    HY16658   4.576   2.704  16.378
  141DOPC   O3116659   4.388   2.806  16.441
  141DOPC   C3116660   4.311   2.834  16.550
  141DOPC   O3216661   4.357   2.811  16.663
  141DOPC   C3216662   4.155   2.882  16.518
  141DOPC   H2X16663   4.097   2.891  16.616
  141DOPC   H2Y16664   4.155   2.994  16.474
  141DOPC   C2316665   4.646   3.265  16.158
  141DOPC   H3R16666   4.761   3.304  16.143
  141DOPC   H3S16667   4.603   3.315  16.252
  141DOPC   C2416668   4.545   3.302  16.044
  141DOPC   H4R16669   4.438   3.246  16.063
  141DOPC   H4S16670   4.589   3.257  15.949
  141DOPC   C2516671   4.509   3.465  16.031
  141DOPC   H5R16672   4.610   3.526  16.002
  141DOPC   H5S16673   4.472   3.507  16.129
  141DOPC   C2616674   4.386   3.484  15.928
  141DOPC   H6R16675   4.337   3.595  15.939
  141DOPC   H6S16676   4.298   3.400  15.946
  141DOPC   C2716677   4.440   3.465  15.783
  141DOPC   H7R16678   4.472   3.351  15.759
  141DOPC   H7S16679   4.543   3.526  15.777
  141DOPC   C2816680   4.339   3.536  15.679
  141DOPC   H8R16681   4.397   3.542  15.581
  141DOPC   H8S16682   4.314   3.652  15.709
  141DOPC   C2916683   4.205   3.442  15.677
  141DOPC   H9R16684   4.136   3.450  15.768
  141DOPC  C21016685   4.170   3.347  15.580
  141DOPC  H10R16686   4.070   3.279  15.592
  141DOPC  C21116687   4.258   3.320  15.454
  141DOPC  H11R16688   4.266   3.425  15.399
  141DOPC  H11S16689   4.194   3.244  15.389
  141DOPC  C21216690   4.418   3.257  15.463
  141DOPC  H12R16691   4.491   3.337  15.513
  141DOPC  H12S16692   4.456   3.245  15.357
  141DOPC  C21316693   4.431   3.108  15.534
  141DOPC  H13R16694   4.357   3.029  15.484
  141DOPC  H13S16695   4.390   3.125  15.637
  141DOPC  C21416696   4.580   3.029  15.544
  141DOPC  H14R16697   4.565   2.912  15.567
  141DOPC  H14S16698   4.641   3.079  15.630
  141DOPC  C21516699   4.675   3.043  15.418
  141DOPC  H15R16700   4.791   3.008  15.437
  141DOPC  H15S16701   4.671   3.159  15.389
  141DOPC  C21616702   4.634   2.963  15.291
  141DOPC  H16R16703   4.519   2.989  15.270
  141DOPC  H16S16704   4.650   2.845  15.310
  141DOPC  C21716705   4.737   3.004  15.175
  141DOPC  H17R16706   4.685   2.967  15.081
  141DOPC  H17S16707   4.839   2.938  15.186
  141DOPC  C21816708   4.787   3.164  15.159
  141DOPC  H18R16709   4.692   3.238  15.149
  141DOPC  H18S16710   4.860   3.174  15.070
  141DOPC  H18T16711   4.852   3.198  15.247
  141DOPC   C3316712   4.069   2.768  16.432
  141DOPC   H3X16713   3.949   2.790  16.441
  141DOPC   H3Y16714   4.092   2.657  16.473
  141DOPC   C3416715   4.107   2.764  16.283
  141DOPC   H4X16716   4.016   2.710  16.226
  141DOPC   H4Y16717   4.209   2.698  16.266
  141DOPC   C3516718   4.134   2.918  16.226
  141DOPC   H5X16719   4.244   2.958  16.259
  141DOPC   H5Y16720   4.050   2.996  16.267
  141DOPC   C3616721   4.126   2.924  16.075
  141DOPC   H6X16722   4.207   2.846  16.033
  141DOPC   H6Y16723   4.015   2.890  16.040
  141DOPC   C3716724   4.158   3.080  16.027
  141DOPC   H7X16725   4.090   3.160  16.085
  141DOPC   H7Y16726   4.275   3.104  16.052
  141DOPC   C3816727   4.131   3.102  15.878
  141DOPC   H8X16728   4.160   3.217  15.852
  141DOPC   H8Y16729   4.012   3.088  15.857
  141DOPC   C3916730   4.227   2.996  15.803
  141DOPC   H9X16731   4.344   3.001  15.833
  141DOPC  C31016732   4.189   2.902  15.706
  141DOPC  H10X16733   4.273   2.830  15.663
  141DOPC  C31116734   4.037   2.880  15.650
  141DOPC  H11X16735   3.951   2.935  15.710
  141DOPC  H11Y16736   4.015   2.761  15.660
  141DOPC  C31216737   4.019   2.929  15.502
  141DOPC  H12X16738   4.027   3.051  15.497
  141DOPC  H12Y16739   3.906   2.900  15.470
  141DOPC  C31316740   4.128   2.862  15.400
  141DOPC  H13X16741   4.206   2.949  15.371
  141DOPC  H13Y16742   4.191   2.773  15.450
  141DOPC  C31416743   4.055   2.806  15.272
  141DOPC  H14X16744   3.977   2.720  15.301
  141DOPC  H14Y16745   3.993   2.897  15.226
  141DOPC  C31516746   4.144   2.725  15.163
  141DOPC  H15X16747   4.064   2.715  15.078
  141DOPC  H15Y16748   4.167   2.609  15.193
  141DOPC  C31616749   4.285   2.797  15.112
  141DOPC  H16X16750   4.379   2.765  15.176
  141DOPC  H16Y16751   4.311   2.751  15.012
  141DOPC  C31716752   4.277   2.966  15.103
  141DOPC  H17X16753   4.162   3.001  15.084
  141DOPC  H17Y16754   4.309   3.012  15.201
  141DOPC  C31816755   4.377   3.029  14.995
  141DOPC  H18X16756   4.326   3.014  14.894
  141DOPC  H18Y16757   4.396   3.148  15.012
  141DOPC  H18Z16758   4.485   2.972  14.996
  142DOPC     N16759   4.878   3.593  16.974
  142DOPC   C1216760   4.934   3.612  16.831
  142DOPC  H12A16761   4.947   3.728  16.808
  142DOPC  H12B16762   4.854   3.571  16.760
  142DOPC   C1316763   4.743   3.681  17.004
  142DOPC  H13A16764   4.660   3.672  16.926
  142DOPC  H13B16765   4.692   3.649  17.097
  142DOPC  H13C16766   4.767   3.797  17.016
  142DOPC   C1416767   4.995   3.644  17.067
  142DOPC  H14A16768   5.097   3.584  17.053
  142DOPC  H14B16769   5.024   3.759  17.049
  142DOPC  H14C16770   4.964   3.639  17.172
  142DOPC   C1516771   4.850   3.432  16.993
  142DOPC  H15A16772   4.766   3.394  16.923
  142DOPC  H15B16773   4.816   3.405  17.093
  142DOPC  H15C16774   4.951   3.372  16.971
  142DOPC   C1116775   5.084   3.550  16.795
  142DOPC  H11A16776   5.092   3.434  16.831
  142DOPC  H11B16777   5.100   3.550  16.684
  142DOPC     P16778   5.352   3.585  16.863
  142DOPC   O1316779   5.338   3.424  16.886
  142DOPC   O1416780   5.426   3.677  16.963
  142DOPC   O1216781   5.189   3.647  16.853
  142DOPC   O1116782   5.405   3.630  16.716
  142DOPC    C116783   5.418   3.787  16.703
  142DOPC    HA16784   5.525   3.824  16.745
  142DOPC    HB16785   5.331   3.851  16.758
  142DOPC    C216786   5.412   3.835  16.555
  142DOPC    HS16787   5.438   3.955  16.552
  142DOPC   O2116788   5.272   3.815  16.493
  142DOPC   C2116789   5.159   3.882  16.542
  142DOPC   O2216790   5.155   3.977  16.627
  142DOPC   C2216791   5.029   3.817  16.467
  142DOPC   H2R16792   4.928   3.879  16.489
  142DOPC   H2S16793   5.019   3.700  16.502
  142DOPC    C316794   5.526   3.748  16.472
  142DOPC    HX16795   5.482   3.636  16.451
  142DOPC    HY16796   5.628   3.736  16.535
  142DOPC   O3116797   5.561   3.831  16.353
  142DOPC   C3116798   5.543   3.775  16.231
  142DOPC   O3216799   5.523   3.648  16.202
  142DOPC   C3216800   5.567   3.906  16.134
  142DOPC   H2X16801   5.552   4.007  16.194
  142DOPC   H2Y16802   5.685   3.903  16.106
  142DOPC   C2316803   5.047   3.819  16.315
  142DOPC   H3R16804   5.155   3.769  16.284
  142DOPC   H3S16805   5.045   3.935  16.277
  142DOPC   C2416806   4.924   3.729  16.254
  142DOPC   H4R16807   4.900   3.775  16.154
  142DOPC   H4S16808   4.822   3.738  16.316
  142DOPC   C2516809   4.970   3.568  16.238
  142DOPC   H5R16810   4.873   3.495  16.237
  142DOPC   H5S16811   5.045   3.535  16.320
  142DOPC   C2616812   5.049   3.557  16.105
  142DOPC   H6R16813   5.113   3.660  16.084
  142DOPC   H6S16814   4.960   3.543  16.033
  142DOPC   C2716815   5.148   3.425  16.083
  142DOPC   H7R16816   5.089   3.325  16.114
  142DOPC   H7S16817   5.246   3.440  16.149
  142DOPC   C2816818   5.194   3.421  15.935
  142DOPC   H8R16819   5.228   3.532  15.901
  142DOPC   H8S16820   5.097   3.386  15.875
  142DOPC   C2916821   5.316   3.314  15.919
  142DOPC   H9R16822   5.284   3.211  15.962
  142DOPC  C21016823   5.457   3.330  15.884
  142DOPC  H10R16824   5.529   3.233  15.885
  142DOPC  C21116825   5.531   3.472  15.852
  142DOPC  H11R16826   5.652   3.455  15.862
  142DOPC  H11S16827   5.501   3.552  15.932
  142DOPC  C21216828   5.500   3.544  15.716
  142DOPC  H12R16829   5.379   3.553  15.698
  142DOPC  H12S16830   5.547   3.482  15.633
  142DOPC  C21316831   5.567   3.698  15.727
  142DOPC  H13R16832   5.683   3.693  15.762
  142DOPC  H13S16833   5.507   3.741  15.813
  142DOPC  C21416834   5.552   3.812  15.616
  142DOPC  H14R16835   5.640   3.896  15.633
  142DOPC  H14S16836   5.445   3.869  15.626
  142DOPC  C21516837   5.559   3.758  15.472
  142DOPC  H15R16838   5.468   3.682  15.449
  142DOPC  H15S16839   5.664   3.697  15.457
  142DOPC  C21616840   5.557   3.892  15.380
  142DOPC  H16R16841   5.590   3.989  15.441
  142DOPC  H16S16842   5.445   3.913  15.341
  142DOPC  C21716843   5.671   3.881  15.267
  142DOPC  H17R16844   5.767   3.816  15.301
  142DOPC  H17S16845   5.713   3.992  15.245
  142DOPC  C21816846   5.606   3.816  15.140
  142DOPC  H18R16847   5.688   3.826  15.058
  142DOPC  H18S16848   5.504   3.878  15.111
  142DOPC  H18T16849   5.578   3.698  15.155
  142DOPC   C3316850   5.471   3.926  16.003
  142DOPC   H3X16851   5.548   3.901  15.921
  142DOPC   H3Y16852   5.448   4.045  15.990
  142DOPC   C3416853   5.323   3.841  15.996
  142DOPC   H4X16854   5.247   3.895  16.068
  142DOPC   H4Y16855   5.343   3.728  16.034
  142DOPC   C3516856   5.236   3.817  15.862
  142DOPC   H5X16857   5.125   3.780  15.891
  142DOPC   H5Y16858   5.286   3.726  15.805
  142DOPC   C3616859   5.218   3.942  15.759
  142DOPC   H6X16860   5.151   4.027  15.806
  142DOPC   H6Y16861   5.326   3.995  15.742
  142DOPC   C3716862   5.143   3.901  15.622
  142DOPC   H7X16863   5.158   3.996  15.555
  142DOPC   H7Y16864   5.211   3.817  15.571
  142DOPC   C3816865   4.969   3.864  15.635
  142DOPC   H8X16866   4.928   3.949  15.700
  142DOPC   H8Y16867   4.976   3.792  15.724
  142DOPC   C3916868   4.820   3.849  15.548
  142DOPC   H9X16869   4.776   3.959  15.526
  142DOPC  C31016870   4.730   3.741  15.490
  142DOPC  H10X16871   4.627   3.786  15.449
  142DOPC  C31116872   4.714   3.568  15.488
  142DOPC  H11X16873   4.631   3.571  15.405
  142DOPC  H11Y16874   4.646   3.529  15.571
  142DOPC  C31216875   4.799   3.424  15.425
  142DOPC  H12X16876   4.846   3.444  15.328
  142DOPC  H12Y16877   4.696   3.363  15.404
  142DOPC  C31316878   4.914   3.308  15.485
  142DOPC  H13X16879   4.928   3.290  15.591
  142DOPC  H13Y16880   4.850   3.208  15.480
  142DOPC  C31416881   5.071   3.268  15.420
  142DOPC  H14X16882   5.108   3.200  15.506
  142DOPC  H14Y16883   5.059   3.199  15.331
  142DOPC  C31516884   5.225   3.352  15.426
  142DOPC  H15X16885   5.278   3.336  15.526
  142DOPC  H15Y16886   5.216   3.472  15.425
  142DOPC  C31616887   5.338   3.337  15.312
  142DOPC  H16X16888   5.383   3.449  15.289
  142DOPC  H16Y16889   5.431   3.273  15.352
  142DOPC  C31716890   5.291   3.260  15.182
  142DOPC  H17X16891   5.393   3.243  15.124
  142DOPC  H17Y16892   5.249   3.151  15.213
  142DOPC  C31816893   5.179   3.330  15.087
  142DOPC  H18X16894   5.161   3.254  15.003
  142DOPC  H18Y16895   5.069   3.344  15.134
  142DOPC  H18Z16896   5.217   3.436  15.047
  143DOPC     N16897   2.787   4.140  17.074
  143DOPC   C1216898   2.936   4.068  17.048
  143DOPC  H12A16899   2.923   3.950  17.060
  143DOPC  H12B16900   3.015   4.103  17.122
  143DOPC   C1316901   2.668   4.045  17.020
  143DOPC  H13A16902   2.560   4.092  17.033
  143DOPC  H13B16903   2.690   4.030  16.914
  143DOPC  H13C16904   2.669   3.937  17.066
  143DOPC   C1416905   2.780   4.289  17.008
  143DOPC  H14A16906   2.860   4.363  17.054
  143DOPC  H14B16907   2.808   4.280  16.902
  143DOPC  H14C16908   2.673   4.339  17.017
  143DOPC   C1516909   2.760   4.161  17.218
  143DOPC  H15A16910   2.668   4.234  17.232
  143DOPC  H15B16911   2.852   4.216  17.265
  143DOPC  H15C16912   2.739   4.058  17.267
  143DOPC   C1116913   3.010   4.094  16.911
  143DOPC  H11A16914   3.024   4.215  16.895
  143DOPC  H11B16915   3.122   4.048  16.912
  143DOPC     P16916   2.908   4.110  16.670
  143DOPC   O1316917   3.048   4.112  16.596
  143DOPC   O1416918   2.841   4.250  16.707
  143DOPC   O1216919   2.928   4.023  16.807
  143DOPC   O1116920   2.793   4.016  16.590
  143DOPC    C116921   2.681   3.937  16.661
  143DOPC    HA16922   2.659   3.981  16.761
  143DOPC    HB16923   2.720   3.822  16.675
  143DOPC    C216924   2.529   3.938  16.589
  143DOPC    HS16925   2.453   3.873  16.653
  143DOPC   O2116926   2.537   3.873  16.460
  143DOPC   C2116927   2.581   3.738  16.455
  143DOPC   O2216928   2.602   3.652  16.546
  143DOPC   C2216929   2.607   3.705  16.307
  143DOPC   H2R16930   2.559   3.794  16.245
  143DOPC   H2S16931   2.549   3.600  16.285
  143DOPC    C316932   2.457   4.094  16.572
  143DOPC    HX16933   2.437   4.137  16.674
  143DOPC    HY16934   2.349   4.079  16.523
  143DOPC   O3116935   2.548   4.199  16.501
  143DOPC   C3116936   2.559   4.181  16.369
  143DOPC   O3216937   2.471   4.116  16.298
  143DOPC   C3216938   2.706   4.244  16.319
  143DOPC   H2X16939   2.786   4.236  16.401
  143DOPC   H2Y16940   2.741   4.168  16.241
  143DOPC   C2316941   2.772   3.685  16.274
  143DOPC   H3R16942   2.786   3.650  16.168
  143DOPC   H3S16943   2.813   3.599  16.342
  143DOPC   C2416944   2.884   3.800  16.311
  143DOPC   H4R16945   2.990   3.741  16.303
  143DOPC   H4S16946   2.872   3.839  16.416
  143DOPC   C2516947   2.897   3.928  16.214
  143DOPC   H5R16948   2.785   3.974  16.206
  143DOPC   H5S16949   2.924   3.883  16.114
  143DOPC   C2616950   3.016   4.035  16.266
  143DOPC   H6R16951   3.112   3.969  16.299
  143DOPC   H6S16952   2.974   4.088  16.359
  143DOPC   C2716953   3.075   4.153  16.169
  143DOPC   H7R16954   3.159   4.217  16.223
  143DOPC   H7S16955   2.983   4.228  16.145
  143DOPC   C2816956   3.145   4.083  16.043
  143DOPC   H8R16957   3.081   3.983  16.018
  143DOPC   H8S16958   3.255   4.043  16.075
  143DOPC   C2916959   3.156   4.178  15.920
  143DOPC   H9R16960   3.225   4.277  15.932
  143DOPC  C21016961   3.090   4.154  15.801
  143DOPC  H10R16962   3.110   4.232  15.719
  143DOPC  C21116963   2.990   4.026  15.765
  143DOPC  H11R16964   2.898   4.016  15.838
  143DOPC  H11S16965   3.051   3.920  15.770
  143DOPC  C21216966   2.924   4.041  15.623
  143DOPC  H12R16967   3.013   4.070  15.551
  143DOPC  H12S16968   2.842   4.132  15.619
  143DOPC  C21316969   2.850   3.900  15.570
  143DOPC  H13R16970   2.743   3.882  15.621
  143DOPC  H13S16971   2.921   3.804  15.594
  143DOPC  C21416972   2.826   3.906  15.418
  143DOPC  H14R16973   2.930   3.941  15.369
  143DOPC  H14S16974   2.741   3.992  15.396
  143DOPC  C21516975   2.779   3.758  15.357
  143DOPC  H15R16976   2.685   3.716  15.417
  143DOPC  H15S16977   2.870   3.676  15.366
  143DOPC  C21616978   2.731   3.772  15.211
  143DOPC  H16R16979   2.673   3.879  15.196
  143DOPC  H16S16980   2.651   3.682  15.188
  143DOPC  C21716981   2.859   3.759  15.111
  143DOPC  H17R16982   2.906   3.647  15.119
  143DOPC  H17S16983   2.947   3.838  15.140
  143DOPC  C21816984   2.813   3.788  14.967
  143DOPC  H18R16985   2.905   3.769  14.898
  143DOPC  H18S16986   2.775   3.904  14.954
  143DOPC  H18T16987   2.719   3.715  14.938
  143DOPC   C3316988   2.708   4.396  16.250
  143DOPC   H3X16989   2.824   4.435  16.247
  143DOPC   H3Y16990   2.647   4.476  16.311
  143DOPC   C3416991   2.651   4.389  16.105
  143DOPC   H4X16992   2.638   4.503  16.067
  143DOPC   H4Y16993   2.538   4.341  16.110
  143DOPC   C3516994   2.749   4.301  16.007
  143DOPC   H5X16995   2.778   4.192  16.049
  143DOPC   H5Y16996   2.852   4.363  15.991
  143DOPC   C3616997   2.681   4.268  15.869
  143DOPC   H6X16998   2.653   4.374  15.822
  143DOPC   H6Y16999   2.764   4.215  15.805
  143DOPC   C3717000   2.547   4.165  15.875
  143DOPC   H7X17001   2.469   4.207  15.952
  143DOPC   H7Y17002   2.488   4.168  15.777
  143DOPC   C3817003   2.585   4.004  15.908
  143DOPC   H8X17004   2.654   3.999  16.000
  143DOPC   H8Y17005   2.654   3.959  15.825
  143DOPC   C3917006   2.442   3.924  15.928
  143DOPC   H9X17007   2.390   3.946  16.026
  143DOPC  C31017008   2.374   3.839  15.838
  143DOPC  H10X17009   2.267   3.789  15.865
  143DOPC  C31117010   2.428   3.807  15.698
  143DOPC  H11X17011   2.445   3.687  15.687
  143DOPC  H11Y17012   2.536   3.857  15.678
  143DOPC  C31217013   2.325   3.859  15.585
  143DOPC  H12X17014   2.327   3.982  15.581
  143DOPC  H12Y17015   2.211   3.822  15.605
  143DOPC  C31317016   2.377   3.796  15.451
  143DOPC  H13X17017   2.488   3.840  15.428
  143DOPC  H13Y17018   2.388   3.675  15.462
  143DOPC  C31417019   2.274   3.826  15.333
  143DOPC  H14X17020   2.298   3.743  15.254
  143DOPC  H14Y17021   2.157   3.808  15.365
  143DOPC  C31517022   2.291   3.979  15.273
  143DOPC  H15X17023   2.408   3.999  15.244
  143DOPC  H15Y17024   2.263   4.062  15.350
  143DOPC  C31617025   2.193   3.997  15.150
  143DOPC  H16X17026   2.240   3.938  15.063
  143DOPC  H16Y17027   2.086   3.946  15.175
  143DOPC  C31717028   2.160   4.157  15.115
  143DOPC  H17X17029   2.165   4.221  15.209
  143DOPC  H17Y17030   2.247   4.202  15.049
  143DOPC  C31817031   2.009   4.174  15.052
  143DOPC  H18X17032   1.997   4.105  14.961
  143DOPC  H18Y17033   1.922   4.145  15.125
  143DOPC  H18Z17034   1.989   4.290  15.022
  144DOPC     N17035   3.487   2.840  16.758
  144DOPC   C1217036   3.626   2.752  16.740
  144DOPC  H12A17037   3.710   2.817  16.693
  144DOPC  H12B17038   3.604   2.660  16.675
  144DOPC   C1317039   3.513   2.940  16.875
  144DOPC  H13A17040   3.542   2.869  16.961
  144DOPC  H13B17041   3.604   3.014  16.860
  144DOPC  H13C17042   3.414   2.995  16.907
  144DOPC   C1417043   3.366   2.738  16.799
  144DOPC  H14A17044   3.335   2.661  16.722
  144DOPC  H14B17045   3.407   2.675  16.885
  144DOPC  H14C17046   3.271   2.796  16.837
  144DOPC   C1517047   3.443   2.926  16.639
  144DOPC  H15A17048   3.352   2.999  16.664
  144DOPC  H15B17049   3.409   2.858  16.556
  144DOPC  H15C17050   3.532   2.995  16.604
  144DOPC   C1117051   3.696   2.691  16.871
  144DOPC  H11A17052   3.754   2.594  16.831
  144DOPC  H11B17053   3.780   2.767  16.913
  144DOPC     P17054   3.621   2.507  17.060
  144DOPC   O1317055   3.478   2.465  17.119
  144DOPC   O1417056   3.742   2.547  17.152
  144DOPC   O1217057   3.594   2.651  16.973
  144DOPC   O1117058   3.675   2.389  16.948
  144DOPC    C117059   3.579   2.367  16.837
  144DOPC    HA17060   3.573   2.466  16.774
  144DOPC    HB17061   3.466   2.343  16.875
  144DOPC    C217062   3.617   2.237  16.742
  144DOPC    HS17063   3.606   2.135  16.803
  144DOPC   O2117064   3.758   2.243  16.674
  144DOPC   C2117065   3.800   2.106  16.636
  144DOPC   O2217066   3.785   1.997  16.704
  144DOPC   C2217067   3.867   2.108  16.497
  144DOPC   H2R17068   3.878   1.993  16.459
  144DOPC   H2S17069   3.979   2.153  16.505
  144DOPC    C317070   3.495   2.242  16.633
  144DOPC    HX17071   3.387   2.235  16.685
  144DOPC    HY17072   3.509   2.142  16.570
  144DOPC   O3117073   3.505   2.379  16.557
  144DOPC   C3117074   3.453   2.366  16.433
  144DOPC   O3217075   3.389   2.257  16.394
  144DOPC   C3217076   3.493   2.501  16.348
  144DOPC   H2X17077   3.455   2.599  16.403
  144DOPC   H2Y17078   3.615   2.504  16.341
  144DOPC   C2317079   3.780   2.201  16.396
  144DOPC   H3R17080   3.864   2.257  16.336
  144DOPC   H3S17081   3.718   2.291  16.442
  144DOPC   C2417082   3.683   2.102  16.309
  144DOPC   H4R17083   3.590   2.055  16.367
  144DOPC   H4S17084   3.752   2.009  16.274
  144DOPC   C2517085   3.621   2.175  16.183
  144DOPC   H5R17086   3.511   2.222  16.201
  144DOPC   H5S17087   3.597   2.083  16.112
  144DOPC   C2617088   3.720   2.291  16.122
  144DOPC   H6R17089   3.838   2.272  16.145
  144DOPC   H6S17090   3.696   2.404  16.159
  144DOPC   C2717091   3.705   2.284  15.972
  144DOPC   H7R17092   3.604   2.340  15.939
  144DOPC   H7S17093   3.689   2.165  15.950
  144DOPC   C2817094   3.842   2.340  15.901
  144DOPC   H8R17095   3.942   2.314  15.959
  144DOPC   H8S17096   3.833   2.462  15.896
  144DOPC   C2917097   3.846   2.263  15.768
  144DOPC   H9R17098   3.912   2.161  15.763
  144DOPC  C21017099   3.774   2.312  15.660
  144DOPC  H10R17100   3.780   2.250  15.566
  144DOPC  C21117101   3.684   2.451  15.660
  144DOPC  H11R17102   3.621   2.468  15.754
  144DOPC  H11S17103   3.601   2.450  15.578
  144DOPC  C21217104   3.794   2.578  15.643
  144DOPC  H12R17105   3.882   2.574  15.720
  144DOPC  H12S17106   3.738   2.685  15.655
  144DOPC  C21317107   3.865   2.574  15.504
  144DOPC  H13R17108   3.908   2.463  15.480
  144DOPC  H13S17109   3.963   2.645  15.499
  144DOPC  C21417110   3.752   2.622  15.402
  144DOPC  H14R17111   3.776   2.731  15.357
  144DOPC  H14S17112   3.647   2.643  15.456
  144DOPC  C21517113   3.727   2.506  15.296
  144DOPC  H15R17114   3.725   2.396  15.345
  144DOPC  H15S17115   3.814   2.505  15.218
  144DOPC  C21617116   3.575   2.533  15.239
  144DOPC  H16R17117   3.505   2.527  15.328
  144DOPC  H16S17118   3.539   2.444  15.173
  144DOPC  C21717119   3.554   2.684  15.173
  144DOPC  H17R17120   3.559   2.773  15.249
  144DOPC  H17S17121   3.442   2.688  15.129
  144DOPC  C21817122   3.670   2.716  15.065
  144DOPC  H18R17123   3.773   2.760  15.110
  144DOPC  H18S17124   3.629   2.796  14.991
  144DOPC  H18T17125   3.698   2.612  15.010
  144DOPC   C3317126   3.430   2.510  16.203
  144DOPC   H3X17127   3.309   2.504  16.200
  144DOPC   H3Y17128   3.468   2.421  16.137
  144DOPC   C3417129   3.477   2.653  16.134
  144DOPC   H4X17130   3.599   2.655  16.130
  144DOPC   H4Y17131   3.439   2.749  16.195
  144DOPC   C3517132   3.419   2.670  15.991
  144DOPC   H5X17133   3.297   2.673  15.990
  144DOPC   H5Y17134   3.454   2.573  15.931
  144DOPC   C3617135   3.482   2.809  15.928
  144DOPC   H6X17136   3.431   2.907  15.975
  144DOPC   H6Y17137   3.601   2.812  15.950
  144DOPC   C3717138   3.464   2.817  15.775
  144DOPC   H7X17139   3.551   2.895  15.740
  144DOPC   H7Y17140   3.489   2.708  15.730
  144DOPC   C3817141   3.312   2.870  15.730
  144DOPC   H8X17142   3.277   2.964  15.794
  144DOPC   H8Y17143   3.231   2.781  15.746
  144DOPC   C3917144   3.321   2.919  15.586
  144DOPC   H9X17145   3.406   3.004  15.567
  144DOPC  C31017146   3.241   2.871  15.483
  144DOPC  H10X17147   3.258   2.918  15.383
  144DOPC  C31117148   3.123   2.754  15.491
  144DOPC  H11X17149   3.051   2.756  15.402
  144DOPC  H11Y17150   3.050   2.776  15.577
  144DOPC  C31217151   3.176   2.596  15.509
  144DOPC  H12X17152   3.080   2.528  15.538
  144DOPC  H12Y17153   3.256   2.592  15.593
  144DOPC  C31317154   3.247   2.532  15.383
  144DOPC  H13X17155   3.308   2.621  15.331
  144DOPC  H13Y17156   3.325   2.444  15.416
  144DOPC  C31417157   3.139   2.460  15.286
  144DOPC  H14X17158   3.060   2.398  15.347
  144DOPC  H14Y17159   3.081   2.548  15.230
  144DOPC  C31517160   3.205   2.350  15.185
  144DOPC  H15X17161   3.249   2.253  15.239
  144DOPC  H15Y17162   3.302   2.402  15.141
  144DOPC  C31617163   3.089   2.305  15.080
  144DOPC  H16X17164   2.995   2.255  15.136
  144DOPC  H16Y17165   3.046   2.406  15.032
  144DOPC  C31717166   3.134   2.196  14.968
  144DOPC  H17X17167   3.215   2.246  14.902
  144DOPC  H17Y17168   3.191   2.099  15.011
  144DOPC  C31817169   3.007   2.146  14.877
  144DOPC  H18X17170   2.927   2.077  14.932
  144DOPC  H18Y17171   2.947   2.243  14.837
  144DOPC  H18Z17172   3.050   2.081  14.791
  145DOPC     N17173   4.322   6.032  17.076
  145DOPC   C1217174   4.425   6.117  16.983
  145DOPC  H12A17175   4.530   6.058  16.978
  145DOPC  H12B17176   4.447   6.225  17.025
  145DOPC   C1317177   4.345   5.872  17.046
  145DOPC  H13A17178   4.462   5.842  17.046
  145DOPC  H13B17179   4.287   5.801  17.113
  145DOPC  H13C17180   4.310   5.852  16.944
  145DOPC   C1417181   4.166   6.072  17.046
  145DOPC  H14A17182   4.150   6.079  16.938
  145DOPC  H14B17183   4.090   5.990  17.084
  145DOPC  H14C17184   4.132   6.175  17.092
  145DOPC   C1517185   4.347   6.062  17.221
  145DOPC  H15A17186   4.337   6.178  17.245
  145DOPC  H15B17187   4.453   6.025  17.258
  145DOPC  H15C17188   4.260   6.009  17.280
  145DOPC   C1117189   4.376   6.137  16.834
  145DOPC  H11A17190   4.282   6.216  16.831
  145DOPC  H11B17191   4.467   6.190  16.776
  145DOPC     P17192   4.451   5.887  16.721
  145DOPC   O1317193   4.366   5.752  16.691
  145DOPC   O1417194   4.568   5.881  16.824
  145DOPC   O1217195   4.331   6.002  16.772
  145DOPC   O1117196   4.511   5.959  16.587
  145DOPC    C117197   4.418   6.038  16.497
  145DOPC    HA17198   4.369   6.136  16.548
  145DOPC    HB17199   4.325   5.968  16.462
  145DOPC    C217200   4.504   6.094  16.372
  145DOPC    HS17201   4.430   6.166  16.312
  145DOPC   O2117202   4.555   5.972  16.293
  145DOPC   C2117203   4.457   5.914  16.212
  145DOPC   O2217204   4.338   5.964  16.182
  145DOPC   C2217205   4.514   5.764  16.166
  145DOPC   H2R17206   4.435   5.680  16.202
  145DOPC   H2S17207   4.622   5.742  16.214
  145DOPC    C317208   4.638   6.192  16.413
  145DOPC    HX17209   4.677   6.153  16.512
  145DOPC    HY17210   4.598   6.307  16.428
  145DOPC   O3117211   4.756   6.179  16.316
  145DOPC   C3117212   4.771   6.288  16.230
  145DOPC   O3217213   4.717   6.410  16.241
  145DOPC   C3217214   4.859   6.235  16.107
  145DOPC   H2X17215   4.978   6.245  16.128
  145DOPC   H2Y17216   4.831   6.117  16.090
  145DOPC   C2317217   4.531   5.750  16.013
  145DOPC   H3R17218   4.426   5.782  15.962
  145DOPC   H3S17219   4.552   5.632  15.987
  145DOPC   C2417220   4.659   5.841  15.958
  145DOPC   H4R17221   4.764   5.800  16.001
  145DOPC   H4S17222   4.648   5.958  15.989
  145DOPC   C2517223   4.669   5.833  15.806
  145DOPC   H5R17224   4.646   5.720  15.769
  145DOPC   H5S17225   4.784   5.862  15.775
  145DOPC   C2617226   4.564   5.943  15.739
  145DOPC   H6R17227   4.582   6.053  15.785
  145DOPC   H6S17228   4.448   5.910  15.758
  145DOPC   C2717229   4.598   5.959  15.591
  145DOPC   H7R17230   4.718   5.969  15.590
  145DOPC   H7S17231   4.556   6.064  15.549
  145DOPC   C2817232   4.551   5.828  15.503
  145DOPC   H8R17233   4.610   5.729  15.542
  145DOPC   H8S17234   4.596   5.845  15.400
  145DOPC   C2917235   4.389   5.794  15.493
  145DOPC   H9R17236   4.365   5.678  15.466
  145DOPC  C21017237   4.273   5.883  15.515
  145DOPC  H10R17238   4.164   5.835  15.496
  145DOPC  C21117239   4.272   6.043  15.554
  145DOPC  H11R17240   4.351   6.106  15.490
  145DOPC  H11S17241   4.310   6.057  15.660
  145DOPC  C21217242   4.123   6.120  15.545
  145DOPC  H12R17243   4.138   6.237  15.575
  145DOPC  H12S17244   4.046   6.071  15.619
  145DOPC  C21317245   4.054   6.117  15.405
  145DOPC  H13R17246   3.941   6.162  15.413
  145DOPC  H13S17247   4.046   6.001  15.371
  145DOPC  C21417248   4.140   6.205  15.301
  145DOPC  H14R17249   4.247   6.150  15.289
  145DOPC  H14S17250   4.160   6.318  15.340
  145DOPC  C21517251   4.069   6.215  15.162
  145DOPC  H15R17252   4.148   6.270  15.092
  145DOPC  H15S17253   3.971   6.289  15.169
  145DOPC  C21617254   4.024   6.065  15.103
  145DOPC  H16R17255   3.968   6.085  15.005
  145DOPC  H16S17256   3.947   6.007  15.170
  145DOPC  C21717257   4.150   5.959  15.082
  145DOPC  H17R17258   4.212   5.940  15.177
  145DOPC  H17S17259   4.221   6.017  15.010
  145DOPC  C21817260   4.105   5.811  15.023
  145DOPC  H18R17261   4.010   5.823  14.955
  145DOPC  H18S17262   4.076   5.732  15.104
  145DOPC  H18T17263   4.198   5.764  14.965
  145DOPC   C3317264   4.819   6.324  15.980
  145DOPC   H3X17265   4.885   6.281  15.895
  145DOPC   H3Y17266   4.847   6.442  15.994
  145DOPC   C3417267   4.655   6.306  15.949
  145DOPC   H4X17268   4.590   6.354  16.033
  145DOPC   H4Y17269   4.629   6.186  15.945
  145DOPC   C3517270   4.594   6.379  15.822
  145DOPC   H5X17271   4.640   6.327  15.730
  145DOPC   H5Y17272   4.624   6.498  15.822
  145DOPC   C3617273   4.425   6.361  15.825
  145DOPC   H6X17274   4.398   6.243  15.831
  145DOPC   H6Y17275   4.384   6.414  15.917
  145DOPC   C3717276   4.346   6.430  15.705
  145DOPC   H7X17277   4.387   6.375  15.613
  145DOPC   H7Y17278   4.226   6.405  15.714
  145DOPC   C3817279   4.368   6.597  15.699
  145DOPC   H8X17280   4.488   6.616  15.683
  145DOPC   H8Y17281   4.344   6.642  15.800
  145DOPC   C3917282   4.279   6.677  15.596
  145DOPC   H9X17283   4.170   6.714  15.629
  145DOPC  C31017284   4.320   6.701  15.469
  145DOPC  H10X17285   4.246   6.760  15.400
  145DOPC  C31117286   4.463   6.651  15.409
  145DOPC  H11X17287   4.552   6.632  15.484
  145DOPC  H11Y17288   4.506   6.729  15.333
  145DOPC  C31217289   4.421   6.504  15.344
  145DOPC  H12X17290   4.338   6.522  15.263
  145DOPC  H12Y17291   4.371   6.427  15.417
  145DOPC  C31317292   4.551   6.425  15.282
  145DOPC  H13X17293   4.603   6.500  15.208
  145DOPC  H13Y17294   4.633   6.397  15.361
  145DOPC  C31417295   4.494   6.285  15.218
  145DOPC  H14X17296   4.451   6.214  15.299
  145DOPC  H14Y17297   4.406   6.309  15.144
  145DOPC  C31517298   4.617   6.203  15.151
  145DOPC  H15X17299   4.715   6.232  15.211
  145DOPC  H15Y17300   4.629   6.256  15.052
  145DOPC  C31617301   4.603   6.034  15.152
  145DOPC  H16X17302   4.716   5.985  15.160
  145DOPC  H16Y17303   4.543   5.999  15.243
  145DOPC  C31717304   4.531   5.968  15.028
  145DOPC  H17X17305   4.423   6.020  15.025
  145DOPC  H17Y17306   4.585   5.999  14.932
  145DOPC  C31817307   4.517   5.799  15.030
  145DOPC  H18X17308   4.467   5.762  15.125
  145DOPC  H18Y17309   4.446   5.761  14.946
  145DOPC  H18Z17310   4.627   5.747  15.019
  146DOPC     N17311   5.896   2.961  17.024
  146DOPC   C1217312   6.026   2.995  16.931
  146DOPC  H12A17313   6.028   2.913  16.853
  146DOPC  H12B17314   6.126   2.989  16.988
  146DOPC   C1317315   5.938   2.849  17.126
  146DOPC  H13A17316   6.017   2.896  17.195
  146DOPC  H13B17317   5.840   2.814  17.180
  146DOPC  H13C17318   5.984   2.752  17.080
  146DOPC   C1417319   5.763   2.911  16.948
  146DOPC  H14A17320   5.718   3.000  16.887
  146DOPC  H14B17321   5.786   2.819  16.881
  146DOPC  H14C17322   5.675   2.871  17.014
  146DOPC   C1517323   5.855   3.102  17.093
  146DOPC  H15A17324   5.946   3.149  17.148
  146DOPC  H15B17325   5.763   3.086  17.158
  146DOPC  H15C17326   5.825   3.186  17.019
  146DOPC   C1117327   6.023   3.146  16.860
  146DOPC  H11A17328   6.039   3.237  16.933
  146DOPC  H11B17329   6.114   3.154  16.785
  146DOPC     P17330   5.799   3.300  16.767
  146DOPC   O1317331   5.828   3.407  16.874
  146DOPC   O1417332   5.647   3.252  16.741
  146DOPC   O1217333   5.887   3.154  16.793
  146DOPC   O1117334   5.875   3.343  16.627
  146DOPC    C117335   5.841   3.241  16.519
  146DOPC    HA17336   5.737   3.276  16.470
  146DOPC    HB17337   5.823   3.125  16.556
  146DOPC    C217338   5.961   3.224  16.407
  146DOPC    HS17339   6.069   3.211  16.459
  146DOPC   O2117340   5.959   3.354  16.324
  146DOPC   C2117341   6.073   3.375  16.246
  146DOPC   O2217342   6.183   3.298  16.239
  146DOPC   C2217343   6.047   3.516  16.166
  146DOPC   H2R17344   6.044   3.609  16.238
  146DOPC   H2S17345   5.938   3.506  16.118
  146DOPC    C317346   5.932   3.082  16.322
  146DOPC    HX17347   5.842   3.111  16.251
  146DOPC    HY17348   5.889   2.994  16.389
  146DOPC   O3117349   6.063   3.027  16.257
  146DOPC   C3117350   6.044   2.968  16.137
  146DOPC   O3217351   5.927   2.944  16.084
  146DOPC   C3217352   6.196   2.933  16.077
  146DOPC   H2X17353   6.281   3.000  16.130
  146DOPC   H2Y17354   6.219   2.815  16.096
  146DOPC   C2317355   6.169   3.538  16.062
  146DOPC   H3R17356   6.207   3.430  16.021
  146DOPC   H3S17357   6.265   3.589  16.112
  146DOPC   C2417358   6.124   3.632  15.945
  146DOPC   H4R17359   6.223   3.682  15.898
  146DOPC   H4S17360   6.051   3.724  15.980
  146DOPC   C2517361   6.047   3.539  15.839
  146DOPC   H5R17362   5.947   3.488  15.884
  146DOPC   H5S17363   6.122   3.449  15.808
  146DOPC   C2617364   6.005   3.630  15.717
  146DOPC   H6R17365   6.102   3.654  15.653
  146DOPC   H6S17366   5.961   3.738  15.755
  146DOPC   C2717367   5.881   3.559  15.637
  146DOPC   H7R17368   5.827   3.651  15.583
  146DOPC   H7S17369   5.804   3.512  15.712
  146DOPC   C2817370   5.919   3.438  15.537
  146DOPC   H8R17371   5.978   3.347  15.588
  146DOPC   H8S17372   5.991   3.482  15.457
  146DOPC   C2917373   5.772   3.388  15.483
  146DOPC   H9R17374   5.716   3.469  15.420
  146DOPC  C21017375   5.707   3.257  15.504
  146DOPC  H10R17376   5.597   3.238  15.464
  146DOPC  C21117377   5.765   3.132  15.586
  146DOPC  H11R17378   5.676   3.071  15.638
  146DOPC  H11S17379   5.844   3.169  15.664
  146DOPC  C21217380   5.845   3.033  15.484
  146DOPC  H12R17381   5.928   3.103  15.431
  146DOPC  H12S17382   5.767   2.990  15.408
  146DOPC  C21317383   5.933   2.903  15.541
  146DOPC  H13R17384   5.863   2.804  15.548
  146DOPC  H13S17385   5.969   2.933  15.645
  146DOPC  C21417386   6.073   2.872  15.458
  146DOPC  H14R17387   6.138   2.784  15.508
  146DOPC  H14S17388   6.142   2.973  15.459
  146DOPC  C21517389   6.047   2.829  15.310
  146DOPC  H15R17390   5.987   2.919  15.260
  146DOPC  H15S17391   5.974   2.734  15.308
  146DOPC  C21617392   6.194   2.800  15.237
  146DOPC  H16R17393   6.237   2.697  15.282
  146DOPC  H16S17394   6.271   2.891  15.263
  146DOPC  C21717395   6.203   2.780  15.084
  146DOPC  H17R17396   6.170   2.666  15.056
  146DOPC  H17S17397   6.321   2.786  15.053
  146DOPC  C21817398   6.113   2.884  14.997
  146DOPC  H18R17399   6.082   2.830  14.902
  146DOPC  H18S17400   6.174   2.987  14.975
  146DOPC  H18T17401   6.007   2.912  15.048
  146DOPC   C3317402   6.204   2.963  15.925
  146DOPC   H3X17403   6.123   2.894  15.871
  146DOPC   H3Y17404   6.315   2.929  15.890
  146DOPC   C3417405   6.178   3.126  15.889
  146DOPC   H4X17406   6.251   3.198  15.949
  146DOPC   H4Y17407   6.062   3.155  15.913
  146DOPC   C3517408   6.205   3.155  15.740
  146DOPC   H5X17409   6.145   3.254  15.705
  146DOPC   H5Y17410   6.162   3.060  15.682
  146DOPC   C3617411   6.368   3.174  15.709
  146DOPC   H6X17412   6.413   3.276  15.754
  146DOPC   H6Y17413   6.421   3.077  15.757
  146DOPC   C3717414   6.409   3.163  15.562
  146DOPC   H7X17415   6.531   3.146  15.555
  146DOPC   H7Y17416   6.356   3.060  15.523
  146DOPC   C3817417   6.367   3.297  15.478
  146DOPC   H8X17418   6.431   3.395  15.509
  146DOPC   H8Y17419   6.248   3.322  15.491
  146DOPC   C3917420   6.409   3.247  15.340
  146DOPC   H9X17421   6.526   3.228  15.326
  146DOPC  C31017422   6.316   3.214  15.240
  146DOPC  H10X17423   6.362   3.175  15.145
  146DOPC  C31117424   6.151   3.220  15.244
  146DOPC  H11X17425   6.109   3.283  15.330
  146DOPC  H11Y17426   6.107   3.108  15.253
  146DOPC  C31217427   6.092   3.289  15.115
  146DOPC  H12X17428   6.122   3.220  15.027
  146DOPC  H12Y17429   6.146   3.398  15.100
  146DOPC  C31317430   5.925   3.310  15.118
  146DOPC  H13X17431   5.893   3.377  15.207
  146DOPC  H13Y17432   5.891   3.370  15.026
  146DOPC  C31417433   5.844   3.164  15.121
  146DOPC  H14X17434   5.891   3.098  15.038
  146DOPC  H14Y17435   5.866   3.106  15.217
  146DOPC  C31517436   5.678   3.174  15.099
  146DOPC  H15X17437   5.652   3.273  15.038
  146DOPC  H15Y17438   5.621   3.184  15.197
  146DOPC  C31617439   5.623   3.037  15.025
  146DOPC  H16X17440   5.506   3.050  14.999
  146DOPC  H16Y17441   5.686   3.026  14.930
  146DOPC  C31717442   5.645   2.897  15.108
  146DOPC  H17X17443   5.762   2.888  15.141
  146DOPC  H17Y17444   5.578   2.904  15.201
  146DOPC  C31817445   5.609   2.760  15.028
  146DOPC  H18X17446   5.586   2.665  15.095
  146DOPC  H18Y17447   5.514   2.776  14.960
  146DOPC  H18Z17448   5.705   2.737  14.964
  147DOPC     N17449   1.849   3.567  16.998
  147DOPC   C1217450   1.935   3.705  16.957
  147DOPC  H12A17451   1.911   3.793  17.027
  147DOPC  H12B17452   1.899   3.738  16.858
  147DOPC   C1317453   1.828   3.483  16.873
  147DOPC  H13A17454   1.789   3.372  16.885
  147DOPC  H13B17455   1.756   3.535  16.802
  147DOPC  H13C17456   1.936   3.473  16.824
  147DOPC   C1417457   1.709   3.614  17.065
  147DOPC  H14A17458   1.625   3.651  16.996
  147DOPC  H14B17459   1.668   3.532  17.133
  147DOPC  H14C17460   1.735   3.705  17.131
  147DOPC   C1517461   1.945   3.485  17.093
  147DOPC  H15A17462   1.971   3.554  17.179
  147DOPC  H15B17463   2.049   3.461  17.043
  147DOPC  H15C17464   1.900   3.384  17.132
  147DOPC   C1117465   2.104   3.697  16.952
  147DOPC  H11A17466   2.143   3.810  16.923
  147DOPC  H11B17467   2.152   3.678  17.054
  147DOPC     P17468   2.300   3.620  16.779
  147DOPC   O1317469   2.413   3.677  16.871
  147DOPC   O1417470   2.256   3.711  16.663
  147DOPC   O1217471   2.153   3.587  16.862
  147DOPC   O1117472   2.346   3.461  16.730
  147DOPC    C117473   2.225   3.369  16.689
  147DOPC    HA17474   2.138   3.434  16.637
  147DOPC    HB17475   2.176   3.318  16.780
  147DOPC    C217476   2.266   3.242  16.593
  147DOPC    HS17477   2.344   3.167  16.645
  147DOPC   O2117478   2.331   3.293  16.469
  147DOPC   C2117479   2.367   3.190  16.381
  147DOPC   O2217480   2.368   3.058  16.399
  147DOPC   C2217481   2.401   3.265  16.250
  147DOPC   H2R17482   2.431   3.179  16.176
  147DOPC   H2S17483   2.496   3.339  16.267
  147DOPC    C317484   2.121   3.160  16.565
  147DOPC    HX17485   2.077   3.115  16.661
  147DOPC    HY17486   2.149   3.064  16.504
  147DOPC   O3117487   2.019   3.253  16.493
  147DOPC   C3117488   1.899   3.294  16.560
  147DOPC   O3217489   1.872   3.263  16.676
  147DOPC   C3217490   1.794   3.381  16.467
  147DOPC   H2X17491   1.681   3.369  16.508
  147DOPC   H2Y17492   1.824   3.499  16.469
  147DOPC   C2317493   2.270   3.356  16.199
  147DOPC   H3R17494   2.222   3.425  16.279
  147DOPC   H3S17495   2.184   3.278  16.168
  147DOPC   C2417496   2.319   3.457  16.085
  147DOPC   H4R17497   2.418   3.411  16.034
  147DOPC   H4S17498   2.351   3.566  16.127
  147DOPC   C2517499   2.197   3.473  15.982
  147DOPC   H5R17500   2.219   3.564  15.912
  147DOPC   H5S17501   2.093   3.500  16.036
  147DOPC   C2617502   2.175   3.329  15.904
  147DOPC   H6R17503   2.075   3.346  15.847
  147DOPC   H6S17504   2.152   3.236  15.972
  147DOPC   C2717505   2.295   3.279  15.806
  147DOPC   H7R17506   2.247   3.196  15.737
  147DOPC   H7S17507   2.383   3.221  15.864
  147DOPC   C2817508   2.366   3.401  15.722
  147DOPC   H8R17509   2.475   3.359  15.687
  147DOPC   H8S17510   2.394   3.494  15.791
  147DOPC   C2917511   2.277   3.455  15.604
  147DOPC   H9R17512   2.215   3.557  15.623
  147DOPC  C21017513   2.263   3.392  15.482
  147DOPC  H10R17514   2.198   3.451  15.406
  147DOPC  C21117515   2.332   3.250  15.434
  147DOPC  H11R17516   2.243   3.171  15.417
  147DOPC  H11S17517   2.407   3.203  15.510
  147DOPC  C21217518   2.412   3.247  15.299
  147DOPC  H12R17519   2.526   3.286  15.324
  147DOPC  H12S17520   2.366   3.330  15.231
  147DOPC  C21317521   2.430   3.089  15.238
  147DOPC  H13R17522   2.475   3.017  15.319
  147DOPC  H13S17523   2.512   3.099  15.159
  147DOPC  C21417524   2.308   3.004  15.161
  147DOPC  H14R17525   2.230   3.084  15.118
  147DOPC  H14S17526   2.250   2.933  15.234
  147DOPC  C21517527   2.358   2.911  15.039
  147DOPC  H15R17528   2.389   2.798  15.073
  147DOPC  H15S17529   2.458   2.964  14.999
  147DOPC  C21617530   2.252   2.902  14.917
  147DOPC  H16R17531   2.314   2.864  14.829
  147DOPC  H16S17532   2.215   3.015  14.896
  147DOPC  C21717533   2.114   2.804  14.925
  147DOPC  H17R17534   2.071   2.814  15.028
  147DOPC  H17S17535   2.142   2.686  14.906
  147DOPC  C21817536   1.988   2.849  14.831
  147DOPC  H18R17537   1.962   2.967  14.849
  147DOPC  H18S17538   1.887   2.786  14.854
  147DOPC  H18T17539   2.016   2.834  14.724
  147DOPC   C3317540   1.799   3.322  16.322
  147DOPC   H3X17541   1.782   3.201  16.331
  147DOPC   H3Y17542   1.909   3.343  16.276
  147DOPC   C3417543   1.678   3.377  16.227
  147DOPC   H4X17544   1.683   3.497  16.212
  147DOPC   H4Y17545   1.570   3.353  16.276
  147DOPC   C3517546   1.679   3.292  16.093
  147DOPC   H5X17547   1.563   3.280  16.058
  147DOPC   H5Y17548   1.705   3.178  16.119
  147DOPC   C3617549   1.775   3.352  15.976
  147DOPC   H6X17550   1.780   3.474  15.979
  147DOPC   H6Y17551   1.891   3.319  15.992
  147DOPC   C3717552   1.726   3.303  15.834
  147DOPC   H7X17553   1.690   3.187  15.836
  147DOPC   H7Y17554   1.628   3.369  15.803
  147DOPC   C3817555   1.836   3.325  15.719
  147DOPC   H8X17556   1.786   3.280  15.626
  147DOPC   H8Y17557   1.937   3.261  15.725
  147DOPC   C3917558   1.878   3.485  15.707
  147DOPC   H9X17559   1.970   3.524  15.769
  147DOPC  C31017560   1.809   3.575  15.625
  147DOPC  H10X17561   1.842   3.691  15.622
  147DOPC  C31117562   1.685   3.530  15.535
  147DOPC  H11X17563   1.586   3.596  15.558
  147DOPC  H11Y17564   1.643   3.416  15.551
  147DOPC  C31217565   1.728   3.543  15.388
  147DOPC  H12X17566   1.629   3.582  15.331
  147DOPC  H12Y17567   1.750   3.431  15.350
  147DOPC  C31317568   1.860   3.645  15.356
  147DOPC  H13X17569   1.871   3.738  15.426
  147DOPC  H13Y17570   1.964   3.582  15.365
  147DOPC  C31417571   1.841   3.715  15.217
  147DOPC  H14X17572   1.725   3.747  15.202
  147DOPC  H14Y17573   1.913   3.813  15.206
  147DOPC  C31517574   1.884   3.603  15.115
  147DOPC  H15X17575   1.822   3.501  15.136
  147DOPC  H15Y17576   1.999   3.584  15.144
  147DOPC  C31617577   1.865   3.634  14.965
  147DOPC  H16X17578   1.893   3.527  14.918
  147DOPC  H16Y17579   1.747   3.659  14.942
  147DOPC  C31717580   1.969   3.747  14.901
  147DOPC  H17X17581   1.917   3.856  14.891
  147DOPC  H17Y17582   2.064   3.760  14.969
  147DOPC  C31817583   2.024   3.707  14.761
  147DOPC  H18X17584   2.065   3.592  14.757
  147DOPC  H18Y17585   1.935   3.719  14.686
  147DOPC  H18Z17586   2.115   3.782  14.733
  148DOPC     N17587   2.985   5.870  16.718
  148DOPC   C1217588   2.974   6.034  16.750
  148DOPC  H12A17589   2.860   6.070  16.749
  148DOPC  H12B17590   3.028   6.100  16.674
  148DOPC   C1317591   3.142   5.818  16.741
  148DOPC  H13A17592   3.171   5.835  16.845
  148DOPC  H13B17593   3.155   5.702  16.720
  148DOPC  H13C17594   3.220   5.881  16.681
  148DOPC   C1417595   2.946   5.832  16.578
  148DOPC  H14A17596   2.970   5.717  16.561
  148DOPC  H14B17597   2.830   5.850  16.558
  148DOPC  H14C17598   3.012   5.895  16.509
  148DOPC   C1517599   2.888   5.789  16.815
  148DOPC  H15A17600   2.778   5.834  16.815
  148DOPC  H15B17601   2.930   5.810  16.916
  148DOPC  H15C17602   2.889   5.672  16.801
  148DOPC   C1117603   3.039   6.082  16.887
  148DOPC  H11A17604   3.159   6.060  16.888
  148DOPC  H11B17605   3.026   6.203  16.899
  148DOPC     P17606   2.837   6.063  17.074
  148DOPC   O1317607   2.877   6.197  17.150
  148DOPC   O1417608   2.783   5.935  17.150
  148DOPC   O1217609   2.974   6.005  16.994
  148DOPC   O1117610   2.727   6.102  16.956
  148DOPC    C117611   2.653   6.243  16.958
  148DOPC    HA17612   2.683   6.318  17.041
  148DOPC    HB17613   2.533   6.221  16.968
  148DOPC    C217614   2.671   6.327  16.824
  148DOPC    HS17615   2.570   6.399  16.815
  148DOPC   O2117616   2.693   6.219  16.719
  148DOPC   C2117617   2.569   6.196  16.655
  148DOPC   O2217618   2.462   6.277  16.660
  148DOPC   C2217619   2.574   6.057  16.572
  148DOPC   H2R17620   2.458   6.049  16.537
  148DOPC   H2S17621   2.598   5.961  16.636
  148DOPC    C317622   2.795   6.444  16.818
  148DOPC    HX17623   2.904   6.401  16.848
  148DOPC    HY17624   2.765   6.533  16.889
  148DOPC   O3117625   2.796   6.508  16.686
  148DOPC   C3117626   2.862   6.426  16.594
  148DOPC   O3217627   2.958   6.336  16.614
  148DOPC   C3217628   2.780   6.446  16.462
  148DOPC   H2X17629   2.666   6.404  16.480
  148DOPC   H2Y17630   2.771   6.564  16.439
  148DOPC   C2317631   2.664   6.054  16.440
  148DOPC   H3R17632   2.781   6.030  16.459
  148DOPC   H3S17633   2.657   6.166  16.395
  148DOPC   C2417634   2.592   5.949  16.339
  148DOPC   H4R17635   2.521   6.017  16.272
  148DOPC   H4S17636   2.517   5.874  16.394
  148DOPC   C2517637   2.691   5.852  16.251
  148DOPC   H5R17638   2.740   5.763  16.312
  148DOPC   H5S17639   2.781   5.918  16.207
  148DOPC   C2617640   2.600   5.785  16.135
  148DOPC   H6R17641   2.555   5.876  16.073
  148DOPC   H6S17642   2.504   5.728  16.180
  148DOPC   C2717643   2.683   5.675  16.045
  148DOPC   H7R17644   2.620   5.569  16.044
  148DOPC   H7S17645   2.793   5.650  16.087
  148DOPC   C2817646   2.696   5.724  15.897
  148DOPC   H8R17647   2.585   5.746  15.856
  148DOPC   H8S17648   2.744   5.633  15.837
  148DOPC   C2917649   2.794   5.856  15.889
  148DOPC   H9R17650   2.904   5.842  15.932
  148DOPC  C21017651   2.759   5.988  15.839
  148DOPC  H10R17652   2.834   6.080  15.860
  148DOPC  C21117653   2.619   6.043  15.778
  148DOPC  H11R17654   2.614   6.160  15.811
  148DOPC  H11S17655   2.521   5.986  15.818
  148DOPC  C21217656   2.615   6.046  15.624
  148DOPC  H12R17657   2.505   6.084  15.590
  148DOPC  H12S17658   2.630   5.932  15.585
  148DOPC  C21317659   2.732   6.148  15.563
  148DOPC  H13R17660   2.841   6.110  15.599
  148DOPC  H13S17661   2.715   6.262  15.599
  148DOPC  C21417662   2.738   6.146  15.410
  148DOPC  H14R17663   2.727   6.031  15.373
  148DOPC  H14S17664   2.848   6.186  15.375
  148DOPC  C21517665   2.626   6.246  15.342
  148DOPC  H15R17666   2.639   6.362  15.374
  148DOPC  H15S17667   2.514   6.211  15.375
  148DOPC  C21617668   2.636   6.233  15.189
  148DOPC  H16R17669   2.538   6.289  15.151
  148DOPC  H16S17670   2.627   6.115  15.160
  148DOPC  C21717671   2.767   6.304  15.118
  148DOPC  H17R17672   2.749   6.290  15.008
  148DOPC  H17S17673   2.868   6.244  15.143
  148DOPC  C21817674   2.789   6.469  15.144
  148DOPC  H18R17675   2.794   6.493  15.253
  148DOPC  H18S17676   2.696   6.532  15.100
  148DOPC  H18T17677   2.892   6.509  15.097
  148DOPC   C3317678   2.857   6.360  16.350
  148DOPC   H3X17679   2.863   6.244  16.380
  148DOPC   H3Y17680   2.972   6.398  16.340
  148DOPC   C3417681   2.781   6.369  16.212
  148DOPC   H4X17682   2.844   6.448  16.150
  148DOPC   H4Y17683   2.668   6.413  16.220
  148DOPC   C3517684   2.782   6.225  16.134
  148DOPC   H5X17685   2.747   6.248  16.029
  148DOPC   H5Y17686   2.697   6.150  16.175
  148DOPC   C3617687   2.933   6.150  16.134
  148DOPC   H6X17688   2.958   6.107  16.236
  148DOPC   H6Y17689   2.929   6.051  16.068
  148DOPC   C3717690   3.060   6.250  16.091
  148DOPC   H7X17691   3.069   6.346  16.158
  148DOPC   H7Y17692   3.164   6.188  16.101
  148DOPC   C3817693   3.046   6.309  15.948
  148DOPC   H8X17694   3.130   6.395  15.934
  148DOPC   H8Y17695   2.937   6.361  15.934
  148DOPC   C3917696   3.069   6.190  15.848
  148DOPC   H9X17697   3.071   6.075  15.886
  148DOPC  C31017698   3.097   6.214  15.719
  148DOPC  H10X17699   3.114   6.118  15.653
  148DOPC  C31117700   3.110   6.364  15.657
  148DOPC  H11X17701   3.227   6.390  15.650
  148DOPC  H11Y17702   3.059   6.450  15.719
  148DOPC  C31217703   3.044   6.364  15.516
  148DOPC  H12X17704   3.046   6.477  15.476
  148DOPC  H12Y17705   2.925   6.338  15.520
  148DOPC  C31317706   3.125   6.253  15.428
  148DOPC  H13X17707   3.241   6.245  15.467
  148DOPC  H13Y17708   3.075   6.142  15.443
  148DOPC  C31417709   3.134   6.283  15.277
  148DOPC  H14X17710   3.064   6.200  15.228
  148DOPC  H14Y17711   3.094   6.395  15.251
  148DOPC  C31517712   3.292   6.262  15.229
  148DOPC  H15X17713   3.324   6.156  15.274
  148DOPC  H15Y17714   3.361   6.351  15.275
  148DOPC  C31617715   3.324   6.250  15.079
  148DOPC  H16X17716   3.281   6.347  15.025
  148DOPC  H16Y17717   3.445   6.246  15.060
  148DOPC  C31717718   3.248   6.119  15.015
  148DOPC  H17X17719   3.271   6.018  15.074
  148DOPC  H17Y17720   3.128   6.141  15.021
  148DOPC  C31817721   3.291   6.097  14.869
  148DOPC  H18X17722   3.334   5.984  14.852
  148DOPC  H18Y17723   3.192   6.114  14.807
  148DOPC  H18Z17724   3.375   6.178  14.836
  149DOPC     N17725   2.761   2.140  16.766
  149DOPC   C1217726   2.743   2.144  16.917
  149DOPC  H12A17727   2.831   2.081  16.965
  149DOPC  H12B17728   2.641   2.091  16.945
  149DOPC   C1317729   2.647   2.235  16.705
  149DOPC  H13A17730   2.540   2.218  16.750
  149DOPC  H13B17731   2.677   2.350  16.724
  149DOPC  H13C17732   2.640   2.219  16.598
  149DOPC   C1417733   2.753   1.985  16.715
  149DOPC  H14A17734   2.650   1.933  16.736
  149DOPC  H14B17735   2.771   1.977  16.607
  149DOPC  H14C17736   2.840   1.917  16.758
  149DOPC   C1517737   2.907   2.201  16.728
  149DOPC  H15A17738   2.911   2.313  16.765
  149DOPC  H15B17739   2.927   2.201  16.622
  149DOPC  H15C17740   2.994   2.143  16.779
  149DOPC   C1117741   2.750   2.296  16.985
  149DOPC  H11A17742   2.678   2.376  16.932
  149DOPC  H11B17743   2.709   2.283  17.089
  149DOPC     P17744   2.919   2.508  17.048
  149DOPC   O1317745   3.070   2.533  17.096
  149DOPC   O1417746   2.797   2.541  17.140
  149DOPC   O1217747   2.898   2.345  16.990
  149DOPC   O1117748   2.894   2.600  16.917
  149DOPC    C117749   2.980   2.576  16.802
  149DOPC    HA17750   3.020   2.462  16.790
  149DOPC    HB17751   3.078   2.648  16.811
  149DOPC    C217752   2.892   2.630  16.680
  149DOPC    HS17753   2.842   2.734  16.716
  149DOPC   O2117754   2.783   2.527  16.631
  149DOPC   C2117755   2.670   2.598  16.573
  149DOPC   O2217756   2.639   2.726  16.593
  149DOPC   C2217757   2.584   2.497  16.481
  149DOPC   H2R17758   2.477   2.476  16.532
  149DOPC   H2S17759   2.641   2.391  16.466
  149DOPC    C317760   3.000   2.663  16.566
  149DOPC    HX17761   3.080   2.749  16.595
  149DOPC    HY17762   2.930   2.705  16.481
  149DOPC   O3117763   3.077   2.530  16.533
  149DOPC   C3117764   3.101   2.521  16.404
  149DOPC   O3217765   3.113   2.625  16.328
  149DOPC   C3217766   3.103   2.362  16.368
  149DOPC   H2X17767   3.183   2.343  16.285
  149DOPC   H2Y17768   3.136   2.295  16.456
  149DOPC   C2317769   2.552   2.570  16.344
  149DOPC   H3R17770   2.522   2.688  16.355
  149DOPC   H3S17771   2.457   2.510  16.300
  149DOPC   C2417772   2.678   2.562  16.245
  149DOPC   H4R17773   2.724   2.449  16.245
  149DOPC   H4S17774   2.765   2.641  16.276
  149DOPC   C2517775   2.632   2.597  16.101
  149DOPC   H5R17776   2.560   2.696  16.099
  149DOPC   H5S17777   2.569   2.503  16.060
  149DOPC   C2617778   2.770   2.627  16.018
  149DOPC   H6R17779   2.865   2.585  16.076
  149DOPC   H6S17780   2.783   2.747  16.010
  149DOPC   C2717781   2.772   2.559  15.879
  149DOPC   H7R17782   2.703   2.626  15.810
  149DOPC   H7S17783   2.719   2.450  15.886
  149DOPC   C2817784   2.929   2.545  15.821
  149DOPC   H8R17785   2.981   2.655  15.818
  149DOPC   H8S17786   2.917   2.511  15.714
  149DOPC   C2917787   3.033   2.446  15.898
  149DOPC   H9R17788   3.057   2.481  16.001
  149DOPC  C21017789   3.093   2.321  15.853
  149DOPC  H10R17790   3.165   2.255  15.920
  149DOPC  C21117791   3.068   2.255  15.717
  149DOPC  H11R17792   2.968   2.300  15.668
  149DOPC  H11S17793   3.045   2.136  15.730
  149DOPC  C21217794   3.193   2.270  15.616
  149DOPC  H12R17795   3.274   2.356  15.648
  149DOPC  H12S17796   3.144   2.306  15.520
  149DOPC  C21317797   3.270   2.125  15.587
  149DOPC  H13R17798   3.313   2.081  15.683
  149DOPC  H13S17799   3.366   2.148  15.520
  149DOPC  C21417800   3.170   2.009  15.522
  149DOPC  H14R17801   3.076   1.980  15.587
  149DOPC  H14S17802   3.238   1.909  15.512
  149DOPC  C21517803   3.116   2.043  15.381
  149DOPC  H15R17804   3.217   2.055  15.319
  149DOPC  H15S17805   3.054   2.148  15.377
  149DOPC  C21617806   3.023   1.921  15.317
  149DOPC  H16R17807   2.905   1.933  15.345
  149DOPC  H16S17808   3.061   1.811  15.350
  149DOPC  C21717809   3.045   1.931  15.166
  149DOPC  H17R17810   3.166   1.928  15.145
  149DOPC  H17S17811   2.999   2.038  15.137
  149DOPC  C21817812   2.972   1.818  15.078
  149DOPC  H18R17813   3.010   1.828  14.973
  149DOPC  H18S17814   2.852   1.838  15.080
  149DOPC  H18T17815   2.997   1.706  15.114
  149DOPC   C3317816   2.956   2.308  16.318
  149DOPC   H3X17817   2.929   2.369  16.225
  149DOPC   H3Y17818   2.867   2.325  16.393
  149DOPC   C3417819   2.972   2.145  16.289
  149DOPC   H4X17820   3.005   2.087  16.381
  149DOPC   H4Y17821   3.064   2.135  16.214
  149DOPC   C3517822   2.836   2.073  16.232
  149DOPC   H5X17823   2.740   2.108  16.292
  149DOPC   H5Y17824   2.845   1.951  16.235
  149DOPC   C3617825   2.814   2.123  16.088
  149DOPC   H6X17826   2.695   2.131  16.067
  149DOPC   H6Y17827   2.858   2.236  16.074
  149DOPC   C3717828   2.886   2.021  15.985
  149DOPC   H7X17829   3.001   2.058  15.972
  149DOPC   H7Y17830   2.889   1.906  16.025
  149DOPC   C3817831   2.808   2.016  15.849
  149DOPC   H8X17832   2.717   1.936  15.852
  149DOPC   H8Y17833   2.885   1.977  15.770
  149DOPC   C3917834   2.751   2.167  15.821
  149DOPC   H9X17835   2.796   2.254  15.883
  149DOPC  C31017836   2.661   2.208  15.724
  149DOPC  H10X17837   2.618   2.320  15.724
  149DOPC  C31117838   2.602   2.106  15.622
  149DOPC  H11X17839   2.482   2.110  15.635
  149DOPC  H11Y17840   2.643   1.991  15.627
  149DOPC  C31217841   2.626   2.173  15.485
  149DOPC  H12X17842   2.582   2.094  15.409
  149DOPC  H12Y17843   2.746   2.185  15.466
  149DOPC  C31317844   2.544   2.319  15.473
  149DOPC  H13X17845   2.435   2.312  15.524
  149DOPC  H13Y17846   2.607   2.409  15.522
  149DOPC  C31417847   2.519   2.354  15.327
  149DOPC  H14X17848   2.434   2.274  15.291
  149DOPC  H14Y17849   2.474   2.466  15.316
  149DOPC  C31517850   2.661   2.340  15.248
  149DOPC  H15X17851   2.645   2.367  15.141
  149DOPC  H15Y17852   2.698   2.223  15.248
  149DOPC  C31617853   2.784   2.435  15.304
  149DOPC  H16X17854   2.812   2.405  15.408
  149DOPC  H16Y17855   2.879   2.409  15.240
  149DOPC  C31717856   2.759   2.602  15.294
  149DOPC  H17X17857   2.648   2.631  15.329
  149DOPC  H17Y17858   2.839   2.658  15.361
  149DOPC  C31817859   2.784   2.652  15.151
  149DOPC  H18X17860   2.903   2.654  15.126
  149DOPC  H18Y17861   2.730   2.577  15.079
  149DOPC  H18Z17862   2.738   2.763  15.134
  150DOPC     N17863   6.666   5.449  17.109
  150DOPC   C1217864   6.532   5.490  17.029
  150DOPC  H12A17865   6.442   5.511  17.097
  150DOPC  H12B17866   6.504   5.396  16.968
  150DOPC   C1317867   6.771   5.577  17.120
  150DOPC  H13A17868   6.877   5.543  17.158
  150DOPC  H13B17869   6.788   5.626  17.021
  150DOPC  H13C17870   6.727   5.664  17.182
  150DOPC   C1417871   6.745   5.329  17.033
  150DOPC  H14A17872   6.681   5.231  17.020
  150DOPC  H14B17873   6.774   5.367  16.932
  150DOPC  H14C17874   6.851   5.302  17.077
  150DOPC   C1517875   6.631   5.389  17.244
  150DOPC  H15A17876   6.545   5.306  17.241
  150DOPC  H15B17877   6.599   5.476  17.312
  150DOPC  H15C17878   6.731   5.339  17.281
  150DOPC   C1117879   6.537   5.620  16.929
  150DOPC  H11A17880   6.454   5.582  16.856
  150DOPC  H11B17881   6.498   5.724  16.974
  150DOPC     P17882   6.721   5.570  16.730
  150DOPC   O1317883   6.762   5.419  16.762
  150DOPC   O1417884   6.833   5.661  16.661
  150DOPC   O1217885   6.675   5.647  16.865
  150DOPC   O1117886   6.573   5.554  16.650
  150DOPC    C117887   6.525   5.412  16.604
  150DOPC    HA17888   6.421   5.387  16.655
  150DOPC    HB17889   6.598   5.316  16.626
  150DOPC    C217890   6.493   5.410  16.452
  150DOPC    HS17891   6.382   5.359  16.439
  150DOPC   O2117892   6.604   5.324  16.385
  150DOPC   C2117893   6.560   5.283  16.264
  150DOPC   O2217894   6.438   5.302  16.218
  150DOPC   C2217895   6.685   5.202  16.194
  150DOPC   H2R17896   6.717   5.109  16.261
  150DOPC   H2S17897   6.775   5.282  16.185
  150DOPC    C317898   6.484   5.566  16.391
  150DOPC    HX17899   6.390   5.613  16.444
  150DOPC    HY17900   6.453   5.561  16.284
  150DOPC   O3117901   6.606   5.666  16.414
  150DOPC   C3117902   6.707   5.677  16.319
  150DOPC   O3217903   6.720   5.594  16.225
  150DOPC   C3217904   6.797   5.820  16.337
  150DOPC   H2X17905   6.720   5.915  16.344
  150DOPC   H2Y17906   6.857   5.810  16.433
  150DOPC   C2317907   6.635   5.148  16.056
  150DOPC   H3R17908   6.524   5.099  16.070
  150DOPC   H3S17909   6.719   5.072  16.007
  150DOPC   C2417910   6.616   5.273  15.956
  150DOPC   H4R17911   6.717   5.345  15.952
  150DOPC   H4S17912   6.525   5.344  15.989
  150DOPC   C2517913   6.577   5.210  15.819
  150DOPC   H5R17914   6.456   5.217  15.808
  150DOPC   H5S17915   6.598   5.090  15.811
  150DOPC   C2617916   6.654   5.294  15.708
  150DOPC   H6R17917   6.760   5.341  15.744
  150DOPC   H6S17918   6.586   5.390  15.677
  150DOPC   C2717919   6.681   5.199  15.588
  150DOPC   H7R17920   6.587   5.122  15.576
  150DOPC   H7S17921   6.780   5.132  15.609
  150DOPC   C2817922   6.706   5.291  15.463
  150DOPC   H8R17923   6.815   5.347  15.468
  150DOPC   H8S17924   6.620   5.378  15.457
  150DOPC   C2917925   6.697   5.190  15.346
  150DOPC   H9R17926   6.793   5.122  15.326
  150DOPC  C21017927   6.578   5.166  15.272
  150DOPC  H10R17928   6.586   5.074  15.200
  150DOPC  C21117929   6.430   5.235  15.292
  150DOPC  H11R17930   6.404   5.246  15.400
  150DOPC  H11S17931   6.353   5.157  15.248
  150DOPC  C21217932   6.390   5.378  15.222
  150DOPC  H12R17933   6.412   5.364  15.113
  150DOPC  H12S17934   6.465   5.467  15.254
  150DOPC  C21317935   6.226   5.423  15.240
  150DOPC  H13R17936   6.197   5.446  15.346
  150DOPC  H13S17937   6.159   5.326  15.210
  150DOPC  C21417938   6.203   5.558  15.148
  150DOPC  H14R17939   6.258   5.529  15.057
  150DOPC  H14S17940   6.280   5.636  15.186
  150DOPC  C21517941   6.051   5.633  15.115
  150DOPC  H15R17942   6.046   5.746  15.156
  150DOPC  H15S17943   5.982   5.566  15.182
  150DOPC  C21617944   5.959   5.624  14.978
  150DOPC  H16R17945   5.901   5.720  15.012
  150DOPC  H16S17946   5.870   5.549  15.000
  150DOPC  C21717947   5.959   5.707  14.834
  150DOPC  H17R17948   6.059   5.767  14.825
  150DOPC  H17S17949   5.879   5.799  14.829
  150DOPC  C21817950   5.936   5.631  14.696
  150DOPC  H18R17951   5.833   5.668  14.647
  150DOPC  H18S17952   5.938   5.510  14.696
  150DOPC  H18T17953   6.029   5.658  14.629
  150DOPC   C3317954   6.909   5.850  16.223
  150DOPC   H3X17955   6.950   5.745  16.179
  150DOPC   H3Y17956   7.006   5.907  16.268
  150DOPC   C3417957   6.851   5.954  16.115
  150DOPC   H4X17958   6.824   6.061  16.161
  150DOPC   H4Y17959   6.743   5.912  16.079
  150DOPC   C3517960   6.959   5.977  15.997
  150DOPC   H5X17961   7.071   5.999  16.034
  150DOPC   H5Y17962   6.923   6.076  15.940
  150DOPC   C3617963   6.959   5.851  15.897
  150DOPC   H6X17964   7.018   5.889  15.806
  150DOPC   H6Y17965   7.017   5.754  15.938
  150DOPC   C3717966   6.801   5.806  15.860
  150DOPC   H7X17967   6.757   5.732  15.939
  150DOPC   H7Y17968   6.731   5.907  15.861
  150DOPC   C3817969   6.783   5.734  15.723
  150DOPC   H8X17970   6.756   5.823  15.653
  150DOPC   H8Y17971   6.685   5.661  15.728
  150DOPC   C3917972   6.915   5.652  15.674
  150DOPC   H9X17973   6.937   5.551  15.730
  150DOPC  C31017974   7.004   5.691  15.573
  150DOPC  H10X17975   7.092   5.614  15.544
  150DOPC  C31117976   6.993   5.826  15.484
  150DOPC  H11X17977   7.086   5.901  15.503
  150DOPC  H11Y17978   6.889   5.889  15.500
  150DOPC  C31217979   6.997   5.777  15.337
  150DOPC  H12X17980   7.105   5.724  15.317
  150DOPC  H12Y17981   6.989   5.875  15.270
  150DOPC  C31317982   6.874   5.669  15.300
  150DOPC  H13X17983   6.861   5.582  15.377
  150DOPC  H13Y17984   6.767   5.728  15.290
  150DOPC  C31417985   6.909   5.594  15.169
  150DOPC  H14X17986   7.028   5.564  15.166
  150DOPC  H14Y17987   6.844   5.491  15.167
  150DOPC  C31517988   6.867   5.684  15.048
  150DOPC  H15X17989   6.944   5.645  14.968
  150DOPC  H15Y17990   6.888   5.803  15.065
  150DOPC  C31617991   6.708   5.662  15.003
  150DOPC  H16X17992   6.688   5.542  14.987
  150DOPC  H16Y17993   6.630   5.698  15.082
  150DOPC  C31717994   6.679   5.742  14.872
  150DOPC  H17X17995   6.570   5.712  14.831
  150DOPC  H17Y17996   6.674   5.862  14.892
  150DOPC  C31817997   6.795   5.706  14.767
  150DOPC  H18X17998   6.764   5.747  14.667
  150DOPC  H18Y17999   6.904   5.754  14.793
  150DOPC  H18Z18000   6.808   5.585  14.761
  151DOPC     N18001   1.580   4.253  16.925
  151DOPC   C1218002   1.429   4.319  16.952
  151DOPC  H12A18003   1.376   4.348  16.859
  151DOPC  H12B18004   1.440   4.419  17.012
  151DOPC   C1318005   1.575   4.179  16.791
  151DOPC  H13A18006   1.563   4.256  16.710
  151DOPC  H13B18007   1.670   4.111  16.773
  151DOPC  H13C18008   1.477   4.109  16.787
  151DOPC   C1418009   1.609   4.137  17.028
  151DOPC  H14A18010   1.608   4.184  17.128
  151DOPC  H14B18011   1.519   4.058  17.027
  151DOPC  H14C18012   1.712   4.081  17.012
  151DOPC   C1518013   1.697   4.366  16.934
  151DOPC  H15A18014   1.696   4.417  17.033
  151DOPC  H15B18015   1.679   4.452  16.862
  151DOPC  H15C18016   1.805   4.318  16.920
  151DOPC   C1118017   1.318   4.220  17.026
  151DOPC  H11A18018   1.355   4.207  17.132
  151DOPC  H11B18019   1.209   4.276  17.034
  151DOPC     P18020   1.177   4.035  16.865
  151DOPC   O1318021   1.085   4.166  16.848
  151DOPC   O1418022   1.114   3.902  16.927
  151DOPC   O1218023   1.307   4.079  16.962
  151DOPC   O1118024   1.273   4.002  16.736
  151DOPC    C118025   1.357   3.870  16.719
  151DOPC    HA18026   1.338   3.787  16.800
  151DOPC    HB18027   1.476   3.896  16.721
  151DOPC    C218028   1.320   3.792  16.584
  151DOPC    HS18029   1.400   3.700  16.568
  151DOPC   O2118030   1.326   3.891  16.471
  151DOPC   C2118031   1.444   3.971  16.451
  151DOPC   O2218032   1.565   3.957  16.504
  151DOPC   C2218033   1.408   4.083  16.341
  151DOPC   H2R18034   1.294   4.121  16.362
  151DOPC   H2S18035   1.408   4.026  16.244
  151DOPC    C318036   1.164   3.719  16.593
  151DOPC    HX18037   1.084   3.796  16.640
  151DOPC    HY18038   1.176   3.625  16.664
  151DOPC   O3118039   1.117   3.662  16.465
  151DOPC   C3118040   1.048   3.755  16.383
  151DOPC   O3218041   0.990   3.871  16.412
  151DOPC   C3218042   1.067   3.695  16.243
  151DOPC   H2X18043   1.186   3.702  16.226
  151DOPC   H2Y18044   1.036   3.578  16.246
  151DOPC   C2318045   1.509   4.220  16.334
  151DOPC   H3R18046   1.616   4.195  16.284
  151DOPC   H3S18047   1.533   4.256  16.438
  151DOPC   C2418048   1.433   4.351  16.265
  151DOPC   H4R18049   1.475   4.448  16.319
  151DOPC   H4S18050   1.312   4.344  16.279
  151DOPC   C2518051   1.467   4.378  16.117
  151DOPC   H5R18052   1.577   4.430  16.109
  151DOPC   H5S18053   1.387   4.459  16.076
  151DOPC   C2618054   1.464   4.242  16.028
  151DOPC   H6R18055   1.356   4.186  16.038
  151DOPC   H6S18056   1.551   4.164  16.061
  151DOPC   C2718057   1.493   4.286  15.883
  151DOPC   H7R18058   1.585   4.361  15.884
  151DOPC   H7S18059   1.396   4.344  15.839
  151DOPC   C2818060   1.552   4.168  15.791
  151DOPC   H8R18061   1.649   4.113  15.837
  151DOPC   H8S18062   1.587   4.219  15.695
  151DOPC   C2918063   1.430   4.063  15.766
  151DOPC   H9R18064   1.324   4.096  15.807
  151DOPC  C21018065   1.449   3.942  15.694
  151DOPC  H10R18066   1.356   3.867  15.678
  151DOPC  C21118067   1.593   3.903  15.633
  151DOPC  H11R18068   1.641   3.810  15.690
  151DOPC  H11S18069   1.676   3.993  15.633
  151DOPC  C21218070   1.564   3.859  15.489
  151DOPC  H12R18071   1.475   3.775  15.483
  151DOPC  H12S18072   1.664   3.802  15.455
  151DOPC  C21318073   1.544   3.980  15.385
  151DOPC  H13R18074   1.499   3.926  15.293
  151DOPC  H13S18075   1.656   4.023  15.360
  151DOPC  C21418076   1.451   4.115  15.418
  151DOPC  H14R18077   1.510   4.187  15.490
  151DOPC  H14S18078   1.343   4.089  15.465
  151DOPC  C21518079   1.420   4.197  15.288
  151DOPC  H15R18080   1.370   4.115  15.219
  151DOPC  H15S18081   1.527   4.231  15.244
  151DOPC  C21618082   1.317   4.326  15.307
  151DOPC  H16R18083   1.375   4.414  15.362
  151DOPC  H16S18084   1.222   4.289  15.370
  151DOPC  C21718085   1.252   4.386  15.176
  151DOPC  H17R18086   1.342   4.415  15.106
  151DOPC  H17S18087   1.191   4.489  15.198
  151DOPC  C21818088   1.145   4.277  15.110
  151DOPC  H18R18089   1.114   4.313  15.008
  151DOPC  H18S18090   1.045   4.263  15.171
  151DOPC  H18T18091   1.198   4.167  15.098
  151DOPC   C3318092   0.977   3.767  16.129
  151DOPC   H3X18093   0.917   3.868  16.162
  151DOPC   H3Y18094   0.893   3.689  16.090
  151DOPC   C3418095   1.076   3.795  16.010
  151DOPC   H4X18096   1.018   3.784  15.913
  151DOPC   H4Y18097   1.150   3.699  16.010
  151DOPC   C3518098   1.160   3.939  16.024
  151DOPC   H5X18099   1.252   3.940  15.951
  151DOPC   H5Y18100   1.211   3.944  16.125
  151DOPC   C3618101   1.059   4.072  16.005
  151DOPC   H6X18102   0.980   4.076  16.091
  151DOPC   H6Y18103   1.123   4.176  16.007
  151DOPC   C3718104   0.968   4.066  15.876
  151DOPC   H7X18105   0.904   3.962  15.875
  151DOPC   H7Y18106   0.887   4.154  15.880
  151DOPC   C3818107   1.061   4.073  15.748
  151DOPC   H8X18108   1.144   3.984  15.758
  151DOPC   H8Y18109   1.123   4.180  15.750
  151DOPC   C3918110   0.981   4.060  15.618
  151DOPC   H9X18111   0.904   4.150  15.597
  151DOPC  C31018112   0.986   3.946  15.532
  151DOPC  H10X18113   0.914   3.947  15.443
  151DOPC  C31118114   1.074   3.807  15.548
  151DOPC  H11X18115   1.001   3.709  15.542
  151DOPC  H11Y18116   1.128   3.799  15.648
  151DOPC  C31218117   1.196   3.794  15.443
  151DOPC  H12X18118   1.265   3.700  15.479
  151DOPC  H12Y18119   1.267   3.891  15.439
  151DOPC  C31318120   1.145   3.749  15.304
  151DOPC  H13X18121   1.242   3.695  15.255
  151DOPC  H13Y18122   1.058   3.665  15.322
  151DOPC  C31418123   1.089   3.860  15.201
  151DOPC  H14X18124   0.979   3.902  15.231
  151DOPC  H14Y18125   1.164   3.955  15.192
  151DOPC  C31518126   1.074   3.780  15.065
  151DOPC  H15X18127   1.185   3.746  15.030
  151DOPC  H15Y18128   1.026   3.857  14.990
  151DOPC  C31618129   0.975   3.643  15.078
  151DOPC  H16X18130   1.031   3.569  15.150
  151DOPC  H16Y18131   0.869   3.673  15.126
  151DOPC  C31718132   0.943   3.554  14.952
  151DOPC  H17X18133   1.048   3.513  14.912
  151DOPC  H17Y18134   0.873   3.457  14.976
  151DOPC  C31818135   0.873   3.644  14.841
  151DOPC  H18X18136   0.861   3.577  14.749
  151DOPC  H18Y18137   0.765   3.685  14.871
  151DOPC  H18Z18138   0.947   3.739  14.819
  152DOPC     N18139   4.335   1.538  16.855
  152DOPC   C1218140   4.382   1.416  16.762
  152DOPC  H12A18141   4.455   1.459  16.686
  152DOPC  H12B18142   4.286   1.371  16.713
  152DOPC   C1318143   4.462   1.598  16.933
  152DOPC  H13A18144   4.544   1.648  16.870
  152DOPC  H13B18145   4.424   1.681  17.004
  152DOPC  H13C18146   4.510   1.511  16.994
  152DOPC   C1418147   4.228   1.478  16.956
  152DOPC  H14A18148   4.199   1.559  17.030
  152DOPC  H14B18149   4.132   1.434  16.909
  152DOPC  H14C18150   4.282   1.386  17.006
  152DOPC   C1518151   4.264   1.660  16.782
  152DOPC  H15A18152   4.238   1.749  16.850
  152DOPC  H15B18153   4.160   1.624  16.739
  152DOPC  H15C18154   4.332   1.702  16.702
  152DOPC   C1118155   4.462   1.285  16.827
  152DOPC  H11A18156   4.501   1.215  16.741
  152DOPC  H11B18157   4.561   1.327  16.880
  152DOPC     P18158   4.443   1.048  16.956
  152DOPC   O1318159   4.356   0.976  17.062
  152DOPC   O1418160   4.600   1.084  16.985
  152DOPC   O1218161   4.368   1.201  16.916
  152DOPC   O1118162   4.425   0.956  16.820
  152DOPC    C118163   4.293   0.968  16.741
  152DOPC    HA18164   4.279   1.082  16.702
  152DOPC    HB18165   4.195   0.942  16.803
  152DOPC    C218166   4.289   0.865  16.615
  152DOPC    HS18167   4.302   0.750  16.653
  152DOPC   O2118168   4.409   0.900  16.525
  152DOPC   C2118169   4.422   0.816  16.417
  152DOPC   O2218170   4.347   0.710  16.389
  152DOPC   C2218171   4.545   0.875  16.328
  152DOPC   H2R18172   4.640   0.798  16.341
  152DOPC   H2S18173   4.579   0.986  16.360
  152DOPC    C318174   4.138   0.877  16.540
  152DOPC    HX18175   4.047   0.881  16.615
  152DOPC    HY18176   4.118   0.774  16.482
  152DOPC   O3118177   4.138   0.999  16.447
  152DOPC   C3118178   4.045   1.107  16.469
  152DOPC   O3218179   3.953   1.111  16.558
  152DOPC   C3218180   4.070   1.230  16.369
  152DOPC   H2X18181   4.121   1.183  16.277
  152DOPC   H2Y18182   3.963   1.278  16.341
  152DOPC   C2318183   4.494   0.873  16.182
  152DOPC   H3R18184   4.478   0.757  16.152
  152DOPC   H3S18185   4.578   0.921  16.115
  152DOPC   C2418186   4.347   0.955  16.163
  152DOPC   H4R18187   4.355   1.069  16.202
  152DOPC   H4S18188   4.257   0.898  16.218
  152DOPC   C2518189   4.302   0.965  16.016
  152DOPC   H5R18190   4.322   0.858  15.967
  152DOPC   H5S18191   4.381   1.042  15.971
  152DOPC   C2618192   4.145   1.020  15.997
  152DOPC   H6R18193   4.088   1.015  16.095
  152DOPC   H6S18194   4.080   0.950  15.927
  152DOPC   C2718195   4.141   1.175  15.939
  152DOPC   H7R18196   4.177   1.168  15.832
  152DOPC   H7S18197   4.227   1.241  15.992
  152DOPC   C2818198   3.991   1.251  15.946
  152DOPC   H8R18199   3.938   1.224  16.043
  152DOPC   H8S18200   3.919   1.205  15.866
  152DOPC   C2918201   4.012   1.415  15.933
  152DOPC   H9R18202   4.070   1.466  16.018
  152DOPC  C21018203   3.974   1.499  15.829
  152DOPC  H10R18204   3.999   1.618  15.833
  152DOPC  C21118205   3.903   1.450  15.701
  152DOPC  H11R18206   3.854   1.544  15.647
  152DOPC  H11S18207   3.812   1.373  15.723
  152DOPC  C21218208   4.011   1.371  15.606
  152DOPC  H12R18209   3.946   1.331  15.519
  152DOPC  H12S18210   4.059   1.273  15.655
  152DOPC  C21318211   4.136   1.466  15.550
  152DOPC  H13R18212   4.222   1.478  15.628
  152DOPC  H13S18213   4.095   1.576  15.519
  152DOPC  C21418214   4.207   1.388  15.432
  152DOPC  H14R18215   4.121   1.334  15.371
  152DOPC  H14S18216   4.275   1.303  15.481
  152DOPC  C21518217   4.308   1.478  15.342
  152DOPC  H15R18218   4.397   1.407  15.301
  152DOPC  H15S18219   4.361   1.565  15.402
  152DOPC  C21618220   4.219   1.540  15.226
  152DOPC  H16R18221   4.111   1.578  15.264
  152DOPC  H16S18222   4.198   1.452  15.151
  152DOPC  C21718223   4.298   1.666  15.160
  152DOPC  H17R18224   4.394   1.617  15.109
  152DOPC  H17S18225   4.336   1.741  15.241
  152DOPC  C21818226   4.206   1.755  15.060
  152DOPC  H18R18227   4.168   1.682  14.979
  152DOPC  H18S18228   4.273   1.845  15.016
  152DOPC  H18T18229   4.110   1.804  15.111
  152DOPC   C3318230   4.171   1.346  16.433
  152DOPC   H3X18231   4.268   1.291  16.479
  152DOPC   H3Y18232   4.110   1.403  16.514
  152DOPC   C3418233   4.230   1.459  16.331
  152DOPC   H4X18234   4.276   1.554  16.387
  152DOPC   H4Y18235   4.139   1.499  16.266
  152DOPC   C3518236   4.352   1.393  16.245
  152DOPC   H5X18237   4.303   1.312  16.174
  152DOPC   H5Y18238   4.429   1.330  16.310
  152DOPC   C3618239   4.438   1.509  16.168
  152DOPC   H6X18240   4.368   1.556  16.088
  152DOPC   H6Y18241   4.467   1.601  16.238
  152DOPC   C3718242   4.583   1.450  16.107
  152DOPC   H7X18243   4.645   1.546  16.067
  152DOPC   H7Y18244   4.650   1.396  16.186
  152DOPC   C3818245   4.554   1.340  15.994
  152DOPC   H8X18246   4.463   1.385  15.932
  152DOPC   H8Y18247   4.511   1.236  16.038
  152DOPC   C3918248   4.689   1.309  15.910
  152DOPC   H9X18249   4.792   1.297  15.966
  152DOPC  C31018250   4.690   1.291  15.776
  152DOPC  H10X18251   4.793   1.261  15.725
  152DOPC  C31118252   4.554   1.300  15.691
  152DOPC  H11X18253   4.579   1.313  15.583
  152DOPC  H11Y18254   4.486   1.397  15.720
  152DOPC  C31218255   4.459   1.162  15.716
  152DOPC  H12X18256   4.347   1.180  15.676
  152DOPC  H12Y18257   4.444   1.152  15.824
  152DOPC  C31318258   4.522   1.016  15.661
  152DOPC  H13X18259   4.621   0.984  15.719
  152DOPC  H13Y18260   4.438   0.930  15.675
  152DOPC  C31418261   4.564   1.026  15.513
  152DOPC  H14X18262   4.650   1.112  15.502
  152DOPC  H14Y18263   4.612   0.923  15.475
  152DOPC  C31518264   4.433   1.067  15.425
  152DOPC  H15X18265   4.474   1.151  15.353
  152DOPC  H15Y18266   4.345   1.114  15.486
  152DOPC  C31618267   4.359   0.938  15.353
  152DOPC  H16X18268   4.445   0.881  15.295
  152DOPC  H16Y18269   4.322   0.860  15.431
  152DOPC  C31718270   4.228   0.976  15.261
  152DOPC  H17X18271   4.221   0.883  15.188
  152DOPC  H17Y18272   4.125   0.974  15.320
  152DOPC  C31818273   4.237   1.122  15.185
  152DOPC  H18X18274   4.145   1.196  15.213
  152DOPC  H18Y18275   4.342   1.181  15.202
  152DOPC  H18Z18276   4.233   1.105  15.076
  153DOPC     N18277   5.841   7.016  17.068
  153DOPC   C1218278   5.984   7.068  17.001
  153DOPC  H12A18279   6.065   7.095  17.076
  153DOPC  H12B18280   5.965   7.167  16.942
  153DOPC   C1318281   5.856   6.854  17.099
  153DOPC  H13A18282   5.755   6.799  17.122
  153DOPC  H13B18283   5.896   6.802  17.005
  153DOPC  H13C18284   5.939   6.831  17.174
  153DOPC   C1418285   5.720   7.027  16.966
  153DOPC  H14A18286   5.693   7.139  16.941
  153DOPC  H14B18287   5.761   6.976  16.874
  153DOPC  H14C18288   5.623   6.967  16.998
  153DOPC   C1518289   5.811   7.110  17.186
  153DOPC  H15A18290   5.888   7.085  17.266
  153DOPC  H15B18291   5.700   7.103  17.222
  153DOPC  H15C18292   5.828   7.226  17.160
  153DOPC   C1118293   6.062   6.961  16.905
  153DOPC  H11A18294   6.140   7.025  16.841
  153DOPC  H11B18295   6.130   6.884  16.967
  153DOPC     P18296   6.026   6.754  16.739
  153DOPC   O1318297   6.070   6.640  16.836
  153DOPC   O1418298   6.138   6.819  16.651
  153DOPC   O1218299   5.959   6.886  16.822
  153DOPC   O1118300   5.884   6.702  16.659
  153DOPC    C118301   5.893   6.599  16.553
  153DOPC    HA18302   5.781   6.582  16.511
  153DOPC    HB18303   5.928   6.490  16.592
  153DOPC    C218304   5.996   6.647  16.437
  153DOPC    HS18305   6.109   6.665  16.476
  153DOPC   O2118306   5.944   6.780  16.373
  153DOPC   C2118307   6.041   6.846  16.291
  153DOPC   O2218308   6.164   6.802  16.266
  153DOPC   C2218309   5.963   6.979  16.225
  153DOPC   H2R18310   5.951   7.063  16.304
  153DOPC   H2S18311   5.852   6.944  16.193
  153DOPC    C318312   6.004   6.515  16.340
  153DOPC    HX18313   6.029   6.420  16.406
  153DOPC    HY18314   6.097   6.529  16.270
  153DOPC   O3118315   5.865   6.488  16.273
  153DOPC   C3118316   5.832   6.580  16.174
  153DOPC   O3218317   5.912   6.667  16.119
  153DOPC   C3218318   5.679   6.554  16.122
  153DOPC   H2X18319   5.668   6.434  16.123
  153DOPC   H2Y18320   5.600   6.609  16.189
  153DOPC   C2318321   6.037   7.050  16.099
  153DOPC   H3R18322   6.021   6.974  16.013
  153DOPC   H3S18323   6.157   7.062  16.112
  153DOPC   C2418324   5.966   7.201  16.066
  153DOPC   H4R18325   5.992   7.281  16.146
  153DOPC   H4S18326   5.845   7.190  16.069
  153DOPC   C2518327   6.010   7.270  15.931
  153DOPC   H5R18328   6.128   7.303  15.931
  153DOPC   H5S18329   5.943   7.371  15.915
  153DOPC   C2618330   5.982   7.165  15.814
  153DOPC   H6R18331   6.067   7.076  15.817
  153DOPC   H6S18332   5.998   7.224  15.717
  153DOPC   C2718333   5.828   7.097  15.818
  153DOPC   H7R18334   5.745   7.186  15.805
  153DOPC   H7S18335   5.805   7.042  15.915
  153DOPC   C2818336   5.806   6.982  15.709
  153DOPC   H8R18337   5.838   7.037  15.613
  153DOPC   H8S18338   5.688   6.954  15.699
  153DOPC   C2918339   5.896   6.845  15.739
  153DOPC   H9R18340   5.874   6.791  15.836
  153DOPC  C21018341   6.002   6.793  15.660
  153DOPC  H10R18342   6.065   6.695  15.691
  153DOPC  C21118343   6.041   6.865  15.530
  153DOPC  H11R18344   6.152   6.831  15.496
  153DOPC  H11S18345   6.052   6.985  15.547
  153DOPC  C21218346   5.922   6.843  15.421
  153DOPC  H12R18347   5.951   6.913  15.334
  153DOPC  H12S18348   5.813   6.882  15.457
  153DOPC  C21318349   5.903   6.685  15.373
  153DOPC  H13R18350   5.834   6.681  15.281
  153DOPC  H13S18351   5.847   6.618  15.451
  153DOPC  C21418352   6.051   6.615  15.345
  153DOPC  H14R18353   6.130   6.625  15.429
  153DOPC  H14S18354   6.100   6.669  15.255
  153DOPC  C21518355   6.041   6.453  15.320
  153DOPC  H15R18356   5.931   6.421  15.285
  153DOPC  H15S18357   6.068   6.392  15.414
  153DOPC  C21618358   6.150   6.425  15.209
  153DOPC  H16R18359   6.249   6.470  15.260
  153DOPC  H16S18360   6.125   6.501  15.125
  153DOPC  C21718361   6.164   6.267  15.162
  153DOPC  H17R18362   6.271   6.241  15.114
  153DOPC  H17S18363   6.092   6.246  15.076
  153DOPC  C21818364   6.137   6.158  15.274
  153DOPC  H18R18365   6.126   6.044  15.233
  153DOPC  H18S18366   6.036   6.176  15.331
  153DOPC  H18T18367   6.234   6.164  15.342
  153DOPC   C3318368   5.678   6.614  15.976
  153DOPC   H3X18369   5.760   6.549  15.917
  153DOPC   H3Y18370   5.715   6.731  15.976
  153DOPC   C3418371   5.534   6.618  15.897
  153DOPC   H4X18372   5.462   6.707  15.935
  153DOPC   H4Y18373   5.472   6.513  15.901
  153DOPC   C3518374   5.566   6.664  15.752
  153DOPC   H5X18375   5.678   6.640  15.718
  153DOPC   H5Y18376   5.559   6.785  15.748
  153DOPC   C3618377   5.453   6.612  15.650
  153DOPC   H6X18378   5.436   6.491  15.646
  153DOPC   H6Y18379   5.347   6.659  15.683
  153DOPC   C3718380   5.496   6.677  15.515
  153DOPC   H7X18381   5.431   6.779  15.502
  153DOPC   H7Y18382   5.613   6.712  15.519
  153DOPC   C3818383   5.481   6.574  15.395
  153DOPC   H8X18384   5.537   6.472  15.419
  153DOPC   H8Y18385   5.547   6.620  15.312
  153DOPC   C3918386   5.331   6.526  15.356
  153DOPC   H9X18387   5.260   6.487  15.438
  153DOPC  C31018388   5.280   6.518  15.231
  153DOPC  H10X18389   5.174   6.466  15.213
  153DOPC  C31118390   5.366   6.549  15.109
  153DOPC  H11X18391   5.337   6.458  15.041
  153DOPC  H11Y18392   5.484   6.540  15.137
  153DOPC  C31218393   5.357   6.676  15.008
  153DOPC  H12X18394   5.332   6.785  15.051
  153DOPC  H12Y18395   5.270   6.647  14.934
  153DOPC  C31318396   5.512   6.670  14.947
  153DOPC  H13X18397   5.585   6.697  15.032
  153DOPC  H13Y18398   5.547   6.558  14.923
  153DOPC  C31418399   5.545   6.772  14.832
  153DOPC  H14X18400   5.602   6.709  14.751
  153DOPC  H14Y18401   5.441   6.815  14.789
  153DOPC  C31518402   5.636   6.903  14.879
  153DOPC  H15X18403   5.553   6.970  14.934
  153DOPC  H15Y18404   5.676   6.964  14.791
  153DOPC  C31618405   5.771   6.881  14.974
  153DOPC  H16X18406   5.744   6.826  15.068
  153DOPC  H16Y18407   5.855   6.808  14.932
  153DOPC  C31718408   5.835   7.030  15.014
  153DOPC  H17X18409   5.865   7.029  15.122
  153DOPC  H17Y18410   5.939   7.049  14.958
  153DOPC  C31818411   5.732   7.159  14.988
  153DOPC  H18X18412   5.636   7.161  15.056
  153DOPC  H18Y18413   5.797   7.257  15.000
  153DOPC  H18Z18414   5.694   7.167  14.883
  154DOPC     N18415   7.613   4.158  17.047
  154DOPC   C1218416   7.527   4.273  16.969
  154DOPC  H12A18417   7.594   4.369  16.950
  154DOPC  H12B18418   7.435   4.311  17.030
  154DOPC   C1318419   7.674   4.228  17.170
  154DOPC  H13A18420   7.715   4.144  17.237
  154DOPC  H13B18421   7.757   4.310  17.146
  154DOPC  H13C18422   7.588   4.286  17.225
  154DOPC   C1418423   7.734   4.088  16.964
  154DOPC  H14A18424   7.820   4.164  16.932
  154DOPC  H14B18425   7.790   3.996  17.012
  154DOPC  H14C18426   7.690   4.040  16.871
  154DOPC   C1518427   7.512   4.036  17.087
  154DOPC  H15A18428   7.415   4.080  17.134
  154DOPC  H15B18429   7.564   3.958  17.155
  154DOPC  H15C18430   7.475   3.975  16.999
  154DOPC   C1118431   7.453   4.223  16.840
  154DOPC  H11A18432   7.433   4.320  16.775
  154DOPC  H11B18433   7.531   4.149  16.785
  154DOPC     P18434   7.228   4.095  16.743
  154DOPC   O1318435   7.187   4.220  16.655
  154DOPC   O1418436   7.115   3.985  16.780
  154DOPC   O1218437   7.315   4.151  16.872
  154DOPC   O1118438   7.360   4.007  16.680
  154DOPC    C118439   7.415   3.876  16.744
  154DOPC    HA18440   7.334   3.825  16.814
  154DOPC    HB18441   7.516   3.897  16.804
  154DOPC    C218442   7.443   3.762  16.634
  154DOPC    HS18443   7.470   3.656  16.684
  154DOPC   O2118444   7.562   3.791  16.544
  154DOPC   C2118445   7.616   3.924  16.546
  154DOPC   O2218446   7.668   3.989  16.641
  154DOPC   C2218447   7.600   3.990  16.407
  154DOPC   H2R18448   7.644   4.103  16.411
  154DOPC   H2S18449   7.481   3.995  16.387
  154DOPC    C318450   7.293   3.751  16.557
  154DOPC    HX18451   7.214   3.824  16.609
  154DOPC    HY18452   7.237   3.645  16.572
  154DOPC   O3118453   7.302   3.807  16.421
  154DOPC   C3118454   7.196   3.755  16.345
  154DOPC   O3218455   7.135   3.638  16.360
  154DOPC   C3218456   7.149   3.872  16.244
  154DOPC   H2X18457   7.108   3.970  16.300
  154DOPC   H2Y18458   7.241   3.908  16.180
  154DOPC   C2318459   7.679   3.900  16.299
  154DOPC   H3R18460   7.622   3.792  16.287
  154DOPC   H3S18461   7.795   3.875  16.330
  154DOPC   C2418462   7.684   3.983  16.167
  154DOPC   H4R18463   7.715   3.906  16.086
  154DOPC   H4S18464   7.767   4.071  16.174
  154DOPC   C2518465   7.542   4.060  16.126
  154DOPC   H5R18466   7.509   4.146  16.200
  154DOPC   H5S18467   7.451   3.978  16.120
  154DOPC   C2618468   7.567   4.132  15.990
  154DOPC   H6R18469   7.646   4.061  15.932
  154DOPC   H6S18470   7.619   4.242  16.002
  154DOPC   C2718471   7.427   4.141  15.907
  154DOPC   H7R18472   7.349   4.214  15.961
  154DOPC   H7S18473   7.374   4.031  15.901
  154DOPC   C2818474   7.456   4.203  15.765
  154DOPC   H8R18475   7.510   4.312  15.773
  154DOPC   H8S18476   7.345   4.224  15.722
  154DOPC   C2918477   7.536   4.106  15.668
  154DOPC   H9R18478   7.656   4.125  15.657
  154DOPC  C21018479   7.468   4.003  15.597
  154DOPC  H10R18480   7.530   3.938  15.522
  154DOPC  C21118481   7.305   3.973  15.608
  154DOPC  H11R18482   7.240   4.074  15.586
  154DOPC  H11S18483   7.275   3.940  15.712
  154DOPC  C21218484   7.251   3.850  15.514
  154DOPC  H12R18485   7.280   3.880  15.409
  154DOPC  H12S18486   7.130   3.841  15.521
  154DOPC  C21318487   7.319   3.702  15.550
  154DOPC  H13R18488   7.300   3.677  15.657
  154DOPC  H13S18489   7.439   3.711  15.537
  154DOPC  C21418490   7.269   3.572  15.464
  154DOPC  H14R18491   7.151   3.547  15.485
  154DOPC  H14S18492   7.333   3.473  15.495
  154DOPC  C21518493   7.290   3.596  15.313
  154DOPC  H15R18494   7.321   3.488  15.266
  154DOPC  H15S18495   7.381   3.674  15.293
  154DOPC  C21618496   7.148   3.649  15.246
  154DOPC  H16R18497   7.120   3.761  15.283
  154DOPC  H16S18498   7.059   3.573  15.276
  154DOPC  C21718499   7.153   3.653  15.094
  154DOPC  H17R18500   7.181   3.540  15.059
  154DOPC  H17S18501   7.241   3.728  15.061
  154DOPC  C21818502   7.007   3.704  15.034
  154DOPC  H18R18503   6.917   3.632  15.069
  154DOPC  H18S18504   7.010   3.698  14.923
  154DOPC  H18T18505   6.984   3.819  15.063
  154DOPC   C3318506   7.024   3.806  16.161
  154DOPC   H3X18507   6.951   3.733  16.223
  154DOPC   H3Y18508   7.068   3.735  16.079
  154DOPC   C3418509   6.922   3.925  16.110
  154DOPC   H4X18510   6.895   4.004  16.191
  154DOPC   H4Y18511   6.816   3.880  16.078
  154DOPC   C3518512   6.979   4.002  15.986
  154DOPC   H5X18513   7.008   3.917  15.909
  154DOPC   H5Y18514   7.080   4.066  16.010
  154DOPC   C3618515   6.856   4.099  15.933
  154DOPC   H6X18516   6.754   4.034  15.919
  154DOPC   H6Y18517   6.832   4.183  16.010
  154DOPC   C3718518   6.890   4.172  15.800
  154DOPC   H7X18519   7.007   4.209  15.799
  154DOPC   H7Y18520   6.877   4.091  15.718
  154DOPC   C3818521   6.786   4.303  15.783
  154DOPC   H8X18522   6.771   4.355  15.883
  154DOPC   H8Y18523   6.676   4.259  15.754
  154DOPC   C3918524   6.837   4.422  15.690
  154DOPC   H9X18525   6.897   4.511  15.738
  154DOPC  C31018526   6.835   4.417  15.557
  154DOPC  H10X18527   6.875   4.511  15.500
  154DOPC  C31118528   6.783   4.288  15.476
  154DOPC  H11X18529   6.727   4.324  15.383
  154DOPC  H11Y18530   6.704   4.217  15.532
  154DOPC  C31218531   6.920   4.197  15.443
  154DOPC  H12X18532   6.884   4.103  15.380
  154DOPC  H12Y18533   6.970   4.150  15.535
  154DOPC  C31318534   7.042   4.276  15.365
  154DOPC  H13X18535   6.992   4.339  15.282
  154DOPC  H13Y18536   7.103   4.352  15.432
  154DOPC  C31418537   7.146   4.158  15.309
  154DOPC  H14X18538   7.210   4.112  15.391
  154DOPC  H14Y18539   7.074   4.069  15.269
  154DOPC  C31518540   7.251   4.201  15.197
  154DOPC  H15X18541   7.346   4.265  15.238
  154DOPC  H15Y18542   7.193   4.271  15.123
  154DOPC  C31618543   7.303   4.059  15.129
  154DOPC  H16X18544   7.254   3.962  15.180
  154DOPC  H16Y18545   7.257   4.057  15.027
  154DOPC  C31718546   7.469   4.035  15.123
  154DOPC  H17X18547   7.526   4.139  15.099
  154DOPC  H17Y18548   7.505   4.000  15.225
  154DOPC  C31818549   7.509   3.919  15.018
  154DOPC  H18X18550   7.515   3.969  14.917
  154DOPC  H18Y18551   7.615   3.864  15.039
  154DOPC  H18Z18552   7.423   3.832  15.013
  155DOPC     N18553   2.025   1.929  16.790
  155DOPC   C1218554   2.138   1.877  16.892
  155DOPC  H12A18555   2.208   1.967  16.925
  155DOPC  H12B18556   2.214   1.800  16.842
  155DOPC   C1318557   1.902   2.012  16.858
  155DOPC  H13A18558   1.848   1.938  16.928
  155DOPC  H13B18559   1.942   2.105  16.915
  155DOPC  H13C18560   1.822   2.052  16.786
  155DOPC   C1418561   1.968   1.792  16.724
  155DOPC  H14A18562   1.938   1.712  16.801
  155DOPC  H14B18563   1.877   1.809  16.659
  155DOPC  H14C18564   2.056   1.738  16.670
  155DOPC   C1518565   2.091   2.030  16.688
  155DOPC  H15A18566   2.168   1.972  16.625
  155DOPC  H15B18567   2.146   2.123  16.735
  155DOPC  H15C18568   2.005   2.075  16.625
  155DOPC   C1118569   2.080   1.794  17.018
  155DOPC  H11A18570   2.176   1.779  17.087
  155DOPC  H11B18571   2.004   1.869  17.073
  155DOPC     P18572   2.105   1.513  16.966
  155DOPC   O1318573   2.008   1.394  16.915
  155DOPC   O1418574   2.188   1.482  17.092
  155DOPC   O1218575   2.008   1.657  16.990
  155DOPC   O1118576   2.217   1.572  16.853
  155DOPC    C118577   2.274   1.482  16.748
  155DOPC    HA18578   2.187   1.459  16.673
  155DOPC    HB18579   2.311   1.373  16.789
  155DOPC    C218580   2.410   1.552  16.674
  155DOPC    HS18581   2.494   1.575  16.752
  155DOPC   O2118582   2.367   1.687  16.607
  155DOPC   C2118583   2.476   1.773  16.563
  155DOPC   O2218584   2.607   1.747  16.565
  155DOPC   C2218585   2.411   1.926  16.541
  155DOPC   H2R18586   2.430   1.988  16.635
  155DOPC   H2S18587   2.292   1.914  16.521
  155DOPC    C318588   2.483   1.444  16.571
  155DOPC    HX18589   2.511   1.342  16.627
  155DOPC    HY18590   2.589   1.487  16.534
  155DOPC   O3118591   2.383   1.405  16.466
  155DOPC   C3118592   2.394   1.478  16.352
  155DOPC   O3218593   2.477   1.578  16.326
  155DOPC   C3218594   2.277   1.421  16.254
  155DOPC   H2X18595   2.324   1.434  16.152
  155DOPC   H2Y18596   2.256   1.302  16.272
  155DOPC   C2318597   2.479   2.010  16.423
  155DOPC   H3R18598   2.598   1.982  16.410
  155DOPC   H3S18599   2.469   2.131  16.438
  155DOPC   C2418600   2.395   1.972  16.295
  155DOPC   H4R18601   2.279   2.010  16.303
  155DOPC   H4S18602   2.398   1.850  16.283
  155DOPC   C2518603   2.466   2.038  16.172
  155DOPC   H5R18604   2.573   1.981  16.160
  155DOPC   H5S18605   2.485   2.158  16.186
  155DOPC   C2618606   2.379   2.014  16.044
  155DOPC   H6R18607   2.409   2.103  15.973
  155DOPC   H6S18608   2.259   2.020  16.062
  155DOPC   C2718609   2.423   1.867  15.981
  155DOPC   H7R18610   2.412   1.778  16.057
  155DOPC   H7S18611   2.540   1.871  15.952
  155DOPC   C2818612   2.328   1.826  15.860
  155DOPC   H8R18613   2.215   1.826  15.897
  155DOPC   H8S18614   2.355   1.714  15.826
  155DOPC   C2918615   2.320   1.937  15.751
  155DOPC   H9R18616   2.322   2.053  15.783
  155DOPC  C21018617   2.307   1.909  15.620
  155DOPC  H10R18618   2.298   2.001  15.550
  155DOPC  C21118619   2.298   1.760  15.557
  155DOPC  H11R18620   2.199   1.763  15.492
  155DOPC  H11S18621   2.284   1.671  15.632
  155DOPC  C21218622   2.430   1.720  15.471
  155DOPC  H12R18623   2.423   1.602  15.444
  155DOPC  H12S18624   2.531   1.736  15.532
  155DOPC  C21318625   2.435   1.814  15.344
  155DOPC  H13R18626   2.545   1.808  15.297
  155DOPC  H13S18627   2.422   1.931  15.375
  155DOPC  C21418628   2.316   1.779  15.241
  155DOPC  H14R18629   2.287   1.885  15.191
  155DOPC  H14S18630   2.213   1.737  15.288
  155DOPC  C21518631   2.363   1.673  15.128
  155DOPC  H15R18632   2.468   1.718  15.093
  155DOPC  H15S18633   2.281   1.680  15.046
  155DOPC  C21618634   2.379   1.510  15.169
  155DOPC  H16R18635   2.321   1.498  15.265
  155DOPC  H16S18636   2.492   1.474  15.191
  155DOPC  C21718637   2.329   1.391  15.070
  155DOPC  H17R18638   2.209   1.403  15.052
  155DOPC  H17S18639   2.353   1.286  15.123
  155DOPC  C21818640   2.404   1.375  14.934
  155DOPC  H18R18641   2.374   1.467  14.866
  155DOPC  H18S18642   2.365   1.272  14.890
  155DOPC  H18T18643   2.525   1.366  14.944
  155DOPC   C3318644   2.133   1.511  16.262
  155DOPC   H3X18645   2.070   1.485  16.354
  155DOPC   H3Y18646   2.064   1.482  16.174
  155DOPC   C3418647   2.168   1.675  16.258
  155DOPC   H4X18648   2.264   1.690  16.190
  155DOPC   H4Y18649   2.201   1.713  16.360
  155DOPC   C3518650   2.049   1.779  16.204
  155DOPC   H5X18651   2.098   1.892  16.207
  155DOPC   H5Y18652   1.949   1.779  16.268
  155DOPC   C3618653   2.009   1.747  16.059
  155DOPC   H6X18654   2.105   1.707  16.004
  155DOPC   H6Y18655   1.934   1.652  16.053
  155DOPC   C3718656   1.931   1.881  16.000
  155DOPC   H7X18657   1.818   1.860  16.039
  155DOPC   H7Y18658   1.973   1.984  16.045
  155DOPC   C3818659   1.921   1.904  15.848
  155DOPC   H8X18660   2.032   1.898  15.804
  155DOPC   H8Y18661   1.879   2.016  15.826
  155DOPC   C3918662   1.815   1.791  15.798
  155DOPC   H9X18663   1.698   1.808  15.822
  155DOPC  C31018664   1.852   1.672  15.727
  155DOPC  H10X18665   1.769   1.588  15.715
  155DOPC  C31118666   2.004   1.631  15.685
  155DOPC  H11X18667   2.066   1.573  15.765
  155DOPC  H11Y18668   2.062   1.736  15.666
  155DOPC  C31218669   2.004   1.541  15.555
  155DOPC  H12X18670   2.080   1.588  15.480
  155DOPC  H12Y18671   1.894   1.547  15.506
  155DOPC  C31318672   2.054   1.383  15.577
  155DOPC  H13X18673   2.176   1.381  15.593
  155DOPC  H13Y18674   2.005   1.340  15.671
  155DOPC  C31418675   2.012   1.288  15.457
  155DOPC  H14X18676   2.005   1.170  15.486
  155DOPC  H14Y18677   1.901   1.322  15.420
  155DOPC  C31518678   2.121   1.308  15.343
  155DOPC  H15X18679   2.229   1.257  15.372
  155DOPC  H15Y18680   2.136   1.426  15.323
  155DOPC  C31618681   2.067   1.238  15.215
  155DOPC  H16X18682   2.160   1.205  15.152
  155DOPC  H16Y18683   2.027   1.130  15.250
  155DOPC  C31718684   1.946   1.318  15.133
  155DOPC  H17X18685   1.943   1.262  15.034
  155DOPC  H17Y18686   1.842   1.291  15.187
  155DOPC  C31818687   1.933   1.484  15.107
  155DOPC  H18X18688   1.819   1.506  15.067
  155DOPC  H18Y18689   1.943   1.546  15.202
  155DOPC  H18Z18690   2.011   1.527  15.032
  156DOPC     N18691   6.709   6.229  16.984
  156DOPC   C1218692   6.823   6.311  16.899
  156DOPC  H12A18693   6.791   6.301  16.795
  156DOPC  H12B18694   6.929   6.258  16.910
  156DOPC   C1318695   6.724   6.065  16.965
  156DOPC  H13A18696   6.641   6.009  17.022
  156DOPC  H13B18697   6.716   6.030  16.861
  156DOPC  H13C18698   6.830   6.028  17.004
  156DOPC   C1418699   6.556   6.273  16.942
  156DOPC  H14A18700   6.552   6.394  16.932
  156DOPC  H14B18701   6.525   6.227  16.846
  156DOPC  H14C18702   6.475   6.238  17.014
  156DOPC   C1518703   6.732   6.265  17.130
  156DOPC  H15A18704   6.646   6.222  17.195
  156DOPC  H15B18705   6.731   6.383  17.145
  156DOPC  H15C18706   6.835   6.223  17.168
  156DOPC   C1118707   6.844   6.478  16.922
  156DOPC  H11A18708   6.888   6.498  17.024
  156DOPC  H11B18709   6.931   6.519  16.851
  156DOPC     P18710   6.681   6.685  16.807
  156DOPC   O1318711   6.793   6.799  16.838
  156DOPC   O1418712   6.525   6.730  16.813
  156DOPC   O1218713   6.707   6.553  16.908
  156DOPC   O1118714   6.727   6.606  16.671
  156DOPC    C118715   6.632   6.505  16.605
  156DOPC    HA18716   6.562   6.565  16.533
  156DOPC    HB18717   6.558   6.449  16.678
  156DOPC    C218718   6.716   6.381  16.527
  156DOPC    HS18719   6.802   6.336  16.594
  156DOPC   O2118720   6.782   6.436  16.406
  156DOPC   C2118721   6.860   6.338  16.334
  156DOPC   O2218722   6.885   6.212  16.367
  156DOPC   C2218723   6.937   6.418  16.220
  156DOPC   H2R18724   7.052   6.383  16.233
  156DOPC   H2S18725   6.927   6.540  16.234
  156DOPC    C318726   6.601   6.259  16.498
  156DOPC    HX18727   6.569   6.211  16.596
  156DOPC    HY18728   6.653   6.168  16.441
  156DOPC   O3118729   6.470   6.315  16.435
  156DOPC   C3118730   6.467   6.316  16.301
  156DOPC   O3218731   6.563   6.266  16.230
  156DOPC   C3218732   6.319   6.379  16.252
  156DOPC   H2X18733   6.239   6.356  16.333
  156DOPC   H2Y18734   6.336   6.500  16.242
  156DOPC   C2318735   6.907   6.372  16.076
  156DOPC   H3R18736   6.911   6.251  16.073
  156DOPC   H3S18737   6.998   6.413  16.011
  156DOPC   C2418738   6.763   6.425  16.014
  156DOPC   H4R18739   6.777   6.534  15.964
  156DOPC   H4S18740   6.676   6.439  16.091
  156DOPC   C2518741   6.714   6.309  15.912
  156DOPC   H5R18742   6.599   6.327  15.880
  156DOPC   H5S18743   6.717   6.199  15.960
  156DOPC   C2618744   6.813   6.309  15.788
  156DOPC   H6R18745   6.931   6.291  15.815
  156DOPC   H6S18746   6.805   6.420  15.742
  156DOPC   C2718747   6.766   6.189  15.689
  156DOPC   H7R18748   6.644   6.194  15.681
  156DOPC   H7S18749   6.794   6.080  15.732
  156DOPC   C2818750   6.835   6.203  15.550
  156DOPC   H8R18751   6.794   6.113  15.486
  156DOPC   H8S18752   6.956   6.190  15.557
  156DOPC   C2918753   6.796   6.351  15.495
  156DOPC   H9R18754   6.878   6.438  15.508
  156DOPC  C21018755   6.668   6.385  15.436
  156DOPC  H10R18756   6.651   6.497  15.398
  156DOPC  C21118757   6.541   6.285  15.413
  156DOPC  H11R18758   6.438   6.349  15.398
  156DOPC  H11S18759   6.518   6.215  15.500
  156DOPC  C21218760   6.573   6.186  15.291
  156DOPC  H12R18761   6.476   6.118  15.287
  156DOPC  H12S18762   6.667   6.112  15.308
  156DOPC  C21318763   6.587   6.262  15.155
  156DOPC  H13R18764   6.554   6.185  15.075
  156DOPC  H13S18765   6.702   6.290  15.145
  156DOPC  C21418766   6.502   6.405  15.146
  156DOPC  H14R18767   6.549   6.491  15.211
  156DOPC  H14S18768   6.405   6.371  15.200
  156DOPC  C21518769   6.457   6.466  15.009
  156DOPC  H15R18770   6.370   6.393  14.967
  156DOPC  H15S18771   6.550   6.464  14.937
  156DOPC  C21618772   6.399   6.625  15.018
  156DOPC  H16R18773   6.492   6.704  15.007
  156DOPC  H16S18774   6.350   6.643  15.119
  156DOPC  C21718775   6.285   6.661  14.910
  156DOPC  H17R18776   6.192   6.723  14.953
  156DOPC  H17S18777   6.244   6.554  14.872
  156DOPC  C21818778   6.347   6.743  14.791
  156DOPC  H18R18779   6.451   6.691  14.767
  156DOPC  H18S18780   6.366   6.862  14.811
  156DOPC  H18T18781   6.279   6.729  14.701
  156DOPC   C3318782   6.260   6.312  16.119
  156DOPC   H3X18783   6.194   6.212  16.143
  156DOPC   H3Y18784   6.355   6.278  16.056
  156DOPC   C3418785   6.153   6.397  16.026
  156DOPC   H4X18786   6.042   6.410  16.071
  156DOPC   H4Y18787   6.138   6.322  15.939
  156DOPC   C3518788   6.207   6.542  15.967
  156DOPC   H5X18789   6.228   6.622  16.048
  156DOPC   H5Y18790   6.117   6.588  15.904
  156DOPC   C3618791   6.345   6.516  15.882
  156DOPC   H6X18792   6.432   6.470  15.947
  156DOPC   H6Y18793   6.321   6.434  15.802
  156DOPC   C3718794   6.405   6.656  15.817
  156DOPC   H7X18795   6.318   6.709  15.755
  156DOPC   H7Y18796   6.434   6.733  15.900
  156DOPC   C3818797   6.542   6.624  15.732
  156DOPC   H8X18798   6.510   6.556  15.644
  156DOPC   H8Y18799   6.619   6.555  15.791
  156DOPC   C3918800   6.618   6.765  15.696
  156DOPC   H9X18801   6.696   6.807  15.772
  156DOPC  C31018802   6.598   6.843  15.584
  156DOPC  H10X18803   6.655   6.949  15.572
  156DOPC  C31118804   6.494   6.804  15.472
  156DOPC  H11X18805   6.392   6.870  15.483
  156DOPC  H11Y18806   6.459   6.687  15.476
  156DOPC  C31218807   6.563   6.831  15.333
  156DOPC  H12X18808   6.562   6.951  15.311
  156DOPC  H12Y18809   6.488   6.778  15.259
  156DOPC  C31318810   6.722   6.775  15.315
  156DOPC  H13X18811   6.801   6.866  15.333
  156DOPC  H13Y18812   6.745   6.691  15.392
  156DOPC  C31418813   6.754   6.706  15.177
  156DOPC  H14X18814   6.651   6.658  15.141
  156DOPC  H14Y18815   6.785   6.790  15.104
  156DOPC  C31518816   6.870   6.579  15.181
  156DOPC  H15X18817   6.847   6.508  15.268
  156DOPC  H15Y18818   6.981   6.628  15.194
  156DOPC  C31618819   6.870   6.482  15.056
  156DOPC  H16X18820   6.757   6.450  15.026
  156DOPC  H16Y18821   6.906   6.557  14.975
  156DOPC  C31718822   6.972   6.345  15.056
  156DOPC  H17X18823   6.961   6.302  14.952
  156DOPC  H17Y18824   7.086   6.387  15.070
  156DOPC  C31818825   6.952   6.210  15.147
  156DOPC  H18X18826   6.918   6.241  15.250
  156DOPC  H18Y18827   6.868   6.132  15.106
  156DOPC  H18Z18828   7.056   6.146  15.154
  157DOPC     N18829   6.602   1.992  16.922
  157DOPC   C1218830   6.659   1.902  16.804
  157DOPC  H12A18831   6.743   1.962  16.750
  157DOPC  H12B18832   6.568   1.890  16.736
  157DOPC   C1318833   6.688   1.956  17.046
  157DOPC  H13A18834   6.802   1.984  17.035
  157DOPC  H13B18835   6.641   2.011  17.132
  157DOPC  H13C18836   6.680   1.838  17.063
  157DOPC   C1418837   6.445   1.951  16.949
  157DOPC  H14A18838   6.435   1.832  16.954
  157DOPC  H14B18839   6.407   2.000  17.043
  157DOPC  H14C18840   6.371   1.988  16.871
  157DOPC   C1518841   6.609   2.155  16.898
  157DOPC  H15A18842   6.531   2.189  16.821
  157DOPC  H15B18843   6.718   2.190  16.869
  157DOPC  H15C18844   6.577   2.212  16.989
  157DOPC   C1118845   6.717   1.741  16.823
  157DOPC  H11A18846   6.758   1.702  16.724
  157DOPC  H11B18847   6.812   1.740  16.892
  157DOPC     P18848   6.632   1.471  16.878
  157DOPC   O1318849   6.531   1.412  16.982
  157DOPC   O1418850   6.790   1.451  16.901
  157DOPC   O1218851   6.603   1.646  16.870
  157DOPC   O1118852   6.589   1.411  16.732
  157DOPC    C118853   6.487   1.498  16.657
  157DOPC    HA18854   6.525   1.615  16.647
  157DOPC    HB18855   6.379   1.497  16.710
  157DOPC    C218856   6.455   1.445  16.511
  157DOPC    HS18857   6.443   1.324  16.512
  157DOPC   O2118858   6.570   1.488  16.420
  157DOPC   C2118859   6.555   1.453  16.292
  157DOPC   O2218860   6.454   1.389  16.239
  157DOPC   C2218861   6.690   1.511  16.223
  157DOPC   H2R18862   6.783   1.452  16.271
  157DOPC   H2S18863   6.706   1.629  16.246
  157DOPC    C318864   6.309   1.520  16.468
  157DOPC    HX18865   6.228   1.505  16.550
  157DOPC    HY18866   6.263   1.464  16.380
  157DOPC   O3118867   6.336   1.673  16.433
  157DOPC   C3118868   6.277   1.774  16.509
  157DOPC   O3218869   6.192   1.755  16.601
  157DOPC   C3218870   6.336   1.925  16.464
  157DOPC   H2X18871   6.365   1.921  16.357
  157DOPC   H2Y18872   6.247   2.005  16.480
  157DOPC   C2318873   6.682   1.491  16.071
  157DOPC   H3R18874   6.669   1.374  16.040
  157DOPC   H3S18875   6.788   1.536  16.032
  157DOPC   C2418876   6.569   1.588  16.006
  157DOPC   H4R18877   6.558   1.689  16.071
  157DOPC   H4S18878   6.461   1.531  16.003
  157DOPC   C2518879   6.613   1.643  15.867
  157DOPC   H5R18880   6.597   1.556  15.791
  157DOPC   H5S18881   6.732   1.673  15.864
  157DOPC   C2618882   6.524   1.782  15.835
  157DOPC   H6R18883   6.564   1.830  15.740
  157DOPC   H6S18884   6.545   1.865  15.915
  157DOPC   C2718885   6.357   1.751  15.827
  157DOPC   H7R18886   6.295   1.856  15.831
  157DOPC   H7S18887   6.321   1.687  15.916
  157DOPC   C2818888   6.318   1.669  15.696
  157DOPC   H8R18889   6.392   1.573  15.693
  157DOPC   H8S18890   6.350   1.740  15.610
  157DOPC   C2918891   6.161   1.618  15.681
  157DOPC   H9R18892   6.100   1.609  15.776
  157DOPC  C21018893   6.091   1.588  15.565
  157DOPC  H10R18894   5.975   1.553  15.569
  157DOPC  C21118895   6.156   1.598  15.425
  157DOPC  H11R18896   6.270   1.555  15.418
  157DOPC  H11S18897   6.163   1.719  15.406
  157DOPC  C21218898   6.058   1.539  15.311
  157DOPC  H12R18899   6.019   1.638  15.257
  157DOPC  H12S18900   5.960   1.483  15.354
  157DOPC  C21318901   6.109   1.440  15.194
  157DOPC  H13R18902   6.047   1.465  15.101
  157DOPC  H13S18903   6.075   1.326  15.219
  157DOPC  C21418904   6.271   1.434  15.157
  157DOPC  H14R18905   6.344   1.451  15.245
  157DOPC  H14S18906   6.300   1.517  15.080
  157DOPC  C21518907   6.296   1.279  15.102
  157DOPC  H15R18908   6.223   1.260  15.014
  157DOPC  H15S18909   6.267   1.198  15.180
  157DOPC  C21618910   6.454   1.252  15.066
  157DOPC  H16R18911   6.525   1.308  15.141
  157DOPC  H16S18912   6.465   1.310  14.969
  157DOPC  C21718913   6.490   1.088  15.062
  157DOPC  H17R18914   6.407   1.032  14.997
  157DOPC  H17S18915   6.475   1.045  15.165
  157DOPC  C21818916   6.643   1.044  15.015
  157DOPC  H18R18917   6.682   0.952  15.078
  157DOPC  H18S18918   6.728   1.130  15.024
  157DOPC  H18T18919   6.642   1.009  14.909
  157DOPC   C3318920   6.461   1.989  16.550
  157DOPC   H3X18921   6.569   1.942  16.519
  157DOPC   H3Y18922   6.436   1.959  16.655
  157DOPC   C3418923   6.463   2.157  16.543
  157DOPC   H4X18924   6.554   2.200  16.605
  157DOPC   H4Y18925   6.357   2.199  16.588
  157DOPC   C3518926   6.475   2.220  16.402
  157DOPC   H5X18927   6.494   2.340  16.407
  157DOPC   H5Y18928   6.368   2.203  16.349
  157DOPC   C3618929   6.596   2.146  16.318
  157DOPC   H6X18930   6.698   2.138  16.379
  157DOPC   H6Y18931   6.563   2.032  16.291
  157DOPC   C3718932   6.633   2.229  16.189
  157DOPC   H7X18933   6.703   2.321  16.218
  157DOPC   H7Y18934   6.700   2.158  16.122
  157DOPC   C3818935   6.500   2.292  16.113
  157DOPC   H8X18936   6.543   2.377  16.042
  157DOPC   H8Y18937   6.426   2.355  16.181
  157DOPC   C3918938   6.413   2.176  16.042
  157DOPC   H9X18939   6.364   2.090  16.106
  157DOPC  C31018940   6.395   2.166  15.909
  157DOPC  H10X18941   6.326   2.076  15.871
  157DOPC  C31118942   6.458   2.267  15.804
  157DOPC  H11X18943   6.547   2.340  15.842
  157DOPC  H11Y18944   6.370   2.339  15.763
  157DOPC  C31218945   6.522   2.177  15.688
  157DOPC  H12X18946   6.615   2.108  15.722
  157DOPC  H12Y18947   6.565   2.254  15.611
  157DOPC  C31318948   6.403   2.081  15.624
  157DOPC  H13X18949   6.389   1.981  15.684
  157DOPC  H13Y18950   6.298   2.142  15.625
  157DOPC  C31418951   6.436   2.034  15.482
  157DOPC  H14X18952   6.353   1.949  15.452
  157DOPC  H14Y18953   6.425   2.130  15.414
  157DOPC  C31518954   6.587   1.965  15.464
  157DOPC  H15X18955   6.602   1.870  15.533
  157DOPC  H15Y18956   6.675   2.047  15.486
  157DOPC  C31618957   6.598   1.913  15.321
  157DOPC  H16X18958   6.524   1.816  15.306
  157DOPC  H16Y18959   6.553   2.003  15.256
  157DOPC  C31718960   6.754   1.882  15.279
  157DOPC  H17X18961   6.833   1.944  15.342
  157DOPC  H17Y18962   6.777   1.762  15.292
  157DOPC  C31818963   6.777   1.928  15.135
  157DOPC  H18X18964   6.675   1.913  15.075
  157DOPC  H18Y18965   6.809   2.046  15.126
  157DOPC  H18Z18966   6.865   1.860  15.089
  158DOPC     N18967   4.593   7.807  16.935
  158DOPC   C1218968   4.488   7.809  16.816
  158DOPC  H12A18969   4.410   7.718  16.826
  158DOPC  H12B18970   4.549   7.792  16.725
  158DOPC   C1318971   4.673   7.664  16.942
  158DOPC  H13A18972   4.594   7.575  16.949
  158DOPC  H13B18973   4.743   7.645  16.857
  158DOPC  H13C18974   4.742   7.659  17.031
  158DOPC   C1418975   4.503   7.826  17.059
  158DOPC  H14A18976   4.571   7.830  17.148
  158DOPC  H14B18977   4.440   7.928  17.049
  158DOPC  H14C18978   4.420   7.741  17.065
  158DOPC   C1518979   4.703   7.930  16.925
  158DOPC  H15A18980   4.649   8.035  16.931
  158DOPC  H15B18981   4.766   7.925  16.833
  158DOPC  H15C18982   4.784   7.919  17.004
  158DOPC   C1118983   4.394   7.950  16.801
  158DOPC  H11A18984   4.467   8.048  16.797
  158DOPC  H11B18985   4.338   7.943  16.701
  158DOPC     P18986   4.140   7.884  16.903
  158DOPC   O1318987   4.050   7.913  17.024
  158DOPC   O1418988   4.186   7.730  16.875
  158DOPC   O1218989   4.291   7.972  16.908
  158DOPC   O1118990   4.056   7.953  16.779
  158DOPC    C118991   4.092   8.096  16.729
  158DOPC    HA18992   4.206   8.130  16.748
  158DOPC    HB18993   4.023   8.180  16.779
  158DOPC    C218994   4.070   8.105  16.576
  158DOPC    HS18995   3.949   8.109  16.563
  158DOPC   O2118996   4.138   7.982  16.507
  158DOPC   C2118997   4.051   7.922  16.414
  158DOPC   O2218998   3.917   7.931  16.416
  158DOPC   C2218999   4.140   7.856  16.299
  158DOPC   H2R19000   4.244   7.920  16.291
  158DOPC   H2S19001   4.077   7.874  16.206
  158DOPC    C319002   4.133   8.251  16.519
  158DOPC    HX19003   4.078   8.342  16.573
  158DOPC    HY19004   4.096   8.261  16.413
  158DOPC   O3119005   4.291   8.265  16.536
  158DOPC   C3119006   4.370   8.214  16.433
  158DOPC   O3219007   4.319   8.164  16.330
  158DOPC   C3219008   4.535   8.222  16.461
  158DOPC   H2X19009   4.580   8.318  16.406
  158DOPC   H2Y19010   4.553   8.240  16.569
  158DOPC   C2319011   4.179   7.692  16.316
  158DOPC   H3R19012   4.078   7.624  16.307
  158DOPC   H3S19013   4.222   7.675  16.420
  158DOPC   C2419014   4.298   7.642  16.217
  158DOPC   H4R19015   4.363   7.554  16.267
  158DOPC   H4S19016   4.374   7.733  16.193
  158DOPC   C2519017   4.235   7.575  16.088
  158DOPC   H5R19018   4.127   7.521  16.110
  158DOPC   H5S19019   4.311   7.488  16.051
  158DOPC   C2619020   4.214   7.687  15.974
  158DOPC   H6R19021   4.324   7.734  15.949
  158DOPC   H6S19022   4.143   7.778  16.007
  158DOPC   C2719023   4.147   7.612  15.851
  158DOPC   H7R19024   4.033   7.577  15.878
  158DOPC   H7S19025   4.211   7.510  15.828
  158DOPC   C2819026   4.139   7.707  15.724
  158DOPC   H8R19027   4.064   7.802  15.743
  158DOPC   H8S19028   4.088   7.640  15.644
  158DOPC   C2919029   4.287   7.762  15.679
  158DOPC   H9R19030   4.381   7.724  15.738
  158DOPC  C21019031   4.310   7.845  15.570
  158DOPC  H10R19032   4.420   7.884  15.547
  158DOPC  C21119033   4.192   7.898  15.475
  158DOPC  H11R19034   4.092   7.828  15.483
  158DOPC  H11S19035   4.232   7.886  15.370
  158DOPC  C21219036   4.146   8.057  15.498
  158DOPC  H12R19037   4.234   8.136  15.468
  158DOPC  H12S19038   4.126   8.076  15.607
  158DOPC  C21319039   4.002   8.088  15.423
  158DOPC  H13R19040   3.950   8.190  15.463
  158DOPC  H13S19041   3.924   7.998  15.447
  158DOPC  C21419042   4.017   8.096  15.269
  158DOPC  H14R19043   3.915   8.148  15.230
  158DOPC  H14S19044   4.022   7.982  15.230
  158DOPC  C21519045   4.151   8.179  15.211
  158DOPC  H15R19046   4.247   8.106  15.212
  158DOPC  H15S19047   4.188   8.274  15.271
  158DOPC  C21619048   4.121   8.234  15.069
  158DOPC  H16R19049   4.010   8.284  15.065
  158DOPC  H16S19050   4.122   8.138  14.998
  158DOPC  C21719051   4.234   8.347  15.022
  158DOPC  H17R19052   4.343   8.292  15.029
  158DOPC  H17S19053   4.235   8.444  15.090
  158DOPC  C21819054   4.206   8.399  14.879
  158DOPC  H18R19055   4.309   8.446  14.834
  158DOPC  H18S19056   4.120   8.484  14.877
  158DOPC  H18T19057   4.170   8.305  14.815
  158DOPC   C3319058   4.617   8.083  16.414
  158DOPC   H3X19059   4.586   8.056  16.309
  158DOPC   H3Y19060   4.584   7.988  16.479
  158DOPC   C3419061   4.785   8.100  16.423
  158DOPC   H4X19062   4.816   8.150  16.521
  158DOPC   H4Y19063   4.821   8.179  16.344
  158DOPC   C3519064   4.869   7.954  16.408
  158DOPC   H5X19065   4.847   7.884  16.496
  158DOPC   H5Y19066   4.989   7.979  16.409
  158DOPC   C3619067   4.832   7.871  16.279
  158DOPC   H6X19068   4.893   7.764  16.280
  158DOPC   H6Y19069   4.712   7.844  16.274
  158DOPC   C3719070   4.880   7.956  16.154
  158DOPC   H7X19071   4.821   8.063  16.148
  158DOPC   H7Y19072   5.000   7.982  16.167
  158DOPC   C3819073   4.862   7.868  16.024
  158DOPC   H8X19074   4.900   7.754  16.040
  158DOPC   H8Y19075   4.936   7.920  15.949
  158DOPC   C3919076   4.706   7.872  15.975
  158DOPC   H9X19077   4.620   7.898  16.050
  158DOPC  C31019078   4.666   7.842  15.849
  158DOPC  H10X19079   4.551   7.856  15.819
  158DOPC  C31119080   4.772   7.800  15.739
  158DOPC  H11X19081   4.718   7.719  15.672
  158DOPC  H11Y19082   4.871   7.744  15.780
  158DOPC  C31219083   4.822   7.932  15.653
  158DOPC  H12X19084   4.906   7.890  15.582
  158DOPC  H12Y19085   4.875   8.018  15.716
  158DOPC  C31319086   4.693   7.996  15.574
  158DOPC  H13X19087   4.629   7.899  15.540
  158DOPC  H13Y19088   4.622   8.063  15.642
  158DOPC  C31419089   4.733   8.085  15.449
  158DOPC  H14X19090   4.642   8.161  15.424
  158DOPC  H14Y19091   4.832   8.153  15.471
  158DOPC  C31519092   4.765   7.986  15.327
  158DOPC  H15X19093   4.843   7.899  15.358
  158DOPC  H15Y19094   4.820   8.052  15.248
  158DOPC  C31619095   4.629   7.910  15.265
  158DOPC  H16X19096   4.669   7.821  15.198
  158DOPC  H16Y19097   4.561   7.856  15.343
  158DOPC  C31719098   4.531   8.010  15.181
  158DOPC  H17X19099   4.476   8.093  15.247
  158DOPC  H17Y19100   4.600   8.073  15.109
  158DOPC  C31819101   4.414   7.924  15.102
  158DOPC  H18X19102   4.466   7.838  15.039
  158DOPC  H18Y19103   4.334   7.871  15.171
  158DOPC  H18Z19104   4.352   7.999  15.036
  159DOPC     N19105   7.324   2.245  17.096
  159DOPC   C1219106   7.454   2.192  17.011
  159DOPC  H12A19107   7.426   2.091  16.958
  159DOPC  H12B19108   7.544   2.164  17.076
  159DOPC   C1319109   7.290   2.134  17.200
  159DOPC  H13A19110   7.198   2.171  17.261
  159DOPC  H13B19111   7.263   2.026  17.159
  159DOPC  H13C19112   7.383   2.118  17.266
  159DOPC   C1419113   7.193   2.266  17.007
  159DOPC  H14A19114   7.162   2.163  16.958
  159DOPC  H14B19115   7.099   2.316  17.055
  159DOPC  H14C19116   7.225   2.334  16.922
  159DOPC   C1519117   7.366   2.388  17.157
  159DOPC  H15A19118   7.471   2.384  17.207
  159DOPC  H15B19119   7.282   2.429  17.224
  159DOPC  H15C19120   7.378   2.466  17.075
  159DOPC   C1119121   7.509   2.300  16.901
  159DOPC  H11A19122   7.542   2.407  16.945
  159DOPC  H11B19123   7.610   2.255  16.853
  159DOPC     P19124   7.357   2.189  16.707
  159DOPC   O1319125   7.201   2.152  16.727
  159DOPC   O1419126   7.464   2.068  16.733
  159DOPC   O1219127   7.394   2.323  16.806
  159DOPC   O1119128   7.383   2.266  16.566
  159DOPC    C119129   7.462   2.404  16.571
  159DOPC    HA19130   7.559   2.394  16.641
  159DOPC    HB19131   7.391   2.494  16.608
  159DOPC    C219132   7.539   2.456  16.441
  159DOPC    HS19133   7.610   2.551  16.473
  159DOPC   O2119134   7.438   2.501  16.339
  159DOPC   C2119135   7.506   2.575  16.242
  159DOPC   O2219136   7.630   2.629  16.250
  159DOPC   C2219137   7.406   2.584  16.121
  159DOPC   H2R19138   7.302   2.638  16.151
  159DOPC   H2S19139   7.380   2.469  16.093
  159DOPC    C319140   7.643   2.336  16.384
  159DOPC    HX19141   7.732   2.328  16.458
  159DOPC    HY19142   7.697   2.372  16.290
  159DOPC   O3119143   7.571   2.194  16.369
  159DOPC   C3119144   7.508   2.171  16.254
  159DOPC   O3219145   7.506   2.255  16.159
  159DOPC   C3219146   7.449   2.013  16.247
  159DOPC   H2X19147   7.514   1.945  16.317
  159DOPC   H2Y19148   7.333   2.013  16.280
  159DOPC   C2319149   7.476   2.664  16.000
  159DOPC   H3R19150   7.586   2.617  15.975
  159DOPC   H3S19151   7.493   2.782  16.026
  159DOPC   C2419152   7.376   2.654  15.877
  159DOPC   H4R19153   7.418   2.728  15.798
  159DOPC   H4S19154   7.263   2.692  15.905
  159DOPC   C2519155   7.365   2.497  15.821
  159DOPC   H5R19156   7.317   2.422  15.898
  159DOPC   H5S19157   7.478   2.456  15.800
  159DOPC   C2619158   7.268   2.488  15.696
  159DOPC   H6R19159   7.171   2.562  15.709
  159DOPC   H6S19160   7.225   2.374  15.685
  159DOPC   C2719161   7.353   2.528  15.569
  159DOPC   H7R19162   7.418   2.629  15.588
  159DOPC   H7S19163   7.274   2.551  15.486
  159DOPC   C2819164   7.455   2.400  15.529
  159DOPC   H8R19165   7.387   2.311  15.485
  159DOPC   H8S19166   7.503   2.353  15.621
  159DOPC   C2919167   7.576   2.440  15.432
  159DOPC   H9R19168   7.557   2.537  15.369
  159DOPC  C21019169   7.706   2.371  15.424
  159DOPC  H10R19170   7.782   2.401  15.345
  159DOPC  C21119171   7.753   2.242  15.509
  159DOPC  H11R19172   7.704   2.246  15.611
  159DOPC  H11S19173   7.874   2.246  15.523
  159DOPC  C21219174   7.709   2.095  15.444
  159DOPC  H12R19175   7.591   2.100  15.414
  159DOPC  H12S19176   7.724   2.005  15.518
  159DOPC  C21319177   7.802   2.059  15.324
  159DOPC  H13R19178   7.920   2.080  15.351
  159DOPC  H13S19179   7.770   2.137  15.244
  159DOPC  C21419180   7.791   1.898  15.279
  159DOPC  H14R19181   7.682   1.876  15.233
  159DOPC  H14S19182   7.803   1.824  15.367
  159DOPC  C21519183   7.915   1.866  15.180
  159DOPC  H15R19184   7.931   1.749  15.158
  159DOPC  H15S19185   8.019   1.901  15.228
  159DOPC  C21619186   7.897   1.956  15.053
  159DOPC  H16R19187   7.998   1.950  14.991
  159DOPC  H16S19188   7.880   2.070  15.088
  159DOPC  C21719189   7.766   1.942  14.960
  159DOPC  H17R19190   7.745   2.057  14.926
  159DOPC  H17S19191   7.666   1.902  15.011
  159DOPC  C21819192   7.805   1.857  14.835
  159DOPC  H18R19193   7.797   1.739  14.858
  159DOPC  H18S19194   7.919   1.874  14.801
  159DOPC  H18T19195   7.731   1.888  14.750
  159DOPC   C3319196   7.466   1.951  16.103
  159DOPC   H3X19197   7.409   2.022  16.029
  159DOPC   H3Y19198   7.416   1.840  16.096
  159DOPC   C3419199   7.631   1.937  16.070
  159DOPC   H4X19200   7.684   1.894  16.161
  159DOPC   H4Y19201   7.674   2.049  16.047
  159DOPC   C3519202   7.674   1.830  15.958
  159DOPC   H5X19203   7.694   1.726  16.008
  159DOPC   H5Y19204   7.781   1.851  15.912
  159DOPC   C3619205   7.566   1.836  15.839
  159DOPC   H6X19206   7.598   1.750  15.765
  159DOPC   H6Y19207   7.451   1.813  15.872
  159DOPC   C3719208   7.575   1.985  15.769
  159DOPC   H7X19209   7.564   2.078  15.840
  159DOPC   H7Y19210   7.687   1.991  15.725
  159DOPC   C3819211   7.469   2.009  15.652
  159DOPC   H8X19212   7.505   1.931  15.573
  159DOPC   H8Y19213   7.488   2.120  15.612
  159DOPC   C3919214   7.307   1.995  15.680
  159DOPC   H9X19215   7.262   2.070  15.756
  159DOPC  C31019216   7.218   1.906  15.611
  159DOPC  H10X19217   7.099   1.902  15.633
  159DOPC  C31119218   7.269   1.808  15.500
  159DOPC  H11X19219   7.173   1.737  15.479
  159DOPC  H11Y19220   7.362   1.737  15.533
  159DOPC  C31219221   7.316   1.885  15.369
  159DOPC  H12X19222   7.349   1.802  15.294
  159DOPC  H12Y19223   7.414   1.956  15.384
  159DOPC  C31319224   7.193   1.979  15.307
  159DOPC  H13X19225   7.096   1.906  15.292
  159DOPC  H13Y19226   7.162   2.067  15.378
  159DOPC  C31419227   7.236   2.046  15.172
  159DOPC  H14X19228   7.297   1.965  15.111
  159DOPC  H14Y19229   7.132   2.071  15.116
  159DOPC  C31519230   7.325   2.190  15.183
  159DOPC  H15X19231   7.367   2.215  15.081
  159DOPC  H15Y19232   7.423   2.176  15.248
  159DOPC  C31619233   7.229   2.318  15.235
  159DOPC  H16X19234   7.116   2.301  15.198
  159DOPC  H16Y19235   7.218   2.307  15.345
  159DOPC  C31719236   7.281   2.476  15.202
  159DOPC  H17X19237   7.191   2.552  15.231
  159DOPC  H17Y19238   7.372   2.501  15.270
  159DOPC  C31819239   7.333   2.515  15.060
  159DOPC  H18X19240   7.247   2.581  15.007
  159DOPC  H18Y19241   7.434   2.582  15.063
  159DOPC  H18Z19242   7.356   2.417  14.998
  160DOPC     N19243   2.065   7.581  16.938
  160DOPC   C1219244   2.010   7.427  16.970
  160DOPC  H12A19245   1.972   7.381  16.876
  160DOPC  H12B19246   1.918   7.435  17.040
  160DOPC   C1319247   2.190   7.562  16.843
  160DOPC  H13A19248   2.279   7.503  16.892
  160DOPC  H13B19249   2.159   7.489  16.761
  160DOPC  H13C19250   2.231   7.664  16.800
  160DOPC   C1419251   2.118   7.652  17.065
  160DOPC  H14A19252   2.207   7.586  17.104
  160DOPC  H14B19253   2.156   7.763  17.049
  160DOPC  H14C19254   2.030   7.655  17.139
  160DOPC   C1519255   1.947   7.676  16.877
  160DOPC  H15A19256   1.985   7.787  16.855
  160DOPC  H15B19257   1.856   7.690  16.948
  160DOPC  H15C19258   1.905   7.628  16.786
  160DOPC   C1119259   2.121   7.311  17.027
  160DOPC  H11A19260   2.170   7.355  17.120
  160DOPC  H11B19261   2.058   7.210  17.055
  160DOPC     P19262   2.204   7.183  16.804
  160DOPC   O1319263   2.149   7.037  16.847
  160DOPC   O1419264   2.335   7.182  16.718
  160DOPC   O1219265   2.236   7.273  16.936
  160DOPC   O1119266   2.070   7.272  16.739
  160DOPC    C119267   1.987   7.217  16.630
  160DOPC    HA19268   1.888   7.162  16.671
  160DOPC    HB19269   2.050   7.136  16.569
  160DOPC    C219270   1.932   7.338  16.530
  160DOPC    HS19271   1.917   7.284  16.430
  160DOPC   O2119272   2.030   7.462  16.525
  160DOPC   C2119273   2.132   7.451  16.433
  160DOPC   O2219274   2.157   7.345  16.364
  160DOPC   C2219275   2.197   7.607  16.412
  160DOPC   H2R19276   2.257   7.632  16.505
  160DOPC   H2S19277   2.103   7.684  16.401
  160DOPC    C319278   1.778   7.404  16.567
  160DOPC    HX19279   1.785   7.433  16.674
  160DOPC    HY19280   1.689   7.321  16.556
  160DOPC   O3119281   1.744   7.538  16.493
  160DOPC   C3119282   1.713   7.515  16.363
  160DOPC   O3219283   1.689   7.395  16.314
  160DOPC   C3219284   1.713   7.664  16.289
  160DOPC   H2X19285   1.605   7.716  16.312
  160DOPC   H2Y19286   1.802   7.733  16.332
  160DOPC   C2319287   2.302   7.622  16.292
  160DOPC   H3R19288   2.339   7.508  16.269
  160DOPC   H3S19289   2.405   7.681  16.318
  160DOPC   C2419290   2.241   7.675  16.160
  160DOPC   H4R19291   2.333   7.680  16.086
  160DOPC   H4S19292   2.186   7.784  16.160
  160DOPC   C2519293   2.134   7.556  16.119
  160DOPC   H5R19294   2.032   7.565  16.178
  160DOPC   H5S19295   2.179   7.445  16.141
  160DOPC   C2619296   2.106   7.554  15.971
  160DOPC   H6R19297   2.213   7.538  15.918
  160DOPC   H6S19298   2.061   7.663  15.941
  160DOPC   C2719299   2.002   7.427  15.938
  160DOPC   H7R19300   1.925   7.409  16.024
  160DOPC   H7S19301   2.065   7.323  15.923
  160DOPC   C2819302   1.913   7.465  15.815
  160DOPC   H8R19303   1.851   7.565  15.844
  160DOPC   H8S19304   1.829   7.380  15.789
  160DOPC   C2919305   2.031   7.490  15.712
  160DOPC   H9R19306   2.081   7.600  15.716
  160DOPC  C21019307   2.070   7.401  15.613
  160DOPC  H10R19308   2.163   7.434  15.549
  160DOPC  C21119309   2.006   7.254  15.577
  160DOPC  H11R19310   1.916   7.222  15.646
  160DOPC  H11S19311   2.093   7.169  15.583
  160DOPC  C21219312   1.948   7.268  15.433
  160DOPC  H12R19313   1.933   7.158  15.390
  160DOPC  H12S19314   2.031   7.323  15.368
  160DOPC  C21319315   1.801   7.352  15.424
  160DOPC  H13R19316   1.821   7.467  15.456
  160DOPC  H13S19317   1.719   7.304  15.494
  160DOPC  C21419318   1.737   7.358  15.282
  160DOPC  H14R19319   1.641   7.283  15.275
  160DOPC  H14S19320   1.823   7.322  15.211
  160DOPC  C21519321   1.689   7.512  15.237
  160DOPC  H15R19322   1.788   7.585  15.243
  160DOPC  H15S19323   1.605   7.556  15.307
  160DOPC  C21619324   1.630   7.514  15.093
  160DOPC  H16R19325   1.563   7.416  15.072
  160DOPC  H16S19326   1.720   7.488  15.024
  160DOPC  C21719327   1.547   7.655  15.052
  160DOPC  H17R19328   1.427   7.633  15.054
  160DOPC  H17S19329   1.578   7.678  14.947
  160DOPC  C21819330   1.576   7.799  15.126
  160DOPC  H18R19331   1.492   7.883  15.102
  160DOPC  H18S19332   1.683   7.843  15.091
  160DOPC  H18T19333   1.581   7.784  15.236
  160DOPC   C3319334   1.730   7.656  16.135
  160DOPC   H3X19335   1.666   7.562  16.093
  160DOPC   H3Y19336   1.846   7.640  16.106
  160DOPC   C3419337   1.679   7.801  16.070
  160DOPC   H4X19338   1.758   7.887  16.103
  160DOPC   H4Y19339   1.571   7.835  16.111
  160DOPC   C3519340   1.673   7.805  15.916
  160DOPC   H5X19341   1.789   7.800  15.884
  160DOPC   H5Y19342   1.629   7.915  15.886
  160DOPC   C3619343   1.581   7.689  15.839
  160DOPC   H6X19344   1.623   7.576  15.853
  160DOPC   H6Y19345   1.467   7.692  15.878
  160DOPC   C3719346   1.558   7.722  15.689
  160DOPC   H7X19347   1.455   7.663  15.657
  160DOPC   H7Y19348   1.537   7.841  15.673
  160DOPC   C3819349   1.682   7.667  15.598
  160DOPC   H8X19350   1.648   7.682  15.492
  160DOPC   H8Y19351   1.692   7.546  15.615
  160DOPC   C3919352   1.824   7.745  15.628
  160DOPC   H9X19353   1.868   7.722  15.727
  160DOPC  C31019354   1.918   7.816  15.549
  160DOPC  H10X19355   2.019   7.864  15.592
  160DOPC  C31119356   1.900   7.832  15.402
  160DOPC  H11X19357   1.878   7.946  15.376
  160DOPC  H11Y19358   1.804   7.767  15.368
  160DOPC  C31219359   2.034   7.774  15.326
  160DOPC  H12X19360   2.120   7.858  15.312
  160DOPC  H12Y19361   1.990   7.745  15.226
  160DOPC  C31319362   2.110   7.638  15.385
  160DOPC  H13X19363   2.152   7.660  15.487
  160DOPC  H13Y19364   2.024   7.551  15.389
  160DOPC  C31419365   2.236   7.583  15.298
  160DOPC  H14X19366   2.329   7.664  15.300
  160DOPC  H14Y19367   2.278   7.477  15.338
  160DOPC  C31519368   2.180   7.564  15.155
  160DOPC  H15X19369   2.177   7.674  15.107
  160DOPC  H15Y19370   2.066   7.520  15.159
  160DOPC  C31619371   2.275   7.464  15.070
  160DOPC  H16X19372   2.239   7.473  14.964
  160DOPC  H16Y19373   2.387   7.510  15.079
  160DOPC  C31719374   2.275   7.301  15.110
  160DOPC  H17X19375   2.356   7.244  15.046
  160DOPC  H17Y19376   2.311   7.289  15.215
  160DOPC  C31819377   2.126   7.225  15.093
  160DOPC  H18X19378   2.136   7.105  15.110
  160DOPC  H18Y19379   2.045   7.270  15.165
  160DOPC  H18Z19380   2.082   7.244  14.991
  161DOPC     N19381   4.217   0.300  17.081
  161DOPC   C1219382   4.172   0.374  16.949
  161DOPC  H12A19383   4.244   0.470  16.932
  161DOPC  H12B19384   4.062   0.418  16.957
  161DOPC   C1319385   4.382   0.307  17.089
  161DOPC  H13A19386   4.419   0.421  17.080
  161DOPC  H13B19387   4.426   0.266  17.182
  161DOPC  H13C19388   4.431   0.250  17.004
  161DOPC   C1419389   4.164   0.144  17.083
  161DOPC  H14A19390   4.216   0.084  17.003
  161DOPC  H14B19391   4.181   0.088  17.177
  161DOPC  H14C19392   4.046   0.143  17.065
  161DOPC   C1519393   4.157   0.385  17.196
  161DOPC  H15A19394   4.038   0.394  17.192
  161DOPC  H15B19395   4.201   0.497  17.197
  161DOPC  H15C19396   4.187   0.336  17.290
  161DOPC   C1119397   4.187   0.280  16.821
  161DOPC  H11A19398   4.121   0.178  16.830
  161DOPC  H11B19399   4.136   0.340  16.734
  161DOPC     P19400   4.438   0.372  16.731
  161DOPC   O1319401   4.595   0.332  16.746
  161DOPC   O1419402   4.387   0.513  16.790
  161DOPC   O1219403   4.337   0.244  16.796
  161DOPC   O1119404   4.400   0.356  16.574
  161DOPC    C119405   4.386   0.208  16.525
  161DOPC    HA19406   4.268   0.179  16.530
  161DOPC    HB19407   4.444   0.127  16.590
  161DOPC    C219408   4.444   0.171  16.380
  161DOPC    HS19409   4.536   0.092  16.397
  161DOPC   O2119410   4.495   0.292  16.297
  161DOPC   C2119411   4.518   0.254  16.168
  161DOPC   O2219412   4.595   0.154  16.129
  161DOPC   C2219413   4.413   0.340  16.074
  161DOPC   H2R19414   4.335   0.259  16.033
  161DOPC   H2S19415   4.479   0.383  15.990
  161DOPC    C319416   4.319   0.090  16.304
  161DOPC    HX19417   4.263   0.179  16.246
  161DOPC    HY19418   4.232   0.044  16.369
  161DOPC   O3119419   4.381  -0.022  16.220
  161DOPC   C3119420   4.285  -0.060  16.127
  161DOPC   O3219421   4.157  -0.021  16.128
  161DOPC   C3219422   4.355  -0.155  16.019
  161DOPC   H2X19423   4.463  -0.197  16.056
  161DOPC   H2Y19424   4.282  -0.251  16.002
  161DOPC   C2319425   4.324   0.465  16.139
  161DOPC   H3R19426   4.390   0.519  16.219
  161DOPC   H3S19427   4.223   0.421  16.187
  161DOPC   C2419428   4.282   0.587  16.041
  161DOPC   H4R19429   4.384   0.640  16.002
  161DOPC   H4S19430   4.217   0.670  16.098
  161DOPC   C2519431   4.194   0.540  15.918
  161DOPC   H5R19432   4.123   0.446  15.944
  161DOPC   H5S19433   4.271   0.497  15.843
  161DOPC   C2619434   4.097   0.667  15.866
  161DOPC   H6R19435   4.066   0.738  15.951
  161DOPC   H6S19436   3.990   0.622  15.832
  161DOPC   C2719437   4.160   0.752  15.745
  161DOPC   H7R19438   4.257   0.820  15.775
  161DOPC   H7S19439   4.076   0.832  15.708
  161DOPC   C2819440   4.205   0.648  15.633
  161DOPC   H8R19441   4.301   0.584  15.666
  161DOPC   H8S19442   4.240   0.707  15.542
  161DOPC   C2919443   4.078   0.549  15.610
  161DOPC   H9R19444   4.059   0.465  15.688
  161DOPC  C21019445   3.989   0.553  15.505
  161DOPC  H10R19446   3.889   0.486  15.507
  161DOPC  C21119447   4.007   0.661  15.393
  161DOPC  H11R19448   4.112   0.634  15.342
  161DOPC  H11S19449   4.019   0.775  15.431
  161DOPC  C21219450   3.882   0.653  15.291
  161DOPC  H12R19451   3.806   0.747  15.310
  161DOPC  H12S19452   3.815   0.552  15.301
  161DOPC  C21319453   3.939   0.660  15.147
  161DOPC  H13R19454   4.007   0.760  15.133
  161DOPC  H13S19455   3.840   0.672  15.083
  161DOPC  C21419456   4.025   0.524  15.101
  161DOPC  H14R19457   3.959   0.422  15.118
  161DOPC  H14S19458   4.127   0.513  15.160
  161DOPC  C21519459   4.068   0.529  14.953
  161DOPC  H15R19460   4.143   0.437  14.935
  161DOPC  H15S19461   4.129   0.632  14.933
  161DOPC  C21619462   3.939   0.516  14.854
  161DOPC  H16R19463   3.961   0.581  14.762
  161DOPC  H16S19464   3.841   0.565  14.903
  161DOPC  C21719465   3.897   0.357  14.815
  161DOPC  H17R19466   3.784   0.361  14.773
  161DOPC  H17S19467   3.894   0.288  14.907
  161DOPC  C21819468   3.997   0.285  14.712
  161DOPC  H18R19469   3.942   0.195  14.657
  161DOPC  H18S19470   4.092   0.235  14.764
  161DOPC  H18T19471   4.038   0.367  14.638
  161DOPC   C3319472   4.377  -0.065  15.890
  161DOPC   H3X19473   4.414  -0.142  15.810
  161DOPC   H3Y19474   4.466   0.016  15.907
  161DOPC   C3419475   4.236   0.015  15.841
  161DOPC   H4X19476   4.201   0.096  15.919
  161DOPC   H4Y19477   4.147  -0.067  15.831
  161DOPC   C3519478   4.250   0.101  15.709
  161DOPC   H5X19479   4.147   0.163  15.692
  161DOPC   H5Y19480   4.265   0.021  15.626
  161DOPC   C3619481   4.377   0.212  15.705
  161DOPC   H6X19482   4.361   0.299  15.782
  161DOPC   H6Y19483   4.478   0.151  15.730
  161DOPC   C3719484   4.408   0.279  15.567
  161DOPC   H7X19485   4.414   0.187  15.495
  161DOPC   H7Y19486   4.315   0.351  15.536
  161DOPC   C3819487   4.556   0.362  15.560
  161DOPC   H8X19488   4.595   0.353  15.455
  161DOPC   H8Y19489   4.640   0.303  15.621
  161DOPC   C3919490   4.553   0.517  15.609
  161DOPC   H9X19491   4.544   0.532  15.718
  161DOPC  C31019492   4.557   0.635  15.529
  161DOPC  H10X19493   4.535   0.744  15.570
  161DOPC  C31119494   4.568   0.624  15.379
  161DOPC  H11X19495   4.659   0.547  15.356
  161DOPC  H11Y19496   4.607   0.730  15.337
  161DOPC  C31219497   4.432   0.568  15.304
  161DOPC  H12X19498   4.348   0.656  15.293
  161DOPC  H12Y19499   4.378   0.476  15.358
  161DOPC  C31319500   4.475   0.515  15.164
  161DOPC  H13X19501   4.562   0.430  15.175
  161DOPC  H13Y19502   4.379   0.461  15.115
  161DOPC  C31419503   4.532   0.643  15.081
  161DOPC  H14X19504   4.443   0.727  15.077
  161DOPC  H14Y19505   4.629   0.693  15.134
  161DOPC  C31519506   4.585   0.607  14.940
  161DOPC  H15X19507   4.657   0.509  14.943
  161DOPC  H15Y19508   4.655   0.701  14.904
  161DOPC  C31619509   4.457   0.589  14.842
  161DOPC  H16X19510   4.356   0.575  14.904
  161DOPC  H16Y19511   4.438   0.691  14.784
  161DOPC  C31719512   4.469   0.454  14.751
  161DOPC  H17X19513   4.468   0.488  14.644
  161DOPC  H17Y19514   4.574   0.394  14.769
  161DOPC  C31819515   4.341   0.352  14.775
  161DOPC  H18X19516   4.321   0.337  14.883
  161DOPC  H18Y19517   4.244   0.407  14.729
  161DOPC  H18Z19518   4.352   0.241  14.733
  162DOPC     N19519   1.424   7.129  16.870
  162DOPC   C1219520   1.437   7.003  16.773
  162DOPC  H12A19521   1.541   6.945  16.790
  162DOPC  H12B19522   1.434   7.044  16.672
  162DOPC   C1319523   1.267   7.176  16.874
  162DOPC  H13A19524   1.231   7.217  16.778
  162DOPC  H13B19525   1.201   7.081  16.901
  162DOPC  H13C19526   1.250   7.259  16.951
  162DOPC   C1419527   1.519   7.259  16.841
  162DOPC  H14A19528   1.478   7.314  16.753
  162DOPC  H14B19529   1.517   7.336  16.924
  162DOPC  H14C19530   1.634   7.229  16.824
  162DOPC   C1519531   1.459   7.070  17.005
  162DOPC  H15A19532   1.430   7.147  17.084
  162DOPC  H15B19533   1.569   7.027  17.013
  162DOPC  H15C19534   1.386   6.975  17.022
  162DOPC   C1119535   1.319   6.878  16.782
  162DOPC  H11A19536   1.210   6.923  16.752
  162DOPC  H11B19537   1.343   6.788  16.709
  162DOPC     P19538   1.412   6.694  16.968
  162DOPC   O1319539   1.395   6.559  16.887
  162DOPC   O1419540   1.388   6.684  17.114
  162DOPC   O1219541   1.307   6.821  16.913
  162DOPC   O1119542   1.575   6.756  16.943
  162DOPC    C119543   1.699   6.661  16.915
  162DOPC    HA19544   1.665   6.547  16.889
  162DOPC    HB19545   1.766   6.650  17.008
  162DOPC    C219546   1.803   6.722  16.801
  162DOPC    HS19547   1.877   6.805  16.846
  162DOPC   O2119548   1.693   6.797  16.718
  162DOPC   C2119549   1.730   6.879  16.615
  162DOPC   O2219550   1.854   6.929  16.601
  162DOPC   C2219551   1.601   6.897  16.513
  162DOPC   H2R19552   1.493   6.883  16.560
  162DOPC   H2S19553   1.607   6.806  16.442
  162DOPC    C319554   1.915   6.599  16.723
  162DOPC    HX19555   1.969   6.536  16.804
  162DOPC    HY19556   1.997   6.674  16.678
  162DOPC   O3119557   1.871   6.489  16.623
  162DOPC   C3119558   1.929   6.371  16.557
  162DOPC   O3219559   2.060   6.351  16.543
  162DOPC   C3219560   1.808   6.255  16.493
  162DOPC   H2X19561   1.890   6.171  16.466
  162DOPC   H2Y19562   1.745   6.205  16.573
  162DOPC   C2319563   1.602   7.020  16.406
  162DOPC   H3R19564   1.705   7.008  16.346
  162DOPC   H3S19565   1.604   7.130  16.454
  162DOPC   C2419566   1.472   7.011  16.306
  162DOPC   H4R19567   1.365   7.016  16.361
  162DOPC   H4S19568   1.474   6.906  16.250
  162DOPC   C2519569   1.476   7.139  16.205
  162DOPC   H5R19570   1.578   7.131  16.144
  162DOPC   H5S19571   1.483   7.244  16.263
  162DOPC   C2619572   1.343   7.157  16.110
  162DOPC   H6R19573   1.370   7.250  16.043
  162DOPC   H6S19574   1.246   7.188  16.171
  162DOPC   C2719575   1.301   7.025  16.021
  162DOPC   H7R19576   1.203   7.054  15.960
  162DOPC   H7S19577   1.267   6.933  16.087
  162DOPC   C2819578   1.424   6.971  15.928
  162DOPC   H8R19579   1.387   6.866  15.882
  162DOPC   H8S19580   1.522   6.944  15.992
  162DOPC   C2919581   1.466   7.079  15.820
  162DOPC   H9R19582   1.397   7.179  15.810
  162DOPC  C21019583   1.582   7.060  15.738
  162DOPC  H10R19584   1.606   7.142  15.661
  162DOPC  C21119585   1.683   6.928  15.744
  162DOPC  H11R19586   1.642   6.842  15.814
  162DOPC  H11S19587   1.793   6.963  15.781
  162DOPC  C21219588   1.704   6.851  15.608
  162DOPC  H12R19589   1.596   6.815  15.566
  162DOPC  H12S19590   1.771   6.751  15.627
  162DOPC  C21319591   1.785   6.947  15.508
  162DOPC  H13R19592   1.865   7.015  15.565
  162DOPC  H13S19593   1.708   7.021  15.455
  162DOPC  C21419594   1.877   6.859  15.407
  162DOPC  H14R19595   1.967   6.799  15.460
  162DOPC  H14S19596   1.929   6.938  15.337
  162DOPC  C21519597   1.788   6.747  15.326
  162DOPC  H15R19598   1.681   6.799  15.297
  162DOPC  H15S19599   1.761   6.650  15.388
  162DOPC  C21619600   1.872   6.703  15.201
  162DOPC  H16R19601   1.951   6.615  15.228
  162DOPC  H16S19602   1.939   6.798  15.166
  162DOPC  C21719603   1.779   6.650  15.085
  162DOPC  H17R19604   1.698   6.735  15.055
  162DOPC  H17S19605   1.715   6.550  15.118
  162DOPC  C21819606   1.878   6.609  14.968
  162DOPC  H18R19607   1.948   6.703  14.938
  162DOPC  H18S19608   1.817   6.568  14.880
  162DOPC  H18T19609   1.951   6.520  15.003
  162DOPC   C3319610   1.708   6.248  16.356
  162DOPC   H3X19611   1.714   6.131  16.323
  162DOPC   H3Y19612   1.759   6.313  16.276
  162DOPC   C3419613   1.540   6.282  16.355
  162DOPC   H4X19614   1.528   6.368  16.425
  162DOPC   H4Y19615   1.480   6.200  16.414
  162DOPC   C3519616   1.455   6.369  16.240
  162DOPC   H5X19617   1.405   6.301  16.162
  162DOPC   H5Y19618   1.535   6.442  16.187
  162DOPC   C3619619   1.335   6.472  16.306
  162DOPC   H6X19620   1.306   6.417  16.401
  162DOPC   H6Y19621   1.395   6.575  16.331
  162DOPC   C3719622   1.185   6.521  16.245
  162DOPC   H7X19623   1.100   6.433  16.240
  162DOPC   H7Y19624   1.137   6.600  16.318
  162DOPC   C3819625   1.196   6.601  16.111
  162DOPC   H8X19626   1.289   6.547  16.059
  162DOPC   H8Y19627   1.230   6.716  16.132
  162DOPC   C3919628   1.058   6.603  16.026
  162DOPC   H9X19629   0.952   6.624  16.076
  162DOPC  C31019630   1.058   6.579  15.894
  162DOPC  H10X19631   0.955   6.585  15.837
  162DOPC  C31119632   1.194   6.545  15.812
  162DOPC  H11X19633   1.281   6.489  15.871
  162DOPC  H11Y19634   1.242   6.647  15.770
  162DOPC  C31219635   1.150   6.438  15.701
  162DOPC  H12X19636   1.060   6.487  15.639
  162DOPC  H12Y19637   1.104   6.336  15.747
  162DOPC  C31319638   1.278   6.398  15.610
  162DOPC  H13X19639   1.385   6.424  15.658
  162DOPC  H13Y19640   1.272   6.278  15.590
  162DOPC  C31419641   1.264   6.472  15.475
  162DOPC  H14X19642   1.181   6.407  15.416
  162DOPC  H14Y19643   1.220   6.585  15.491
  162DOPC  C31519644   1.407   6.487  15.396
  162DOPC  H15X19645   1.442   6.379  15.355
  162DOPC  H15Y19646   1.496   6.526  15.463
  162DOPC  C31619647   1.387   6.597  15.282
  162DOPC  H16X19648   1.393   6.710  15.327
  162DOPC  H16Y19649   1.480   6.588  15.210
  162DOPC  C31719650   1.240   6.584  15.208
  162DOPC  H17X19651   1.144   6.575  15.276
  162DOPC  H17Y19652   1.223   6.691  15.161
  162DOPC  C31819653   1.236   6.460  15.104
  162DOPC  H18X19654   1.136   6.468  15.041
  162DOPC  H18Y19655   1.334   6.466  15.038
  162DOPC  H18Z19656   1.236   6.350  15.153
  163DOPC     N19657   0.261   3.075  16.915
  163DOPC   C1219658   0.354   2.981  16.820
  163DOPC  H12A19659   0.284   2.941  16.740
  163DOPC  H12B19660   0.396   2.885  16.872
  163DOPC   C1319661   0.124   2.992  16.949
  163DOPC  H13A19662   0.056   3.050  17.021
  163DOPC  H13B19663   0.060   2.972  16.859
  163DOPC  H13C19664   0.153   2.885  16.990
  163DOPC   C1419665   0.226   3.215  16.847
  163DOPC  H14A19666   0.328   3.265  16.814
  163DOPC  H14B19667   0.162   3.197  16.757
  163DOPC  H14C19668   0.165   3.292  16.909
  163DOPC   C1519669   0.349   3.105  17.039
  163DOPC  H15A19670   0.290   3.171  17.110
  163DOPC  H15B19671   0.450   3.163  17.012
  163DOPC  H15C19672   0.387   3.004  17.087
  163DOPC   C1119673   0.490   3.055  16.751
  163DOPC  H11A19674   0.536   2.978  16.676
  163DOPC  H11B19675   0.454   3.154  16.694
  163DOPC     P19676   0.696   2.978  16.922
  163DOPC   O1319677   0.647   2.984  17.063
  163DOPC   O1419678   0.854   3.002  16.894
  163DOPC   O1219679   0.598   3.097  16.845
  163DOPC   O1119680   0.636   2.828  16.859
  163DOPC    C119681   0.734   2.715  16.817
  163DOPC    HA19682   0.725   2.621  16.888
  163DOPC    HB19683   0.853   2.749  16.813
  163DOPC    C219684   0.695   2.661  16.674
  163DOPC    HS19685   0.760   2.559  16.657
  163DOPC   O2119686   0.727   2.779  16.582
  163DOPC   C2119687   0.838   2.750  16.503
  163DOPC   O2219688   0.906   2.635  16.498
  163DOPC   C2219689   0.870   2.879  16.413
  163DOPC   H2R19690   0.990   2.879  16.393
  163DOPC   H2S19691   0.837   2.984  16.460
  163DOPC    C319692   0.532   2.617  16.656
  163DOPC    HX19693   0.461   2.707  16.693
  163DOPC    HY19694   0.512   2.519  16.720
  163DOPC   O3119695   0.506   2.578  16.518
  163DOPC   C3119696   0.459   2.688  16.441
  163DOPC   O3219697   0.419   2.808  16.481
  163DOPC   C3219698   0.463   2.644  16.293
  163DOPC   H2X19699   0.580   2.628  16.264
  163DOPC   H2Y19700   0.407   2.538  16.283
  163DOPC   C2319701   0.793   2.853  16.282
  163DOPC   H3R19702   0.672   2.861  16.295
  163DOPC   H3S19703   0.817   2.741  16.240
  163DOPC   C2419704   0.843   2.969  16.182
  163DOPC   H4R19705   0.965   2.962  16.167
  163DOPC   H4S19706   0.812   3.079  16.220
  163DOPC   C2519707   0.761   2.930  16.057
  163DOPC   H5R19708   0.640   2.943  16.076
  163DOPC   H5S19709   0.785   2.812  16.038
  163DOPC   C2619710   0.798   3.012  15.930
  163DOPC   H6R19711   0.916   3.002  15.907
  163DOPC   H6S19712   0.769   3.130  15.934
  163DOPC   C2719713   0.701   2.934  15.828
  163DOPC   H7R19714   0.585   2.972  15.837
  163DOPC   H7S19715   0.696   2.815  15.855
  163DOPC   C2819716   0.759   2.936  15.688
  163DOPC   H8R19717   0.741   2.824  15.651
  163DOPC   H8S19718   0.881   2.948  15.688
  163DOPC   C2919719   0.691   3.058  15.609
  163DOPC   H9R19720   0.782   3.128  15.575
  163DOPC  C21019721   0.552   3.104  15.583
  163DOPC  H10R19722   0.549   3.210  15.530
  163DOPC  C21119723   0.393   3.064  15.615
  163DOPC  H11R19724   0.350   3.123  15.705
  163DOPC  H11S19725   0.369   2.946  15.634
  163DOPC  C21219726   0.300   3.122  15.495
  163DOPC  H12R19727   0.367   3.114  15.402
  163DOPC  H12S19728   0.278   3.242  15.507
  163DOPC  C21319729   0.155   3.042  15.465
  163DOPC  H13R19730   0.070   3.077  15.539
  163DOPC  H13S19731   0.172   2.921  15.478
  163DOPC  C21419732   0.097   3.067  15.322
  163DOPC  H14R19733   0.058   3.182  15.315
  163DOPC  H14S19734  -0.003   2.997  15.308
  163DOPC  C21519735   0.206   3.037  15.205
  163DOPC  H15R19736   0.274   3.137  15.190
  163DOPC  H15S19737   0.138   3.025  15.113
  163DOPC  C21619738   0.311   2.904  15.218
  163DOPC  H16R19739   0.250   2.808  15.259
  163DOPC  H16S19740   0.398   2.927  15.292
  163DOPC  C21719741   0.388   2.859  15.085
  163DOPC  H17R19742   0.488   2.930  15.077
  163DOPC  H17S19743   0.316   2.884  14.999
  163DOPC  C21819744   0.439   2.699  15.072
  163DOPC  H18R19745   0.395   2.632  15.155
  163DOPC  H18S19746   0.560   2.695  15.068
  163DOPC  H18T19747   0.409   2.635  14.985
  163DOPC   C3319748   0.392   2.764  16.203
  163DOPC   H3X19749   0.441   2.873  16.229
  163DOPC   H3Y19750   0.272   2.772  16.223
  163DOPC   C3419751   0.413   2.743  16.052
  163DOPC   H4X19752   0.530   2.735  16.025
  163DOPC   H4Y19753   0.369   2.845  16.003
  163DOPC   C3519754   0.330   2.612  15.991
  163DOPC   H5X19755   0.315   2.645  15.884
  163DOPC   H5Y19756   0.219   2.600  16.036
  163DOPC   C3619757   0.415   2.467  15.994
  163DOPC   H6X19758   0.519   2.485  15.941
  163DOPC   H6Y19759   0.443   2.435  16.098
  163DOPC   C3719760   0.336   2.338  15.926
  163DOPC   H7X19761   0.414   2.243  15.917
  163DOPC   H7Y19762   0.248   2.299  15.994
  163DOPC   C3819763   0.266   2.377  15.788
  163DOPC   H8X19764   0.217   2.487  15.787
  163DOPC   H8Y19765   0.173   2.299  15.773
  163DOPC   C3919766   0.378   2.358  15.677
  163DOPC   H9X19767   0.417   2.245  15.679
  163DOPC  C31019768   0.428   2.443  15.575
  163DOPC  H10X19769   0.509   2.390  15.508
  163DOPC  C31119770   0.391   2.596  15.526
  163DOPC  H11X19771   0.300   2.638  15.592
  163DOPC  H11Y19772   0.341   2.584  15.425
  163DOPC  C31219773   0.497   2.732  15.517
  163DOPC  H12X19774   0.521   2.768  15.621
  163DOPC  H12Y19775   0.424   2.818  15.473
  163DOPC  C31319776   0.639   2.753  15.432
  163DOPC  H13X19777   0.642   2.870  15.399
  163DOPC  H13Y19778   0.746   2.737  15.483
  163DOPC  C31419779   0.660   2.659  15.310
  163DOPC  H14X19780   0.679   2.545  15.339
  163DOPC  H14Y19781   0.550   2.652  15.272
  163DOPC  C31519782   0.779   2.724  15.217
  163DOPC  H15X19783   0.869   2.771  15.280
  163DOPC  H15Y19784   0.732   2.820  15.164
  163DOPC  C31619785   0.855   2.612  15.122
  163DOPC  H16X19786   0.892   2.673  15.032
  163DOPC  H16Y19787   0.956   2.575  15.171
  163DOPC  C31719788   0.770   2.472  15.083
  163DOPC  H17X19789   0.728   2.418  15.174
  163DOPC  H17Y19790   0.674   2.500  15.019
  163DOPC  C31819791   0.867   2.358  15.011
  163DOPC  H18X19792   0.925   2.287  15.083
  163DOPC  H18Y19793   0.799   2.286  14.945
  163DOPC  H18Z19794   0.950   2.414  14.950
  164DOPC     N19795   1.269   1.466  17.003
  164DOPC   C1219796   1.367   1.441  16.880
  164DOPC  H12A19797   1.464   1.508  16.888
  164DOPC  H12B19798   1.306   1.474  16.792
  164DOPC   C1319799   1.349   1.424  17.129
  164DOPC  H13A19800   1.456   1.476  17.139
  164DOPC  H13B19801   1.284   1.450  17.217
  164DOPC  H13C19802   1.370   1.307  17.128
  164DOPC   C1419803   1.137   1.370  16.992
  164DOPC  H14A19804   1.076   1.395  16.902
  164DOPC  H14B19805   1.177   1.256  16.978
  164DOPC  H14C19806   1.070   1.372  17.081
  164DOPC   C1519807   1.214   1.618  17.012
  164DOPC  H15A19808   1.156   1.651  16.923
  164DOPC  H15B19809   1.301   1.694  17.038
  164DOPC  H15C19810   1.137   1.629  17.096
  164DOPC   C1119811   1.418   1.283  16.849
  164DOPC  H11A19812   1.484   1.286  16.755
  164DOPC  H11B19813   1.491   1.242  16.931
  164DOPC     P19814   1.309   1.025  16.791
  164DOPC   O1319815   1.166   0.979  16.735
  164DOPC   O1419816   1.361   0.949  16.913
  164DOPC   O1219817   1.294   1.191  16.830
  164DOPC   O1119818   1.431   1.029  16.677
  164DOPC    C119819   1.581   0.988  16.698
  164DOPC    HA19820   1.588   0.877  16.744
  164DOPC    HB19821   1.635   1.067  16.767
  164DOPC    C219822   1.673   0.987  16.565
  164DOPC    HS19823   1.784   0.947  16.593
  164DOPC   O2119824   1.681   1.133  16.511
  164DOPC   C2119825   1.771   1.150  16.409
  164DOPC   O2219826   1.858   1.059  16.367
  164DOPC   C2219827   1.739   1.296  16.346
  164DOPC   H2R19828   1.793   1.383  16.406
  164DOPC   H2S19829   1.618   1.313  16.345
  164DOPC    C319830   1.610   0.878  16.457
  164DOPC    HX19831   1.608   0.771  16.510
  164DOPC    HY19832   1.687   0.862  16.372
  164DOPC   O3119833   1.464   0.913  16.413
  164DOPC   C3119834   1.448   0.978  16.295
  164DOPC   O3219835   1.543   0.993  16.211
  164DOPC   C3219836   1.290   1.034  16.285
  164DOPC   H2X19837   1.215   0.941  16.265
  164DOPC   H2Y19838   1.261   1.080  16.384
  164DOPC   C2319839   1.794   1.294  16.203
  164DOPC   H3R19840   1.748   1.197  16.148
  164DOPC   H3S19841   1.916   1.281  16.199
  164DOPC   C2419842   1.745   1.432  16.132
  164DOPC   H4R19843   1.807   1.526  16.176
  164DOPC   H4S19844   1.627   1.454  16.149
  164DOPC   C2519845   1.777   1.417  15.984
  164DOPC   H5R19846   1.881   1.354  15.973
  164DOPC   H5S19847   1.794   1.527  15.940
  164DOPC   C2619848   1.656   1.339  15.903
  164DOPC   H6R19849   1.570   1.421  15.877
  164DOPC   H6S19850   1.603   1.250  15.962
  164DOPC   C2719851   1.729   1.277  15.777
  164DOPC   H7R19852   1.794   1.177  15.804
  164DOPC   H7S19853   1.812   1.362  15.750
  164DOPC   C2819854   1.631   1.251  15.654
  164DOPC   H8R19855   1.536   1.180  15.678
  164DOPC   H8S19856   1.699   1.194  15.577
  164DOPC   C2919857   1.594   1.404  15.605
  164DOPC   H9R19858   1.693   1.467  15.586
  164DOPC  C21019859   1.471   1.456  15.551
  164DOPC  H10R19860   1.470   1.571  15.515
  164DOPC  C21119861   1.334   1.371  15.525
  164DOPC  H11R19862   1.232   1.424  15.562
  164DOPC  H11S19863   1.338   1.258  15.571
  164DOPC  C21219864   1.330   1.364  15.372
  164DOPC  H12R19865   1.286   1.470  15.332
  164DOPC  H12S19866   1.246   1.280  15.347
  164DOPC  C21319867   1.475   1.333  15.296
  164DOPC  H13R19868   1.543   1.256  15.357
  164DOPC  H13S19869   1.542   1.434  15.285
  164DOPC  C21419870   1.448   1.260  15.160
  164DOPC  H14R19871   1.342   1.207  15.163
  164DOPC  H14S19872   1.527   1.170  15.147
  164DOPC  C21519873   1.405   1.349  15.039
  164DOPC  H15R19874   1.495   1.418  14.997
  164DOPC  H15S19875   1.322   1.428  15.076
  164DOPC  C21619876   1.338   1.251  14.926
  164DOPC  H16R19877   1.428   1.198  14.869
  164DOPC  H16S19878   1.283   1.335  14.863
  164DOPC  C21719879   1.217   1.131  14.940
  164DOPC  H17R19880   1.167   1.126  15.041
  164DOPC  H17S19881   1.267   1.020  14.923
  164DOPC  C21819882   1.097   1.154  14.833
  164DOPC  H18R19883   1.140   1.132  14.732
  164DOPC  H18S19884   1.057   1.269  14.832
  164DOPC  H18T19885   0.999   1.084  14.849
  164DOPC   C3319886   1.270   1.155  16.176
  164DOPC   H3X19887   1.370   1.227  16.171
  164DOPC   H3Y19888   1.179   1.227  16.211
  164DOPC   C3419889   1.227   1.097  16.037
  164DOPC   H4X19890   1.141   1.011  16.051
  164DOPC   H4Y19891   1.322   1.039  15.990
  164DOPC   C3519892   1.170   1.219  15.941
  164DOPC   H5X19893   1.254   1.238  15.862
  164DOPC   H5Y19894   1.167   1.322  16.002
  164DOPC   C3619895   1.021   1.191  15.866
  164DOPC   H6X19896   0.952   1.126  15.930
  164DOPC   H6Y19897   0.968   1.301  15.848
  164DOPC   C3719898   1.035   1.089  15.740
  164DOPC   H7X19899   1.124   1.150  15.689
  164DOPC   H7Y19900   1.079   0.984  15.778
  164DOPC   C3819901   0.915   1.043  15.638
  164DOPC   H8X19902   0.977   1.076  15.545
  164DOPC   H8Y19903   0.836   1.135  15.631
  164DOPC   C3919904   0.839   0.893  15.608
  164DOPC   H9X19905   0.736   0.894  15.673
  164DOPC  C31019906   0.853   0.744  15.554
  164DOPC  H10X19907   0.754   0.678  15.574
  164DOPC  C31119908   0.969   0.638  15.482
  164DOPC  H11X19909   0.881   0.563  15.456
  164DOPC  H11Y19910   1.029   0.575  15.565
  164DOPC  C31219911   1.065   0.571  15.357
  164DOPC  H12X19912   0.990   0.579  15.270
  164DOPC  H12Y19913   1.061   0.449  15.381
  164DOPC  C31319914   1.233   0.575  15.292
  164DOPC  H13X19915   1.261   0.456  15.287
  164DOPC  H13Y19916   1.222   0.618  15.189
  164DOPC  C31419917   1.387   0.648  15.335
  164DOPC  H14X19918   1.427   0.589  15.423
  164DOPC  H14Y19919   1.348   0.755  15.356
  164DOPC  C31519920   1.536   0.697  15.258
  164DOPC  H15X19921   1.627   0.620  15.272
  164DOPC  H15Y19922   1.572   0.793  15.322
  164DOPC  C31619923   1.540   0.769  15.116
  164DOPC  H16X19924   1.430   0.756  15.073
  164DOPC  H16Y19925   1.539   0.890  15.132
  164DOPC  C31719926   1.671   0.735  15.013
  164DOPC  H17X19927   1.631   0.675  14.925
  164DOPC  H17Y19928   1.703   0.836  14.961
  164DOPC  C31819929   1.806   0.639  15.044
  164DOPC  H18X19930   1.812   0.606  15.151
  164DOPC  H18Y19931   1.802   0.537  14.984
  164DOPC  H18Z19932   1.909   0.695  15.014
  165DOPC     N19933   6.751   0.827  17.082
  165DOPC   C1219934   6.731   0.685  17.001
  165DOPC  H12A19935   6.616   0.652  17.009
  165DOPC  H12B19936   6.801   0.600  17.041
  165DOPC   C1319937   6.843   0.933  17.007
  165DOPC  H13A19938   6.952   0.890  16.988
  165DOPC  H13B19939   6.794   0.948  16.907
  165DOPC  H13C19940   6.845   1.041  17.052
  165DOPC   C1419941   6.811   0.794  17.216
  165DOPC  H14A19942   6.920   0.746  17.208
  165DOPC  H14B19943   6.816   0.892  17.278
  165DOPC  H14C19944   6.740   0.717  17.267
  165DOPC   C1519945   6.603   0.902  17.091
  165DOPC  H15A19946   6.568   0.934  16.991
  165DOPC  H15B19947   6.608   1.001  17.152
  165DOPC  H15C19948   6.520   0.829  17.130
  165DOPC   C1119949   6.765   0.692  16.851
  165DOPC  H11A19950   6.885   0.701  16.836
  165DOPC  H11B19951   6.730   0.587  16.802
  165DOPC     P19952   6.567   0.805  16.693
  165DOPC   O1319953   6.515   0.954  16.658
  165DOPC   O1419954   6.459   0.706  16.756
  165DOPC   O1219955   6.701   0.817  16.791
  165DOPC   O1119956   6.643   0.730  16.569
  165DOPC    C119957   6.791   0.763  16.530
  165DOPC    HA19958   6.820   0.688  16.447
  165DOPC    HB19959   6.870   0.741  16.612
  165DOPC    C219960   6.812   0.923  16.479
  165DOPC    HS19961   6.784   1.000  16.562
  165DOPC   O2119962   6.717   0.937  16.369
  165DOPC   C2119963   6.658   1.066  16.348
  165DOPC   O2219964   6.692   1.181  16.402
  165DOPC   C2219965   6.547   1.051  16.236
  165DOPC   H2R19966   6.558   1.147  16.170
  165DOPC   H2S19967   6.436   1.053  16.282
  165DOPC    C319968   6.973   0.953  16.433
  165DOPC    HX19969   6.997   0.867  16.355
  165DOPC    HY19970   7.050   0.934  16.517
  165DOPC   O3119971   6.998   1.092  16.370
  165DOPC   C3119972   7.008   1.209  16.451
  165DOPC   O3219973   6.983   1.208  16.570
  165DOPC   C3219974   7.074   1.340  16.376
  165DOPC   H2X19975   7.009   1.440  16.398
  165DOPC   H2Y19976   7.182   1.356  16.427
  165DOPC   C2319977   6.569   0.908  16.155
  165DOPC   H3R19978   6.471   0.894  16.091
  165DOPC   H3S19979   6.571   0.807  16.220
  165DOPC   C2419980   6.709   0.914  16.069
  165DOPC   H4R19981   6.809   0.923  16.133
  165DOPC   H4S19982   6.702   1.019  16.012
  165DOPC   C2519983   6.724   0.782  15.975
  165DOPC   H5R19984   6.742   0.682  16.037
  165DOPC   H5S19985   6.824   0.796  15.912
  165DOPC   C2619986   6.590   0.757  15.881
  165DOPC   H6R19987   6.509   0.689  15.936
  165DOPC   H6S19988   6.631   0.688  15.797
  165DOPC   C2719989   6.512   0.894  15.820
  165DOPC   H7R19990   6.457   0.959  15.899
  165DOPC   H7S19991   6.426   0.855  15.749
  165DOPC   C2819992   6.622   0.990  15.740
  165DOPC   H8R19993   6.657   0.919  15.658
  165DOPC   H8S19994   6.711   0.992  15.814
  165DOPC   C2919995   6.624   1.148  15.689
  165DOPC   H9R19996   6.624   1.231  15.769
  165DOPC  C21019997   6.642   1.199  15.563
  165DOPC  H10R19998   6.643   1.319  15.549
  165DOPC  C21119999   6.662   1.114  15.434
  165DOPC  H11R20000   6.556   1.115  15.379
  165DOPC  H11S20001   6.687   0.995  15.451
  165DOPC  C21220002   6.778   1.180  15.339
  165DOPC  H12R20003   6.805   1.296  15.365
  165DOPC  H12S20004   6.734   1.181  15.236
  165DOPC  C21320005   6.919   1.088  15.338
  165DOPC  H13R20006   6.893   0.969  15.329
  165DOPC  H13S20007   6.974   1.108  15.435
  165DOPC  C21420008   7.027   1.135  15.231
  165DOPC  H14R20009   7.058   1.248  15.254
  165DOPC  H14S20010   6.969   1.141  15.134
  165DOPC  C21520011   7.167   1.038  15.228
  165DOPC  H15R20012   7.143   0.934  15.176
  165DOPC  H15S20013   7.198   1.012  15.333
  165DOPC  C21620014   7.300   1.113  15.164
  165DOPC  H16R20015   7.316   1.219  15.214
  165DOPC  H16S20016   7.281   1.142  15.058
  165DOPC  C21720017   7.443   1.026  15.178
  165DOPC  H17R20018   7.443   0.935  15.104
  165DOPC  H17S20019   7.448   0.978  15.280
  165DOPC  C21820020   7.577   1.123  15.156
  165DOPC  H18R20021   7.678   1.057  15.138
  165DOPC  H18S20022   7.596   1.197  15.243
  165DOPC  H18T20023   7.556   1.191  15.066
  165DOPC   C3320024   7.105   1.315  16.224
  165DOPC   H3X20025   7.152   1.205  16.206
  165DOPC   H3Y20026   7.186   1.398  16.199
  165DOPC   C3420027   6.979   1.350  16.125
  165DOPC   H4X20028   6.964   1.470  16.146
  165DOPC   H4Y20029   6.878   1.288  16.154
  165DOPC   C3520030   7.003   1.340  15.970
  165DOPC   H5X20031   7.114   1.378  15.942
  165DOPC   H5Y20032   6.930   1.423  15.924
  165DOPC   C3620033   6.960   1.194  15.900
  165DOPC   H6X20034   7.022   1.098  15.942
  165DOPC   H6Y20035   6.838   1.175  15.911
  165DOPC   C3720036   6.965   1.191  15.745
  165DOPC   H7X20037   7.053   1.242  15.692
  165DOPC   H7Y20038   6.887   1.274  15.708
  165DOPC   C3820039   6.940   1.036  15.682
  165DOPC   H8X20040   6.853   1.043  15.607
  165DOPC   H8Y20041   6.908   0.978  15.774
  165DOPC   C3920042   7.047   0.933  15.618
  165DOPC   H9X20043   7.150   0.980  15.581
  165DOPC  C31020044   7.015   0.792  15.592
  165DOPC  H10X20045   7.102   0.724  15.552
  165DOPC  C31120046   6.878   0.703  15.613
  165DOPC  H11X20047   6.782   0.769  15.586
  165DOPC  H11Y20048   6.866   0.661  15.717
  165DOPC  C31220049   6.885   0.573  15.515
  165DOPC  H12X20050   6.974   0.496  15.545
  165DOPC  H12Y20051   6.910   0.611  15.411
  165DOPC  C31320052   6.741   0.487  15.508
  165DOPC  H13X20053   6.760   0.394  15.441
  165DOPC  H13Y20054   6.714   0.441  15.609
  165DOPC  C31420055   6.608   0.573  15.456
  165DOPC  H14X20056   6.512   0.498  15.466
  165DOPC  H14Y20057   6.585   0.671  15.520
  165DOPC  C31520058   6.619   0.623  15.309
  165DOPC  H15X20059   6.673   0.534  15.250
  165DOPC  H15Y20060   6.688   0.723  15.299
  165DOPC  C31620061   6.464   0.650  15.252
  165DOPC  H16X20062   6.383   0.583  15.310
  165DOPC  H16Y20063   6.434   0.767  15.266
  165DOPC  C31720064   6.445   0.603  15.106
  165DOPC  H17X20065   6.466   0.483  15.098
  165DOPC  H17Y20066   6.328   0.620  15.078
  165DOPC  C31820067   6.540   0.686  15.007
  165DOPC  H18X20068   6.508   0.803  15.008
  165DOPC  H18Y20069   6.658   0.677  15.031
  165DOPC  H18Z20070   6.520   0.645  14.903
  166DOPC     N20071   8.038   2.885  16.856
  166DOPC   C1220072   8.077   2.782  16.971
  166DOPC  H12A20073   7.991   2.698  16.982
  166DOPC  H12B20074   8.081   2.839  17.065
  166DOPC   C1320075   7.910   2.980  16.892
  166DOPC  H13A20076   7.816   2.911  16.913
  166DOPC  H13B20077   7.930   3.044  16.981
  166DOPC  H13C20078   7.882   3.051  16.810
  166DOPC   C1420079   7.996   2.792  16.737
  166DOPC  H14A20080   7.963   2.855  16.650
  166DOPC  H14B20081   8.088   2.722  16.710
  166DOPC  H14C20082   7.908   2.715  16.761
  166DOPC   C1520083   8.170   2.975  16.818
  166DOPC  H15A20084   8.252   2.901  16.777
  166DOPC  H15B20085   8.218   3.027  16.905
  166DOPC  H15C20086   8.144   3.057  16.742
  166DOPC   C1120087   8.220   2.692  16.954
  166DOPC  H11A20088   8.315   2.759  16.922
  166DOPC  H11B20089   8.257   2.641  17.051
  166DOPC     P20090   8.107   2.439  16.903
  166DOPC   O1320091   7.972   2.487  16.972
  166DOPC   O1420092   8.202   2.334  16.977
  166DOPC   O1220093   8.195   2.581  16.857
  166DOPC   O1120094   8.073   2.365  16.762
  166DOPC    C120095   8.206   2.345  16.684
  166DOPC    HA20096   8.284   2.269  16.735
  166DOPC    HB20097   8.264   2.451  16.668
  166DOPC    C220098   8.173   2.278  16.546
  166DOPC    HS20099   8.276   2.273  16.487
  166DOPC   O2120100   8.064   2.364  16.475
  166DOPC   C2120101   8.116   2.494  16.437
  166DOPC   O2220102   8.239   2.541  16.454
  166DOPC   C2220103   7.999   2.578  16.360
  166DOPC   H2R20104   8.012   2.698  16.380
  166DOPC   H2S20105   7.890   2.543  16.397
  166DOPC    C320106   8.119   2.119  16.563
  166DOPC    HX20107   8.039   2.111  16.647
  166DOPC    HY20108   8.215   2.048  16.590
  166DOPC   O3120109   8.062   2.070  16.438
  166DOPC   C3120110   7.918   2.087  16.425
  166DOPC   O3220111   7.832   2.105  16.516
  166DOPC   C3220112   7.884   2.081  16.277
  166DOPC   H2X20113   7.858   1.967  16.250
  166DOPC   H2Y20114   7.786   2.147  16.258
  166DOPC   C2320115   8.010   2.548  16.208
  166DOPC   H3R20116   7.908   2.587  16.157
  166DOPC   H3S20117   8.011   2.428  16.196
  166DOPC   C2420118   8.146   2.611  16.137
  166DOPC   H4R20119   8.247   2.594  16.197
  166DOPC   H4S20120   8.131   2.732  16.124
  166DOPC   C2520121   8.170   2.544  15.998
  166DOPC   H5R20122   8.193   2.424  16.006
  166DOPC   H5S20123   8.271   2.593  15.952
  166DOPC   C2620124   8.039   2.571  15.904
  166DOPC   H6R20125   7.995   2.684  15.919
  166DOPC   H6S20126   7.949   2.492  15.926
  166DOPC   C2720127   8.085   2.554  15.758
  166DOPC   H7R20128   8.154   2.453  15.754
  166DOPC   H7S20129   8.154   2.649  15.729
  166DOPC   C2820130   7.955   2.539  15.661
  166DOPC   H8R20131   7.889   2.641  15.658
  166DOPC   H8S20132   7.882   2.449  15.694
  166DOPC   C2920133   8.026   2.503  15.530
  166DOPC   H9R20134   8.110   2.418  15.537
  166DOPC  C21020135   8.007   2.567  15.413
  166DOPC  H10R20136   8.062   2.517  15.326
  166DOPC  C21120137   7.907   2.697  15.386
  166DOPC  H11R20138   7.944   2.792  15.448
  166DOPC  H11S20139   7.792   2.671  15.417
  166DOPC  C21220140   7.910   2.747  15.238
  166DOPC  H12R20141   7.847   2.849  15.224
  166DOPC  H12S20142   7.862   2.661  15.173
  166DOPC  C21320143   8.067   2.781  15.197
  166DOPC  H13R20144   8.121   2.673  15.207
  166DOPC  H13S20145   8.119   2.859  15.269
  166DOPC  C21420146   8.094   2.834  15.053
  166DOPC  H14R20147   8.047   2.945  15.037
  166DOPC  H14S20148   8.037   2.757  14.985
  166DOPC  C21520149   8.260   2.835  15.022
  166DOPC  H15R20150   8.309   2.943  15.048
  166DOPC  H15S20151   8.276   2.818  14.912
  166DOPC  C21620152   8.342   2.713  15.097
  166DOPC  H16R20153   8.286   2.607  15.074
  166DOPC  H16S20154   8.338   2.730  15.208
  166DOPC  C21720155   8.503   2.696  15.064
  166DOPC  H17R20156   8.556   2.790  15.111
  166DOPC  H17S20157   8.525   2.707  14.956
  166DOPC  C21820158   8.561   2.550  15.118
  166DOPC  H18R20159   8.621   2.563  15.214
  166DOPC  H18S20160   8.634   2.494  15.044
  166DOPC  H18T20161   8.467   2.475  15.137
  166DOPC   C3320162   8.009   2.141  16.190
  166DOPC   H3X20163   8.089   2.052  16.168
  166DOPC   H3Y20164   8.074   2.226  16.243
  166DOPC   C3420165   7.946   2.206  16.061
  166DOPC   H4X20166   8.014   2.299  16.028
  166DOPC   H4Y20167   7.831   2.243  16.070
  166DOPC   C3520168   7.964   2.089  15.956
  166DOPC   H5X20169   7.906   1.990  15.988
  166DOPC   H5Y20170   8.082   2.060  15.964
  166DOPC   C3620171   7.924   2.136  15.814
  166DOPC   H6X20172   7.805   2.156  15.805
  166DOPC   H6Y20173   7.975   2.245  15.792
  166DOPC   C3720174   7.981   2.020  15.715
  166DOPC   H7X20175   7.917   1.916  15.726
  166DOPC   H7Y20176   7.965   2.059  15.611
  166DOPC   C3820177   8.146   1.985  15.737
  166DOPC   H8X20178   8.186   1.917  15.653
  166DOPC   H8Y20179   8.161   1.919  15.828
  166DOPC   C3920180   8.228   2.127  15.752
  166DOPC   H9X20181   8.248   2.167  15.854
  166DOPC  C31020182   8.265   2.211  15.650
  166DOPC  H10X20183   8.318   2.318  15.667
  166DOPC  C31120184   8.229   2.171  15.508
  166DOPC  H11X20185   8.118   2.210  15.478
  166DOPC  H11Y20186   8.230   2.052  15.489
  166DOPC  C31220187   8.346   2.248  15.427
  166DOPC  H12X20188   8.457   2.204  15.445
  166DOPC  H12Y20189   8.349   2.368  15.450
  166DOPC  C31320190   8.313   2.230  15.281
  166DOPC  H13X20191   8.204   2.284  15.266
  166DOPC  H13Y20192   8.396   2.297  15.228
  166DOPC  C31420193   8.313   2.071  15.228
  166DOPC  H14X20194   8.416   2.014  15.252
  166DOPC  H14Y20195   8.225   2.006  15.278
  166DOPC  C31520196   8.293   2.060  15.075
  166DOPC  H15X20197   8.207   1.976  15.055
  166DOPC  H15Y20198   8.394   2.019  15.026
  166DOPC  C31620199   8.246   2.207  15.013
  166DOPC  H16X20200   8.314   2.300  15.045
  166DOPC  H16Y20201   8.257   2.203  14.903
  166DOPC  C31720202   8.084   2.228  15.050
  166DOPC  H17X20203   8.024   2.173  14.968
  166DOPC  H17Y20204   8.065   2.165  15.144
  166DOPC  C31820205   8.017   2.378  15.074
  166DOPC  H18X20206   8.098   2.460  15.109
  166DOPC  H18Y20207   7.972   2.412  14.977
  166DOPC  H18Z20208   7.923   2.373  15.145
  167DOPC     N20209   7.164   1.298  16.866
  167DOPC   C1220210   7.302   1.293  16.779
  167DOPC  H12A20211   7.366   1.391  16.802
  167DOPC  H12B20212   7.268   1.298  16.675
  167DOPC   C1320213   7.081   1.433  16.829
  167DOPC  H13A20214   7.145   1.532  16.833
  167DOPC  H13B20215   7.030   1.420  16.731
  167DOPC  H13C20216   6.990   1.447  16.900
  167DOPC   C1420217   7.207   1.305  17.009
  167DOPC  H14A20218   7.113   1.305  17.075
  167DOPC  H14B20219   7.282   1.213  17.030
  167DOPC  H14C20220   7.273   1.401  17.031
  167DOPC   C1520221   7.064   1.169  16.848
  167DOPC  H15A20222   7.046   1.143  16.743
  167DOPC  H15B20223   6.954   1.195  16.884
  167DOPC  H15C20224   7.108   1.075  16.899
  167DOPC   C1120225   7.410   1.163  16.796
  167DOPC  H11A20226   7.357   1.063  16.761
  167DOPC  H11B20227   7.502   1.177  16.724
  167DOPC     P20228   7.608   1.209  16.978
  167DOPC   O1320229   7.662   1.131  17.097
  167DOPC   O1420230   7.599   1.372  16.976
  167DOPC   O1220231   7.459   1.141  16.929
  167DOPC   O1120232   7.716   1.153  16.865
  167DOPC    C120233   7.825   1.248  16.812
  167DOPC    HA20234   7.937   1.206  16.835
  167DOPC    HB20235   7.823   1.363  16.854
  167DOPC    C220236   7.810   1.263  16.659
  167DOPC    HS20237   7.900   1.339  16.632
  167DOPC   O2120238   7.666   1.316  16.624
  167DOPC   C2120239   7.671   1.438  16.558
  167DOPC   O2220240   7.766   1.531  16.565
  167DOPC   C2220241   7.551   1.437  16.456
  167DOPC   H2R20242   7.449   1.386  16.493
  167DOPC   H2S20243   7.598   1.365  16.376
  167DOPC    C320244   7.839   1.118  16.579
  167DOPC    HX20245   7.902   1.043  16.644
  167DOPC    HY20246   7.915   1.151  16.497
  167DOPC   O3120247   7.707   1.052  16.523
  167DOPC   C3120248   7.654   0.939  16.594
  167DOPC   O3220249   7.721   0.873  16.680
  167DOPC   C3220250   7.493   0.904  16.564
  167DOPC   H2X20251   7.493   0.802  16.505
  167DOPC   H2Y20252   7.444   0.871  16.660
  167DOPC   C2320253   7.527   1.594  16.405
  167DOPC   H3R20254   7.632   1.639  16.363
  167DOPC   H3S20255   7.495   1.669  16.488
  167DOPC   C2420256   7.410   1.593  16.297
  167DOPC   H4R20257   7.402   1.704  16.253
  167DOPC   H4S20258   7.303   1.570  16.347
  167DOPC   C2520259   7.435   1.474  16.190
  167DOPC   H5R20260   7.360   1.498  16.105
  167DOPC   H5S20261   7.402   1.365  16.231
  167DOPC   C2620262   7.590   1.450  16.135
  167DOPC   H6R20263   7.626   1.334  16.151
  167DOPC   H6S20264   7.673   1.523  16.185
  167DOPC   C2720265   7.596   1.488  15.989
  167DOPC   H7R20266   7.713   1.506  15.963
  167DOPC   H7S20267   7.530   1.592  15.979
  167DOPC   C2820268   7.528   1.384  15.890
  167DOPC   H8R20269   7.406   1.376  15.904
  167DOPC   H8S20270   7.575   1.270  15.901
  167DOPC   C2920271   7.569   1.460  15.761
  167DOPC   H9R20272   7.492   1.548  15.732
  167DOPC  C21020273   7.678   1.420  15.679
  167DOPC  H10R20274   7.703   1.491  15.592
  167DOPC  C21120275   7.776   1.290  15.708
  167DOPC  H11R20276   7.779   1.277  15.818
  167DOPC  H11S20277   7.887   1.330  15.685
  167DOPC  C21220278   7.750   1.134  15.634
  167DOPC  H12R20279   7.663   1.133  15.713
  167DOPC  H12S20280   7.862   1.108  15.669
  167DOPC  C21320281   7.725   0.960  15.659
  167DOPC  H13R20282   7.619   0.927  15.616
  167DOPC  H13S20283   7.718   0.934  15.767
  167DOPC  C21420284   7.847   0.856  15.606
  167DOPC  H14R20285   7.872   0.773  15.687
  167DOPC  H14S20286   7.945   0.920  15.590
  167DOPC  C21520287   7.828   0.768  15.476
  167DOPC  H15R20288   7.780   0.659  15.499
  167DOPC  H15S20289   7.940   0.746  15.435
  167DOPC  C21620290   7.733   0.836  15.364
  167DOPC  H16R20291   7.802   0.909  15.302
  167DOPC  H16S20292   7.642   0.902  15.406
  167DOPC  C21720293   7.668   0.716  15.275
  167DOPC  H17R20294   7.587   0.766  15.206
  167DOPC  H17S20295   7.608   0.635  15.338
  167DOPC  C21820296   7.784   0.635  15.193
  167DOPC  H18R20297   7.732   0.542  15.137
  167DOPC  H18S20298   7.871   0.589  15.259
  167DOPC  H18T20299   7.835   0.711  15.120
  167DOPC   C3320300   7.399   1.026  16.501
  167DOPC   H3X20301   7.460   1.130  16.483
  167DOPC   H3Y20302   7.301   1.053  16.564
  167DOPC   C3420303   7.337   0.968  16.372
  167DOPC   H4X20304   7.276   1.058  16.319
  167DOPC   H4Y20305   7.258   0.878  16.390
  167DOPC   C3520306   7.458   0.911  16.282
  167DOPC   H5X20307   7.501   0.802  16.313
  167DOPC   H5Y20308   7.554   0.987  16.281
  167DOPC   C3620309   7.388   0.901  16.148
  167DOPC   H6X20310   7.311   0.994  16.131
  167DOPC   H6Y20311   7.476   0.906  16.071
  167DOPC   C3720312   7.304   0.758  16.129
  167DOPC   H7X20313   7.365   0.677  16.192
  167DOPC   H7Y20314   7.188   0.758  16.166
  167DOPC   C3820315   7.321   0.722  15.980
  167DOPC   H8X20316   7.282   0.612  15.954
  167DOPC   H8Y20317   7.439   0.717  15.963
  167DOPC   C3920318   7.237   0.839  15.904
  167DOPC   H9X20319   7.119   0.811  15.909
  167DOPC  C31020320   7.271   0.964  15.834
  167DOPC  H10X20321   7.179   1.032  15.803
  167DOPC  C31120322   7.404   1.056  15.805
  167DOPC  H11X20323   7.512   1.007  15.831
  167DOPC  H11Y20324   7.389   1.147  15.874
  167DOPC  C31220325   7.393   1.125  15.661
  167DOPC  H12X20326   7.365   1.042  15.585
  167DOPC  H12Y20327   7.494   1.173  15.621
  167DOPC  C31320328   7.303   1.267  15.658
  167DOPC  H13X20329   7.245   1.278  15.753
  167DOPC  H13Y20330   7.366   1.368  15.663
  167DOPC  C31420331   7.227   1.303  15.527
  167DOPC  H14X20332   7.176   1.203  15.484
  167DOPC  H14Y20333   7.136   1.383  15.549
  167DOPC  C31520334   7.336   1.375  15.431
  167DOPC  H15X20335   7.402   1.285  15.387
  167DOPC  H15Y20336   7.415   1.448  15.484
  167DOPC  C31620337   7.258   1.472  15.329
  167DOPC  H16X20338   7.152   1.421  15.303
  167DOPC  H16Y20339   7.226   1.576  15.373
  167DOPC  C31720340   7.346   1.502  15.203
  167DOPC  H17X20341   7.394   1.614  15.202
  167DOPC  H17Y20342   7.440   1.423  15.204
  167DOPC  C31820343   7.253   1.477  15.077
  167DOPC  H18X20344   7.307   1.395  15.011
  167DOPC  H18Y20345   7.143   1.434  15.102
  167DOPC  H18Z20346   7.239   1.583  15.022
  168DOPC     N20347   2.308   8.268  16.974
  168DOPC   C1220348   2.276   8.337  16.838
  168DOPC  H12A20349   2.251   8.250  16.767
  168DOPC  H12B20350   2.374   8.391  16.801
  168DOPC   C1320351   2.465   8.224  16.986
  168DOPC  H13A20352   2.485   8.175  17.084
  168DOPC  H13B20353   2.496   8.144  16.910
  168DOPC  H13C20354   2.537   8.318  16.976
  168DOPC   C1420355   2.207   8.138  16.991
  168DOPC  H14A20356   2.218   8.062  16.907
  168DOPC  H14B20357   2.219   8.084  17.086
  168DOPC  H14C20358   2.093   8.177  16.981
  168DOPC   C1520359   2.279   8.375  17.083
  168DOPC  H15A20360   2.350   8.470  17.070
  168DOPC  H15B20361   2.302   8.329  17.181
  168DOPC  H15C20362   2.166   8.413  17.075
  168DOPC   C1120363   2.147   8.449  16.826
  168DOPC  H11A20364   2.178   8.551  16.879
  168DOPC  H11B20365   2.134   8.481  16.719
  168DOPC     P20366   1.913   8.292  16.791
  168DOPC   O1320367   1.862   8.379  16.675
  168DOPC   O1420368   1.805   8.215  16.877
  168DOPC   O1220369   2.013   8.394  16.882
  168DOPC   O1120370   2.032   8.172  16.744
  168DOPC    C120371   1.982   8.024  16.718
  168DOPC    HA20372   1.860   8.009  16.728
  168DOPC    HB20373   2.035   7.952  16.792
  168DOPC    C220374   2.020   7.965  16.577
  168DOPC    HS20375   1.998   7.844  16.576
  168DOPC   O2120376   2.166   7.998  16.535
  168DOPC   C2120377   2.259   7.910  16.583
  168DOPC   O2220378   2.241   7.822  16.674
  168DOPC   C2220379   2.394   7.917  16.491
  168DOPC   H2R20380   2.450   7.809  16.500
  168DOPC   H2S20381   2.464   8.006  16.529
  168DOPC    C320382   1.928   8.028  16.463
  168DOPC    HX20383   1.812   8.003  16.477
  168DOPC    HY20384   1.969   7.966  16.372
  168DOPC   O3120385   1.954   8.184  16.452
  168DOPC   C3120386   1.913   8.228  16.333
  168DOPC   O3220387   1.857   8.146  16.251
  168DOPC   C3220388   1.949   8.390  16.311
  168DOPC   H2X20389   2.001   8.435  16.402
  168DOPC   H2Y20390   2.028   8.394  16.227
  168DOPC   C2320391   2.356   7.951  16.343
  168DOPC   H3R20392   2.248   7.900  16.320
  168DOPC   H3S20393   2.442   7.897  16.279
  168DOPC   C2420394   2.345   8.114  16.305
  168DOPC   H4R20395   2.386   8.183  16.388
  168DOPC   H4S20396   2.226   8.136  16.293
  168DOPC   C2520397   2.424   8.156  16.174
  168DOPC   H5R20398   2.450   8.056  16.114
  168DOPC   H5S20399   2.533   8.206  16.200
  168DOPC   C2620400   2.335   8.263  16.087
  168DOPC   H6R20401   2.397   8.368  16.076
  168DOPC   H6S20402   2.231   8.292  16.139
  168DOPC   C2720403   2.296   8.205  15.947
  168DOPC   H7R20404   2.399   8.192  15.888
  168DOPC   H7S20405   2.232   8.293  15.896
  168DOPC   C2820406   2.210   8.059  15.942
  168DOPC   H8R20407   2.276   7.971  15.990
  168DOPC   H8S20408   2.198   8.027  15.835
  168DOPC   C2920409   2.062   8.070  16.009
  168DOPC   H9R20410   2.067   8.081  16.119
  168DOPC  C21020411   1.929   8.071  15.950
  168DOPC  H10R20412   1.830   8.089  16.011
  168DOPC  C21120413   1.904   8.062  15.802
  168DOPC  H11R20414   1.786   8.040  15.777
  168DOPC  H11S20415   1.970   7.973  15.759
  168DOPC  C21220416   1.945   8.210  15.743
  168DOPC  H12R20417   2.056   8.246  15.774
  168DOPC  H12S20418   1.863   8.288  15.785
  168DOPC  C21320419   1.945   8.219  15.591
  168DOPC  H13R20420   1.893   8.325  15.558
  168DOPC  H13S20421   1.877   8.128  15.550
  168DOPC  C21420422   2.101   8.216  15.533
  168DOPC  H14R20423   2.166   8.128  15.583
  168DOPC  H14S20424   2.157   8.323  15.553
  168DOPC  C21520425   2.103   8.185  15.385
  168DOPC  H15R20426   2.120   8.065  15.372
  168DOPC  H15S20427   2.197   8.242  15.335
  168DOPC  C21620428   1.961   8.224  15.313
  168DOPC  H16R20429   1.934   8.342  15.317
  168DOPC  H16S20430   1.863   8.173  15.359
  168DOPC  C21720431   1.976   8.159  15.174
  168DOPC  H17R20432   2.058   8.069  15.177
  168DOPC  H17S20433   2.020   8.240  15.103
  168DOPC  C21820434   1.832   8.087  15.135
  168DOPC  H18R20435   1.838   7.968  15.153
  168DOPC  H18S20436   1.799   8.111  15.031
  168DOPC  H18T20437   1.742   8.132  15.199
  168DOPC   C3320438   1.809   8.478  16.276
  168DOPC   H3X20439   1.737   8.479  16.366
  168DOPC   H3Y20440   1.749   8.423  16.193
  168DOPC   C3420441   1.839   8.638  16.236
  168DOPC   H4X20442   1.888   8.694  16.324
  168DOPC   H4Y20443   1.733   8.693  16.214
  168DOPC   C3520444   1.942   8.658  16.116
  168DOPC   H5X20445   2.055   8.622  16.145
  168DOPC   H5Y20446   1.947   8.779  16.093
  168DOPC   C3620447   1.900   8.579  15.987
  168DOPC   H6X20448   1.879   8.460  16.003
  168DOPC   H6Y20449   1.797   8.630  15.945
  168DOPC   C3720450   2.025   8.595  15.887
  168DOPC   H7X20451   2.073   8.707  15.895
  168DOPC   H7Y20452   2.114   8.515  15.912
  168DOPC   C3820453   1.984   8.578  15.740
  168DOPC   H8X20454   1.928   8.474  15.721
  168DOPC   H8Y20455   2.093   8.568  15.691
  168DOPC   C3920456   1.888   8.697  15.682
  168DOPC   H9X20457   1.773   8.699  15.718
  168DOPC  C31020458   1.932   8.789  15.586
  168DOPC  H10X20459   1.856   8.872  15.544
  168DOPC  C31120460   2.085   8.781  15.529
  168DOPC  H11X20461   2.169   8.788  15.609
  168DOPC  H11Y20462   2.105   8.876  15.461
  168DOPC  C31220463   2.110   8.644  15.445
  168DOPC  H12X20464   2.091   8.539  15.500
  168DOPC  H12Y20465   2.228   8.642  15.415
  168DOPC  C31320466   2.008   8.642  15.324
  168DOPC  H13X20467   1.899   8.595  15.355
  168DOPC  H13Y20468   1.989   8.756  15.288
  168DOPC  C31420469   2.075   8.554  15.212
  168DOPC  H14X20470   2.105   8.441  15.245
  168DOPC  H14Y20471   1.991   8.540  15.131
  168DOPC  C31520472   2.219   8.618  15.163
  168DOPC  H15X20473   2.310   8.568  15.222
  168DOPC  H15Y20474   2.223   8.738  15.180
  168DOPC  C31620475   2.237   8.580  15.017
  168DOPC  H16X20476   2.353   8.604  14.985
  168DOPC  H16Y20477   2.220   8.459  15.012
  168DOPC  C31720478   2.130   8.660  14.924
  168DOPC  H17X20479   2.157   8.634  14.818
  168DOPC  H17Y20480   2.015   8.622  14.941
  168DOPC  C31820481   2.133   8.827  14.935
  168DOPC  H18X20482   2.247   8.868  14.918
  168DOPC  H18Y20483   2.060   8.872  14.856
  168DOPC  H18Z20484   2.092   8.866  15.033
  169DOPC     N20485   0.626   1.228  17.016
  169DOPC   C1220486   0.562   1.376  16.978
  169DOPC  H12A20487   0.567   1.393  16.871
  169DOPC  H12B20488   0.625   1.463  17.025
  169DOPC   C1320489   0.563   1.114  16.924
  169DOPC  H13A20490   0.583   1.004  16.961
  169DOPC  H13B20491   0.443   1.132  16.915
  169DOPC  H13C20492   0.606   1.123  16.824
  169DOPC   C1420493   0.585   1.190  17.158
  169DOPC  H14A20494   0.638   1.091  17.193
  169DOPC  H14B20495   0.617   1.281  17.224
  169DOPC  H14C20496   0.466   1.178  17.165
  169DOPC   C1520497   0.789   1.229  17.007
  169DOPC  H15A20498   0.831   1.239  16.906
  169DOPC  H15B20499   0.834   1.129  17.049
  169DOPC  H15C20500   0.829   1.319  17.068
  169DOPC   C1120501   0.398   1.401  17.013
  169DOPC  H11A20502   0.374   1.377  17.120
  169DOPC  H11B20503   0.378   1.522  17.004
  169DOPC     P20504   0.243   1.397  16.800
  169DOPC   O1320505   0.176   1.538  16.842
  169DOPC   O1420506   0.158   1.295  16.717
  169DOPC   O1220507   0.305   1.313  16.929
  169DOPC   O1120508   0.394   1.432  16.733
  169DOPC    C120509   0.476   1.357  16.636
  169DOPC    HA20510   0.406   1.307  16.558
  169DOPC    HB20511   0.543   1.270  16.684
  169DOPC    C220512   0.576   1.475  16.575
  169DOPC    HS20513   0.604   1.560  16.652
  169DOPC   O2120514   0.499   1.538  16.466
  169DOPC   C2120515   0.408   1.647  16.482
  169DOPC   O2220516   0.382   1.718  16.582
  169DOPC   C2220517   0.363   1.683  16.339
  169DOPC   H2R20518   0.272   1.761  16.343
  169DOPC   H2S20519   0.328   1.580  16.291
  169DOPC    C320520   0.724   1.413  16.520
  169DOPC    HX20521   0.768   1.333  16.593
  169DOPC    HY20522   0.804   1.505  16.513
  169DOPC   O3120523   0.701   1.339  16.395
  169DOPC   C3120524   0.746   1.412  16.288
  169DOPC   O3220525   0.810   1.530  16.285
  169DOPC   C3220526   0.720   1.320  16.168
  169DOPC   H2X20527   0.624   1.248  16.179
  169DOPC   H2Y20528   0.710   1.386  16.075
  169DOPC   C2320529   0.503   1.748  16.274
  169DOPC   H3R20530   0.603   1.686  16.307
  169DOPC   H3S20531   0.516   1.859  16.317
  169DOPC   C2420532   0.516   1.745  16.122
  169DOPC   H4R20533   0.634   1.768  16.096
  169DOPC   H4S20534   0.451   1.834  16.074
  169DOPC   C2520535   0.477   1.596  16.061
  169DOPC   H5R20536   0.362   1.565  16.085
  169DOPC   H5S20537   0.547   1.514  16.107
  169DOPC   C2620538   0.494   1.598  15.910
  169DOPC   H6R20539   0.526   1.488  15.871
  169DOPC   H6S20540   0.582   1.674  15.876
  169DOPC   C2720541   0.344   1.639  15.855
  169DOPC   H7R20542   0.318   1.751  15.891
  169DOPC   H7S20543   0.261   1.569  15.903
  169DOPC   C2820544   0.337   1.617  15.704
  169DOPC   H8R20545   0.222   1.597  15.669
  169DOPC   H8S20546   0.404   1.521  15.673
  169DOPC   C2920547   0.391   1.761  15.656
  169DOPC   H9R20548   0.340   1.856  15.707
  169DOPC  C21020549   0.493   1.786  15.566
  169DOPC  H10R20550   0.507   1.900  15.532
  169DOPC  C21120551   0.577   1.674  15.492
  169DOPC  H11R20552   0.554   1.709  15.388
  169DOPC  H11S20553   0.532   1.561  15.505
  169DOPC  C21220554   0.745   1.669  15.510
  169DOPC  H12R20555   0.775   1.581  15.583
  169DOPC  H12S20556   0.790   1.774  15.549
  169DOPC  C21320557   0.811   1.632  15.374
  169DOPC  H13R20558   0.932   1.610  15.381
  169DOPC  H13S20559   0.795   1.727  15.305
  169DOPC  C21420560   0.726   1.500  15.317
  169DOPC  H14R20561   0.613   1.536  15.297
  169DOPC  H14S20562   0.724   1.408  15.390
  169DOPC  C21520563   0.780   1.449  15.183
  169DOPC  H15R20564   0.796   1.547  15.119
  169DOPC  H15S20565   0.701   1.386  15.123
  169DOPC  C21620566   0.908   1.348  15.211
  169DOPC  H16R20567   0.868   1.231  15.209
  169DOPC  H16S20568   0.948   1.367  15.315
  169DOPC  C21720569   1.031   1.378  15.116
  169DOPC  H17R20570   0.993   1.339  15.016
  169DOPC  H17S20571   1.125   1.310  15.149
  169DOPC  C21820572   1.078   1.540  15.108
  169DOPC  H18R20573   1.159   1.564  15.188
  169DOPC  H18S20574   0.990   1.623  15.119
  169DOPC  H18T20575   1.131   1.561  15.010
  169DOPC   C3320576   0.860   1.233  16.146
  169DOPC   H3X20577   0.956   1.306  16.123
  169DOPC   H3Y20578   0.824   1.174  16.058
  169DOPC   C3420579   0.898   1.118  16.251
  169DOPC   H4X20580   0.923   1.177  16.346
  169DOPC   H4Y20581   0.999   1.058  16.222
  169DOPC   C3520582   0.777   1.003  16.274
  169DOPC   H5X20583   0.669   1.057  16.291
  169DOPC   H5Y20584   0.805   0.948  16.371
  169DOPC   C3620585   0.765   0.881  16.168
  169DOPC   H6X20586   0.872   0.824  16.162
  169DOPC   H6Y20587   0.685   0.799  16.205
  169DOPC   C3720588   0.717   0.922  16.024
  169DOPC   H7X20589   0.812   0.966  15.967
  169DOPC   H7Y20590   0.695   0.815  15.976
  169DOPC   C3820591   0.583   1.026  16.009
  169DOPC   H8X20592   0.627   1.135  15.978
  169DOPC   H8Y20593   0.534   1.041  16.110
  169DOPC   C3920594   0.461   0.983  15.916
  169DOPC   H9X20595   0.427   0.869  15.921
  169DOPC  C31020596   0.396   1.067  15.824
  169DOPC  H10X20597   0.306   1.019  15.765
  169DOPC  C31120598   0.431   1.224  15.790
  169DOPC  H11X20599   0.456   1.287  15.882
  169DOPC  H11Y20600   0.334   1.278  15.743
  169DOPC  C31220601   0.559   1.236  15.690
  169DOPC  H12X20602   0.666   1.228  15.745
  169DOPC  H12Y20603   0.559   1.346  15.642
  169DOPC  C31320604   0.556   1.119  15.579
  169DOPC  H13X20605   0.647   1.137  15.507
  169DOPC  H13Y20606   0.573   1.011  15.627
  169DOPC  C31420607   0.408   1.105  15.505
  169DOPC  H14X20608   0.404   0.997  15.454
  169DOPC  H14Y20609   0.315   1.111  15.575
  169DOPC  C31520610   0.387   1.227  15.401
  169DOPC  H15X20611   0.426   1.333  15.442
  169DOPC  H15Y20612   0.267   1.236  15.382
  169DOPC  C31620613   0.468   1.188  15.272
  169DOPC  H16X20614   0.586   1.174  15.294
  169DOPC  H16Y20615   0.425   1.080  15.235
  169DOPC  C31720616   0.452   1.307  15.165
  169DOPC  H17X20617   0.491   1.409  15.211
  169DOPC  H17Y20618   0.519   1.287  15.076
  169DOPC  C31820619   0.301   1.349  15.123
  169DOPC  H18X20620   0.240   1.261  15.070
  169DOPC  H18Y20621   0.246   1.372  15.217
  169DOPC  H18Z20622   0.306   1.452  15.064
  170DOPC     N20623   7.648   7.765  16.782
  170DOPC   C1220624   7.581   7.721  16.917
  170DOPC  H12A20625   7.582   7.818  16.981
  170DOPC  H12B20626   7.652   7.641  16.964
  170DOPC   C1320627   7.810   7.795  16.797
  170DOPC  H13A20628   7.852   7.843  16.705
  170DOPC  H13B20629   7.834   7.869  16.878
  170DOPC  H13C20630   7.872   7.693  16.815
  170DOPC   C1420631   7.569   7.900  16.735
  170DOPC  H14A20632   7.450   7.879  16.736
  170DOPC  H14B20633   7.582   7.990  16.806
  170DOPC  H14C20634   7.601   7.937  16.637
  170DOPC   C1520635   7.631   7.643  16.683
  170DOPC  H15A20636   7.687   7.667  16.590
  170DOPC  H15B20637   7.515   7.625  16.664
  170DOPC  H15C20638   7.675   7.539  16.721
  170DOPC   C1120639   7.421   7.663  16.920
  170DOPC  H11A20640   7.407   7.572  16.847
  170DOPC  H11B20641   7.396   7.614  17.020
  170DOPC     P20642   7.286   7.899  16.999
  170DOPC   O1320643   7.424   7.986  17.015
  170DOPC   O1420644   7.231   7.814  17.115
  170DOPC   O1220645   7.318   7.777  16.888
  170DOPC   O1120646   7.156   7.985  16.933
  170DOPC    C120647   7.159   8.045  16.801
  170DOPC    HA20648   7.271   8.083  16.771
  170DOPC    HB20649   7.088   8.147  16.803
  170DOPC    C220650   7.092   7.940  16.694
  170DOPC    HS20651   6.983   7.904  16.733
  170DOPC   O2120652   7.186   7.819  16.661
  170DOPC   C2120653   7.129   7.688  16.646
  170DOPC   O2220654   7.006   7.649  16.681
  170DOPC   C2220655   7.249   7.589  16.584
  170DOPC   H2R20656   7.278   7.509  16.663
  170DOPC   H2S20657   7.347   7.656  16.560
  170DOPC    C320658   7.069   8.024  16.563
  170DOPC    HX20659   7.006   8.126  16.584
  170DOPC    HY20660   6.999   7.954  16.497
  170DOPC   O3120661   7.215   8.059  16.512
  170DOPC   C3120662   7.242   7.998  16.394
  170DOPC   O3220663   7.149   7.953  16.318
  170DOPC   C3220664   7.407   7.987  16.365
  170DOPC   H2X20665   7.445   7.879  16.405
  170DOPC   H2Y20666   7.417   7.983  16.254
  170DOPC   C2320667   7.205   7.503  16.456
  170DOPC   H3R20668   7.092   7.456  16.467
  170DOPC   H3S20669   7.282   7.407  16.445
  170DOPC   C2420670   7.214   7.594  16.327
  170DOPC   H4R20671   7.325   7.645  16.318
  170DOPC   H4S20672   7.131   7.685  16.334
  170DOPC   C2520673   7.182   7.503  16.201
  170DOPC   H5R20674   7.071   7.454  16.211
  170DOPC   H5S20675   7.262   7.411  16.194
  170DOPC   C2620676   7.187   7.591  16.071
  170DOPC   H6R20677   7.158   7.515  15.987
  170DOPC   H6S20678   7.302   7.631  16.052
  170DOPC   C2720679   7.082   7.724  16.066
  170DOPC   H7R20680   7.132   7.816  16.122
  170DOPC   H7S20681   6.977   7.696  16.117
  170DOPC   C2820682   7.048   7.776  15.922
  170DOPC   H8R20683   6.977   7.876  15.925
  170DOPC   H8S20684   6.981   7.688  15.873
  170DOPC   C2920685   7.187   7.802  15.845
  170DOPC   H9R20686   7.215   7.714  15.773
  170DOPC  C21020687   7.278   7.919  15.853
  170DOPC  H10R20688   7.384   7.912  15.800
  170DOPC  C21120689   7.264   8.053  15.940
  170DOPC  H11R20690   7.377   8.088  15.971
  170DOPC  H11S20691   7.208   8.024  16.035
  170DOPC  C21220692   7.182   8.186  15.879
  170DOPC  H12R20693   7.219   8.286  15.934
  170DOPC  H12S20694   7.064   8.170  15.905
  170DOPC  C21320695   7.185   8.213  15.724
  170DOPC  H13R20696   7.118   8.311  15.703
  170DOPC  H13S20697   7.127   8.120  15.675
  170DOPC  C21420698   7.344   8.228  15.668
  170DOPC  H14R20699   7.370   8.111  15.682
  170DOPC  H14S20700   7.400   8.304  15.738
  170DOPC  C21520701   7.407   8.263  15.524
  170DOPC  H15R20702   7.481   8.360  15.529
  170DOPC  H15S20703   7.328   8.283  15.445
  170DOPC  C21620704   7.490   8.138  15.455
  170DOPC  H16R20705   7.422   8.040  15.480
  170DOPC  H16S20706   7.601   8.127  15.497
  170DOPC  C21720707   7.504   8.144  15.301
  170DOPC  H17R20708   7.393   8.144  15.256
  170DOPC  H17S20709   7.560   8.041  15.267
  170DOPC  C21820710   7.591   8.274  15.246
  170DOPC  H18R20711   7.610   8.262  15.136
  170DOPC  H18S20712   7.701   8.284  15.295
  170DOPC  H18T20713   7.528   8.378  15.262
  170DOPC   C3320714   7.506   8.110  16.421
  170DOPC   H3X20715   7.485   8.127  16.529
  170DOPC   H3Y20716   7.481   8.216  16.369
  170DOPC   C3420717   7.670   8.075  16.401
  170DOPC   H4X20718   7.699   7.973  16.456
  170DOPC   H4Y20719   7.739   8.166  16.441
  170DOPC   C3520720   7.712   8.053  16.254
  170DOPC   H5X20721   7.653   7.959  16.208
  170DOPC   H5Y20722   7.832   8.026  16.251
  170DOPC   C3620723   7.690   8.190  16.167
  170DOPC   H6X20724   7.572   8.201  16.137
  170DOPC   H6Y20725   7.722   8.290  16.224
  170DOPC   C3720726   7.791   8.179  16.046
  170DOPC   H7X20727   7.904   8.195  16.085
  170DOPC   H7Y20728   7.789   8.064  16.004
  170DOPC   C3820729   7.767   8.294  15.940
  170DOPC   H8X20730   7.865   8.307  15.874
  170DOPC   H8Y20731   7.743   8.403  15.985
  170DOPC   C3920732   7.642   8.238  15.859
  170DOPC   H9X20733   7.533   8.278  15.891
  170DOPC  C31020734   7.654   8.141  15.759
  170DOPC  H10X20735   7.560   8.108  15.704
  170DOPC  C31120736   7.780   8.063  15.698
  170DOPC  H11X20737   7.875   8.086  15.762
  170DOPC  H11Y20738   7.803   8.109  15.597
  170DOPC  C31220739   7.750   7.896  15.685
  170DOPC  H12X20740   7.729   7.852  15.787
  170DOPC  H12Y20741   7.850   7.842  15.645
  170DOPC  C31320742   7.619   7.855  15.593
  170DOPC  H13X20743   7.517   7.907  15.632
  170DOPC  H13Y20744   7.642   7.899  15.492
  170DOPC  C31420745   7.579   7.691  15.576
  170DOPC  H14X20746   7.674   7.632  15.532
  170DOPC  H14Y20747   7.559   7.643  15.677
  170DOPC  C31520748   7.439   7.667  15.489
  170DOPC  H15X20749   7.343   7.704  15.548
  170DOPC  H15Y20750   7.426   7.547  15.471
  170DOPC  C31620751   7.436   7.748  15.354
  170DOPC  H16X20752   7.418   7.866  15.374
  170DOPC  H16Y20753   7.543   7.739  15.300
  170DOPC  C31720754   7.308   7.704  15.260
  170DOPC  H17X20755   7.208   7.680  15.319
  170DOPC  H17Y20756   7.283   7.801  15.195
  170DOPC  C31820757   7.345   7.577  15.167
  170DOPC  H18X20758   7.254   7.558  15.094
  170DOPC  H18Y20759   7.447   7.601  15.109
  170DOPC  H18Z20760   7.362   7.473  15.224
  171DOPC     N20761   4.283   3.155  13.076
  171DOPC   C1220762   4.173   3.254  13.147
  171DOPC  H12A20763   4.232   3.337  13.205
  171DOPC  H12B20764   4.107   3.190  13.215
  171DOPC   C1320765   4.204   3.067  12.971
  171DOPC  H13A20766   4.121   2.994  13.012
  171DOPC  H13B20767   4.147   3.146  12.907
  171DOPC  H13C20768   4.278   3.007  12.906
  171DOPC   C1420769   4.361   3.055  13.171
  171DOPC  H14A20770   4.285   2.981  13.219
  171DOPC  H14B20771   4.443   2.990  13.118
  171DOPC  H14C20772   4.419   3.116  13.247
  171DOPC   C1520773   4.393   3.253  13.009
  171DOPC  H15A20774   4.479   3.193  12.956
  171DOPC  H15B20775   4.444   3.326  13.081
  171DOPC  H15C20776   4.335   3.326  12.941
  171DOPC   C1120777   4.066   3.342  13.056
  171DOPC  H11A20778   4.004   3.267  12.988
  171DOPC  H11B20779   3.978   3.390  13.121
  171DOPC     P20780   4.157   3.608  13.044
  171DOPC   O1320781   4.011   3.680  13.043
  171DOPC   O1420782   4.285   3.685  12.982
  171DOPC   O1220783   4.143   3.450  12.980
  171DOPC   O1120784   4.197   3.563  13.192
  171DOPC    C120785   4.268   3.667  13.276
  171DOPC    HA20786   4.223   3.653  13.378
  171DOPC    HB20787   4.246   3.784  13.247
  171DOPC    C220788   4.437   3.643  13.282
  171DOPC    HS20789   4.481   3.660  13.179
  171DOPC   O2120790   4.468   3.498  13.328
  171DOPC   C2120791   4.607   3.453  13.324
  171DOPC   O2220792   4.711   3.518  13.276
  171DOPC   C2220793   4.616   3.300  13.387
  171DOPC   H2R20794   4.727   3.289  13.432
  171DOPC   H2S20795   4.603   3.216  13.307
  171DOPC    C320796   4.503   3.763  13.374
  171DOPC    HX20797   4.489   3.865  13.314
  171DOPC    HY20798   4.623   3.746  13.390
  171DOPC   O3120799   4.422   3.785  13.496
  171DOPC   C3120800   4.469   3.716  13.604
  171DOPC   O3220801   4.576   3.636  13.610
  171DOPC   C3220802   4.370   3.757  13.721
  171DOPC   H2X20803   4.425   3.721  13.814
  171DOPC   H2Y20804   4.359   3.879  13.723
  171DOPC   C2320805   4.498   3.280  13.496
  171DOPC   H3R20806   4.385   3.285  13.452
  171DOPC   H3S20807   4.506   3.376  13.566
  171DOPC   C2420808   4.512   3.142  13.581
  171DOPC   H4R20809   4.629   3.127  13.613
  171DOPC   H4S20810   4.480   3.043  13.522
  171DOPC   C2520811   4.415   3.156  13.705
  171DOPC   H5R20812   4.299   3.164  13.674
  171DOPC   H5S20813   4.445   3.259  13.759
  171DOPC   C2620814   4.433   3.027  13.803
  171DOPC   H6R20815   4.543   3.033  13.851
  171DOPC   H6S20816   4.429   2.922  13.746
  171DOPC   C2720817   4.312   3.024  13.910
  171DOPC   H7R20818   4.328   2.929  13.978
  171DOPC   H7S20819   4.207   3.005  13.856
  171DOPC   C2820820   4.294   3.167  13.992
  171DOPC   H8R20821   4.193   3.155  14.054
  171DOPC   H8S20822   4.271   3.259  13.922
  171DOPC   C2920823   4.424   3.196  14.083
  171DOPC   H9R20824   4.452   3.103  14.149
  171DOPC  C21020825   4.508   3.318  14.090
  171DOPC  H10R20826   4.598   3.321  14.163
  171DOPC  C21120827   4.491   3.457  14.008
  171DOPC  H11R20828   4.417   3.440  13.921
  171DOPC  H11S20829   4.599   3.490  13.964
  171DOPC  C21220830   4.429   3.587  14.090
  171DOPC  H12R20831   4.318   3.556  14.125
  171DOPC  H12S20832   4.414   3.683  14.022
  171DOPC  C21320833   4.523   3.638  14.210
  171DOPC  H13R20834   4.641   3.637  14.181
  171DOPC  H13S20835   4.508   3.560  14.294
  171DOPC  C21420836   4.483   3.795  14.256
  171DOPC  H14R20837   4.361   3.810  14.250
  171DOPC  H14S20838   4.530   3.873  14.182
  171DOPC  C21520839   4.534   3.835  14.398
  171DOPC  H15R20840   4.558   3.956  14.403
  171DOPC  H15S20841   4.637   3.774  14.424
  171DOPC  C21620842   4.415   3.806  14.502
  171DOPC  H16R20843   4.391   3.687  14.502
  171DOPC  H16S20844   4.316   3.869  14.468
  171DOPC  C21720845   4.448   3.857  14.645
  171DOPC  H17R20846   4.341   3.884  14.694
  171DOPC  H17S20847   4.516   3.959  14.643
  171DOPC  C21820848   4.522   3.739  14.731
  171DOPC  H18R20849   4.454   3.637  14.733
  171DOPC  H18S20850   4.537   3.777  14.835
  171DOPC  H18T20851   4.632   3.710  14.689
  171DOPC   C3320852   4.216   3.684  13.708
  171DOPC   H3X20853   4.211   3.585  13.772
  171DOPC   H3Y20854   4.199   3.644  13.604
  171DOPC   C3420855   4.090   3.792  13.738
  171DOPC   H4X20856   3.983   3.739  13.709
  171DOPC   H4Y20857   4.103   3.890  13.673
  171DOPC   C3520858   4.080   3.840  13.884
  171DOPC   H5X20859   3.992   3.925  13.894
  171DOPC   H5Y20860   4.186   3.892  13.915
  171DOPC   C3620861   4.043   3.713  13.978
  171DOPC   H6X20862   3.931   3.669  13.954
  171DOPC   H6Y20863   4.123   3.622  13.963
  171DOPC   C3720864   4.049   3.755  14.126
  171DOPC   H7X20865   4.157   3.810  14.142
  171DOPC   H7Y20866   3.962   3.838  14.151
  171DOPC   C3820867   4.034   3.618  14.215
  171DOPC   H8X20868   4.061   3.519  14.154
  171DOPC   H8Y20869   3.916   3.606  14.243
  171DOPC   C3920870   4.134   3.618  14.335
  171DOPC   H9X20871   4.246   3.578  14.318
  171DOPC  C31020872   4.097   3.667  14.456
  171DOPC  H10X20873   4.178   3.663  14.538
  171DOPC  C31120874   3.955   3.732  14.495
  171DOPC  H11X20875   3.886   3.769  14.408
  171DOPC  H11Y20876   3.977   3.830  14.558
  171DOPC  C31220877   3.869   3.627  14.584
  171DOPC  H12X20878   3.940   3.598  14.670
  171DOPC  H12Y20879   3.847   3.522  14.531
  171DOPC  C31320880   3.730   3.707  14.629
  171DOPC  H13X20881   3.764   3.821  14.657
  171DOPC  H13Y20882   3.652   3.715  14.544
  171DOPC  C31420883   3.652   3.644  14.751
  171DOPC  H14X20884   3.577   3.730  14.792
  171DOPC  H14Y20885   3.582   3.552  14.718
  171DOPC  C31520886   3.757   3.590  14.861
  171DOPC  H15X20887   3.818   3.491  14.826
  171DOPC  H15Y20888   3.687   3.552  14.946
  171DOPC  C31620889   3.864   3.707  14.914
  171DOPC  H16X20890   3.945   3.739  14.836
  171DOPC  H16Y20891   3.799   3.807  14.939
  171DOPC  C31720892   3.946   3.654  15.040
  171DOPC  H17X20893   3.977   3.752  15.100
  171DOPC  H17Y20894   3.868   3.588  15.100
  171DOPC  C31820895   4.082   3.562  15.015
  171DOPC  H18X20896   4.165   3.623  14.955
  171DOPC  H18Y20897   4.134   3.531  15.113
  171DOPC  H18Z20898   4.054   3.458  14.961
  172DOPC     N20899   3.500   4.860  12.930
  172DOPC   C1220900   3.480   4.832  13.080
  172DOPC  H12A20901   3.508   4.934  13.134
  172DOPC  H12B20902   3.556   4.750  13.114
  172DOPC   C1320903   3.419   4.752  12.842
  172DOPC  H13A20904   3.465   4.642  12.842
  172DOPC  H13B20905   3.306   4.742  12.873
  172DOPC  H13C20906   3.421   4.787  12.737
  172DOPC   C1420907   3.660   4.848  12.899
  172DOPC  H14A20908   3.699   4.738  12.920
  172DOPC  H14B20909   3.680   4.870  12.794
  172DOPC  H14C20910   3.726   4.924  12.957
  172DOPC   C1520911   3.442   5.010  12.898
  172DOPC  H15A20912   3.487   5.092  12.966
  172DOPC  H15B20913   3.324   5.009  12.918
  172DOPC  H15C20914   3.462   5.041  12.795
  172DOPC   C1120915   3.326   4.791  13.133
  172DOPC  H11A20916   3.289   4.687  13.084
  172DOPC  H11B20917   3.333   4.767  13.243
  172DOPC     P20918   3.199   5.040  13.204
  172DOPC   O1320919   3.174   4.989  13.343
  172DOPC   O1420920   3.084   5.132  13.138
  172DOPC   O1220921   3.225   4.905  13.105
  172DOPC   O1120922   3.347   5.132  13.200
  172DOPC    C120923   3.354   5.257  13.290
  172DOPC    HA20924   3.254   5.276  13.353
  172DOPC    HB20925   3.367   5.358  13.229
  172DOPC    C220926   3.487   5.245  13.386
  172DOPC    HS20927   3.573   5.179  13.333
  172DOPC   O2120928   3.443   5.181  13.511
  172DOPC   C2120929   3.490   5.045  13.536
  172DOPC   O2220930   3.571   4.973  13.463
  172DOPC   C2220931   3.446   4.997  13.677
  172DOPC   H2R20932   3.467   4.877  13.685
  172DOPC   H2S20933   3.326   5.017  13.691
  172DOPC    C320934   3.557   5.399  13.413
  172DOPC    HX20935   3.590   5.444  13.314
  172DOPC    HY20936   3.659   5.386  13.473
  172DOPC   O3120937   3.455   5.500  13.473
  172DOPC   C3120938   3.460   5.499  13.605
  172DOPC   O3220939   3.568   5.479  13.674
  172DOPC   C3220940   3.304   5.520  13.657
  172DOPC   H2X20941   3.302   5.612  13.730
  172DOPC   H2Y20942   3.230   5.544  13.572
  172DOPC   C2320943   3.540   5.076  13.784
  172DOPC   H3R20944   3.571   5.189  13.747
  172DOPC   H3S20945   3.640   5.010  13.801
  172DOPC   C2420946   3.464   5.101  13.918
  172DOPC   H4R20947   3.352   5.136  13.892
  172DOPC   H4S20948   3.518   5.194  13.971
  172DOPC   C2520949   3.465   4.966  14.013
  172DOPC   H5R20950   3.400   4.876  13.968
  172DOPC   H5S20951   3.407   4.995  14.108
  172DOPC   C2620952   3.617   4.910  14.057
  172DOPC   H6R20953   3.672   4.857  13.971
  172DOPC   H6S20954   3.598   4.821  14.133
  172DOPC   C2720955   3.725   5.024  14.119
  172DOPC   H7R20956   3.765   5.099  14.040
  172DOPC   H7S20957   3.820   4.963  14.160
  172DOPC   C2820958   3.662   5.119  14.233
  172DOPC   H8R20959   3.583   5.196  14.188
  172DOPC   H8S20960   3.752   5.189  14.276
  172DOPC   C2920961   3.590   5.024  14.338
  172DOPC   H9R20962   3.505   4.950  14.300
  172DOPC  C21020963   3.608   5.029  14.471
  172DOPC  H10R20964   3.542   4.952  14.531
  172DOPC  C21120965   3.703   5.133  14.551
  172DOPC  H11R20966   3.780   5.196  14.487
  172DOPC  H11S20967   3.771   5.070  14.622
  172DOPC  C21220968   3.607   5.243  14.629
  172DOPC  H12R20969   3.554   5.322  14.558
  172DOPC  H12S20970   3.677   5.307  14.698
  172DOPC  C21320971   3.483   5.171  14.711
  172DOPC  H13R20972   3.401   5.126  14.641
  172DOPC  H13S20973   3.424   5.257  14.767
  172DOPC  C21420974   3.527   5.040  14.799
  172DOPC  H14R20975   3.582   4.953  14.739
  172DOPC  H14S20976   3.424   4.991  14.840
  172DOPC  C21520977   3.627   5.083  14.915
  172DOPC  H15R20978   3.727   5.140  14.876
  172DOPC  H15S20979   3.663   4.982  14.968
  172DOPC  C21620980   3.544   5.181  15.013
  172DOPC  H16R20981   3.447   5.119  15.052
  172DOPC  H16S20982   3.506   5.281  14.960
  172DOPC  C21720983   3.637   5.236  15.128
  172DOPC  H17R20984   3.678   5.347  15.100
  172DOPC  H17S20985   3.729   5.158  15.145
  172DOPC  C21820986   3.550   5.254  15.255
  172DOPC  H18R20987   3.536   5.145  15.306
  172DOPC  H18S20988   3.442   5.299  15.226
  172DOPC  H18T20989   3.601   5.332  15.326
  172DOPC   C3320990   3.252   5.379  13.725
  172DOPC   H3X20991   3.314   5.365  13.819
  172DOPC   H3Y20992   3.271   5.279  13.663
  172DOPC   C3420993   3.087   5.389  13.749
  172DOPC   H4X20994   3.024   5.356  13.658
  172DOPC   H4Y20995   3.058   5.504  13.772
  172DOPC   C3520996   3.038   5.299  13.868
  172DOPC   H5X20997   3.073   5.182  13.855
  172DOPC   H5Y20998   2.916   5.307  13.875
  172DOPC   C3620999   3.093   5.358  14.000
  172DOPC   H6X21000   3.213   5.374  13.992
  172DOPC   H6Y21001   3.054   5.471  14.015
  172DOPC   C3721002   3.051   5.253  14.113
  172DOPC   H7X21003   3.025   5.307  14.209
  172DOPC   H7Y21004   2.952   5.188  14.085
  172DOPC   C3821005   3.183   5.154  14.132
  172DOPC   H8X21006   3.211   5.112  14.031
  172DOPC   H8Y21007   3.159   5.051  14.189
  172DOPC   C3921008   3.304   5.247  14.191
  172DOPC   H9X21009   3.378   5.304  14.120
  172DOPC  C31021010   3.330   5.258  14.321
  172DOPC  H10X21011   3.427   5.319  14.357
  172DOPC  C31121012   3.241   5.174  14.420
  172DOPC  H11X21013   3.315   5.095  14.468
  172DOPC  H11Y21014   3.154   5.104  14.377
  172DOPC  C31221015   3.166   5.272  14.523
  172DOPC  H12X21016   3.076   5.336  14.476
  172DOPC  H12Y21017   3.247   5.350  14.566
  172DOPC  C31321018   3.105   5.170  14.630
  172DOPC  H13X21019   3.010   5.111  14.586
  172DOPC  H13Y21020   3.187   5.082  14.654
  172DOPC  C31421021   3.058   5.241  14.761
  172DOPC  H14X21022   2.944   5.280  14.742
  172DOPC  H14Y21023   3.056   5.152  14.838
  172DOPC  C31521024   3.139   5.372  14.822
  172DOPC  H15X21025   3.053   5.446  14.861
  172DOPC  H15Y21026   3.203   5.436  14.748
  172DOPC  C31621027   3.231   5.334  14.945
  172DOPC  H16X21028   3.269   5.218  14.934
  172DOPC  H16Y21029   3.328   5.408  14.949
  172DOPC  C31721030   3.147   5.349  15.078
  172DOPC  H17X21031   3.050   5.273  15.077
  172DOPC  H17Y21032   3.222   5.310  15.158
  172DOPC  C31821033   3.098   5.504  15.116
  172DOPC  H18X21034   3.054   5.506  15.220
  172DOPC  H18Y21035   3.190   5.584  15.110
  172DOPC  H18Z21036   3.008   5.542  15.048
  173DOPC     N21037   2.285   3.307  12.880
  173DOPC   C1221038   2.408   3.257  12.973
  173DOPC  H12A21039   2.515   3.287  12.931
  173DOPC  H12B21040   2.410   3.138  12.976
  173DOPC   C1321041   2.318   3.254  12.741
  173DOPC  H13A21042   2.233   3.290  12.672
  173DOPC  H13B21043   2.423   3.294  12.707
  173DOPC  H13C21044   2.324   3.135  12.737
  173DOPC   C1421045   2.280   3.472  12.877
  173DOPC  H14A21046   2.272   3.511  12.980
  173DOPC  H14B21047   2.385   3.516  12.843
  173DOPC  H14C21048   2.192   3.514  12.817
  173DOPC   C1521049   2.140   3.250  12.929
  173DOPC  H15A21050   2.127   3.273  13.035
  173DOPC  H15B21051   2.133   3.132  12.916
  173DOPC  H15C21052   2.045   3.298  12.878
  173DOPC   C1121053   2.407   3.318  13.118
  173DOPC  H11A21054   2.301   3.285  13.166
  173DOPC  H11B21055   2.498   3.265  13.174
  173DOPC     P21056   2.416   3.562  13.256
  173DOPC   O1321057   2.401   3.722  13.224
  173DOPC   O1421058   2.533   3.512  13.347
  173DOPC   O1221059   2.428   3.474  13.119
  173DOPC   O1121060   2.258   3.509  13.309
  173DOPC    C121061   2.127   3.550  13.238
  173DOPC    HA21062   2.088   3.455  13.177
  173DOPC    HB21063   2.148   3.643  13.168
  173DOPC    C221064   1.994   3.603  13.327
  173DOPC    HS21065   1.911   3.649  13.259
  173DOPC   O2121066   2.045   3.711  13.419
  173DOPC   C2121067   1.957   3.816  13.462
  173DOPC   O2221068   1.846   3.859  13.407
  173DOPC   C2221069   2.041   3.900  13.573
  173DOPC   H2R21070   2.000   3.853  13.669
  173DOPC   H2S21071   2.009   4.016  13.569
  173DOPC    C321072   1.918   3.475  13.406
  173DOPC    HX21073   1.879   3.395  13.331
  173DOPC    HY21074   1.817   3.519  13.457
  173DOPC   O3121075   2.014   3.399  13.499
  173DOPC   C3121076   2.022   3.460  13.619
  173DOPC   O3221077   1.964   3.574  13.653
  173DOPC   C3221078   2.097   3.353  13.715
  173DOPC   H2X21079   2.095   3.241  13.671
  173DOPC   H2Y21080   2.213   3.389  13.727
  173DOPC   C2321081   2.211   3.884  13.572
  173DOPC   H3R21082   2.264   3.989  13.541
  173DOPC   H3S21083   2.255   3.797  13.504
  173DOPC   C2421084   2.266   3.842  13.711
  173DOPC   H4R21085   2.224   3.730  13.736
  173DOPC   H4S21086   2.219   3.920  13.784
  173DOPC   C2521087   2.434   3.840  13.723
  173DOPC   H5R21088   2.474   3.955  13.716
  173DOPC   H5S21089   2.482   3.777  13.637
  173DOPC   C2621090   2.486   3.766  13.854
  173DOPC   H6R21091   2.608   3.766  13.860
  173DOPC   H6S21092   2.451   3.650  13.845
  173DOPC   C2721093   2.419   3.836  13.980
  173DOPC   H7R21094   2.299   3.854  13.967
  173DOPC   H7S21095   2.469   3.944  14.000
  173DOPC   C2821096   2.434   3.747  14.108
  173DOPC   H8R21097   2.387   3.806  14.192
  173DOPC   H8S21098   2.552   3.733  14.131
  173DOPC   C2921099   2.351   3.608  14.084
  173DOPC   H9R21100   2.411   3.514  14.041
  173DOPC  C21021101   2.210   3.587  14.112
  173DOPC  H10R21102   2.166   3.480  14.090
  173DOPC  C21121103   2.094   3.684  14.173
  173DOPC  H11R21104   1.991   3.666  14.117
  173DOPC  H11S21105   2.121   3.803  14.168
  173DOPC  C21221106   2.075   3.627  14.318
  173DOPC  H12R21107   1.961   3.655  14.352
  173DOPC  H12S21108   2.154   3.683  14.387
  173DOPC  C21321109   2.099   3.460  14.333
  173DOPC  H13R21110   2.218   3.432  14.337
  173DOPC  H13S21111   2.049   3.403  14.245
  173DOPC  C21421112   2.019   3.389  14.450
  173DOPC  H14R21113   1.903   3.427  14.440
  173DOPC  H14S21114   2.066   3.429  14.545
  173DOPC  C21521115   2.021   3.220  14.440
  173DOPC  H15R21116   2.136   3.183  14.450
  173DOPC  H15S21117   1.981   3.188  14.339
  173DOPC  C21621118   1.925   3.139  14.543
  173DOPC  H16R21119   1.956   3.021  14.544
  173DOPC  H16S21120   1.808   3.145  14.512
  173DOPC  C21721121   1.945   3.201  14.683
  173DOPC  H17R21122   1.870   3.144  14.754
  173DOPC  H17S21123   1.918   3.319  14.691
  173DOPC  C21821124   2.103   3.192  14.728
  173DOPC  H18R21125   2.167   3.283  14.683
  173DOPC  H18S21126   2.156   3.088  14.698
  173DOPC  H18T21127   2.103   3.202  14.838
  173DOPC   C3321128   2.015   3.356  13.850
  173DOPC   H3X21129   1.903   3.309  13.841
  173DOPC   H3Y21130   2.003   3.473  13.883
  173DOPC   C3421131   2.101   3.278  13.961
  173DOPC   H4X21132   2.048   3.304  14.058
  173DOPC   H4Y21133   2.215   3.322  13.959
  173DOPC   C3521134   2.111   3.112  13.952
  173DOPC   H5X21135   2.143   3.084  13.849
  173DOPC   H5Y21136   2.002   3.060  13.973
  173DOPC   C3621137   2.229   3.048  14.046
  173DOPC   H6X21138   2.230   2.929  14.022
  173DOPC   H6Y21139   2.340   3.094  14.023
  173DOPC   C3721140   2.202   3.060  14.197
  173DOPC   H7X21141   2.233   3.172  14.233
  173DOPC   H7Y21142   2.082   3.043  14.214
  173DOPC   C3821143   2.289   2.941  14.275
  173DOPC   H8X21144   2.406   2.950  14.243
  173DOPC   H8Y21145   2.247   2.835  14.235
  173DOPC   C3921146   2.281   2.933  14.425
  173DOPC   H9X21147   2.190   2.868  14.465
  173DOPC  C31021148   2.374   2.997  14.513
  173DOPC  H10X21149   2.356   2.979  14.620
  173DOPC  C31121150   2.505   3.094  14.481
  173DOPC  H11X21151   2.533   3.090  14.373
  173DOPC  H11Y21152   2.604   3.056  14.537
  173DOPC  C31221153   2.476   3.257  14.518
  173DOPC  H12X21154   2.371   3.294  14.473
  173DOPC  H12Y21155   2.565   3.325  14.473
  173DOPC  C31321156   2.476   3.285  14.670
  173DOPC  H13X21157   2.398   3.209  14.720
  173DOPC  H13Y21158   2.587   3.257  14.708
  173DOPC  C31421159   2.439   3.443  14.714
  173DOPC  H14X21160   2.482   3.523  14.640
  173DOPC  H14Y21161   2.318   3.458  14.715
  173DOPC  C31521162   2.504   3.483  14.853
  173DOPC  H15X21163   2.471   3.596  14.880
  173DOPC  H15Y21164   2.625   3.484  14.851
  173DOPC  C31621165   2.465   3.374  14.965
  173DOPC  H16X21166   2.506   3.261  14.940
  173DOPC  H16Y21167   2.519   3.409  15.060
  173DOPC  C31721168   2.301   3.369  14.984
  173DOPC  H17X21169   2.254   3.333  14.889
  173DOPC  H17Y21170   2.267   3.288  15.059
  173DOPC  C31821171   2.236   3.518  15.014
  173DOPC  H18X21172   2.280   3.567  15.107
  173DOPC  H18Y21173   2.248   3.596  14.930
  173DOPC  H18Z21174   2.118   3.495  15.021
  174DOPC     N21175   5.372   2.701  13.025
  174DOPC   C1221176   5.446   2.582  12.940
  174DOPC  H12A21177   5.556   2.620  12.917
  174DOPC  H12B21178   5.390   2.570  12.844
  174DOPC   C1321179   5.320   2.822  12.936
  174DOPC  H13A21180   5.290   2.918  12.992
  174DOPC  H13B21181   5.408   2.855  12.867
  174DOPC  H13C21182   5.229   2.785  12.874
  174DOPC   C1421183   5.489   2.757  13.119
  174DOPC  H14A21184   5.551   2.662  13.157
  174DOPC  H14B21185   5.572   2.823  13.068
  174DOPC  H14C21186   5.448   2.816  13.204
  174DOPC   C1521187   5.247   2.636  13.101
  174DOPC  H15A21188   5.286   2.540  13.157
  174DOPC  H15B21189   5.160   2.598  13.036
  174DOPC  H15C21190   5.202   2.716  13.169
  174DOPC   C1121191   5.462   2.425  13.000
  174DOPC  H11A21192   5.352   2.376  13.016
  174DOPC  H11B21193   5.518   2.352  12.926
  174DOPC     P21194   5.708   2.410  13.131
  174DOPC   O1321195   5.771   2.553  13.091
  174DOPC   O1421196   5.754   2.284  13.049
  174DOPC   O1221197   5.535   2.428  13.126
  174DOPC   O1121198   5.742   2.385  13.284
  174DOPC    C121199   5.624   2.373  13.379
  174DOPC    HA21200   5.667   2.323  13.473
  174DOPC    HB21201   5.536   2.298  13.341
  174DOPC    C221202   5.554   2.525  13.415
  174DOPC    HS21203   5.540   2.586  13.320
  174DOPC   O2121204   5.649   2.604  13.505
  174DOPC   C2121205   5.615   2.744  13.514
  174DOPC   O2221206   5.524   2.808  13.444
  174DOPC   C2221207   5.704   2.816  13.626
  174DOPC   H2R21208   5.784   2.892  13.580
  174DOPC   H2S21209   5.765   2.729  13.681
  174DOPC    C321210   5.399   2.501  13.477
  174DOPC    HX21211   5.329   2.452  13.397
  174DOPC    HY21212   5.348   2.608  13.506
  174DOPC   O3121213   5.412   2.408  13.591
  174DOPC   C3121214   5.288   2.344  13.627
  174DOPC   O3221215   5.169   2.362  13.573
  174DOPC   C3221216   5.314   2.242  13.745
  174DOPC   H2X21217   5.224   2.258  13.818
  174DOPC   H2Y21218   5.304   2.128  13.706
  174DOPC   C2321219   5.599   2.898  13.722
  174DOPC   H3R21220   5.554   2.997  13.672
  174DOPC   H3S21221   5.665   2.937  13.809
  174DOPC   C2421222   5.471   2.802  13.771
  174DOPC   H4R21223   5.498   2.682  13.762
  174DOPC   H4S21224   5.376   2.823  13.704
  174DOPC   C2521225   5.425   2.834  13.915
  174DOPC   H5R21226   5.309   2.798  13.928
  174DOPC   H5S21227   5.431   2.955  13.931
  174DOPC   C2621228   5.518   2.754  14.022
  174DOPC   H6R21229   5.636   2.763  13.998
  174DOPC   H6S21230   5.488   2.636  14.023
  174DOPC   C2721231   5.486   2.823  14.159
  174DOPC   H7R21232   5.365   2.814  14.178
  174DOPC   H7S21233   5.513   2.943  14.150
  174DOPC   C2821234   5.567   2.762  14.283
  174DOPC   H8R21235   5.565   2.850  14.361
  174DOPC   H8S21236   5.685   2.747  14.257
  174DOPC   C2921237   5.500   2.622  14.336
  174DOPC   H9R21238   5.531   2.523  14.279
  174DOPC  C21021239   5.408   2.605  14.441
  174DOPC  H10R21240   5.367   2.493  14.460
  174DOPC  C21121241   5.346   2.717  14.536
  174DOPC  H11R21242   5.227   2.738  14.514
  174DOPC  H11S21243   5.401   2.826  14.524
  174DOPC  C21221244   5.361   2.674  14.685
  174DOPC  H12R21245   5.294   2.751  14.746
  174DOPC  H12S21246   5.479   2.690  14.712
  174DOPC  C21321247   5.322   2.517  14.731
  174DOPC  H13R21248   5.371   2.504  14.832
  174DOPC  H13S21249   5.372   2.430  14.668
  174DOPC  C21421250   5.158   2.487  14.751
  174DOPC  H14R21251   5.095   2.486  14.656
  174DOPC  H14S21252   5.113   2.580  14.813
  174DOPC  C21521253   5.133   2.342  14.826
  174DOPC  H15R21254   5.045   2.364  14.899
  174DOPC  H15S21255   5.234   2.313  14.882
  174DOPC  C21621256   5.082   2.214  14.736
  174DOPC  H16R21257   5.156   2.207  14.648
  174DOPC  H16S21258   4.970   2.244  14.699
  174DOPC  C21721259   5.075   2.062  14.804
  174DOPC  H17R21260   5.017   1.983  14.738
  174DOPC  H17S21261   5.010   2.071  14.897
  174DOPC  C21821262   5.220   1.987  14.832
  174DOPC  H18R21263   5.202   1.891  14.899
  174DOPC  H18S21264   5.292   2.062  14.884
  174DOPC  H18T21265   5.273   1.950  14.738
  174DOPC   C3321266   5.464   2.259  13.816
  174DOPC   H3X21267   5.486   2.377  13.841
  174DOPC   H3Y21268   5.553   2.222  13.747
  174DOPC   C3421269   5.468   2.173  13.946
  174DOPC   H4X21270   5.411   2.066  13.933
  174DOPC   H4Y21271   5.406   2.235  14.023
  174DOPC   C3521272   5.628   2.158  13.994
  174DOPC   H5X21273   5.704   2.169  13.906
  174DOPC   H5Y21274   5.651   2.049  14.039
  174DOPC   C3621275   5.660   2.281  14.095
  174DOPC   H6X21276   5.620   2.388  14.053
  174DOPC   H6Y21277   5.596   2.259  14.187
  174DOPC   C3721278   5.822   2.300  14.129
  174DOPC   H7X21279   5.867   2.192  14.162
  174DOPC   H7Y21280   5.882   2.335  14.038
  174DOPC   C3821281   5.847   2.413  14.242
  174DOPC   H8X21282   5.790   2.374  14.334
  174DOPC   H8Y21283   5.796   2.521  14.218
  174DOPC   C3921284   6.010   2.428  14.258
  174DOPC   H9X21285   6.064   2.501  14.186
  174DOPC  C31021286   6.091   2.364  14.355
  174DOPC  H10X21287   6.211   2.384  14.361
  174DOPC  C31121288   6.025   2.270  14.463
  174DOPC  H11X21289   6.107   2.197  14.511
  174DOPC  H11Y21290   5.938   2.198  14.421
  174DOPC  C31221291   5.957   2.374  14.567
  174DOPC  H12X21292   5.889   2.460  14.515
  174DOPC  H12Y21293   6.042   2.433  14.624
  174DOPC  C31321294   5.849   2.297  14.661
  174DOPC  H13X21295   5.787   2.211  14.607
  174DOPC  H13Y21296   5.910   2.242  14.743
  174DOPC  C31421297   5.739   2.410  14.713
  174DOPC  H14X21298   5.689   2.475  14.630
  174DOPC  H14Y21299   5.643   2.353  14.757
  174DOPC  C31521300   5.809   2.517  14.811
  174DOPC  H15X21301   5.712   2.555  14.869
  174DOPC  H15Y21302   5.860   2.612  14.760
  174DOPC  C31621303   5.920   2.453  14.911
  174DOPC  H16X21304   5.898   2.334  14.928
  174DOPC  H16Y21305   6.036   2.463  14.874
  174DOPC  C31721306   5.900   2.538  15.041
  174DOPC  H17X21307   5.922   2.655  15.025
  174DOPC  H17Y21308   5.782   2.529  15.068
  174DOPC  C31821309   5.987   2.478  15.159
  174DOPC  H18X21310   6.108   2.486  15.147
  174DOPC  H18Y21311   5.952   2.531  15.253
  174DOPC  H18Z21312   5.960   2.362  15.169
  175DOPC     N21313   3.477   6.252  13.052
  175DOPC   C1221314   3.450   6.416  13.031
  175DOPC  H12A21315   3.376   6.433  12.946
  175DOPC  H12B21316   3.552   6.468  13.004
  175DOPC   C1321317   3.583   6.202  12.946
  175DOPC  H13A21318   3.527   6.193  12.850
  175DOPC  H13B21319   3.673   6.278  12.935
  175DOPC  H13C21320   3.626   6.093  12.968
  175DOPC   C1421321   3.335   6.171  13.035
  175DOPC  H14A21322   3.350   6.053  13.044
  175DOPC  H14B21323   3.253   6.210  13.106
  175DOPC  H14C21324   3.290   6.190  12.935
  175DOPC   C1521325   3.536   6.218  13.189
  175DOPC  H15A21326   3.644   6.267  13.205
  175DOPC  H15B21327   3.549   6.102  13.205
  175DOPC  H15C21328   3.461   6.261  13.263
  175DOPC   C1121329   3.378   6.504  13.146
  175DOPC  H11A21330   3.439   6.488  13.242
  175DOPC  H11B21331   3.384   6.624  13.124
  175DOPC     P21332   3.097   6.547  13.101
  175DOPC   O1321333   3.106   6.554  12.954
  175DOPC   O1421334   3.090   6.691  13.169
  175DOPC   O1221335   3.231   6.456  13.162
  175DOPC   O1121336   2.960   6.451  13.144
  175DOPC    C121337   2.964   6.324  13.227
  175DOPC    HA21338   3.058   6.249  13.203
  175DOPC    HB21339   2.862   6.261  13.205
  175DOPC    C221340   2.961   6.358  13.380
  175DOPC    HS21341   2.877   6.444  13.397
  175DOPC   O2121342   3.105   6.404  13.424
  175DOPC   C2121343   3.112   6.460  13.545
  175DOPC   O2221344   3.011   6.475  13.623
  175DOPC   C2221345   3.273   6.503  13.571
  175DOPC   H2R21346   3.298   6.601  13.510
  175DOPC   H2S21347   3.342   6.410  13.536
  175DOPC    C321348   2.914   6.215  13.453
  175DOPC    HX21349   2.800   6.191  13.419
  175DOPC    HY21350   2.906   6.233  13.563
  175DOPC   O3121351   3.011   6.095  13.414
  175DOPC   C3121352   3.112   6.057  13.504
  175DOPC   O3221353   3.118   6.102  13.618
  175DOPC   C3221354   3.221   5.951  13.440
  175DOPC   H2X21355   3.163   5.888  13.362
  175DOPC   H2Y21356   3.306   6.016  13.389
  175DOPC   C2321357   3.308   6.532  13.720
  175DOPC   H3R21358   3.424   6.499  13.736
  175DOPC   H3S21359   3.241   6.460  13.787
  175DOPC   C2421360   3.296   6.695  13.759
  175DOPC   H4R21361   3.180   6.732  13.746
  175DOPC   H4S21362   3.366   6.760  13.689
  175DOPC   C2521363   3.351   6.722  13.902
  175DOPC   H5R21364   3.365   6.842  13.919
  175DOPC   H5S21365   3.458   6.667  13.910
  175DOPC   C2621366   3.254   6.658  14.013
  175DOPC   H6R21367   3.314   6.659  14.110
  175DOPC   H6S21368   3.228   6.542  13.991
  175DOPC   C2721369   3.112   6.746  14.030
  175DOPC   H7R21370   3.103   6.822  13.944
  175DOPC   H7S21371   3.117   6.815  14.122
  175DOPC   C2821372   2.974   6.648  14.029
  175DOPC   H8R21373   2.983   6.577  13.939
  175DOPC   H8S21374   2.874   6.714  14.014
  175DOPC   C2921375   2.957   6.566  14.157
  175DOPC   H9R21376   2.950   6.633  14.249
  175DOPC  C21021377   2.952   6.418  14.168
  175DOPC  H10R21378   2.943   6.369  14.267
  175DOPC  C21121379   2.963   6.310  14.055
  175DOPC  H11R21380   2.958   6.361  13.954
  175DOPC  H11S21381   2.868   6.234  14.056
  175DOPC  C21221382   3.111   6.228  14.068
  175DOPC  H12R21383   3.202   6.310  14.056
  175DOPC  H12S21384   3.121   6.149  13.983
  175DOPC  C21321385   3.128   6.146  14.202
  175DOPC  H13R21386   3.123   6.225  14.286
  175DOPC  H13S21387   3.240   6.094  14.205
  175DOPC  C21421388   3.006   6.030  14.220
  175DOPC  H14R21389   3.027   5.946  14.141
  175DOPC  H14S21390   2.897   6.080  14.200
  175DOPC  C21521391   2.996   5.957  14.357
  175DOPC  H15R21392   3.102   5.899  14.375
  175DOPC  H15S21393   2.910   5.872  14.349
  175DOPC  C21621394   2.947   6.053  14.475
  175DOPC  H16R21395   2.831   6.023  14.499
  175DOPC  H16S21396   2.947   6.171  14.445
  175DOPC  C21721397   3.037   6.042  14.605
  175DOPC  H17R21398   2.958   6.044  14.690
  175DOPC  H17S21399   3.105   6.144  14.613
  175DOPC  C21821400   3.139   5.908  14.623
  175DOPC  H18R21401   3.248   5.931  14.579
  175DOPC  H18S21402   3.093   5.808  14.575
  175DOPC  H18T21403   3.155   5.883  14.731
  175DOPC   C3321404   3.283   5.843  13.544
  175DOPC   H3X21405   3.329   5.747  13.488
  175DOPC   H3Y21406   3.197   5.801  13.612
  175DOPC   C3421407   3.405   5.904  13.634
  175DOPC   H4X21408   3.443   5.817  13.705
  175DOPC   H4Y21409   3.357   5.993  13.697
  175DOPC   C3521410   3.536   5.960  13.555
  175DOPC   H5X21411   3.503   6.035  13.473
  175DOPC   H5Y21412   3.596   5.864  13.510
  175DOPC   C3621413   3.639   6.046  13.644
  175DOPC   H6X21414   3.662   5.983  13.738
  175DOPC   H6Y21415   3.747   6.061  13.592
  175DOPC   C3721416   3.578   6.197  13.680
  175DOPC   H7X21417   3.556   6.262  13.587
  175DOPC   H7Y21418   3.474   6.191  13.738
  175DOPC   C3821419   3.696   6.269  13.765
  175DOPC   H8X21420   3.800   6.245  13.714
  175DOPC   H8Y21421   3.697   6.206  13.860
  175DOPC   C3921422   3.689   6.431  13.785
  175DOPC   H9X21423   3.687   6.499  13.694
  175DOPC  C31021424   3.696   6.496  13.905
  175DOPC  H10X21425   3.683   6.613  13.905
  175DOPC  C31121426   3.711   6.426  14.041
  175DOPC  H11X21427   3.817   6.461  14.088
  175DOPC  H11Y21428   3.710   6.304  14.039
  175DOPC  C31221429   3.585   6.478  14.131
  175DOPC  H12X21430   3.477   6.455  14.082
  175DOPC  H12Y21431   3.594   6.600  14.145
  175DOPC  C31321432   3.589   6.403  14.267
  175DOPC  H13X21433   3.564   6.283  14.256
  175DOPC  H13Y21434   3.704   6.412  14.306
  175DOPC  C31421435   3.486   6.475  14.369
  175DOPC  H14X21436   3.531   6.448  14.470
  175DOPC  H14Y21437   3.486   6.596  14.355
  175DOPC  C31521438   3.328   6.418  14.365
  175DOPC  H15X21439   3.331   6.296  14.365
  175DOPC  H15Y21440   3.275   6.454  14.269
  175DOPC  C31621441   3.234   6.471  14.483
  175DOPC  H16X21442   3.228   6.593  14.484
  175DOPC  H16Y21443   3.120   6.430  14.469
  175DOPC  C31721444   3.289   6.417  14.620
  175DOPC  H17X21445   3.310   6.296  14.615
  175DOPC  H17Y21446   3.396   6.471  14.645
  175DOPC  C31821447   3.179   6.448  14.732
  175DOPC  H18X21448   3.224   6.415  14.830
  175DOPC  H18Y21449   3.154   6.568  14.736
  175DOPC  H18Z21450   3.075   6.388  14.716
  176DOPC     N21451   3.277   2.026  13.024
  176DOPC   C1221452   3.226   1.951  13.152
  176DOPC  H12A21453   3.106   1.952  13.155
  176DOPC  H12B21454   3.266   2.016  13.236
  176DOPC   C1321455   3.422   1.966  12.978
  176DOPC  H13A21456   3.410   1.850  12.952
  176DOPC  H13B21457   3.466   2.025  12.893
  176DOPC  H13C21458   3.503   1.977  13.056
  176DOPC   C1421459   3.301   2.187  13.054
  176DOPC  H14A21460   3.204   2.242  13.093
  176DOPC  H14B21461   3.386   2.200  13.130
  176DOPC  H14C21462   3.343   2.248  12.969
  176DOPC   C1521463   3.166   1.998  12.916
  176DOPC  H15A21464   3.208   2.025  12.819
  176DOPC  H15B21465   3.060   2.049  12.937
  176DOPC  H15C21466   3.138   1.880  12.914
  176DOPC   C1121467   3.275   1.791  13.177
  176DOPC  H11A21468   3.397   1.783  13.181
  176DOPC  H11B21469   3.236   1.757  13.278
  176DOPC     P21470   3.056   1.645  13.076
  176DOPC   O1321471   3.049   1.503  13.004
  176DOPC   O1421472   2.961   1.768  13.031
  176DOPC   O1221473   3.223   1.695  13.074
  176DOPC   O1121474   3.026   1.613  13.232
  176DOPC    C121475   2.906   1.523  13.277
  176DOPC    HA21476   2.946   1.408  13.286
  176DOPC    HB21477   2.814   1.520  13.203
  176DOPC    C221478   2.836   1.567  13.416
  176DOPC    HS21479   2.720   1.599  13.397
  176DOPC   O2121480   2.911   1.684  13.486
  176DOPC   C2121481   2.912   1.816  13.434
  176DOPC   O2221482   2.856   1.854  13.329
  176DOPC   C2221483   2.982   1.927  13.531
  176DOPC   H2R21484   2.957   2.036  13.485
  176DOPC   H2S21485   3.102   1.915  13.531
  176DOPC    C321486   2.833   1.434  13.514
  176DOPC    HX21487   2.772   1.342  13.468
  176DOPC    HY21488   2.772   1.464  13.607
  176DOPC   O3121489   2.982   1.389  13.538
  176DOPC   C3121490   3.043   1.452  13.646
  176DOPC   O3221491   2.984   1.461  13.755
  176DOPC   C3221492   3.202   1.494  13.609
  176DOPC   H2X21493   3.260   1.480  13.705
  176DOPC   H2Y21494   3.242   1.416  13.532
  176DOPC   C2321495   2.913   1.929  13.673
  176DOPC   H3R21496   2.793   1.910  13.666
  176DOPC   H3S21497   2.928   2.042  13.717
  176DOPC   C2421498   2.975   1.818  13.773
  176DOPC   H4R21499   3.092   1.841  13.796
  176DOPC   H4S21500   2.967   1.708  13.727
  176DOPC   C2521501   2.888   1.818  13.902
  176DOPC   H5R21502   2.779   1.767  13.885
  176DOPC   H5S21503   2.872   1.937  13.928
  176DOPC   C2621504   2.961   1.747  14.023
  176DOPC   H6R21505   2.950   1.830  14.105
  176DOPC   H6S21506   3.080   1.730  14.003
  176DOPC   C2721507   2.890   1.602  14.069
  176DOPC   H7R21508   2.915   1.515  13.994
  176DOPC   H7S21509   2.769   1.616  14.071
  176DOPC   C2821510   2.938   1.550  14.209
  176DOPC   H8R21511   3.056   1.514  14.206
  176DOPC   H8S21512   2.873   1.450  14.235
  176DOPC   C2921513   2.918   1.671  14.311
  176DOPC   H9R21514   2.999   1.760  14.300
  176DOPC  C21021515   2.813   1.689  14.402
  176DOPC  H10R21516   2.815   1.785  14.468
  176DOPC  C21121517   2.685   1.587  14.424
  176DOPC  H11R21518   2.651   1.535  14.330
  176DOPC  H11S21519   2.589   1.651  14.460
  176DOPC  C21221520   2.715   1.473  14.532
  176DOPC  H12R21521   2.615   1.407  14.549
  176DOPC  H12S21522   2.737   1.537  14.624
  176DOPC  C21321523   2.838   1.361  14.506
  176DOPC  H13R21524   2.946   1.418  14.495
  176DOPC  H13S21525   2.820   1.296  14.413
  176DOPC  C21421526   2.846   1.255  14.625
  176DOPC  H14R21527   2.945   1.187  14.606
  176DOPC  H14S21528   2.750   1.180  14.626
  176DOPC  C21521529   2.856   1.338  14.760
  176DOPC  H15R21530   2.867   1.260  14.843
  176DOPC  H15S21531   2.751   1.396  14.780
  176DOPC  C21621532   2.989   1.442  14.756
  176DOPC  H16R21533   2.963   1.541  14.694
  176DOPC  H16S21534   3.075   1.381  14.702
  176DOPC  C21721535   3.054   1.495  14.890
  176DOPC  H17R21536   2.987   1.591  14.918
  176DOPC  H17S21537   3.166   1.539  14.870
  176DOPC  C21821538   3.059   1.385  15.007
  176DOPC  H18R21539   2.956   1.322  15.013
  176DOPC  H18S21540   3.071   1.445  15.102
  176DOPC  H18T21541   3.150   1.306  15.006
  176DOPC   C3321542   3.243   1.651  13.565
  176DOPC   H3X21543   3.188   1.724  13.638
  176DOPC   H3Y21544   3.198   1.675  13.464
  176DOPC   C3421545   3.410   1.678  13.572
  176DOPC   H4X21546   3.469   1.606  13.500
  176DOPC   H4Y21547   3.446   1.643  13.674
  176DOPC   C3521548   3.457   1.838  13.556
  176DOPC   H5X21549   3.422   1.884  13.458
  176DOPC   H5Y21550   3.581   1.847  13.562
  176DOPC   C3621551   3.395   1.928  13.670
  176DOPC   H6X21552   3.275   1.912  13.681
  176DOPC   H6Y21553   3.446   1.888  13.764
  176DOPC   C3721554   3.412   2.093  13.658
  176DOPC   H7X21555   3.528   2.126  13.637
  176DOPC   H7Y21556   3.342   2.135  13.576
  176DOPC   C3821557   3.359   2.158  13.790
  176DOPC   H8X21558   3.244   2.123  13.811
  176DOPC   H8Y21559   3.353   2.276  13.774
  176DOPC   C3921560   3.463   2.124  13.903
  176DOPC   H9X21561   3.577   2.159  13.887
  176DOPC  C31021562   3.429   2.056  14.018
  176DOPC  H10X21563   3.517   2.046  14.094
  176DOPC  C31121564   3.281   1.999  14.061
  176DOPC  H11X21565   3.210   1.972  13.974
  176DOPC  H11Y21566   3.222   2.085  14.119
  176DOPC  C31221567   3.294   1.858  14.146
  176DOPC  H12X21568   3.321   1.764  14.078
  176DOPC  H12Y21569   3.183   1.835  14.189
  176DOPC  C31321570   3.407   1.860  14.261
  176DOPC  H13X21571   3.519   1.863  14.218
  176DOPC  H13Y21572   3.391   1.959  14.325
  176DOPC  C31421573   3.396   1.720  14.347
  176DOPC  H14X21574   3.374   1.628  14.277
  176DOPC  H14Y21575   3.503   1.699  14.397
  176DOPC  C31521576   3.275   1.727  14.454
  176DOPC  H15X21577   3.260   1.617  14.501
  176DOPC  H15Y21578   3.170   1.756  14.405
  176DOPC  C31621579   3.303   1.842  14.562
  176DOPC  H16X21580   3.422   1.869  14.561
  176DOPC  H16Y21581   3.241   1.944  14.534
  176DOPC  C31721582   3.261   1.795  14.703
  176DOPC  H17X21583   3.237   1.895  14.763
  176DOPC  H17Y21584   3.158   1.728  14.700
  176DOPC  C31821585   3.386   1.712  14.773
  176DOPC  H18X21586   3.418   1.613  14.715
  176DOPC  H18Y21587   3.485   1.782  14.782
  176DOPC  H18Z21588   3.353   1.676  14.875
  177DOPC     N21589   5.380   6.576  12.885
  177DOPC   C1221590   5.447   6.509  13.010
  177DOPC  H12A21591   5.540   6.441  12.984
  177DOPC  H12B21592   5.365   6.437  13.057
  177DOPC   C1321593   5.234   6.637  12.925
  177DOPC  H13A21594   5.247   6.701  13.017
  177DOPC  H13B21595   5.180   6.706  12.851
  177DOPC  H13C21596   5.160   6.548  12.958
  177DOPC   C1421597   5.361   6.460  12.779
  177DOPC  H14A21598   5.459   6.395  12.765
  177DOPC  H14B21599   5.273   6.384  12.807
  177DOPC  H14C21600   5.331   6.508  12.684
  177DOPC   C1521601   5.480   6.697  12.838
  177DOPC  H15A21602   5.582   6.648  12.801
  177DOPC  H15B21603   5.509   6.768  12.921
  177DOPC  H15C21604   5.434   6.757  12.755
  177DOPC   C1121605   5.498   6.616  13.121
  177DOPC  H11A21606   5.568   6.558  13.195
  177DOPC  H11B21607   5.570   6.704  13.081
  177DOPC     P21608   5.267   6.580  13.270
  177DOPC   O1321609   5.157   6.519  13.178
  177DOPC   O1421610   5.213   6.663  13.387
  177DOPC   O1221611   5.374   6.682  13.183
  177DOPC   O1121612   5.370   6.447  13.314
  177DOPC    C121613   5.307   6.306  13.343
  177DOPC    HA21614   5.344   6.226  13.266
  177DOPC    HB21615   5.185   6.306  13.342
  177DOPC    C221616   5.359   6.250  13.482
  177DOPC    HS21617   5.309   6.141  13.504
  177DOPC   O2121618   5.320   6.354  13.585
  177DOPC   C2121619   5.178   6.359  13.613
  177DOPC   O2221620   5.083   6.278  13.568
  177DOPC   C2221621   5.151   6.476  13.721
  177DOPC   H2R21622   5.046   6.448  13.772
  177DOPC   H2S21623   5.138   6.581  13.668
  177DOPC    C321624   5.529   6.229  13.482
  177DOPC    HX21625   5.578   6.327  13.435
  177DOPC    HY21626   5.554   6.134  13.416
  177DOPC   O3121627   5.580   6.200  13.616
  177DOPC   C3121628   5.649   6.311  13.675
  177DOPC   O3221629   5.694   6.422  13.620
  177DOPC   C3221630   5.662   6.283  13.823
  177DOPC   H2X21631   5.551   6.285  13.868
  177DOPC   H2Y21632   5.709   6.172  13.838
  177DOPC   C2321633   5.278   6.487  13.824
  177DOPC   H3R21634   5.387   6.487  13.773
  177DOPC   H3S21635   5.275   6.390  13.892
  177DOPC   C2421636   5.272   6.630  13.904
  177DOPC   H4R21637   5.163   6.643  13.954
  177DOPC   H4S21638   5.287   6.723  13.833
  177DOPC   C2521639   5.396   6.634  14.008
  177DOPC   H5R21640   5.500   6.591  13.965
  177DOPC   H5S21641   5.364   6.557  14.090
  177DOPC   C2621642   5.424   6.789  14.062
  177DOPC   H6R21643   5.319   6.849  14.075
  177DOPC   H6S21644   5.488   6.852  13.986
  177DOPC   C2721645   5.508   6.787  14.196
  177DOPC   H7R21646   5.525   6.901  14.229
  177DOPC   H7S21647   5.618   6.736  14.177
  177DOPC   C2821648   5.434   6.698  14.309
  177DOPC   H8R21649   5.495   6.723  14.403
  177DOPC   H8S21650   5.452   6.579  14.290
  177DOPC   C2921651   5.272   6.731  14.318
  177DOPC   H9R21652   5.210   6.706  14.227
  177DOPC  C21021653   5.195   6.772  14.427
  177DOPC  H10R21654   5.076   6.789  14.417
  177DOPC  C21121655   5.254   6.795  14.566
  177DOPC  H11R21656   5.239   6.910  14.600
  177DOPC  H11S21657   5.374   6.768  14.575
  177DOPC  C21221658   5.167   6.691  14.655
  177DOPC  H12R21659   5.047   6.714  14.647
  177DOPC  H12S21660   5.198   6.716  14.760
  177DOPC  C21321661   5.195   6.527  14.625
  177DOPC  H13R21662   5.315   6.505  14.633
  177DOPC  H13S21663   5.161   6.502  14.520
  177DOPC  C21421664   5.107   6.428  14.720
  177DOPC  H14R21665   5.034   6.504  14.776
  177DOPC  H14S21666   5.182   6.382  14.796
  177DOPC  C21521667   5.007   6.315  14.651
  177DOPC  H15R21668   4.950   6.375  14.568
  177DOPC  H15S21669   4.920   6.282  14.722
  177DOPC  C21621670   5.075   6.173  14.590
  177DOPC  H16R21671   5.132   6.206  14.496
  177DOPC  H16S21672   4.986   6.094  14.564
  177DOPC  C21721673   5.190   6.094  14.676
  177DOPC  H17R21674   5.254   6.183  14.718
  177DOPC  H17S21675   5.266   6.025  14.617
  177DOPC  C21821676   5.136   6.013  14.798
  177DOPC  H18R21677   5.118   6.098  14.874
  177DOPC  H18S21678   5.217   5.937  14.842
  177DOPC  H18T21679   5.032   5.951  14.777
  177DOPC   C3321680   5.762   6.399  13.889
  177DOPC   H3X21681   5.708   6.509  13.887
  177DOPC   H3Y21682   5.867   6.410  13.833
  177DOPC   C3421683   5.794   6.353  14.032
  177DOPC   H4X21684   5.849   6.244  14.029
  177DOPC   H4Y21685   5.687   6.338  14.084
  177DOPC   C3521686   5.893   6.458  14.111
  177DOPC   H5X21687   5.842   6.569  14.117
  177DOPC   H5Y21688   5.999   6.469  14.057
  177DOPC   C3621689   5.921   6.399  14.251
  177DOPC   H6X21690   5.958   6.281  14.241
  177DOPC   H6Y21691   6.013   6.458  14.301
  177DOPC   C3721692   5.784   6.402  14.341
  177DOPC   H7X21693   5.782   6.507  14.398
  177DOPC   H7Y21694   5.683   6.405  14.280
  177DOPC   C3821695   5.774   6.266  14.432
  177DOPC   H8X21696   5.760   6.170  14.365
  177DOPC   H8Y21697   5.669   6.271  14.490
  177DOPC   C3921698   5.905   6.239  14.522
  177DOPC   H9X21699   5.944   6.125  14.519
  177DOPC  C31021700   5.975   6.333  14.604
  177DOPC  H10X21701   6.070   6.289  14.660
  177DOPC  C31121702   5.949   6.492  14.635
  177DOPC  H11X21703   5.862   6.544  14.572
  177DOPC  H11Y21704   6.051   6.556  14.618
  177DOPC  C31221705   5.899   6.516  14.780
  177DOPC  H12X21706   5.777   6.501  14.780
  177DOPC  H12Y21707   5.914   6.633  14.808
  177DOPC  C31321708   5.971   6.422  14.892
  177DOPC  H13X21709   6.051   6.339  14.857
  177DOPC  H13Y21710   6.041   6.504  14.943
  177DOPC  C31421711   5.847   6.375  14.990
  177DOPC  H14X21712   5.834   6.476  15.051
  177DOPC  H14Y21713   5.744   6.367  14.933
  177DOPC  C31521714   5.832   6.243  15.089
  177DOPC  H15X21715   5.734   6.265  15.149
  177DOPC  H15Y21716   5.907   6.255  15.172
  177DOPC  C31621717   5.847   6.079  15.049
  177DOPC  H16X21718   5.894   6.074  14.946
  177DOPC  H16Y21719   5.932   6.034  15.117
  177DOPC  C31721720   5.722   5.957  15.054
  177DOPC  H17X21721   5.672   5.951  14.953
  177DOPC  H17Y21722   5.796   5.865  15.074
  177DOPC  C31821723   5.609   5.900  15.158
  177DOPC  H18X21724   5.607   5.779  15.161
  177DOPC  H18Y21725   5.631   5.918  15.263
  177DOPC  H18Z21726   5.495   5.927  15.130
  178DOPC     N21727   2.395   6.337  12.873
  178DOPC   C1221728   2.281   6.367  12.984
  178DOPC  H12A21729   2.296   6.283  13.063
  178DOPC  H12B21730   2.170   6.351  12.949
  178DOPC   C1321731   2.548   6.348  12.932
  178DOPC  H13A21732   2.555   6.450  12.989
  178DOPC  H13B21733   2.571   6.262  13.004
  178DOPC  H13C21734   2.632   6.347  12.857
  178DOPC   C1421735   2.384   6.450  12.765
  178DOPC  H14A21736   2.463   6.433  12.686
  178DOPC  H14B21737   2.276   6.454  12.719
  178DOPC  H14C21738   2.404   6.558  12.808
  178DOPC   C1521739   2.373   6.189  12.813
  178DOPC  H15A21740   2.447   6.173  12.729
  178DOPC  H15B21741   2.262   6.174  12.775
  178DOPC  H15C21742   2.394   6.102  12.884
  178DOPC   C1121743   2.290   6.516  13.061
  178DOPC  H11A21744   2.285   6.610  12.990
  178DOPC  H11B21745   2.190   6.526  13.126
  178DOPC     P21746   2.428   6.422  13.268
  178DOPC   O1321747   2.583   6.385  13.296
  178DOPC   O1421748   2.328   6.296  13.245
  178DOPC   O1221749   2.420   6.527  13.140
  178DOPC   O1121750   2.363   6.518  13.386
  178DOPC    C121751   2.453   6.546  13.500
  178DOPC    HA21752   2.400   6.633  13.561
  178DOPC    HB21753   2.563   6.590  13.469
  178DOPC    C221754   2.474   6.409  13.589
  178DOPC    HS21755   2.503   6.313  13.523
  178DOPC   O2121756   2.340   6.381  13.661
  178DOPC   C2121757   2.321   6.246  13.703
  178DOPC   O2221758   2.412   6.147  13.696
  178DOPC   C2221759   2.164   6.227  13.755
  178DOPC   H2R21760   2.103   6.163  13.679
  178DOPC   H2S21761   2.111   6.336  13.765
  178DOPC    C321762   2.606   6.432  13.684
  178DOPC    HX21763   2.709   6.434  13.625
  178DOPC    HY21764   2.610   6.332  13.749
  178DOPC   O3121765   2.588   6.568  13.757
  178DOPC   C3121766   2.627   6.558  13.885
  178DOPC   O3221767   2.691   6.455  13.934
  178DOPC   C3221768   2.576   6.692  13.962
  178DOPC   H2X21769   2.639   6.691  14.058
  178DOPC   H2Y21770   2.603   6.795  13.906
  178DOPC   C2321771   2.161   6.145  13.889
  178DOPC   H3R21772   2.250   6.059  13.892
  178DOPC   H3S21773   2.056   6.084  13.900
  178DOPC   C2421774   2.182   6.244  14.012
  178DOPC   H4R21775   2.081   6.309  14.032
  178DOPC   H4S21776   2.274   6.322  13.992
  178DOPC   C2521777   2.221   6.151  14.135
  178DOPC   H5R21778   2.302   6.064  14.109
  178DOPC   H5S21779   2.119   6.093  14.168
  178DOPC   C2621780   2.283   6.243  14.251
  178DOPC   H6R21781   2.264   6.181  14.345
  178DOPC   H6S21782   2.218   6.345  14.261
  178DOPC   C2721783   2.449   6.275  14.244
  178DOPC   H7R21784   2.471   6.366  14.172
  178DOPC   H7S21785   2.508   6.176  14.209
  178DOPC   C2821786   2.504   6.318  14.385
  178DOPC   H8R21787   2.474   6.227  14.453
  178DOPC   H8S21788   2.435   6.412  14.419
  178DOPC   C2921789   2.665   6.343  14.406
  178DOPC   H9R21790   2.732   6.243  14.397
  178DOPC  C21021791   2.732   6.472  14.427
  178DOPC  H10R21792   2.852   6.476  14.440
  178DOPC  C21121793   2.658   6.620  14.431
  178DOPC  H11R21794   2.540   6.603  14.407
  178DOPC  H11S21795   2.701   6.689  14.348
  178DOPC  C21221796   2.665   6.712  14.559
  178DOPC  H12R21797   2.605   6.817  14.536
  178DOPC  H12S21798   2.780   6.744  14.584
  178DOPC  C21321799   2.589   6.643  14.681
  178DOPC  H13R21800   2.668   6.571  14.737
  178DOPC  H13S21801   2.497   6.573  14.647
  178DOPC  C21421802   2.528   6.763  14.774
  178DOPC  H14R21803   2.449   6.717  14.846
  178DOPC  H14S21804   2.466   6.843  14.712
  178DOPC  C21521805   2.652   6.844  14.846
  178DOPC  H15R21806   2.729   6.885  14.767
  178DOPC  H15S21807   2.715   6.768  14.912
  178DOPC  C21621808   2.603   6.981  14.924
  178DOPC  H16R21809   2.537   7.053  14.858
  178DOPC  H16S21810   2.705   7.040  14.954
  178DOPC  C21721811   2.517   6.948  15.052
  178DOPC  H17R21812   2.414   6.890  15.022
  178DOPC  H17S21813   2.484   7.052  15.101
  178DOPC  C21821814   2.603   6.856  15.154
  178DOPC  H18R21815   2.719   6.893  15.159
  178DOPC  H18S21816   2.600   6.739  15.125
  178DOPC  H18T21817   2.554   6.866  15.256
  178DOPC   C3321818   2.411   6.677  13.992
  178DOPC   H3X21819   2.391   6.566  14.035
  178DOPC   H3Y21820   2.345   6.686  13.899
  178DOPC   C3421821   2.355   6.788  14.095
  178DOPC   H4X21822   2.336   6.897  14.045
  178DOPC   H4Y21823   2.437   6.805  14.176
  178DOPC   C3521824   2.213   6.729  14.155
  178DOPC   H5X21825   2.149   6.668  14.077
  178DOPC   H5Y21826   2.142   6.820  14.186
  178DOPC   C3621827   2.243   6.628  14.276
  178DOPC   H6X21828   2.143   6.560  14.293
  178DOPC   H6Y21829   2.336   6.554  14.253
  178DOPC   C3721830   2.275   6.713  14.405
  178DOPC   H7X21831   2.389   6.753  14.411
  178DOPC   H7Y21832   2.214   6.817  14.389
  178DOPC   C3821833   2.232   6.636  14.538
  178DOPC   H8X21834   2.273   6.704  14.622
  178DOPC   H8Y21835   2.289   6.529  14.546
  178DOPC   C3921836   2.068   6.618  14.553
  178DOPC   H9X21837   2.013   6.720  14.578
  178DOPC  C31021838   1.984   6.499  14.565
  178DOPC  H10X21839   1.865   6.513  14.558
  178DOPC  C31121840   2.039   6.344  14.569
  178DOPC  H11X21841   2.148   6.333  14.520
  178DOPC  H11Y21842   1.961   6.269  14.518
  178DOPC  C31221843   2.054   6.304  14.718
  178DOPC  H12X21844   2.089   6.188  14.722
  178DOPC  H12Y21845   1.946   6.310  14.771
  178DOPC  C31321846   2.169   6.393  14.797
  178DOPC  H13X21847   2.276   6.381  14.743
  178DOPC  H13Y21848   2.142   6.512  14.800
  178DOPC  C31421849   2.187   6.338  14.940
  178DOPC  H14X21850   2.102   6.379  15.008
  178DOPC  H14Y21851   2.165   6.218  14.942
  178DOPC  C31521852   2.340   6.364  14.998
  178DOPC  H15X21853   2.427   6.335  14.923
  178DOPC  H15Y21854   2.345   6.278  15.078
  178DOPC  C31621855   2.375   6.514  15.063
  178DOPC  H16X21856   2.438   6.491  15.156
  178DOPC  H16Y21857   2.452   6.576  14.999
  178DOPC  C31721858   2.244   6.611  15.102
  178DOPC  H17X21859   2.200   6.670  15.013
  178DOPC  H17Y21860   2.156   6.536  15.138
  178DOPC  C31821861   2.273   6.720  15.217
  178DOPC  H18X21862   2.176   6.729  15.284
  178DOPC  H18Y21863   2.367   6.680  15.279
  178DOPC  H18Z21864   2.297   6.832  15.181
  179DOPC     N21865   6.510   5.727  12.874
  179DOPC   C1221866   6.481   5.646  13.005
  179DOPC  H12A21867   6.542   5.544  13.003
  179DOPC  H12B21868   6.366   5.615  13.014
  179DOPC   C1321869   6.673   5.744  12.859
  179DOPC  H13A21870   6.706   5.822  12.783
  179DOPC  H13B21871   6.719   5.779  12.955
  179DOPC  H13C21872   6.725   5.639  12.838
  179DOPC   C1421873   6.438   5.875  12.875
  179DOPC  H14A21874   6.481   5.936  12.961
  179DOPC  H14B21875   6.461   5.932  12.783
  179DOPC  H14C21876   6.321   5.866  12.885
  179DOPC   C1521877   6.459   5.639  12.757
  179DOPC  H15A21878   6.340   5.631  12.748
  179DOPC  H15B21879   6.503   5.528  12.764
  179DOPC  H15C21880   6.502   5.684  12.665
  179DOPC   C1121881   6.527   5.722  13.137
  179DOPC  H11A21882   6.472   5.830  13.149
  179DOPC  H11B21883   6.493   5.650  13.222
  179DOPC     P21884   6.775   5.779  13.266
  179DOPC   O1321885   6.925   5.813  13.216
  179DOPC   O1421886   6.756   5.664  13.369
  179DOPC   O1221887   6.681   5.740  13.138
  179DOPC   O1121888   6.700   5.928  13.316
  179DOPC    C121889   6.676   6.053  13.232
  179DOPC    HA21890   6.644   6.020  13.128
  179DOPC    HB21891   6.782   6.115  13.226
  179DOPC    C221892   6.557   6.164  13.286
  179DOPC    HS21893   6.599   6.278  13.264
  179DOPC   O2121894   6.534   6.146  13.425
  179DOPC   C2121895   6.639   6.196  13.503
  179DOPC   O2221896   6.735   6.283  13.469
  179DOPC   C2221897   6.608   6.145  13.646
  179DOPC   H2R21898   6.486   6.132  13.656
  179DOPC   H2S21899   6.645   6.233  13.716
  179DOPC    C321900   6.401   6.160  13.218
  179DOPC    HX21901   6.417   6.183  13.110
  179DOPC    HY21902   6.337   6.255  13.259
  179DOPC   O3121903   6.321   6.024  13.232
  179DOPC   C3121904   6.245   6.009  13.345
  179DOPC   O3221905   6.223   6.105  13.428
  179DOPC   C3221906   6.186   5.853  13.356
  179DOPC   H2X21907   6.065   5.853  13.344
  179DOPC   H2Y21908   6.235   5.783  13.277
  179DOPC   C2321909   6.676   5.996  13.682
  179DOPC   H3R21910   6.650   5.915  13.603
  179DOPC   H3S21911   6.632   5.958  13.780
  179DOPC   C2421912   6.841   6.004  13.694
  179DOPC   H4R21913   6.867   6.069  13.786
  179DOPC   H4S21914   6.878   6.062  13.603
  179DOPC   C2521915   6.913   5.854  13.708
  179DOPC   H5R21916   7.036   5.867  13.712
  179DOPC   H5S21917   6.885   5.785  13.620
  179DOPC   C2621918   6.861   5.783  13.837
  179DOPC   H6R21919   6.751   5.734  13.816
  179DOPC   H6S21920   6.842   5.869  13.915
  179DOPC   C2721921   6.970   5.671  13.895
  179DOPC   H7R21922   7.070   5.730  13.929
  179DOPC   H7S21923   7.003   5.592  13.814
  179DOPC   C2821924   6.903   5.589  14.013
  179DOPC   H8R21925   6.866   5.669  14.090
  179DOPC   H8S21926   6.983   5.512  14.059
  179DOPC   C2921927   6.773   5.508  13.958
  179DOPC   H9R21928   6.776   5.480  13.850
  179DOPC  C21021929   6.656   5.468  14.028
  179DOPC  H10R21930   6.567   5.415  13.974
  179DOPC  C21121931   6.635   5.500  14.174
  179DOPC  H11R21932   6.742   5.499  14.230
  179DOPC  H11S21933   6.566   5.413  14.220
  179DOPC  C21221934   6.565   5.651  14.196
  179DOPC  H12R21935   6.603   5.722  14.115
  179DOPC  H12S21936   6.613   5.694  14.290
  179DOPC  C21321937   6.397   5.646  14.216
  179DOPC  H13R21938   6.371   5.534  14.248
  179DOPC  H13S21939   6.333   5.649  14.124
  179DOPC  C21421940   6.328   5.735  14.330
  179DOPC  H14R21941   6.210   5.707  14.331
  179DOPC  H14S21942   6.334   5.855  14.311
  179DOPC  C21521943   6.400   5.698  14.467
  179DOPC  H15R21944   6.322   5.728  14.548
  179DOPC  H15S21945   6.497   5.771  14.477
  179DOPC  C21621946   6.449   5.535  14.486
  179DOPC  H16R21947   6.502   5.492  14.395
  179DOPC  H16S21948   6.354   5.464  14.505
  179DOPC  C21721949   6.575   5.510  14.588
  179DOPC  H17R21950   6.581   5.619  14.638
  179DOPC  H17S21951   6.680   5.491  14.535
  179DOPC  C21821952   6.544   5.393  14.695
  179DOPC  H18R21953   6.592   5.412  14.796
  179DOPC  H18S21954   6.573   5.281  14.668
  179DOPC  H18T21955   6.424   5.392  14.701
  179DOPC   C3321956   6.228   5.788  13.492
  179DOPC   H3X21957   6.184   5.675  13.502
  179DOPC   H3Y21958   6.171   5.854  13.570
  179DOPC   C3421959   6.395   5.789  13.514
  179DOPC   H4X21960   6.428   5.903  13.543
  179DOPC   H4Y21961   6.455   5.764  13.419
  179DOPC   C3521962   6.449   5.681  13.620
  179DOPC   H5X21963   6.562   5.712  13.654
  179DOPC   H5Y21964   6.460   5.569  13.578
  179DOPC   C3621965   6.347   5.678  13.741
  179DOPC   H6X21966   6.240   5.623  13.717
  179DOPC   H6Y21967   6.403   5.610  13.818
  179DOPC   C3721968   6.316   5.831  13.799
  179DOPC   H7X21969   6.413   5.904  13.784
  179DOPC   H7Y21970   6.219   5.887  13.755
  179DOPC   C3821971   6.292   5.811  13.947
  179DOPC   H8X21972   6.401   5.766  13.977
  179DOPC   H8Y21973   6.210   5.721  13.962
  179DOPC   C3921974   6.251   5.942  14.029
  179DOPC   H9X21975   6.135   5.960  14.049
  179DOPC  C31021976   6.349   6.035  14.082
  179DOPC  H10X21977   6.312   6.123  14.149
  179DOPC  C31121978   6.513   6.019  14.065
  179DOPC  H11X21979   6.549   6.065  13.969
  179DOPC  H11Y21980   6.547   5.905  14.059
  179DOPC  C31221981   6.596   6.092  14.180
  179DOPC  H12X21982   6.547   6.201  14.201
  179DOPC  H12Y21983   6.712   6.104  14.149
  179DOPC  C31321984   6.595   6.015  14.315
  179DOPC  H13X21985   6.483   6.020  14.362
  179DOPC  H13Y21986   6.625   5.899  14.304
  179DOPC  C31421987   6.710   6.086  14.402
  179DOPC  H14X21988   6.820   6.054  14.364
  179DOPC  H14Y21989   6.699   6.208  14.393
  179DOPC  C31521990   6.698   6.048  14.549
  179DOPC  H15X21991   6.677   5.929  14.565
  179DOPC  H15Y21992   6.600   6.108  14.588
  179DOPC  C31621993   6.840   6.095  14.617
  179DOPC  H16X21994   6.931   6.021  14.583
  179DOPC  H16Y21995   6.867   6.208  14.582
  179DOPC  C31721996   6.837   6.094  14.769
  179DOPC  H17X21997   6.845   5.980  14.805
  179DOPC  H17Y21998   6.938   6.150  14.805
  179DOPC  C31821999   6.701   6.166  14.833
  179DOPC  H18X22000   6.699   6.287  14.818
  179DOPC  H18Y22001   6.597   6.118  14.795
  179DOPC  H18Z22002   6.707   6.142  14.942
  180DOPC     N22003   7.094   3.567  12.881
  180DOPC   C1222004   6.971   3.585  12.982
  180DOPC  H12A22005   6.940   3.477  13.020
  180DOPC  H12B22006   6.876   3.629  12.930
  180DOPC   C1322007   7.185   3.438  12.920
  180DOPC  H13A22008   7.217   3.447  13.026
  180DOPC  H13B22009   7.125   3.335  12.912
  180DOPC  H13C22010   7.285   3.430  12.862
  180DOPC   C1422011   7.188   3.699  12.888
  180DOPC  H14A22012   7.289   3.687  12.830
  180DOPC  H14B22013   7.128   3.796  12.857
  180DOPC  H14C22014   7.217   3.716  12.994
  180DOPC   C1522015   7.033   3.554  12.742
  180DOPC  H15A22016   6.970   3.454  12.732
  180DOPC  H15B22017   7.121   3.557  12.671
  180DOPC  H15C22018   6.961   3.648  12.722
  180DOPC   C1122019   6.995   3.682  13.108
  180DOPC  H11A22020   7.014   3.797  13.076
  180DOPC  H11B22021   6.891   3.683  13.168
  180DOPC     P22022   7.097   3.483  13.267
  180DOPC   O1322023   7.244   3.410  13.274
  180DOPC   O1422024   6.977   3.397  13.203
  180DOPC   O1222025   7.117   3.632  13.186
  180DOPC   O1122026   7.044   3.535  13.408
  180DOPC    C122027   7.136   3.583  13.515
  180DOPC    HA22028   7.182   3.693  13.495
  180DOPC    HB22029   7.230   3.505  13.528
  180DOPC    C222030   7.040   3.581  13.644
  180DOPC    HS22031   7.105   3.621  13.730
  180DOPC   O2122032   7.013   3.423  13.655
  180DOPC   C2122033   7.116   3.333  13.707
  180DOPC   O2222034   7.231   3.372  13.757
  180DOPC   C2222035   7.059   3.170  13.695
  180DOPC   H2R22036   7.059   3.151  13.585
  180DOPC   H2S22037   6.943   3.172  13.728
  180DOPC    C322038   6.893   3.689  13.625
  180DOPC    HX22039   6.870   3.687  13.516
  180DOPC    HY22040   6.939   3.800  13.646
  180DOPC   O3122041   6.755   3.674  13.704
  180DOPC   C3122042   6.608   3.713  13.670
  180DOPC   O3222043   6.582   3.777  13.567
  180DOPC   C3222044   6.468   3.663  13.767
  180DOPC   H2X22045   6.493   3.704  13.866
  180DOPC   H2Y22046   6.377   3.736  13.733
  180DOPC   C2322047   7.131   3.031  13.763
  180DOPC   H3R22048   7.250   3.027  13.739
  180DOPC   H3S22049   7.080   2.934  13.713
  180DOPC   C2422050   7.110   3.003  13.915
  180DOPC   H4R22051   7.167   2.897  13.941
  180DOPC   H4S22052   6.992   2.988  13.939
  180DOPC   C2522053   7.178   3.126  13.999
  180DOPC   H5R22054   7.127   3.230  13.962
  180DOPC   H5S22055   7.297   3.132  13.979
  180DOPC   C2622056   7.154   3.125  14.151
  180DOPC   H6R22057   7.205   3.027  14.199
  180DOPC   H6S22058   7.033   3.124  14.169
  180DOPC   C2722059   7.219   3.265  14.215
  180DOPC   H7R22060   7.329   3.283  14.169
  180DOPC   H7S22061   7.238   3.250  14.324
  180DOPC   C2822062   7.120   3.400  14.197
  180DOPC   H8R22063   7.022   3.389  14.264
  180DOPC   H8S22064   7.077   3.403  14.093
  180DOPC   C2922065   7.208   3.536  14.230
  180DOPC   H9R22066   7.300   3.519  14.300
  180DOPC  C21022067   7.184   3.674  14.184
  180DOPC  H10R22068   7.257   3.764  14.215
  180DOPC  C21122069   7.062   3.717  14.091
  180DOPC  H11R22070   7.031   3.620  14.029
  180DOPC  H11S22071   7.101   3.802  14.019
  180DOPC  C21222072   6.926   3.776  14.168
  180DOPC  H12R22073   6.832   3.786  14.096
  180DOPC  H12S22074   6.952   3.890  14.203
  180DOPC  C21322075   6.877   3.684  14.291
  180DOPC  H13R22076   6.969   3.678  14.364
  180DOPC  H13S22077   6.854   3.569  14.258
  180DOPC  C21422078   6.742   3.746  14.363
  180DOPC  H14R22079   6.644   3.725  14.300
  180DOPC  H14S22080   6.755   3.867  14.374
  180DOPC  C21522081   6.699   3.678  14.499
  180DOPC  H15R22082   6.796   3.644  14.557
  180DOPC  H15S22083   6.630   3.579  14.479
  180DOPC  C21622084   6.598   3.784  14.575
  180DOPC  H16R22085   6.489   3.779  14.524
  180DOPC  H16S22086   6.642   3.898  14.566
  180DOPC  C21722087   6.563   3.749  14.720
  180DOPC  H17R22088   6.508   3.641  14.720
  180DOPC  H17S22089   6.480   3.830  14.757
  180DOPC  C21822090   6.695   3.751  14.814
  180DOPC  H18R22091   6.745   3.862  14.815
  180DOPC  H18S22092   6.779   3.671  14.780
  180DOPC  H18T22093   6.662   3.721  14.917
  180DOPC   C3322094   6.400   3.497  13.774
  180DOPC   H3X22095   6.499   3.440  13.797
  180DOPC   H3Y22096   6.360   3.460  13.676
  180DOPC   C3422097   6.318   3.405  13.887
  180DOPC   H4X22098   6.201   3.400  13.858
  180DOPC   H4Y22099   6.314   3.458  13.984
  180DOPC   C3522100   6.372   3.235  13.902
  180DOPC   H5X22101   6.409   3.199  13.802
  180DOPC   H5Y22102   6.271   3.174  13.926
  180DOPC   C3622103   6.493   3.189  14.011
  180DOPC   H6X22104   6.602   3.219  13.973
  180DOPC   H6Y22105   6.460   3.257  14.096
  180DOPC   C3722106   6.537   3.036  14.071
  180DOPC   H7X22107   6.449   3.008  14.143
  180DOPC   H7Y22108   6.542   2.951  13.992
  180DOPC   C3822109   6.689   3.023  14.148
  180DOPC   H8X22110   6.747   3.131  14.148
  180DOPC   H8Y22111   6.761   2.948  14.088
  180DOPC   C3922112   6.672   2.958  14.287
  180DOPC   H9X22113   6.556   2.946  14.317
  180DOPC  C31022114   6.775   2.911  14.375
  180DOPC  H10X22115   6.741   2.861  14.471
  180DOPC  C31122116   6.939   2.915  14.350
  180DOPC  H11X22117   6.964   3.031  14.328
  180DOPC  H11Y22118   6.962   2.849  14.259
  180DOPC  C31222119   7.058   2.868  14.455
  180DOPC  H12X22120   7.165   2.878  14.403
  180DOPC  H12Y22121   7.049   2.751  14.484
  180DOPC  C31322122   7.066   2.966  14.580
  180DOPC  H13X22123   6.960   2.970  14.633
  180DOPC  H13Y22124   7.149   2.918  14.650
  180DOPC  C31422125   7.117   3.118  14.538
  180DOPC  H14X22126   7.214   3.102  14.471
  180DOPC  H14Y22127   7.030   3.176  14.480
  180DOPC  C31522128   7.168   3.219  14.651
  180DOPC  H15X22129   7.228   3.310  14.600
  180DOPC  H15Y22130   7.247   3.160  14.717
  180DOPC  C31622131   7.040   3.281  14.732
  180DOPC  H16X22132   6.962   3.336  14.662
  180DOPC  H16Y22133   6.979   3.191  14.783
  180DOPC  C31722134   7.093   3.396  14.834
  180DOPC  H17X22135   6.994   3.452  14.876
  180DOPC  H17Y22136   7.147   3.336  14.919
  180DOPC  C31822137   7.201   3.509  14.777
  180DOPC  H18X22138   7.307   3.456  14.754
  180DOPC  H18Y22139   7.156   3.559  14.684
  180DOPC  H18Z22140   7.224   3.599  14.848
  181DOPC     N22141   0.782   4.207  12.975
  181DOPC   C1222142   0.927   4.292  12.961
  181DOPC  H12A22143   0.955   4.348  13.054
  181DOPC  H12B22144   0.919   4.378  12.887
  181DOPC   C1322145   0.792   4.123  13.104
  181DOPC  H13A22146   0.892   4.057  13.102
  181DOPC  H13B22147   0.809   4.197  13.188
  181DOPC  H13C22148   0.700   4.051  13.121
  181DOPC   C1422149   0.766   4.104  12.860
  181DOPC  H14A22150   0.673   4.031  12.872
  181DOPC  H14B22151   0.752   4.161  12.764
  181DOPC  H14C22152   0.865   4.039  12.850
  181DOPC   C1522153   0.652   4.308  12.984
  181DOPC  H15A22154   0.551   4.245  12.971
  181DOPC  H15B22155   0.649   4.389  12.905
  181DOPC  H15C22156   0.649   4.364  13.079
  181DOPC   C1122157   1.067   4.199  12.928
  181DOPC  H11A22158   1.051   4.136  12.834
  181DOPC  H11B22159   1.162   4.275  12.908
  181DOPC     P22160   1.186   4.164  13.161
  181DOPC   O1322161   1.156   4.324  13.167
  181DOPC   O1422162   1.337   4.104  13.150
  181DOPC   O1222163   1.101   4.099  13.034
  181DOPC   O1122164   1.101   4.071  13.277
  181DOPC    C122165   1.119   3.912  13.274
  181DOPC    HA22166   1.236   3.881  13.276
  181DOPC    HB22167   1.069   3.870  13.178
  181DOPC    C222168   1.044   3.810  13.386
  181DOPC    HS22169   1.002   3.710  13.336
  181DOPC   O2122170   0.923   3.885  13.447
  181DOPC   C2122171   0.840   3.812  13.535
  181DOPC   O2222172   0.855   3.683  13.567
  181DOPC   C2222173   0.728   3.916  13.594
  181DOPC   H2R22174   0.671   3.858  13.676
  181DOPC   H2S22175   0.647   3.934  13.515
  181DOPC    C322176   1.158   3.760  13.496
  181DOPC    HX22177   1.245   3.695  13.444
  181DOPC    HY22178   1.108   3.684  13.568
  181DOPC   O3122179   1.225   3.882  13.563
  181DOPC   C3122180   1.305   3.850  13.671
  181DOPC   O3222181   1.310   3.730  13.725
  181DOPC   C3222182   1.394   3.984  13.712
  181DOPC   H2X22183   1.333   4.047  13.789
  181DOPC   H2Y22184   1.497   3.942  13.759
  181DOPC   C2322185   0.807   4.056  13.642
  181DOPC   H3R22186   0.730   4.138  13.679
  181DOPC   H3S22187   0.873   4.109  13.561
  181DOPC   C2422188   0.906   4.024  13.761
  181DOPC   H4R22189   0.950   4.129  13.801
  181DOPC   H4S22190   1.001   3.959  13.721
  181DOPC   C2522191   0.829   3.939  13.875
  181DOPC   H5R22192   0.805   3.825  13.841
  181DOPC   H5S22193   0.724   3.993  13.903
  181DOPC   C2622194   0.928   3.928  13.997
  181DOPC   H6R22195   0.892   3.836  14.063
  181DOPC   H6S22196   0.923   4.030  14.055
  181DOPC   C2722197   1.087   3.903  13.951
  181DOPC   H7R22198   1.131   3.996  13.893
  181DOPC   H7S22199   1.086   3.802  13.887
  181DOPC   C2822200   1.190   3.886  14.067
  181DOPC   H8R22201   1.125   3.832  14.147
  181DOPC   H8S22202   1.218   3.999  14.106
  181DOPC   C2922203   1.323   3.800  14.021
  181DOPC   H9R22204   1.301   3.709  13.952
  181DOPC  C21022205   1.461   3.822  14.063
  181DOPC  H10R22206   1.554   3.759  14.022
  181DOPC  C21122207   1.494   3.938  14.164
  181DOPC  H11R22208   1.453   4.048  14.132
  181DOPC  H11S22209   1.614   3.950  14.184
  181DOPC  C21222210   1.413   3.889  14.292
  181DOPC  H12R22211   1.469   3.791  14.336
  181DOPC  H12S22212   1.295   3.867  14.283
  181DOPC  C21322213   1.418   4.016  14.383
  181DOPC  H13R22214   1.371   4.117  14.337
  181DOPC  H13S22215   1.538   4.030  14.377
  181DOPC  C21422216   1.354   4.000  14.524
  181DOPC  H14R22217   1.407   3.909  14.581
  181DOPC  H14S22218   1.234   3.977  14.522
  181DOPC  C21522219   1.385   4.144  14.593
  181DOPC  H15R22220   1.359   4.141  14.699
  181DOPC  H15S22221   1.312   4.234  14.556
  181DOPC  C21622222   1.547   4.184  14.565
  181DOPC  H16R22223   1.578   4.280  14.621
  181DOPC  H16S22224   1.547   4.230  14.462
  181DOPC  C21722225   1.668   4.060  14.572
  181DOPC  H17R22226   1.722   4.057  14.472
  181DOPC  H17S22227   1.616   3.951  14.585
  181DOPC  C21822228   1.786   4.069  14.679
  181DOPC  H18R22229   1.861   3.972  14.675
  181DOPC  H18S22230   1.733   4.080  14.778
  181DOPC  H18T22231   1.858   4.165  14.668
  181DOPC   C3322232   1.431   4.081  13.589
  181DOPC   H3X22233   1.458   4.013  13.500
  181DOPC   H3Y22234   1.532   4.138  13.616
  181DOPC   C3422235   1.316   4.198  13.550
  181DOPC   H4X22236   1.218   4.144  13.506
  181DOPC   H4Y22237   1.366   4.268  13.470
  181DOPC   C3522238   1.267   4.298  13.666
  181DOPC   H5X22239   1.367   4.341  13.717
  181DOPC   H5Y22240   1.203   4.233  13.740
  181DOPC   C3622241   1.173   4.429  13.621
  181DOPC   H6X22242   1.228   4.484  13.535
  181DOPC   H6Y22243   1.065   4.385  13.584
  181DOPC   C3722244   1.145   4.545  13.731
  181DOPC   H7X22245   1.243   4.619  13.734
  181DOPC   H7Y22246   1.048   4.613  13.700
  181DOPC   C3822247   1.119   4.483  13.873
  181DOPC   H8X22248   1.215   4.413  13.901
  181DOPC   H8Y22249   1.022   4.409  13.869
  181DOPC   C3922250   1.097   4.601  13.976
  181DOPC   H9X22251   1.049   4.704  13.937
  181DOPC  C31022252   1.121   4.590  14.109
  181DOPC  H10X22253   1.095   4.687  14.171
  181DOPC  C31122254   1.176   4.458  14.186
  181DOPC  H11X22255   1.268   4.494  14.252
  181DOPC  H11Y22256   1.221   4.371  14.119
  181DOPC  C31222257   1.057   4.386  14.276
  181DOPC  H12X22258   0.981   4.470  14.315
  181DOPC  H12Y22259   1.113   4.335  14.364
  181DOPC  C31322260   0.971   4.263  14.204
  181DOPC  H13X22261   0.916   4.305  14.114
  181DOPC  H13Y22262   1.054   4.181  14.167
  181DOPC  C31422263   0.858   4.178  14.290
  181DOPC  H14X22264   0.786   4.253  14.347
  181DOPC  H14Y22265   0.784   4.114  14.222
  181DOPC  C31522266   0.933   4.072  14.388
  181DOPC  H15X22267   1.002   4.140  14.456
  181DOPC  H15Y22268   1.008   3.997  14.332
  181DOPC  C31622269   0.824   3.981  14.471
  181DOPC  H16X22270   0.730   4.050  14.504
  181DOPC  H16Y22271   0.779   3.891  14.407
  181DOPC  C31722272   0.896   3.913  14.595
  181DOPC  H17X22273   0.813   3.843  14.646
  181DOPC  H17Y22274   0.987   3.839  14.561
  181DOPC  C31822275   0.959   4.024  14.695
  181DOPC  H18X22276   1.064   4.073  14.658
  181DOPC  H18Y22277   0.880   4.115  14.712
  181DOPC  H18Z22278   0.983   3.971  14.793
  182DOPC     N22279   2.812   1.008  13.206
  182DOPC   C1222280   2.790   1.112  13.088
  182DOPC  H12A22281   2.790   1.048  12.996
  182DOPC  H12B22282   2.886   1.183  13.081
  182DOPC   C1322283   2.842   1.096  13.329
  182DOPC  H13A22284   2.859   1.024  13.414
  182DOPC  H13B22285   2.943   1.158  13.316
  182DOPC  H13C22286   2.751   1.169  13.349
  182DOPC   C1422287   2.944   0.915  13.174
  182DOPC  H14A22288   3.035   0.984  13.140
  182DOPC  H14B22289   2.982   0.853  13.259
  182DOPC  H14C22290   2.921   0.838  13.093
  182DOPC   C1522291   2.677   0.914  13.224
  182DOPC  H15A22292   2.580   0.984  13.230
  182DOPC  H15B22293   2.685   0.846  13.313
  182DOPC  H15C22294   2.661   0.846  13.137
  182DOPC   C1122295   2.651   1.213  13.085
  182DOPC  H11A22296   2.649   1.278  13.179
  182DOPC  H11B22297   2.665   1.294  13.002
  182DOPC     P22298   2.425   1.129  12.939
  182DOPC   O1322299   2.520   1.111  12.821
  182DOPC   O1422300   2.322   1.255  12.940
  182DOPC   O1222301   2.519   1.131  13.075
  182DOPC   O1122302   2.333   0.981  12.943
  182DOPC    C122303   2.270   0.914  13.056
  182DOPC    HA22304   2.357   0.861  13.118
  182DOPC    HB22305   2.196   0.825  13.023
  182DOPC    C222306   2.182   1.024  13.142
  182DOPC    HS22307   2.148   1.119  13.078
  182DOPC   O2122308   2.284   1.067  13.245
  182DOPC   C2122309   2.259   1.198  13.293
  182DOPC   O2222310   2.152   1.275  13.275
  182DOPC   C2222311   2.397   1.244  13.371
  182DOPC   H2R22312   2.465   1.311  13.302
  182DOPC   H2S22313   2.461   1.145  13.401
  182DOPC    C322314   2.041   0.956  13.198
  182DOPC    HX22315   1.961   0.938  13.115
  182DOPC    HY22316   1.988   1.038  13.265
  182DOPC   O3122317   2.075   0.816  13.260
  182DOPC   C3122318   2.103   0.834  13.390
  182DOPC   O3222319   2.073   0.943  13.455
  182DOPC   C3222320   2.201   0.713  13.443
  182DOPC   H2X22321   2.134   0.642  13.510
  182DOPC   H2Y22322   2.242   0.645  13.358
  182DOPC   C2322323   2.356   1.337  13.494
  182DOPC   H3R22324   2.281   1.427  13.459
  182DOPC   H3S22325   2.455   1.389  13.538
  182DOPC   C2422326   2.276   1.250  13.602
  182DOPC   H4R22327   2.176   1.196  13.559
  182DOPC   H4S22328   2.236   1.331  13.674
  182DOPC   C2522329   2.365   1.134  13.679
  182DOPC   H5R22330   2.467   1.105  13.624
  182DOPC   H5S22331   2.296   1.034  13.686
  182DOPC   C2622332   2.402   1.179  13.824
  182DOPC   H6R22333   2.300   1.214  13.876
  182DOPC   H6S22334   2.479   1.274  13.822
  182DOPC   C2722335   2.471   1.051  13.901
  182DOPC   H7R22336   2.575   1.024  13.849
  182DOPC   H7S22337   2.397   0.954  13.894
  182DOPC   C2822338   2.504   1.077  14.049
  182DOPC   H8R22339   2.570   0.987  14.093
  182DOPC   H8S22340   2.399   1.077  14.106
  182DOPC   C2922341   2.585   1.218  14.070
  182DOPC   H9R22342   2.655   1.254  13.988
  182DOPC  C21022343   2.584   1.289  14.186
  182DOPC  H10R22344   2.650   1.390  14.193
  182DOPC  C21122345   2.503   1.240  14.310
  182DOPC  H11R22346   2.583   1.233  14.393
  182DOPC  H11S22347   2.458   1.126  14.300
  182DOPC  C21222348   2.375   1.335  14.359
  182DOPC  H12R22349   2.279   1.327  14.291
  182DOPC  H12S22350   2.409   1.452  14.362
  182DOPC  C21322351   2.333   1.299  14.504
  182DOPC  H13R22352   2.234   1.361  14.529
  182DOPC  H13S22353   2.416   1.345  14.574
  182DOPC  C21422354   2.319   1.135  14.540
  182DOPC  H14R22355   2.421   1.075  14.513
  182DOPC  H14S22356   2.228   1.082  14.484
  182DOPC  C21522357   2.294   1.115  14.690
  182DOPC  H15R22358   2.226   1.207  14.731
  182DOPC  H15S22359   2.402   1.121  14.739
  182DOPC  C21622360   2.215   0.974  14.727
  182DOPC  H16R22361   2.263   0.886  14.662
  182DOPC  H16S22362   2.097   0.982  14.703
  182DOPC  C21722363   2.240   0.933  14.875
  182DOPC  H17R22364   2.349   0.974  14.905
  182DOPC  H17S22365   2.240   0.813  14.894
  182DOPC  C21822366   2.134   1.009  14.968
  182DOPC  H18R22367   2.135   1.129  14.947
  182DOPC  H18S22368   2.169   0.990  15.073
  182DOPC  H18T22369   2.021   0.966  14.957
  182DOPC   C3322370   2.328   0.782  13.523
  182DOPC   H3X22371   2.302   0.766  13.631
  182DOPC   H3Y22372   2.334   0.903  13.506
  182DOPC   C3422373   2.477   0.720  13.484
  182DOPC   H4X22374   2.496   0.744  13.376
  182DOPC   H4Y22375   2.476   0.600  13.497
  182DOPC   C3522376   2.602   0.788  13.568
  182DOPC   H5X22377   2.605   0.910  13.555
  182DOPC   H5Y22378   2.709   0.743  13.534
  182DOPC   C3622379   2.578   0.748  13.715
  182DOPC   H6X22380   2.482   0.809  13.754
  182DOPC   H6Y22381   2.549   0.629  13.717
  182DOPC   C3722382   2.708   0.773  13.810
  182DOPC   H7X22383   2.808   0.717  13.771
  182DOPC   H7Y22384   2.740   0.891  13.813
  182DOPC   C3822385   2.673   0.719  13.953
  182DOPC   H8X22386   2.603   0.803  13.999
  182DOPC   H8Y22387   2.778   0.719  14.010
  182DOPC   C3922388   2.596   0.572  13.969
  182DOPC   H9X22389   2.644   0.483  13.909
  182DOPC  C31022390   2.477   0.539  14.044
  182DOPC  H10X22391   2.447   0.421  14.055
  182DOPC  C31122392   2.390   0.641  14.133
  182DOPC  H11X22393   2.270   0.617  14.127
  182DOPC  H11Y22394   2.405   0.759  14.105
  182DOPC  C31222395   2.443   0.625  14.278
  182DOPC  H12X22396   2.458   0.506  14.304
  182DOPC  H12Y22397   2.359   0.669  14.349
  182DOPC  C31322398   2.586   0.712  14.297
  182DOPC  H13X22399   2.666   0.674  14.221
  182DOPC  H13Y22400   2.562   0.829  14.275
  182DOPC  C31422401   2.652   0.702  14.437
  182DOPC  H14X22402   2.625   0.596  14.486
  182DOPC  H14Y22403   2.774   0.711  14.432
  182DOPC  C31522404   2.593   0.818  14.532
  182DOPC  H15X22405   2.471   0.805  14.537
  182DOPC  H15Y22406   2.616   0.930  14.491
  182DOPC  C31622407   2.660   0.802  14.672
  182DOPC  H16X22408   2.638   0.689  14.709
  182DOPC  H16Y22409   2.780   0.822  14.670
  182DOPC  C31722410   2.588   0.909  14.770
  182DOPC  H17X22411   2.616   1.024  14.745
  182DOPC  H17Y22412   2.471   0.892  14.748
  182DOPC  C31822413   2.611   0.878  14.919
  182DOPC  H18X22414   2.563   0.968  14.980
  182DOPC  H18Y22415   2.559   0.772  14.948
  182DOPC  H18Z22416   2.729   0.868  14.944
  183DOPC     N22417   7.356   5.699  13.056
  183DOPC   C1222418   7.383   5.841  12.977
  183DOPC  H12A22419   7.283   5.903  12.965
  183DOPC  H12B22420   7.422   5.811  12.878
  183DOPC   C1322421   7.306   5.726  13.197
  183DOPC  H13A22422   7.204   5.788  13.204
  183DOPC  H13B22423   7.288   5.624  13.251
  183DOPC  H13C22424   7.389   5.792  13.250
  183DOPC   C1422425   7.501   5.625  13.060
  183DOPC  H14A22426   7.550   5.624  12.962
  183DOPC  H14B22427   7.577   5.693  13.120
  183DOPC  H14C22428   7.497   5.518  13.103
  183DOPC   C1522429   7.249   5.606  12.983
  183DOPC  H15A22430   7.294   5.572  12.886
  183DOPC  H15B22431   7.149   5.668  12.962
  183DOPC  H15C22432   7.219   5.508  13.038
  183DOPC   C1122433   7.501   5.947  13.032
  183DOPC  H11A22434   7.516   6.044  12.967
  183DOPC  H11B22435   7.458   5.993  13.125
  183DOPC     P22436   7.784   5.900  12.985
  183DOPC   O1322437   7.748   5.937  12.844
  183DOPC   O1422438   7.871   5.764  13.007
  183DOPC   O1222439   7.636   5.877  13.061
  183DOPC   O1122440   7.851   6.035  13.062
  183DOPC    C122441   7.946   6.014  13.173
  183DOPC    HA22442   7.999   6.123  13.189
  183DOPC    HB22443   8.039   5.939  13.150
  183DOPC    C222444   7.875   5.981  13.314
  183DOPC    HS22445   7.962   5.970  13.392
  183DOPC   O2122446   7.773   5.859  13.324
  183DOPC   C2122447   7.840   5.740  13.373
  183DOPC   O2222448   7.968   5.710  13.357
  183DOPC   C2222449   7.744   5.651  13.469
  183DOPC   H2R22450   7.721   5.543  13.422
  183DOPC   H2S22451   7.638   5.708  13.486
  183DOPC    C322452   7.802   6.129  13.347
  183DOPC    HX22453   7.723   6.138  13.264
  183DOPC    HY22454   7.880   6.221  13.329
  183DOPC   O3122455   7.750   6.157  13.480
  183DOPC   C3122456   7.649   6.085  13.545
  183DOPC   O3222457   7.596   5.965  13.520
  183DOPC   C3222458   7.608   6.173  13.668
  183DOPC   H2X22459   7.673   6.277  13.674
  183DOPC   H2Y22460   7.489   6.202  13.666
  183DOPC   C2322461   7.829   5.628  13.603
  183DOPC   H3R22462   7.856   5.735  13.648
  183DOPC   H3S22463   7.935   5.570  13.580
  183DOPC   C2422464   7.750   5.534  13.709
  183DOPC   H4R22465   7.829   5.502  13.789
  183DOPC   H4S22466   7.714   5.430  13.661
  183DOPC   C2522467   7.615   5.607  13.774
  183DOPC   H5R22468   7.544   5.518  13.813
  183DOPC   H5S22469   7.551   5.669  13.698
  183DOPC   C2622470   7.651   5.708  13.893
  183DOPC   H6R22471   7.719   5.801  13.857
  183DOPC   H6S22472   7.719   5.649  13.967
  183DOPC   C2722473   7.509   5.765  13.960
  183DOPC   H7R22474   7.443   5.825  13.883
  183DOPC   H7S22475   7.536   5.844  14.040
  183DOPC   C2822476   7.410   5.644  14.020
  183DOPC   H8R22477   7.358   5.579  13.937
  183DOPC   H8S22478   7.316   5.699  14.072
  183DOPC   C2922479   7.493   5.544  14.113
  183DOPC   H9R22480   7.548   5.449  14.065
  183DOPC  C21022481   7.513   5.567  14.244
  183DOPC  H10R22482   7.581   5.490  14.302
  183DOPC  C21122483   7.454   5.697  14.320
  183DOPC  H11R22484   7.365   5.664  14.391
  183DOPC  H11S22485   7.405   5.781  14.252
  183DOPC  C21222486   7.576   5.775  14.399
  183DOPC  H12R22487   7.680   5.776  14.342
  183DOPC  H12S22488   7.596   5.716  14.495
  183DOPC  C21322489   7.535   5.936  14.427
  183DOPC  H13R22490   7.415   5.948  14.448
  183DOPC  H13S22491   7.558   5.998  14.334
  183DOPC  C21422492   7.624   6.001  14.542
  183DOPC  H14R22493   7.630   6.122  14.526
  183DOPC  H14S22494   7.740   5.961  14.536
  183DOPC  C21522495   7.564   5.978  14.685
  183DOPC  H15R22496   7.575   6.091  14.729
  183DOPC  H15S22497   7.635   5.903  14.743
  183DOPC  C21622498   7.400   5.949  14.708
  183DOPC  H16R22499   7.366   5.842  14.664
  183DOPC  H16S22500   7.339   6.038  14.655
  183DOPC  C21722501   7.352   5.957  14.857
  183DOPC  H17R22502   7.230   5.957  14.863
  183DOPC  H17S22503   7.391   6.063  14.901
  183DOPC  C21822504   7.412   5.837  14.949
  183DOPC  H18R22505   7.534   5.839  14.946
  183DOPC  H18S22506   7.373   5.726  14.920
  183DOPC  H18T22507   7.376   5.859  15.054
  183DOPC   C3322508   7.645   6.070  13.782
  183DOPC   H3X22509   7.760   6.030  13.768
  183DOPC   H3Y22510   7.572   5.972  13.778
  183DOPC   C3422511   7.635   6.142  13.917
  183DOPC   H4X22512   7.525   6.115  13.959
  183DOPC   H4Y22513   7.644   6.265  13.908
  183DOPC   C3522514   7.756   6.084  14.006
  183DOPC   H5X22515   7.861   6.068  13.949
  183DOPC   H5Y22516   7.723   5.974  14.044
  183DOPC   C3622517   7.791   6.185  14.121
  183DOPC   H6X22518   7.853   6.283  14.087
  183DOPC   H6Y22519   7.689   6.223  14.172
  183DOPC   C3722520   7.882   6.094  14.217
  183DOPC   H7X22521   7.822   5.988  14.237
  183DOPC   H7Y22522   7.988   6.067  14.167
  183DOPC   C3822523   7.906   6.174  14.347
  183DOPC   H8X22524   7.799   6.199  14.397
  183DOPC   H8Y22525   7.964   6.279  14.323
  183DOPC   C3922526   8.003   6.075  14.427
  183DOPC   H9X22527   7.986   5.958  14.407
  183DOPC  C31022528   8.074   6.116  14.537
  183DOPC  H10X22529   8.150   6.038  14.584
  183DOPC  C31122530   8.066   6.266  14.597
  183DOPC  H11X22531   7.949   6.284  14.618
  183DOPC  H11Y22532   8.105   6.348  14.523
  183DOPC  C31222533   8.148   6.292  14.731
  183DOPC  H12X22534   8.143   6.411  14.754
  183DOPC  H12Y22535   8.263   6.258  14.718
  183DOPC  C31322536   8.089   6.206  14.850
  183DOPC  H13X22537   7.968   6.197  14.844
  183DOPC  H13Y22538   8.133   6.094  14.834
  183DOPC  C31422539   8.140   6.250  14.993
  183DOPC  H14X22540   8.072   6.182  15.062
  183DOPC  H14Y22541   8.257   6.212  15.001
  183DOPC  C31522542   8.141   6.409  15.050
  183DOPC  H15X22543   8.240   6.464  15.011
  183DOPC  H15Y22544   8.156   6.400  15.160
  183DOPC  C31622545   8.012   6.515  15.025
  183DOPC  H16X22546   8.048   6.625  15.062
  183DOPC  H16Y22547   7.995   6.524  14.917
  183DOPC  C31722548   7.871   6.477  15.101
  183DOPC  H17X22549   7.867   6.357  15.113
  183DOPC  H17Y22550   7.884   6.523  15.203
  183DOPC  C31822551   7.724   6.535  15.045
  183DOPC  H18X22552   7.627   6.478  15.086
  183DOPC  H18Y22553   7.706   6.651  15.072
  183DOPC  H18Z22554   7.715   6.522  14.936
  184DOPC     N22555   5.076   0.508  13.174
  184DOPC   C1222556   5.053   0.594  13.045
  184DOPC  H12A22557   4.943   0.635  13.043
  184DOPC  H12B22558   5.068   0.521  12.959
  184DOPC   C1322559   5.221   0.429  13.167
  184DOPC  H13A22560   5.226   0.357  13.080
  184DOPC  H13B22561   5.310   0.507  13.150
  184DOPC  H13C22562   5.251   0.370  13.256
  184DOPC   C1422563   4.957   0.398  13.196
  184DOPC  H14A22564   4.851   0.451  13.203
  184DOPC  H14B22565   4.954   0.317  13.116
  184DOPC  H14C22566   4.975   0.341  13.290
  184DOPC   C1522567   5.080   0.611  13.292
  184DOPC  H15A22568   4.990   0.688  13.290
  184DOPC  H15B22569   5.182   0.674  13.291
  184DOPC  H15C22570   5.076   0.551  13.386
  184DOPC   C1122571   5.159   0.723  13.017
  184DOPC  H11A22572   5.112   0.800  12.942
  184DOPC  H11B22573   5.180   0.789  13.109
  184DOPC     P22574   5.449   0.692  13.011
  184DOPC   O1322575   5.547   0.718  12.895
  184DOPC   O1422576   5.493   0.572  13.103
  184DOPC   O1222577   5.288   0.659  12.962
  184DOPC   O1122578   5.426   0.839  13.090
  184DOPC    C122579   5.533   0.904  13.176
  184DOPC    HA22580   5.544   1.023  13.152
  184DOPC    HB22581   5.645   0.856  13.162
  184DOPC    C222582   5.489   0.890  13.326
  184DOPC    HS22583   5.587   0.921  13.387
  184DOPC   O2122584   5.434   0.746  13.355
  184DOPC   C2122585   5.533   0.653  13.403
  184DOPC   O2222586   5.662   0.682  13.424
  184DOPC   C2222587   5.459   0.509  13.442
  184DOPC   H2R22588   5.513   0.424  13.380
  184DOPC   H2S22589   5.342   0.514  13.416
  184DOPC    C322590   5.366   0.998  13.367
  184DOPC    HX22591   5.268   0.972  13.305
  184DOPC    HY22592   5.400   1.112  13.342
  184DOPC   O3122593   5.329   0.977  13.508
  184DOPC   C3122594   5.397   1.069  13.592
  184DOPC   O3222595   5.469   1.175  13.559
  184DOPC   C3222596   5.371   1.022  13.737
  184DOPC   H2X22597   5.261   0.974  13.746
  184DOPC   H2Y22598   5.455   0.938  13.762
  184DOPC   C2322599   5.479   0.474  13.592
  184DOPC   H3R22600   5.598   0.479  13.618
  184DOPC   H3S22601   5.441   0.360  13.610
  184DOPC   C2422602   5.392   0.577  13.685
  184DOPC   H4R22603   5.272   0.563  13.664
  184DOPC   H4S22604   5.421   0.694  13.663
  184DOPC   C2522605   5.422   0.546  13.834
  184DOPC   H5R22606   5.443   0.426  13.846
  184DOPC   H5S22607   5.322   0.572  13.894
  184DOPC   C2622608   5.552   0.635  13.889
  184DOPC   H6R22609   5.516   0.751  13.902
  184DOPC   H6S22610   5.642   0.634  13.813
  184DOPC   C2722611   5.614   0.574  14.021
  184DOPC   H7R22612   5.720   0.632  14.042
  184DOPC   H7S22613   5.641   0.455  14.007
  184DOPC   C2822614   5.512   0.590  14.143
  184DOPC   H8R22615   5.563   0.534  14.230
  184DOPC   H8S22616   5.408   0.530  14.122
  184DOPC   C2922617   5.488   0.749  14.177
  184DOPC   H9R22618   5.589   0.814  14.194
  184DOPC  C21022619   5.357   0.817  14.185
  184DOPC  H10R22620   5.355   0.935  14.212
  184DOPC  C21122621   5.209   0.749  14.162
  184DOPC  H11R22622   5.213   0.645  14.105
  184DOPC  H11S22623   5.138   0.826  14.103
  184DOPC  C21222624   5.132   0.720  14.297
  184DOPC  H12R22625   5.196   0.643  14.360
  184DOPC  H12S22626   5.023   0.668  14.278
  184DOPC  C21322627   5.107   0.867  14.369
  184DOPC  H13R22628   5.051   0.939  14.296
  184DOPC  H13S22629   5.215   0.917  14.397
  184DOPC  C21422630   5.014   0.861  14.495
  184DOPC  H14R22631   4.913   0.798  14.476
  184DOPC  H14S22632   4.981   0.977  14.521
  184DOPC  C21522633   5.096   0.799  14.615
  184DOPC  H15R22634   5.192   0.868  14.638
  184DOPC  H15S22635   5.138   0.688  14.588
  184DOPC  C21622636   4.997   0.788  14.738
  184DOPC  H16R22637   4.903   0.714  14.714
  184DOPC  H16S22638   4.951   0.898  14.765
  184DOPC  C21722639   5.079   0.728  14.860
  184DOPC  H17R22640   5.148   0.816  14.902
  184DOPC  H17S22641   5.155   0.639  14.830
  184DOPC  C21822642   4.971   0.670  14.964
  184DOPC  H18R22643   4.905   0.577  14.923
  184DOPC  H18S22644   4.894   0.758  14.996
  184DOPC  H18T22645   5.032   0.631  15.053
  184DOPC   C3322646   5.387   1.156  13.832
  184DOPC   H3X22647   5.322   1.250  13.790
  184DOPC   H3Y22648   5.503   1.191  13.837
  184DOPC   C3422649   5.333   1.131  13.975
  184DOPC   H4X22650   5.421   1.074  14.033
  184DOPC   H4Y22651   5.233   1.060  13.976
  184DOPC   C3522652   5.299   1.279  14.040
  184DOPC   H5X22653   5.210   1.337  13.982
  184DOPC   H5Y22654   5.399   1.350  14.034
  184DOPC   C3622655   5.251   1.268  14.186
  184DOPC   H6X22656   5.319   1.184  14.239
  184DOPC   H6Y22657   5.277   1.376  14.233
  184DOPC   C3722658   5.086   1.236  14.203
  184DOPC   H7X22659   5.023   1.324  14.152
  184DOPC   H7Y22660   5.060   1.132  14.151
  184DOPC   C3822661   5.040   1.227  14.350
  184DOPC   H8X22662   5.099   1.134  14.396
  184DOPC   H8Y22663   4.920   1.200  14.355
  184DOPC   C3922664   5.075   1.362  14.430
  184DOPC   H9X22665   4.997   1.453  14.415
  184DOPC  C31022666   5.195   1.383  14.508
  184DOPC  H10X22667   5.206   1.493  14.554
  184DOPC  C31122668   5.323   1.279  14.538
  184DOPC  H11X22669   5.420   1.324  14.484
  184DOPC  H11Y22670   5.304   1.170  14.491
  184DOPC  C31222671   5.380   1.250  14.683
  184DOPC  H12X22672   5.334   1.329  14.756
  184DOPC  H12Y22673   5.501   1.269  14.685
  184DOPC  C31322674   5.350   1.091  14.729
  184DOPC  H13X22675   5.233   1.080  14.759
  184DOPC  H13Y22676   5.369   1.018  14.641
  184DOPC  C31422677   5.449   1.029  14.841
  184DOPC  H14X22678   5.412   0.913  14.857
  184DOPC  H14Y22679   5.566   1.025  14.810
  184DOPC  C31522680   5.435   1.112  14.973
  184DOPC  H15X22681   5.315   1.129  14.990
  184DOPC  H15Y22682   5.486   1.222  14.963
  184DOPC  C31622683   5.502   1.036  15.097
  184DOPC  H16X22684   5.622   1.059  15.102
  184DOPC  H16Y22685   5.451   1.088  15.187
  184DOPC  C31722686   5.481   0.869  15.109
  184DOPC  H17X22687   5.365   0.839  15.091
  184DOPC  H17Y22688   5.548   0.814  15.030
  184DOPC  C31822689   5.532   0.816  15.247
  184DOPC  H18X22690   5.654   0.803  15.246
  184DOPC  H18Y22691   5.503   0.900  15.324
  184DOPC  H18Z22692   5.482   0.710  15.276
  185DOPC     N22693   6.942   6.643  13.133
  185DOPC   C1222694   7.021   6.503  13.182
  185DOPC  H12A22695   6.957   6.450  13.260
  185DOPC  H12B22696   7.126   6.533  13.227
  185DOPC   C1322697   6.807   6.596  13.058
  185DOPC  H13A22698   6.840   6.523  12.976
  185DOPC  H13B22699   6.729   6.540  13.122
  185DOPC  H13C22700   6.753   6.690  13.013
  185DOPC   C1422701   7.047   6.714  13.037
  185DOPC  H14A22702   7.151   6.742  13.083
  185DOPC  H14B22703   7.077   6.634  12.960
  185DOPC  H14C22704   7.004   6.810  12.988
  185DOPC   C1522705   6.899   6.750  13.241
  185DOPC  H15A22706   6.994   6.793  13.295
  185DOPC  H15B22707   6.824   6.704  13.315
  185DOPC  H15C22708   6.843   6.845  13.198
  185DOPC   C1122709   7.058   6.383  13.074
  185DOPC  H11A22710   7.097   6.282  13.126
  185DOPC  H11B22711   6.954   6.351  13.024
  185DOPC     P22712   7.328   6.378  12.971
  185DOPC   O1322713   7.424   6.501  12.929
  185DOPC   O1422714   7.339   6.234  12.902
  185DOPC   O1222715   7.161   6.431  12.974
  185DOPC   O1122716   7.349   6.350  13.123
  185DOPC    C122717   7.490   6.303  13.165
  185DOPC    HA22718   7.580   6.383  13.141
  185DOPC    HB22719   7.522   6.201  13.114
  185DOPC    C222720   7.489   6.271  13.316
  185DOPC    HS22721   7.546   6.169  13.336
  185DOPC   O2122722   7.341   6.253  13.364
  185DOPC   C2122723   7.294   6.115  13.346
  185DOPC   O2222724   7.366   6.006  13.323
  185DOPC   C2222725   7.138   6.105  13.386
  185DOPC   H2R22726   7.097   5.992  13.366
  185DOPC   H2S22727   7.071   6.185  13.330
  185DOPC    C322728   7.572   6.400  13.385
  185DOPC    HX22729   7.685   6.403  13.342
  185DOPC    HY22730   7.590   6.381  13.493
  185DOPC   O3122731   7.505   6.538  13.356
  185DOPC   C3122732   7.410   6.576  13.446
  185DOPC   O3222733   7.384   6.512  13.551
  185DOPC   C3222734   7.334   6.717  13.405
  185DOPC   H2X22735   7.414   6.780  13.343
  185DOPC   H2Y22736   7.237   6.692  13.343
  185DOPC   C2322737   7.150   6.135  13.534
  185DOPC   H3R22738   7.261   6.124  13.580
  185DOPC   H3S22739   7.086   6.051  13.588
  185DOPC   C2422740   7.097   6.289  13.564
  185DOPC   H4R22741   6.993   6.315  13.511
  185DOPC   H4S22742   7.180   6.371  13.531
  185DOPC   C2522743   7.076   6.291  13.712
  185DOPC   H5R22744   7.163   6.228  13.765
  185DOPC   H5S22745   6.969   6.239  13.730
  185DOPC   C2622746   7.064   6.443  13.766
  185DOPC   H6R22747   7.004   6.513  13.694
  185DOPC   H6S22748   7.176   6.488  13.782
  185DOPC   C2722749   6.974   6.433  13.894
  185DOPC   H7R22750   6.866   6.381  13.871
  185DOPC   H7S22751   6.955   6.549  13.921
  185DOPC   C2822752   7.049   6.349  14.007
  185DOPC   H8R22753   7.083   6.237  13.974
  185DOPC   H8S22754   6.973   6.334  14.093
  185DOPC   C2922755   7.176   6.449  14.037
  185DOPC   H9R22756   7.152   6.567  14.022
  185DOPC  C21022757   7.308   6.412  14.081
  185DOPC  H10R22758   7.394   6.497  14.091
  185DOPC  C21122759   7.352   6.257  14.111
  185DOPC  H11R22760   7.475   6.249  14.117
  185DOPC  H11S22761   7.313   6.179  14.033
  185DOPC  C21222762   7.291   6.219  14.249
  185DOPC  H12R22763   7.295   6.098  14.267
  185DOPC  H12S22764   7.174   6.255  14.259
  185DOPC  C21322765   7.387   6.296  14.353
  185DOPC  H13R22766   7.421   6.407  14.316
  185DOPC  H13S22767   7.490   6.234  14.367
  185DOPC  C21422768   7.313   6.323  14.487
  185DOPC  H14R22769   7.272   6.218  14.531
  185DOPC  H14S22770   7.217   6.399  14.474
  185DOPC  C21522771   7.431   6.395  14.573
  185DOPC  H15R22772   7.471   6.489  14.511
  185DOPC  H15S22773   7.524   6.319  14.590
  185DOPC  C21622774   7.378   6.458  14.705
  185DOPC  H16R22775   7.274   6.521  14.688
  185DOPC  H16S22776   7.461   6.533  14.747
  185DOPC  C21722777   7.353   6.340  14.808
  185DOPC  H17R22778   7.391   6.380  14.908
  185DOPC  H17S22779   7.421   6.243  14.783
  185DOPC  C21822780   7.192   6.305  14.813
  185DOPC  H18R22781   7.148   6.279  14.713
  185DOPC  H18S22782   7.136   6.407  14.847
  185DOPC  H18T22783   7.168   6.214  14.883
  185DOPC   C3322784   7.296   6.804  13.533
  185DOPC   H3X22785   7.297   6.919  13.503
  185DOPC   H3Y22786   7.385   6.795  13.609
  185DOPC   C3422787   7.149   6.758  13.599
  185DOPC   H4X22788   7.174   6.657  13.655
  185DOPC   H4Y22789   7.063   6.734  13.523
  185DOPC   C3522790   7.091   6.872  13.700
  185DOPC   H5X22791   6.987   6.926  13.665
  185DOPC   H5Y22792   7.178   6.956  13.701
  185DOPC   C3622793   7.071   6.821  13.845
  185DOPC   H6X22794   6.967   6.758  13.851
  185DOPC   H6Y22795   7.161   6.744  13.869
  185DOPC   C3722796   7.058   6.953  13.942
  185DOPC   H7X22797   7.064   7.056  13.884
  185DOPC   H7Y22798   6.943   6.955  13.981
  185DOPC   C3822799   7.164   6.963  14.062
  185DOPC   H8X22800   7.092   6.983  14.150
  185DOPC   H8Y22801   7.230   7.064  14.060
  185DOPC   C3922802   7.269   6.838  14.081
  185DOPC   H9X22803   7.330   6.797  13.994
  185DOPC  C31022804   7.295   6.782  14.202
  185DOPC  H10X22805   7.363   6.684  14.216
  185DOPC  C31122806   7.222   6.845  14.322
  185DOPC  H11X22807   7.101   6.830  14.317
  185DOPC  H11Y22808   7.241   6.965  14.328
  185DOPC  C31222809   7.282   6.775  14.447
  185DOPC  H12X22810   7.271   6.653  14.444
  185DOPC  H12Y22811   7.210   6.811  14.532
  185DOPC  C31322812   7.442   6.821  14.475
  185DOPC  H13X22813   7.516   6.766  14.402
  185DOPC  H13Y22814   7.457   6.942  14.465
  185DOPC  C31422815   7.475   6.773  14.617
  185DOPC  H14X22816   7.370   6.731  14.656
  185DOPC  H14Y22817   7.544   6.676  14.612
  185DOPC  C31522818   7.538   6.877  14.721
  185DOPC  H15X22819   7.503   6.992  14.700
  185DOPC  H15Y22820   7.660   6.876  14.712
  185DOPC  C31622821   7.499   6.827  14.866
  185DOPC  H16X22822   7.564   6.725  14.883
  185DOPC  H16Y22823   7.537   6.911  14.938
  185DOPC  C31722824   7.340   6.787  14.905
  185DOPC  H17X22825   7.276   6.889  14.919
  185DOPC  H17Y22826   7.280   6.723  14.828
  185DOPC  C31822827   7.337   6.695  15.033
  185DOPC  H18X22828   7.389   6.586  15.015
  185DOPC  H18Y22829   7.401   6.750  15.114
  185DOPC  H18Z22830   7.223   6.676  15.068
  186DOPC     N22831   0.547   3.271  12.931
  186DOPC   C1222832   0.479   3.416  12.889
  186DOPC  H12A22833   0.382   3.389  12.829
  186DOPC  H12B22834   0.557   3.475  12.826
  186DOPC   C1322835   0.429   3.180  12.992
  186DOPC  H13A22836   0.474   3.077  13.027
  186DOPC  H13B22837   0.380   3.238  13.076
  186DOPC  H13C22838   0.342   3.155  12.921
  186DOPC   C1422839   0.668   3.299  13.031
  186DOPC  H14A22840   0.751   3.373  12.989
  186DOPC  H14B22841   0.624   3.348  13.121
  186DOPC  H14C22842   0.726   3.199  13.057
  186DOPC   C1522843   0.606   3.189  12.814
  186DOPC  H15A22844   0.661   3.088  12.846
  186DOPC  H15B22845   0.684   3.255  12.759
  186DOPC  H15C22846   0.519   3.150  12.749
  186DOPC   C1122847   0.426   3.521  13.001
  186DOPC  H11A22848   0.517   3.536  13.075
  186DOPC  H11B22849   0.405   3.630  12.956
  186DOPC     P22850   0.252   3.519  13.213
  186DOPC   O1322851   0.178   3.664  13.196
  186DOPC   O1422852   0.385   3.521  13.295
  186DOPC   O1222853   0.294   3.467  13.063
  186DOPC   O1122854   0.141   3.400  13.265
  186DOPC    C122855   0.012   3.345  13.200
  186DOPC    HA22856   0.041   3.294  13.102
  186DOPC    HB22857  -0.066   3.438  13.180
  186DOPC    C222858  -0.080   3.233  13.287
  186DOPC    HS22859  -0.197   3.238  13.251
  186DOPC   O2122860  -0.063   3.277  13.427
  186DOPC   C2122861  -0.180   3.337  13.486
  186DOPC   O2222862  -0.305   3.330  13.441
  186DOPC   C2222863  -0.142   3.413  13.622
  186DOPC   H2R22864  -0.201   3.353  13.702
  186DOPC   H2S22865  -0.188   3.526  13.620
  186DOPC    C322866  -0.036   3.064  13.262
  186DOPC    HX22867  -0.020   3.055  13.152
  186DOPC    HY22868  -0.135   2.994  13.281
  186DOPC   O3122869   0.095   3.000  13.319
  186DOPC   C3122870   0.084   2.869  13.382
  186DOPC   O3222871  -0.030   2.812  13.420
  186DOPC   C3222872   0.237   2.792  13.394
  186DOPC   H2X22873   0.211   2.685  13.350
  186DOPC   H2Y22874   0.296   2.842  13.312
  186DOPC   C2322875   0.024   3.425  13.658
  186DOPC   H3R22876   0.076   3.518  13.603
  186DOPC   H3S22877   0.078   3.332  13.612
  186DOPC   C2422878   0.076   3.425  13.806
  186DOPC   H4R22879   0.045   3.325  13.861
  186DOPC   H4S22880   0.022   3.511  13.865
  186DOPC   C2522881   0.245   3.431  13.811
  186DOPC   H5R22882   0.286   3.544  13.788
  186DOPC   H5S22883   0.290   3.362  13.730
  186DOPC   C2622884   0.311   3.374  13.943
  186DOPC   H6R22885   0.427   3.341  13.926
  186DOPC   H6S22886   0.251   3.275  13.977
  186DOPC   C2722887   0.306   3.498  14.047
  186DOPC   H7R22888   0.189   3.520  14.071
  186DOPC   H7S22889   0.354   3.595  13.995
  186DOPC   C2822890   0.397   3.477  14.175
  186DOPC   H8R22891   0.516   3.475  14.148
  186DOPC   H8S22892   0.371   3.367  14.218
  186DOPC   C2922893   0.363   3.603  14.270
  186DOPC   H9R22894   0.409   3.709  14.241
  186DOPC  C21022895   0.278   3.594  14.381
  186DOPC  H10R22896   0.256   3.693  14.441
  186DOPC  C21122897   0.206   3.453  14.426
  186DOPC  H11R22898   0.293   3.367  14.416
  186DOPC  H11S22899   0.114   3.424  14.356
  186DOPC  C21222900   0.150   3.429  14.570
  186DOPC  H12R22901   0.243   3.449  14.641
  186DOPC  H12S22902   0.121   3.310  14.580
  186DOPC  C21322903   0.014   3.518  14.614
  186DOPC  H13R22904  -0.011   3.598  14.532
  186DOPC  H13S22905   0.045   3.584  14.703
  186DOPC  C21422906  -0.130   3.433  14.645
  186DOPC  H14R22907  -0.173   3.384  14.551
  186DOPC  H14S22908  -0.211   3.518  14.677
  186DOPC  C21522909  -0.133   3.311  14.754
  186DOPC  H15R22910  -0.131   3.203  14.702
  186DOPC  H15S22911  -0.242   3.315  14.804
  186DOPC  C21622912  -0.016   3.315  14.864
  186DOPC  H16R22913   0.092   3.340  14.820
  186DOPC  H16S22914  -0.010   3.207  14.914
  186DOPC  C21722915  -0.050   3.431  14.971
  186DOPC  H17R22916  -0.164   3.413  15.008
  186DOPC  H17S22917  -0.045   3.541  14.922
  186DOPC  C21822918   0.056   3.429  15.091
  186DOPC  H18R22919   0.022   3.510  15.167
  186DOPC  H18S22920   0.169   3.455  15.059
  186DOPC  H18T22921   0.056   3.319  15.138
  186DOPC   C3322922   0.331   2.776  13.532
  186DOPC   H3X22923   0.242   2.771  13.606
  186DOPC   H3Y22924   0.348   2.886  13.486
  186DOPC   C3422925   0.469   2.858  13.605
  186DOPC   H4X22926   0.446   2.975  13.628
  186DOPC   H4Y22927   0.562   2.862  13.534
  186DOPC   C3522928   0.527   2.825  13.747
  186DOPC   H5X22929   0.630   2.892  13.755
  186DOPC   H5Y22930   0.561   2.710  13.765
  186DOPC   C3622931   0.437   2.890  13.862
  186DOPC   H6X22932   0.496   2.871  13.959
  186DOPC   H6Y22933   0.426   3.011  13.850
  186DOPC   C3722934   0.284   2.823  13.873
  186DOPC   H7X22935   0.217   2.855  13.785
  186DOPC   H7Y22936   0.294   2.701  13.875
  186DOPC   C3822937   0.207   2.880  13.997
  186DOPC   H8X22938   0.188   3.000  13.990
  186DOPC   H8Y22939   0.284   2.864  14.081
  186DOPC   C3922940   0.065   2.801  14.020
  186DOPC   H9X22941  -0.032   2.842  13.967
  186DOPC  C31022942   0.044   2.695  14.109
  186DOPC  H10X22943  -0.065   2.647  14.113
  186DOPC  C31122944   0.157   2.633  14.203
  186DOPC  H11X22945   0.265   2.678  14.180
  186DOPC  H11Y22946   0.175   2.515  14.180
  186DOPC  C31222947   0.117   2.647  14.353
  186DOPC  H12X22948   0.211   2.611  14.415
  186DOPC  H12Y22949   0.028   2.565  14.361
  186DOPC  C31322950   0.056   2.794  14.411
  186DOPC  H13X22951   0.134   2.868  14.359
  186DOPC  H13Y22952  -0.058   2.815  14.378
  186DOPC  C31422953   0.079   2.840  14.561
  186DOPC  H14X22954   0.003   2.791  14.634
  186DOPC  H14Y22955   0.178   2.775  14.568
  186DOPC  C31522956   0.114   3.007  14.600
  186DOPC  H15X22957   0.022   3.061  14.650
  186DOPC  H15Y22958   0.128   3.060  14.502
  186DOPC  C31622959   0.265   3.064  14.660
  186DOPC  H16X22960   0.337   2.968  14.668
  186DOPC  H16Y22961   0.316   3.144  14.589
  186DOPC  C31722962   0.295   3.122  14.801
  186DOPC  H17X22963   0.282   3.243  14.806
  186DOPC  H17Y22964   0.221   3.068  14.874
  186DOPC  C31822965   0.459   3.084  14.829
  186DOPC  H18X22966   0.469   2.967  14.854
  186DOPC  H18Y22967   0.526   3.104  14.737
  186DOPC  H18Z22968   0.509   3.149  14.910
  187DOPC     N22969   6.379   1.317  12.984
  187DOPC   C1222970   6.537   1.317  13.034
  187DOPC  H12A22971   6.588   1.424  13.033
  187DOPC  H12B22972   6.604   1.255  12.963
  187DOPC   C1322973   6.318   1.467  12.978
  187DOPC  H13A22974   6.398   1.536  12.925
  187DOPC  H13B22975   6.213   1.472  12.928
  187DOPC  H13C22976   6.307   1.514  13.078
  187DOPC   C1422977   6.284   1.213  13.065
  187DOPC  H14A22978   6.337   1.104  13.063
  187DOPC  H14B22979   6.279   1.240  13.170
  187DOPC  H14C22980   6.175   1.197  13.025
  187DOPC   C1522981   6.384   1.244  12.850
  187DOPC  H15A22982   6.442   1.308  12.776
  187DOPC  H15B22983   6.277   1.210  12.814
  187DOPC  H15C22984   6.443   1.140  12.865
  187DOPC   C1122985   6.567   1.234  13.162
  187DOPC  H11A22986   6.676   1.269  13.205
  187DOPC  H11B22987   6.484   1.252  13.242
  187DOPC     P22988   6.711   0.995  13.117
  187DOPC   O1322989   6.828   1.088  13.056
  187DOPC   O1422990   6.675   0.851  13.057
  187DOPC   O1222991   6.566   1.087  13.116
  187DOPC   O1122992   6.718   0.993  13.275
  187DOPC    C122993   6.600   0.913  13.339
  187DOPC    HA22994   6.603   0.795  13.306
  187DOPC    HB22995   6.490   0.958  13.313
  187DOPC    C222996   6.621   0.912  13.493
  187DOPC    HS22997   6.533   0.841  13.538
  187DOPC   O2122998   6.620   1.057  13.553
  187DOPC   C2122999   6.487   1.112  13.558
  187DOPC   O2223000   6.376   1.055  13.516
  187DOPC   C2223001   6.488   1.257  13.637
  187DOPC   H2R23002   6.492   1.348  13.562
  187DOPC   H2S23003   6.587   1.263  13.701
  187DOPC    C323004   6.768   0.836  13.523
  187DOPC    HX23005   6.846   0.877  13.446
  187DOPC    HY23006   6.754   0.716  13.505
  187DOPC   O3123007   6.816   0.865  13.659
  187DOPC   C3123008   6.944   0.933  13.668
  187DOPC   O3223009   7.030   0.954  13.577
  187DOPC   C3223010   6.970   0.984  13.809
  187DOPC   H2X23011   6.998   1.103  13.804
  187DOPC   H2Y23012   6.867   0.972  13.869
  187DOPC   C2323013   6.346   1.276  13.722
  187DOPC   H3R23014   6.248   1.248  13.659
  187DOPC   H3S23015   6.333   1.393  13.752
  187DOPC   C2423016   6.341   1.179  13.848
  187DOPC   H4R23017   6.379   1.066  13.823
  187DOPC   H4S23018   6.224   1.170  13.880
  187DOPC   C2523019   6.430   1.239  13.967
  187DOPC   H5R23020   6.398   1.356  13.981
  187DOPC   H5S23021   6.548   1.236  13.943
  187DOPC   C2623022   6.399   1.159  14.101
  187DOPC   H6R23023   6.278   1.164  14.120
  187DOPC   H6S23024   6.448   1.222  14.183
  187DOPC   C2723025   6.447   0.997  14.111
  187DOPC   H7R23026   6.489   0.961  14.012
  187DOPC   H7S23027   6.347   0.931  14.133
  187DOPC   C2823028   6.565   0.954  14.218
  187DOPC   H8R23029   6.669   1.005  14.184
  187DOPC   H8S23030   6.582   0.833  14.207
  187DOPC   C2923031   6.544   0.993  14.364
  187DOPC   H9R23032   6.529   1.111  14.380
  187DOPC  C21023033   6.540   0.909  14.475
  187DOPC  H10R23034   6.522   0.967  14.571
  187DOPC  C21123035   6.554   0.745  14.496
  187DOPC  H11R23036   6.555   0.683  14.400
  187DOPC  H11S23037   6.454   0.707  14.551
  187DOPC  C21223038   6.679   0.690  14.586
  187DOPC  H12R23039   6.783   0.678  14.529
  187DOPC  H12S23040   6.651   0.577  14.622
  187DOPC  C21323041   6.712   0.785  14.708
  187DOPC  H13R23042   6.610   0.807  14.766
  187DOPC  H13S23043   6.753   0.894  14.674
  187DOPC  C21423044   6.829   0.706  14.792
  187DOPC  H14R23045   6.913   0.666  14.719
  187DOPC  H14S23046   6.780   0.609  14.843
  187DOPC  C21523047   6.911   0.803  14.891
  187DOPC  H15R23048   6.974   0.736  14.964
  187DOPC  H15S23049   6.833   0.869  14.949
  187DOPC  C21623050   7.016   0.903  14.815
  187DOPC  H16R23051   6.952   0.964  14.738
  187DOPC  H16S23052   7.098   0.832  14.766
  187DOPC  C21723053   7.094   1.015  14.901
  187DOPC  H17R23054   7.205   0.975  14.929
  187DOPC  H17S23055   7.027   1.015  14.993
  187DOPC  C21823056   7.099   1.174  14.847
  187DOPC  H18R23057   7.083   1.253  14.929
  187DOPC  H18S23058   7.014   1.192  14.770
  187DOPC  H18T23059   7.208   1.197  14.801
  187DOPC   C3323060   7.096   0.894  13.868
  187DOPC   H3X23061   7.201   0.908  13.816
  187DOPC   H3Y23062   7.071   0.777  13.853
  187DOPC   C3423063   7.121   0.920  14.015
  187DOPC   H4X23064   7.207   0.845  14.056
  187DOPC   H4Y23065   7.016   0.892  14.064
  187DOPC   C3523066   7.157   1.074  14.058
  187DOPC   H5X23067   7.134   1.157  13.980
  187DOPC   H5Y23068   7.274   1.080  14.087
  187DOPC   C3623069   7.071   1.102  14.184
  187DOPC   H6X23070   6.959   1.055  14.181
  187DOPC   H6Y23071   7.131   1.046  14.265
  187DOPC   C3723072   7.054   1.264  14.208
  187DOPC   H7X23073   7.047   1.277  14.317
  187DOPC   H7Y23074   7.158   1.319  14.177
  187DOPC   C3823075   6.922   1.318  14.124
  187DOPC   H8X23076   6.934   1.264  14.025
  187DOPC   H8Y23077   6.937   1.436  14.100
  187DOPC   C3923078   6.766   1.295  14.171
  187DOPC   H9X23079   6.695   1.254  14.091
  187DOPC  C31023080   6.704   1.313  14.293
  187DOPC  H10X23081   6.585   1.307  14.303
  187DOPC  C31123082   6.775   1.364  14.420
  187DOPC  H11X23083   6.733   1.475  14.446
  187DOPC  H11Y23084   6.890   1.377  14.394
  187DOPC  C31223085   6.785   1.272  14.549
  187DOPC  H12X23086   6.883   1.312  14.606
  187DOPC  H12Y23087   6.807   1.153  14.530
  187DOPC  C31323088   6.655   1.295  14.642
  187DOPC  H13X23089   6.599   1.400  14.617
  187DOPC  H13Y23090   6.574   1.205  14.627
  187DOPC  C31423091   6.702   1.298  14.789
  187DOPC  H14X23092   6.603   1.261  14.842
  187DOPC  H14Y23093   6.786   1.212  14.808
  187DOPC  C31523094   6.756   1.444  14.848
  187DOPC  H15X23095   6.676   1.535  14.827
  187DOPC  H15Y23096   6.861   1.475  14.800
  187DOPC  C31623097   6.784   1.428  15.000
  187DOPC  H16X23098   6.713   1.338  15.034
  187DOPC  H16Y23099   6.898   1.391  15.019
  187DOPC  C31723100   6.741   1.553  15.093
  187DOPC  H17X23101   6.738   1.508  15.197
  187DOPC  H17Y23102   6.828   1.638  15.092
  187DOPC  C31823103   6.590   1.619  15.062
  187DOPC  H18X23104   6.538   1.664  15.154
  187DOPC  H18Y23105   6.599   1.708  14.986
  187DOPC  H18Z23106   6.518   1.535  15.020
  188DOPC     N23107   1.558   0.823  12.885
  188DOPC   C1223108   1.541   0.738  13.015
  188DOPC  H12A23109   1.599   0.636  13.013
  188DOPC  H12B23110   1.424   0.717  13.029
  188DOPC   C1323111   1.698   0.910  12.891
  188DOPC  H13A23112   1.794   0.843  12.881
  188DOPC  H13B23113   1.702   0.994  12.816
  188DOPC  H13C23114   1.706   0.968  12.988
  188DOPC   C1423115   1.434   0.934  12.879
  188DOPC  H14A23116   1.328   0.883  12.871
  188DOPC  H14B23117   1.436   0.999  12.972
  188DOPC  H14C23118   1.449   1.009  12.796
  188DOPC   C1523119   1.550   0.733  12.761
  188DOPC  H15A23120   1.650   0.670  12.747
  188DOPC  H15B23121   1.541   0.804  12.673
  188DOPC  H15C23122   1.455   0.660  12.758
  188DOPC   C1123123   1.590   0.821  13.143
  188DOPC  H11A23124   1.550   0.758  13.231
  188DOPC  H11B23125   1.713   0.825  13.150
  188DOPC     P23126   1.591   1.092  13.227
  188DOPC   O1323127   1.508   1.224  13.184
  188DOPC   O1423128   1.751   1.092  13.205
  188DOPC   O1223129   1.527   0.963  13.143
  188DOPC   O1123130   1.548   1.038  13.374
  188DOPC    C123131   1.395   1.010  13.405
  188DOPC    HA23132   1.360   0.904  13.361
  188DOPC    HB23133   1.322   1.097  13.362
  188DOPC    C223134   1.357   1.007  13.560
  188DOPC    HS23135   1.235   1.016  13.566
  188DOPC   O2123136   1.422   1.119  13.643
  188DOPC   C2123137   1.478   1.241  13.598
  188DOPC   O2223138   1.473   1.293  13.487
  188DOPC   C2223139   1.550   1.323  13.712
  188DOPC   H2R23140   1.550   1.441  13.684
  188DOPC   H2S23141   1.666   1.286  13.713
  188DOPC    C323142   1.396   0.860  13.634
  188DOPC    HX23143   1.346   0.762  13.585
  188DOPC    HY23144   1.344   0.867  13.735
  188DOPC   O3123145   1.553   0.848  13.656
  188DOPC   C3123146   1.619   0.806  13.544
  188DOPC   O3223147   1.556   0.733  13.458
  188DOPC   C3223148   1.774   0.869  13.541
  188DOPC   H2X23149   1.826   0.813  13.455
  188DOPC   H2Y23150   1.768   0.988  13.515
  188DOPC   C2323151   1.477   1.298  13.850
  188DOPC   H3R23152   1.375   1.233  13.847
  188DOPC   H3S23153   1.453   1.408  13.894
  188DOPC   C2423154   1.594   1.230  13.939
  188DOPC   H4R23155   1.669   1.320  13.938
  188DOPC   H4S23156   1.650   1.136  13.890
  188DOPC   C2523157   1.571   1.211  14.088
  188DOPC   H5R23158   1.514   1.310  14.127
  188DOPC   H5S23159   1.679   1.201  14.139
  188DOPC   C2623160   1.491   1.071  14.118
  188DOPC   H6R23161   1.381   1.100  14.078
  188DOPC   H6S23162   1.484   1.053  14.227
  188DOPC   C2723163   1.560   0.939  14.046
  188DOPC   H7R23164   1.680   0.959  14.061
  188DOPC   H7S23165   1.540   0.942  13.936
  188DOPC   C2823166   1.518   0.786  14.099
  188DOPC   H8R23167   1.465   0.718  14.019
  188DOPC   H8S23168   1.437   0.798  14.181
  188DOPC   C2923169   1.653   0.715  14.154
  188DOPC   H9R23170   1.718   0.643  14.087
  188DOPC  C21023171   1.704   0.747  14.276
  188DOPC  H10R23172   1.812   0.698  14.303
  188DOPC  C21123173   1.641   0.854  14.379
  188DOPC  H11R23174   1.645   0.966  14.337
  188DOPC  H11S23175   1.720   0.856  14.464
  188DOPC  C21223176   1.492   0.827  14.451
  188DOPC  H12R23177   1.439   0.726  14.414
  188DOPC  H12S23178   1.424   0.923  14.419
  188DOPC  C21323179   1.493   0.823  14.608
  188DOPC  H13R23180   1.408   0.902  14.643
  188DOPC  H13S23181   1.599   0.867  14.643
  188DOPC  C21423182   1.463   0.673  14.682
  188DOPC  H14R23183   1.567   0.615  14.695
  188DOPC  H14S23184   1.388   0.602  14.624
  188DOPC  C21523185   1.401   0.689  14.826
  188DOPC  H15R23186   1.293   0.736  14.819
  188DOPC  H15S23187   1.458   0.783  14.873
  188DOPC  C21623188   1.374   0.551  14.920
  188DOPC  H16R23189   1.305   0.475  14.862
  188DOPC  H16S23190   1.303   0.598  14.999
  188DOPC  C21723191   1.488   0.453  14.997
  188DOPC  H17R23192   1.571   0.515  15.049
  188DOPC  H17S23193   1.553   0.376  14.936
  188DOPC  C21823194   1.439   0.372  15.122
  188DOPC  H18R23195   1.517   0.286  15.145
  188DOPC  H18S23196   1.328   0.322  15.118
  188DOPC  H18T23197   1.460   0.441  15.210
  188DOPC   C3323198   1.866   0.847  13.672
  188DOPC   H3X23199   1.981   0.822  13.644
  188DOPC   H3Y23200   1.826   0.751  13.729
  188DOPC   C3423201   1.872   0.979  13.769
  188DOPC   H4X23202   1.777   0.971  13.837
  188DOPC   H4Y23203   1.859   1.082  13.709
  188DOPC   C3523204   2.014   0.993  13.851
  188DOPC   H5X23205   2.043   1.113  13.853
  188DOPC   H5Y23206   2.110   0.938  13.803
  188DOPC   C3623207   2.004   0.946  13.999
  188DOPC   H6X23208   1.892   0.966  14.038
  188DOPC   H6Y23209   2.028   0.826  14.008
  188DOPC   C3723210   2.109   1.039  14.083
  188DOPC   H7X23211   2.209   1.051  14.021
  188DOPC   H7Y23212   2.061   1.152  14.095
  188DOPC   C3823213   2.151   0.987  14.224
  188DOPC   H8X23214   2.223   1.074  14.268
  188DOPC   H8Y23215   2.219   0.886  14.217
  188DOPC   C3923216   2.021   0.961  14.313
  188DOPC   H9X23217   1.982   0.847  14.312
  188DOPC  C31023218   1.944   1.059  14.386
  188DOPC  H10X23219   1.851   1.019  14.442
  188DOPC  C31123220   1.962   1.223  14.403
  188DOPC  H11X23221   1.861   1.277  14.363
  188DOPC  H11Y23222   2.057   1.260  14.341
  188DOPC  C31223223   1.977   1.294  14.543
  188DOPC  H12X23224   2.025   1.406  14.533
  188DOPC  H12Y23225   2.050   1.224  14.606
  188DOPC  C31323226   1.835   1.319  14.620
  188DOPC  H13X23227   1.862   1.363  14.721
  188DOPC  H13Y23228   1.769   1.405  14.568
  188DOPC  C31423229   1.756   1.173  14.633
  188DOPC  H14X23230   1.684   1.155  14.545
  188DOPC  H14Y23231   1.840   1.085  14.632
  188DOPC  C31523232   1.680   1.150  14.766
  188DOPC  H15X23233   1.585   1.074  14.753
  188DOPC  H15Y23234   1.637   1.256  14.804
  188DOPC  C31623235   1.789   1.084  14.867
  188DOPC  H16X23236   1.814   0.969  14.834
  188DOPC  H16Y23237   1.892   1.147  14.858
  188DOPC  C31723238   1.719   1.092  15.007
  188DOPC  H17X23239   1.707   1.212  15.026
  188DOPC  H17Y23240   1.607   1.045  14.996
  188DOPC  C31823241   1.784   1.027  15.137
  188DOPC  H18X23242   1.738   1.084  15.227
  188DOPC  H18Y23243   1.761   0.912  15.158
  188DOPC  H18Z23244   1.904   1.033  15.137
  189DOPC     N23245   4.055   0.264  13.007
  189DOPC   C1223246   3.994   0.130  13.081
  189DOPC  H12A23247   4.083   0.052  13.094
  189DOPC  H12B23248   3.915   0.075  13.015
  189DOPC   C1323249   4.194   0.223  12.937
  189DOPC  H13A23250   4.188   0.120  12.883
  189DOPC  H13B23251   4.227   0.308  12.866
  189DOPC  H13C23252   4.283   0.212  13.008
  189DOPC   C1423253   4.084   0.393  13.096
  189DOPC  H14A23254   3.986   0.418  13.154
  189DOPC  H14B23255   4.178   0.373  13.159
  189DOPC  H14C23256   4.110   0.488  13.034
  189DOPC   C1523257   3.944   0.309  12.906
  189DOPC  H15A23258   3.930   0.220  12.835
  189DOPC  H15B23259   3.972   0.410  12.856
  189DOPC  H15C23260   3.837   0.322  12.954
  189DOPC   C1123261   3.912   0.156  13.214
  189DOPC  H11A23262   3.889   0.048  13.263
  189DOPC  H11B23263   3.984   0.218  13.284
  189DOPC     P23264   3.638   0.156  13.134
  189DOPC   O1323265   3.687   0.021  13.067
  189DOPC   O1423266   3.547   0.263  13.057
  189DOPC   O1223267   3.780   0.238  13.194
  189DOPC   O1123268   3.550   0.119  13.266
  189DOPC    C123269   3.480   0.242  13.330
  189DOPC    HA23270   3.367   0.256  13.291
  189DOPC    HB23271   3.539   0.349  13.310
  189DOPC    C223272   3.476   0.222  13.484
  189DOPC    HS23273   3.436   0.328  13.529
  189DOPC   O2123274   3.619   0.182  13.537
  189DOPC   C2123275   3.710   0.295  13.535
  189DOPC   O2223276   3.677   0.418  13.501
  189DOPC   C2223277   3.864   0.257  13.584
  189DOPC   H2R23278   3.927   0.216  13.497
  189DOPC   H2S23279   3.859   0.172  13.662
  189DOPC    C323280   3.361   0.106  13.525
  189DOPC    HX23281   3.381   0.002  13.470
  189DOPC    HY23282   3.248   0.144  13.497
  189DOPC   O3123283   3.379   0.080  13.666
  189DOPC   C3123284   3.279   0.129  13.749
  189DOPC   O3223285   3.159   0.180  13.719
  189DOPC   C3223286   3.332   0.099  13.891
  189DOPC   H2X23287   3.452   0.078  13.891
  189DOPC   H2Y23288   3.310   0.199  13.952
  189DOPC   C2323289   3.938   0.398  13.638
  189DOPC   H3R23290   3.917   0.493  13.570
  189DOPC   H3S23291   4.060   0.385  13.642
  189DOPC   C2423292   3.883   0.437  13.778
  189DOPC   H4R23293   3.761   0.422  13.787
  189DOPC   H4S23294   3.905   0.554  13.797
  189DOPC   C2523295   3.963   0.355  13.890
  189DOPC   H5R23296   4.077   0.330  13.857
  189DOPC   H5S23297   3.907   0.250  13.913
  189DOPC   C2623298   3.974   0.453  14.014
  189DOPC   H6R23299   4.044   0.551  13.989
  189DOPC   H6S23300   4.033   0.395  14.095
  189DOPC   C2723301   3.824   0.509  14.062
  189DOPC   H7R23302   3.762   0.560  13.978
  189DOPC   H7S23303   3.842   0.598  14.137
  189DOPC   C2823304   3.721   0.393  14.122
  189DOPC   H8R23305   3.685   0.315  14.043
  189DOPC   H8S23306   3.621   0.450  14.159
  189DOPC   C2923307   3.802   0.314  14.233
  189DOPC   H9R23308   3.865   0.217  14.201
  189DOPC  C21023309   3.802   0.353  14.363
  189DOPC  H10R23310   3.864   0.286  14.434
  189DOPC  C21123311   3.722   0.483  14.422
  189DOPC  H11R23312   3.720   0.579  14.351
  189DOPC  H11S23313   3.779   0.521  14.514
  189DOPC  C21223314   3.562   0.442  14.455
  189DOPC  H12R23315   3.502   0.414  14.362
  189DOPC  H12S23316   3.506   0.541  14.499
  189DOPC  C21323317   3.547   0.314  14.554
  189DOPC  H13R23318   3.601   0.344  14.650
  189DOPC  H13S23319   3.606   0.217  14.514
  189DOPC  C21423320   3.388   0.271  14.581
  189DOPC  H14R23321   3.334   0.240  14.484
  189DOPC  H14S23322   3.328   0.369  14.621
  189DOPC  C21523323   3.373   0.142  14.679
  189DOPC  H15R23324   3.253   0.131  14.701
  189DOPC  H15S23325   3.431   0.167  14.774
  189DOPC  C21623326   3.424  -0.005  14.621
  189DOPC  H16R23327   3.540   0.001  14.585
  189DOPC  H16S23328   3.353  -0.025  14.533
  189DOPC  C21723329   3.408  -0.139  14.714
  189DOPC  H17R23330   3.333  -0.107  14.797
  189DOPC  H17S23331   3.514  -0.166  14.762
  189DOPC  C21823332   3.343  -0.277  14.649
  189DOPC  H18R23333   3.431  -0.347  14.606
  189DOPC  H18S23334   3.261  -0.250  14.569
  189DOPC  H18T23335   3.286  -0.344  14.725
  189DOPC   C3323336   3.244  -0.033  13.945
  189DOPC   H3X23337   3.281  -0.136  13.895
  189DOPC   H3Y23338   3.127  -0.015  13.918
  189DOPC   C3423339   3.247  -0.053  14.097
  189DOPC   H4X23340   3.150  -0.120  14.126
  189DOPC   H4Y23341   3.240   0.055  14.148
  189DOPC   C3523342   3.385  -0.134  14.142
  189DOPC   H5X23343   3.483  -0.069  14.111
  189DOPC   H5Y23344   3.391  -0.244  14.092
  189DOPC   C3623345   3.388  -0.155  14.293
  189DOPC   H6X23346   3.398  -0.044  14.339
  189DOPC   H6Y23347   3.282  -0.205  14.326
  189DOPC   C3723348   3.516  -0.253  14.338
  189DOPC   H7X23349   3.519  -0.260  14.448
  189DOPC   H7Y23350   3.495  -0.365  14.298
  189DOPC   C3823351   3.670  -0.204  14.294
  189DOPC   H8X23352   3.665  -0.177  14.188
  189DOPC   H8Y23353   3.741  -0.303  14.305
  189DOPC   C3923354   3.739  -0.068  14.350
  189DOPC   H9X23355   3.672   0.033  14.344
  189DOPC  C31023356   3.870  -0.067  14.412
  189DOPC  H10X23357   3.907   0.036  14.459
  189DOPC  C31123358   3.967  -0.201  14.435
  189DOPC  H11X23359   4.078  -0.164  14.467
  189DOPC  H11Y23360   3.980  -0.271  14.345
  189DOPC  C31223361   3.901  -0.297  14.549
  189DOPC  H12X23362   3.982  -0.376  14.589
  189DOPC  H12Y23363   3.804  -0.361  14.516
  189DOPC  C31323364   3.853  -0.192  14.660
  189DOPC  H13X23365   3.942  -0.108  14.670
  189DOPC  H13Y23366   3.750  -0.138  14.626
  189DOPC  C31423367   3.821  -0.248  14.798
  189DOPC  H14X23368   3.724  -0.321  14.801
  189DOPC  H14Y23369   3.916  -0.305  14.846
  189DOPC  C31523370   3.793  -0.101  14.865
  189DOPC  H15X23371   3.718  -0.031  14.803
  189DOPC  H15Y23372   3.898  -0.041  14.872
  189DOPC  C31623373   3.724  -0.111  15.001
  189DOPC  H16X23374   3.606  -0.141  14.989
  189DOPC  H16Y23375   3.779  -0.198  15.061
  189DOPC  C31723376   3.740   0.040  15.066
  189DOPC  H17X23377   3.735   0.023  15.175
  189DOPC  H17Y23378   3.850   0.087  15.046
  189DOPC  C31823379   3.619   0.145  15.021
  189DOPC  H18X23380   3.511   0.087  15.018
  189DOPC  H18Y23381   3.609   0.239  15.092
  189DOPC  H18Z23382   3.642   0.188  14.920
  190DOPC     N23383   2.386   7.835  13.236
  190DOPC   C1223384   2.525   7.889  13.166
  190DOPC  H12A23385   2.619   7.841  13.215
  190DOPC  H12B23386   2.531   8.008  13.178
  190DOPC   C1323387   2.355   7.678  13.198
  190DOPC  H13A23388   2.247   7.641  13.231
  190DOPC  H13B23389   2.353   7.666  13.090
  190DOPC  H13C23390   2.437   7.602  13.235
  190DOPC   C1423391   2.262   7.928  13.187
  190DOPC  H14A23392   2.270   8.043  13.212
  190DOPC  H14B23393   2.258   7.921  13.078
  190DOPC  H14C23394   2.153   7.887  13.216
  190DOPC   C1523395   2.397   7.849  13.384
  190DOPC  H15A23396   2.486   7.781  13.422
  190DOPC  H15B23397   2.298   7.805  13.429
  190DOPC  H15C23398   2.410   7.962  13.416
  190DOPC   C1123399   2.538   7.859  13.013
  190DOPC  H11A23400   2.653   7.884  12.983
  190DOPC  H11B23401   2.525   7.740  12.993
  190DOPC     P23402   2.475   8.108  12.899
  190DOPC   O1323403   2.374   8.175  12.801
  190DOPC   O1423404   2.635   8.114  12.870
  190DOPC   O1223405   2.434   7.942  12.933
  190DOPC   O1123406   2.446   8.181  13.037
  190DOPC    C123407   2.409   8.332  13.040
  190DOPC    HA23408   2.308   8.358  12.981
  190DOPC    HB23409   2.505   8.400  13.005
  190DOPC    C223410   2.383   8.381  13.184
  190DOPC    HS23411   2.406   8.501  13.196
  190DOPC   O2123412   2.472   8.293  13.270
  190DOPC   C2123413   2.603   8.341  13.289
  190DOPC   O2223414   2.676   8.422  13.218
  190DOPC   C2223415   2.640   8.283  13.426
  190DOPC   H2R23416   2.599   8.169  13.437
  190DOPC   H2S23417   2.582   8.353  13.500
  190DOPC    C323418   2.222   8.357  13.227
  190DOPC    HX23419   2.185   8.250  13.184
  190DOPC    HY23420   2.151   8.444  13.185
  190DOPC   O3123421   2.203   8.347  13.367
  190DOPC   C3123422   2.280   8.424  13.454
  190DOPC   O3223423   2.376   8.516  13.437
  190DOPC   C3223424   2.240   8.352  13.585
  190DOPC   H2X23425   2.118   8.359  13.588
  190DOPC   H2Y23426   2.273   8.235  13.579
  190DOPC   C2323427   2.803   8.288  13.457
  190DOPC   H3R23428   2.852   8.397  13.439
  190DOPC   H3S23429   2.861   8.209  13.392
  190DOPC   C2423430   2.818   8.241  13.602
  190DOPC   H4R23431   2.928   8.195  13.615
  190DOPC   H4S23432   2.735   8.156  13.627
  190DOPC   C2523433   2.811   8.361  13.707
  190DOPC   H5R23434   2.696   8.401  13.720
  190DOPC   H5S23435   2.883   8.455  13.678
  190DOPC   C2623436   2.872   8.293  13.834
  190DOPC   H6R23437   2.992   8.274  13.819
  190DOPC   H6S23438   2.820   8.184  13.849
  190DOPC   C2723439   2.850   8.387  13.956
  190DOPC   H7R23440   2.911   8.490  13.931
  190DOPC   H7S23441   2.905   8.339  14.045
  190DOPC   C2823442   2.691   8.435  13.990
  190DOPC   H8R23443   2.663   8.525  13.921
  190DOPC   H8S23444   2.699   8.485  14.091
  190DOPC   C2923445   2.559   8.338  13.988
  190DOPC   H9R23446   2.522   8.304  13.888
  190DOPC  C21023447   2.498   8.274  14.097
  190DOPC  H10R23448   2.400   8.205  14.087
  190DOPC  C21123449   2.562   8.292  14.234
  190DOPC  H11R23450   2.683   8.304  14.218
  190DOPC  H11S23451   2.549   8.185  14.286
  190DOPC  C21223452   2.533   8.406  14.346
  190DOPC  H12R23453   2.520   8.521  14.313
  190DOPC  H12S23454   2.637   8.390  14.403
  190DOPC  C21323455   2.404   8.369  14.434
  190DOPC  H13R23456   2.421   8.250  14.449
  190DOPC  H13S23457   2.302   8.396  14.376
  190DOPC  C21423458   2.388   8.414  14.580
  190DOPC  H14R23459   2.428   8.522  14.612
  190DOPC  H14S23460   2.442   8.327  14.642
  190DOPC  C21523461   2.225   8.413  14.610
  190DOPC  H15R23462   2.166   8.340  14.538
  190DOPC  H15S23463   2.178   8.525  14.598
  190DOPC  C21623464   2.194   8.361  14.750
  190DOPC  H16R23465   2.245   8.437  14.819
  190DOPC  H16S23466   2.251   8.260  14.783
  190DOPC  C21723467   2.030   8.349  14.760
  190DOPC  H17R23468   1.983   8.344  14.656
  190DOPC  H17S23469   1.983   8.450  14.802
  190DOPC  C21823470   1.980   8.208  14.825
  190DOPC  H18R23471   2.057   8.166  14.901
  190DOPC  H18S23472   1.961   8.139  14.737
  190DOPC  H18T23473   1.870   8.202  14.869
  190DOPC   C3323474   2.309   8.419  13.711
  190DOPC   H3X23475   2.285   8.539  13.716
  190DOPC   H3Y23476   2.431   8.412  13.707
  190DOPC   C3423477   2.251   8.339  13.835
  190DOPC   H4X23478   2.262   8.414  13.923
  190DOPC   H4Y23479   2.319   8.240  13.853
  190DOPC   C3523480   2.091   8.281  13.824
  190DOPC   H5X23481   2.090   8.181  13.761
  190DOPC   H5Y23482   2.024   8.368  13.774
  190DOPC   C3623483   2.020   8.250  13.961
  190DOPC   H6X23484   2.104   8.282  14.035
  190DOPC   H6Y23485   1.927   8.330  13.970
  190DOPC   C3723486   1.973   8.090  13.999
  190DOPC   H7X23487   1.895   8.050  13.921
  190DOPC   H7Y23488   2.077   8.024  13.990
  190DOPC   C3823489   1.933   8.070  14.162
  190DOPC   H8X23490   1.850   8.142  14.120
  190DOPC   H8Y23491   2.009   8.156  14.187
  190DOPC   C3923492   1.862   8.051  14.303
  190DOPC   H9X23493   1.792   8.147  14.317
  190DOPC  C31023494   1.857   7.921  14.375
  190DOPC  H10X23495   1.792   7.911  14.470
  190DOPC  C31123496   1.924   7.763  14.332
  190DOPC  H11X23497   1.960   7.708  14.231
  190DOPC  H11Y23498   1.844   7.679  14.355
  190DOPC  C31223499   2.017   7.690  14.462
  190DOPC  H12X23500   1.965   7.596  14.514
  190DOPC  H12Y23501   2.000   7.765  14.547
  190DOPC  C31323502   2.189   7.634  14.466
  190DOPC  H13X23503   2.202   7.526  14.417
  190DOPC  H13Y23504   2.256   7.710  14.408
  190DOPC  C31423505   2.278   7.630  14.604
  190DOPC  H14X23506   2.217   7.712  14.656
  190DOPC  H14Y23507   2.266   7.524  14.659
  190DOPC  C31523508   2.439   7.698  14.627
  190DOPC  H15X23509   2.460   7.781  14.549
  190DOPC  H15Y23510   2.519   7.608  14.612
  190DOPC  C31623511   2.461   7.759  14.774
  190DOPC  H16X23512   2.357   7.808  14.802
  190DOPC  H16Y23513   2.471   7.667  14.843
  190DOPC  C31723514   2.560   7.889  14.826
  190DOPC  H17X23515   2.676   7.873  14.799
  190DOPC  H17Y23516   2.525   7.995  14.781
  190DOPC  C31823517   2.545   7.911  14.981
  190DOPC  H18X23518   2.555   7.805  15.035
  190DOPC  H18Y23519   2.635   7.984  15.021
  190DOPC  H18Z23520   2.439   7.961  15.009
  191DOPC     N23521   5.455   7.994  13.192
  191DOPC   C1223522   5.408   8.147  13.147
  191DOPC  H12A23523   5.464   8.226  13.212
  191DOPC  H12B23524   5.291   8.160  13.162
  191DOPC   C1323525   5.427   7.970  13.337
  191DOPC  H13A23526   5.310   7.964  13.356
  191DOPC  H13B23527   5.475   7.867  13.369
  191DOPC  H13C23528   5.472   8.059  13.397
  191DOPC   C1423529   5.613   7.983  13.160
  191DOPC  H14A23530   5.629   8.010  13.054
  191DOPC  H14B23531   5.679   8.063  13.214
  191DOPC  H14C23532   5.654   7.873  13.177
  191DOPC   C1523533   5.375   7.877  13.113
  191DOPC  H15A23534   5.259   7.869  13.139
  191DOPC  H15B23535   5.420   7.767  13.130
  191DOPC  H15C23536   5.382   7.899  13.007
  191DOPC   C1123537   5.444   8.193  12.999
  191DOPC  H11A23538   5.390   8.116  12.928
  191DOPC  H11B23539   5.391   8.302  12.981
  191DOPC     P23540   5.686   8.342  12.998
  191DOPC   O1323541   5.636   8.458  12.904
  191DOPC   O1423542   5.845   8.317  13.010
  191DOPC   O1223543   5.598   8.196  12.968
  191DOPC   O1123544   5.625   8.381  13.142
  191DOPC    C123545   5.689   8.501  13.215
  191DOPC    HA23546   5.675   8.606  13.160
  191DOPC    HB23547   5.808   8.483  13.232
  191DOPC    C223548   5.608   8.516  13.351
  191DOPC    HS23549   5.649   8.615  13.404
  191DOPC   O2123550   5.625   8.387  13.433
  191DOPC   C2123551   5.756   8.361  13.481
  191DOPC   O2223552   5.866   8.437  13.466
  191DOPC   C2223553   5.750   8.216  13.559
  191DOPC   H2R23554   5.811   8.133  13.500
  191DOPC   H2S23555   5.633   8.180  13.567
  191DOPC    C323556   5.441   8.538  13.324
  191DOPC    HX23557   5.400   8.455  13.252
  191DOPC    HY23558   5.426   8.646  13.274
  191DOPC   O3123559   5.358   8.538  13.447
  191DOPC   C3123560   5.314   8.406  13.490
  191DOPC   O3223561   5.322   8.292  13.426
  191DOPC   C3223562   5.254   8.426  13.632
  191DOPC   H2X23563   5.346   8.465  13.696
  191DOPC   H2Y23564   5.172   8.516  13.626
  191DOPC   C2323565   5.815   8.225  13.702
  191DOPC   H3R23566   5.920   8.286  13.703
  191DOPC   H3S23567   5.839   8.110  13.736
  191DOPC   C2423568   5.707   8.293  13.803
  191DOPC   H4R23569   5.602   8.229  13.798
  191DOPC   H4S23570   5.681   8.408  13.775
  191DOPC   C2523571   5.764   8.288  13.947
  191DOPC   H5R23572   5.870   8.351  13.953
  191DOPC   H5S23573   5.789   8.173  13.975
  191DOPC   C2623574   5.657   8.353  14.051
  191DOPC   H6R23575   5.644   8.473  14.034
  191DOPC   H6S23576   5.706   8.339  14.152
  191DOPC   C2723577   5.503   8.282  14.048
  191DOPC   H7R23578   5.518   8.160  14.051
  191DOPC   H7S23579   5.445   8.309  13.954
  191DOPC   C2823580   5.408   8.326  14.169
  191DOPC   H8R23581   5.468   8.293  14.261
  191DOPC   H8S23582   5.305   8.258  14.167
  191DOPC   C2923583   5.367   8.487  14.167
  191DOPC   H9R23584   5.334   8.531  14.069
  191DOPC  C21023585   5.371   8.579  14.272
  191DOPC  H10R23586   5.343   8.696  14.256
  191DOPC  C21123587   5.416   8.539  14.412
  191DOPC  H11R23588   5.419   8.418  14.428
  191DOPC  H11S23589   5.335   8.582  14.485
  191DOPC  C21223590   5.569   8.601  14.445
  191DOPC  H12R23591   5.565   8.723  14.451
  191DOPC  H12S23592   5.647   8.570  14.363
  191DOPC  C21323593   5.631   8.538  14.576
  191DOPC  H13R23594   5.751   8.562  14.583
  191DOPC  H13S23595   5.618   8.416  14.576
  191DOPC  C21423596   5.555   8.602  14.700
  191DOPC  H14R23597   5.434   8.584  14.690
  191DOPC  H14S23598   5.575   8.722  14.705
  191DOPC  C21523599   5.608   8.529  14.829
  191DOPC  H15R23600   5.730   8.539  14.837
  191DOPC  H15S23601   5.580   8.410  14.825
  191DOPC  C21623602   5.536   8.594  14.955
  191DOPC  H16R23603   5.567   8.712  14.966
  191DOPC  H16S23604   5.578   8.534  15.044
  191DOPC  C21723605   5.368   8.580  14.951
  191DOPC  H17R23606   5.341   8.466  14.920
  191DOPC  H17S23607   5.322   8.656  14.875
  191DOPC  C21823608   5.297   8.611  15.085
  191DOPC  H18R23609   5.353   8.553  15.168
  191DOPC  H18S23610   5.180   8.575  15.083
  191DOPC  H18T23611   5.300   8.731  15.106
  191DOPC   C3323612   5.182   8.290  13.698
  191DOPC   H3X23613   5.269   8.215  13.735
  191DOPC   H3Y23614   5.113   8.227  13.626
  191DOPC   C3423615   5.085   8.338  13.817
  191DOPC   H4X23616   4.975   8.374  13.782
  191DOPC   H4Y23617   5.141   8.434  13.866
  191DOPC   C3523618   5.063   8.222  13.926
  191DOPC   H5X23619   5.000   8.273  14.009
  191DOPC   H5Y23620   5.175   8.198  13.965
  191DOPC   C3623621   4.985   8.082  13.881
  191DOPC   H6X23622   4.873   8.110  13.844
  191DOPC   H6Y23623   5.047   8.032  13.796
  191DOPC   C3723624   4.973   7.967  13.993
  191DOPC   H7X23625   4.900   8.014  14.073
  191DOPC   H7Y23626   4.917   7.867  13.954
  191DOPC   C3823627   5.123   7.924  14.054
  191DOPC   H8X23628   5.184   8.026  14.082
  191DOPC   H8Y23629   5.191   7.869  13.976
  191DOPC   C3923630   5.112   7.831  14.177
  191DOPC   H9X23631   5.116   7.711  14.159
  191DOPC  C31023632   5.095   7.884  14.302
  191DOPC  H10X23633   5.091   7.807  14.387
  191DOPC  C31123634   5.086   8.045  14.337
  191DOPC  H11X23635   5.048   8.110  14.249
  191DOPC  H11Y23636   5.198   8.088  14.362
  191DOPC  C31223637   4.980   8.078  14.452
  191DOPC  H12X23638   4.875   8.018  14.435
  191DOPC  H12Y23639   4.952   8.198  14.451
  191DOPC  C31323640   5.039   8.040  14.592
  191DOPC  H13X23641   4.940   8.020  14.657
  191DOPC  H13Y23642   5.103   7.935  14.591
  191DOPC  C31423643   5.126   8.164  14.659
  191DOPC  H14X23644   5.075   8.272  14.633
  191DOPC  H14Y23645   5.115   8.151  14.769
  191DOPC  C31523646   5.292   8.171  14.626
  191DOPC  H15X23647   5.334   8.271  14.677
  191DOPC  H15Y23648   5.311   8.187  14.518
  191DOPC  C31623649   5.381   8.038  14.676
  191DOPC  H16X23650   5.321   7.983  14.758
  191DOPC  H16Y23651   5.394   7.954  14.595
  191DOPC  C31723652   5.533   8.087  14.729
  191DOPC  H17X23653   5.604   8.119  14.644
  191DOPC  H17Y23654   5.514   8.187  14.791
  191DOPC  C31823655   5.612   7.976  14.818
  191DOPC  H18X23656   5.653   7.880  14.759
  191DOPC  H18Y23657   5.708   8.028  14.869
  191DOPC  H18Z23658   5.536   7.935  14.897
  192DOPC     N23659   8.494   5.607  12.917
  192DOPC   C1223660   8.560   5.537  13.042
  192DOPC  H12A23661   8.569   5.420  13.026
  192DOPC  H12B23662   8.481   5.551  13.123
  192DOPC   C1323663   8.383   5.722  12.957
  192DOPC  H13A23664   8.436   5.803  13.023
  192DOPC  H13B23665   8.336   5.781  12.872
  192DOPC  H13C23666   8.294   5.681  13.018
  192DOPC   C1423667   8.427   5.488  12.835
  192DOPC  H14A23668   8.362   5.531  12.754
  192DOPC  H14B23669   8.513   5.412  12.800
  192DOPC  H14C23670   8.354   5.420  12.895
  192DOPC   C1523671   8.614   5.680  12.840
  192DOPC  H15A23672   8.697   5.601  12.811
  192DOPC  H15B23673   8.669   5.756  12.908
  192DOPC  H15C23674   8.573   5.740  12.755
  192DOPC   C1123675   8.713   5.592  13.093
  192DOPC  H11A23676   8.735   5.541  13.193
  192DOPC  H11B23677   8.800   5.547  13.026
  192DOPC     P23678   8.682   5.839  13.229
  192DOPC   O1323679   8.702   5.996  13.195
  192DOPC   O1423680   8.762   5.777  13.345
  192DOPC   O1223681   8.724   5.750  13.098
  192DOPC   O1123682   8.513   5.812  13.233
  192DOPC    C123683   8.441   5.698  13.303
  192DOPC    HA23684   8.501   5.592  13.293
  192DOPC    HB23685   8.329   5.686  13.257
  192DOPC    C223686   8.414   5.722  13.454
  192DOPC    HS23687   8.334   5.811  13.468
  192DOPC   O2123688   8.544   5.750  13.534
  192DOPC   C2123689   8.572   5.894  13.544
  192DOPC   O2223690   8.512   5.988  13.479
  192DOPC   C2223691   8.681   5.933  13.654
  192DOPC   H2R23692   8.792   5.901  13.620
  192DOPC   H2S23693   8.653   5.870  13.744
  192DOPC    C323694   8.332   5.582  13.501
  192DOPC    HX23695   8.397   5.482  13.476
  192DOPC    HY23696   8.229   5.575  13.443
  192DOPC   O3123697   8.296   5.597  13.641
  192DOPC   C3123698   8.410   5.557  13.715
  192DOPC   O3223699   8.523   5.500  13.673
  192DOPC   C3223700   8.372   5.582  13.861
  192DOPC   H2X23701   8.318   5.693  13.869
  192DOPC   H2Y23702   8.293   5.499  13.895
  192DOPC   C2323703   8.671   6.102  13.682
  192DOPC   H3R23704   8.567   6.125  13.735
  192DOPC   H3S23705   8.665   6.164  13.586
  192DOPC   C2423706   8.799   6.171  13.761
  192DOPC   H4R23707   8.768   6.285  13.788
  192DOPC   H4S23708   8.897   6.179  13.695
  192DOPC   C2523709   8.845   6.089  13.888
  192DOPC   H5R23710   8.927   6.155  13.945
  192DOPC   H5S23711   8.900   5.985  13.855
  192DOPC   C2623712   8.718   6.048  13.980
  192DOPC   H6R23713   8.623   6.007  13.920
  192DOPC   H6S23714   8.677   6.144  14.037
  192DOPC   C2723715   8.762   5.921  14.074
  192DOPC   H7R23716   8.834   5.963  14.155
  192DOPC   H7S23717   8.826   5.840  14.016
  192DOPC   C2823718   8.625   5.842  14.128
  192DOPC   H8R23719   8.654   5.726  14.148
  192DOPC   H8S23720   8.538   5.844  14.049
  192DOPC   C2923721   8.568   5.914  14.251
  192DOPC   H9R23722   8.639   6.001  14.291
  192DOPC  C21023723   8.447   5.876  14.320
  192DOPC  H10R23724   8.419   5.942  14.408
  192DOPC  C21123725   8.341   5.752  14.288
  192DOPC  H11R23726   8.320   5.693  14.382
  192DOPC  H11S23727   8.387   5.673  14.216
  192DOPC  C21223728   8.191   5.807  14.240
  192DOPC  H12R23729   8.204   5.882  14.154
  192DOPC  H12S23730   8.150   5.871  14.325
  192DOPC  C21323731   8.074   5.690  14.203
  192DOPC  H13R23732   8.104   5.642  14.104
  192DOPC  H13S23733   7.967   5.747  14.190
  192DOPC  C21423734   8.051   5.564  14.302
  192DOPC  H14R23735   8.155   5.501  14.311
  192DOPC  H14S23736   7.967   5.487  14.260
  192DOPC  C21523737   7.999   5.610  14.442
  192DOPC  H15R23738   7.885   5.655  14.436
  192DOPC  H15S23739   8.072   5.699  14.479
  192DOPC  C21623740   8.001   5.485  14.545
  192DOPC  H16R23741   8.116   5.441  14.546
  192DOPC  H16S23742   7.924   5.398  14.512
  192DOPC  C21723743   7.962   5.536  14.686
  192DOPC  H17R23744   7.853   5.592  14.682
  192DOPC  H17S23745   8.051   5.614  14.712
  192DOPC  C21823746   7.960   5.431  14.804
  192DOPC  H18R23747   7.922   5.487  14.897
  192DOPC  H18S23748   8.075   5.396  14.822
  192DOPC  H18T23749   7.888   5.334  14.787
  192DOPC   C3323750   8.512   5.580  13.948
  192DOPC   H3X23751   8.478   5.601  14.052
  192DOPC   H3Y23752   8.588   5.668  13.914
  192DOPC   C3423753   8.597   5.435  13.948
  192DOPC   H4X23754   8.669   5.430  13.858
  192DOPC   H4Y23755   8.518   5.342  13.943
  192DOPC   C3523756   8.694   5.411  14.071
  192DOPC   H5X23757   8.630   5.411  14.164
  192DOPC   H5Y23758   8.774   5.504  14.079
  192DOPC   C3623759   8.779   5.267  14.057
  192DOPC   H6X23760   8.835   5.268  13.958
  192DOPC   H6Y23761   8.869   5.268  14.132
  192DOPC   C3723762   8.688   5.123  14.065
  192DOPC   H7X23763   8.657   5.099  13.959
  192DOPC   H7Y23764   8.759   5.030  14.097
  192DOPC   C3823765   8.539   5.121  14.146
  192DOPC   H8X23766   8.474   5.031  14.097
  192DOPC   H8Y23767   8.480   5.224  14.123
  192DOPC   C3923768   8.526   5.085  14.293
  192DOPC   H9X23769   8.544   4.968  14.315
  192DOPC  C31023770   8.485   5.173  14.396
  192DOPC  H10X23771   8.482   5.124  14.497
  192DOPC  C31123772   8.439   5.334  14.390
  192DOPC  H11X23773   8.320   5.333  14.415
  192DOPC  H11Y23774   8.446   5.378  14.287
  192DOPC  C31223775   8.499   5.454  14.485
  192DOPC  H12X23776   8.512   5.414  14.589
  192DOPC  H12Y23777   8.410   5.537  14.494
  192DOPC  C31323778   8.635   5.536  14.436
  192DOPC  H13X23779   8.730   5.460  14.428
  192DOPC  H13Y23780   8.613   5.578  14.333
  192DOPC  C31423781   8.670   5.667  14.527
  192DOPC  H14X23782   8.576   5.744  14.525
  192DOPC  H14Y23783   8.681   5.630  14.632
  192DOPC  C31523784   8.812   5.749  14.488
  192DOPC  H15X23785   8.827   5.737  14.378
  192DOPC  H15Y23786   8.907   5.695  14.538
  192DOPC  C31623787   8.814   5.915  14.521
  192DOPC  H16X23788   8.927   5.959  14.502
  192DOPC  H16Y23789   8.742   5.973  14.452
  192DOPC  C31723790   8.762   5.960  14.661
  192DOPC  H17X23791   8.741   6.081  14.659
  192DOPC  H17Y23792   8.655   5.906  14.683
  192DOPC  C31823793   8.874   5.926  14.770
  192DOPC  H18X23794   8.834   5.968  14.868
  192DOPC  H18Y23795   8.892   5.806  14.777
  192DOPC  H18Z23796   8.980   5.981  14.746
  193DOPC     N23797   8.087   1.790  12.969
  193DOPC   C1223798   8.011   1.800  13.103
  193DOPC  H12A23799   8.001   1.690  13.145
  193DOPC  H12B23800   7.899   1.839  13.088
  193DOPC   C1323801   8.043   1.651  12.898
  193DOPC  H13A23802   8.083   1.654  12.795
  193DOPC  H13B23803   8.087   1.553  12.945
  193DOPC  H13C23804   7.924   1.641  12.895
  193DOPC   C1423805   8.250   1.797  12.989
  193DOPC  H14A23806   8.274   1.901  13.039
  193DOPC  H14B23807   8.290   1.709  13.052
  193DOPC  H14C23808   8.308   1.792  12.895
  193DOPC   C1523809   8.040   1.918  12.887
  193DOPC  H15A23810   8.098   1.925  12.794
  193DOPC  H15B23811   8.055   2.021  12.943
  193DOPC  H15C23812   7.922   1.915  12.869
  193DOPC   C1123813   8.083   1.903  13.208
  193DOPC  H11A23814   8.017   1.889  13.297
  193DOPC  H11B23815   8.195   1.867  13.236
  193DOPC     P23816   7.930   2.142  13.157
  193DOPC   O1323817   7.808   2.035  13.150
  193DOPC   O1423818   7.953   2.234  13.037
  193DOPC   O1223819   8.083   2.055  13.171
  193DOPC   O1123820   7.922   2.246  13.285
  193DOPC    C123821   7.798   2.266  13.372
  193DOPC    HA23822   7.693   2.244  13.318
  193DOPC    HB23823   7.796   2.382  13.406
  193DOPC    C223824   7.803   2.165  13.497
  193DOPC    HS23825   7.895   2.201  13.563
  193DOPC   O2123826   7.824   2.022  13.447
  193DOPC   C2123827   7.907   1.932  13.508
  193DOPC   O2223828   8.006   1.956  13.587
  193DOPC   C2223829   7.851   1.781  13.461
  193DOPC   H2R23830   7.946   1.717  13.422
  193DOPC   H2S23831   7.768   1.793  13.380
  193DOPC    C323832   7.656   2.160  13.578
  193DOPC    HX23833   7.602   2.057  13.544
  193DOPC    HY23834   7.588   2.253  13.543
  193DOPC   O3123835   7.664   2.149  13.723
  193DOPC   C3123836   7.532   2.165  13.781
  193DOPC   O3223837   7.427   2.229  13.732
  193DOPC   C3223838   7.515   2.080  13.910
  193DOPC   H2X23839   7.393   2.075  13.922
  193DOPC   H2Y23840   7.556   1.968  13.897
  193DOPC   C2323841   7.790   1.699  13.581
  193DOPC   H3R23842   7.880   1.711  13.656
  193DOPC   H3S23843   7.781   1.582  13.555
  193DOPC   C2423844   7.642   1.757  13.636
  193DOPC   H4R23845   7.551   1.746  13.561
  193DOPC   H4S23846   7.655   1.876  13.658
  193DOPC   C2523847   7.599   1.684  13.769
  193DOPC   H5R23848   7.543   1.577  13.751
  193DOPC   H5S23849   7.520   1.755  13.822
  193DOPC   C2623850   7.740   1.661  13.851
  193DOPC   H6R23851   7.796   1.768  13.861
  193DOPC   H6S23852   7.814   1.583  13.798
  193DOPC   C2723853   7.730   1.585  13.985
  193DOPC   H7R23854   7.838   1.587  14.037
  193DOPC   H7S23855   7.704   1.470  13.959
  193DOPC   C2823856   7.605   1.631  14.075
  193DOPC   H8R23857   7.579   1.539  14.144
  193DOPC   H8S23858   7.505   1.643  14.013
  193DOPC   C2923859   7.645   1.768  14.149
  193DOPC   H9R23860   7.610   1.871  14.103
  193DOPC  C21023861   7.690   1.768  14.276
  193DOPC  H10R23862   7.716   1.872  14.327
  193DOPC  C21123863   7.704   1.629  14.355
  193DOPC  H11R23864   7.791   1.647  14.426
  193DOPC  H11S23865   7.742   1.533  14.295
  193DOPC  C21223866   7.571   1.591  14.440
  193DOPC  H12R23867   7.600   1.488  14.496
  193DOPC  H12S23868   7.473   1.566  14.378
  193DOPC  C21323869   7.541   1.713  14.542
  193DOPC  H13R23870   7.468   1.797  14.500
  193DOPC  H13S23871   7.645   1.770  14.568
  193DOPC  C21423872   7.477   1.649  14.670
  193DOPC  H14R23873   7.391   1.565  14.648
  193DOPC  H14S23874   7.425   1.739  14.729
  193DOPC  C21523875   7.597   1.580  14.754
  193DOPC  H15R23876   7.702   1.629  14.728
  193DOPC  H15S23877   7.619   1.470  14.716
  193DOPC  C21623878   7.551   1.581  14.901
  193DOPC  H16R23879   7.439   1.535  14.899
  193DOPC  H16S23880   7.544   1.696  14.936
  193DOPC  C21723881   7.641   1.491  15.002
  193DOPC  H17R23882   7.619   1.374  14.987
  193DOPC  H17S23883   7.602   1.519  15.104
  193DOPC  C21823884   7.806   1.515  15.005
  193DOPC  H18R23885   7.824   1.626  15.042
  193DOPC  H18S23886   7.854   1.506  14.903
  193DOPC  H18T23887   7.859   1.433  15.072
  193DOPC   C3323888   7.575   2.156  14.036
  193DOPC   H3X23889   7.536   2.088  14.121
  193DOPC   H3Y23890   7.523   2.266  14.051
  193DOPC   C3423891   7.743   2.164  14.047
  193DOPC   H4X23892   7.772   2.161  14.156
  193DOPC   H4Y23893   7.788   2.266  14.005
  193DOPC   C3523894   7.825   2.042  13.974
  193DOPC   H5X23895   7.831   2.060  13.865
  193DOPC   H5Y23896   7.766   1.937  13.988
  193DOPC   C3623897   7.983   2.021  14.023
  193DOPC   H6X23898   8.054   2.102  13.973
  193DOPC   H6Y23899   7.988   2.037  14.133
  193DOPC   C3723900   8.034   1.865  13.992
  193DOPC   H7X23901   7.962   1.790  14.051
  193DOPC   H7Y23902   8.018   1.840  13.884
  193DOPC   C3823903   8.196   1.840  14.028
  193DOPC   H8X23904   8.221   1.905  14.118
  193DOPC   H8Y23905   8.267   1.882  13.945
  193DOPC   C3923906   8.219   1.678  14.048
  193DOPC   H9X23907   8.221   1.612  13.956
  193DOPC  C31023908   8.227   1.609  14.167
  193DOPC  H10X23909   8.224   1.488  14.167
  193DOPC  C31123910   8.216   1.676  14.304
  193DOPC  H11X23911   8.227   1.797  14.301
  193DOPC  H11Y23912   8.307   1.637  14.368
  193DOPC  C31223913   8.064   1.638  14.366
  193DOPC  H12X23914   8.032   1.522  14.344
  193DOPC  H12Y23915   7.985   1.708  14.309
  193DOPC  C31323916   8.044   1.668  14.518
  193DOPC  H13X23917   7.930   1.674  14.553
  193DOPC  H13Y23918   8.083   1.576  14.579
  193DOPC  C31423919   8.110   1.812  14.563
  193DOPC  H14X23920   8.092   1.824  14.672
  193DOPC  H14Y23921   8.231   1.814  14.545
  193DOPC  C31523922   8.034   1.936  14.488
  193DOPC  H15X23923   7.915   1.937  14.510
  193DOPC  H15Y23924   8.044   1.922  14.377
  193DOPC  C31623925   8.105   2.082  14.518
  193DOPC  H16X23926   8.219   2.078  14.480
  193DOPC  H16Y23927   8.038   2.164  14.461
  193DOPC  C31723928   8.098   2.131  14.664
  193DOPC  H17X23929   8.146   2.047  14.733
  193DOPC  H17Y23930   8.168   2.231  14.674
  193DOPC  C31823931   7.940   2.169  14.698
  193DOPC  H18X23932   7.897   2.251  14.625
  193DOPC  H18Y23933   7.871   2.071  14.690
  193DOPC  H18Z23934   7.927   2.218  14.799
  194DOPC     N23935   1.909   0.414  12.858
  194DOPC   C1223936   1.998   0.289  12.920
  194DOPC  H12A23937   2.111   0.331  12.928
  194DOPC  H12B23938   2.004   0.197  12.853
  194DOPC   C1323939   1.748   0.388  12.880
  194DOPC  H13A23940   1.683   0.479  12.842
  194DOPC  H13B23941   1.712   0.289  12.829
  194DOPC  H13C23942   1.729   0.374  12.987
  194DOPC   C1423943   1.949   0.432  12.713
  194DOPC  H14A23944   2.065   0.466  12.708
  194DOPC  H14B23945   1.942   0.332  12.656
  194DOPC  H14C23946   1.885   0.516  12.663
  194DOPC   C1523947   1.960   0.549  12.930
  194DOPC  H15A23948   2.079   0.560  12.913
  194DOPC  H15B23949   1.948   0.535  13.038
  194DOPC  H15C23950   1.907   0.646  12.894
  194DOPC   C1123951   1.957   0.238  13.062
  194DOPC  H11A23952   1.847   0.186  13.064
  194DOPC  H11B23953   2.039   0.151  13.087
  194DOPC     P23954   1.993   0.324  13.308
  194DOPC   O1323955   2.030   0.464  13.374
  194DOPC   O1423956   2.099   0.202  13.323
  194DOPC   O1223957   1.966   0.357  13.154
  194DOPC   O1123958   1.834   0.268  13.343
  194DOPC    C123959   1.707   0.334  13.282
  194DOPC    HA23960   1.678   0.274  13.190
  194DOPC    HB23961   1.727   0.451  13.254
  194DOPC    C223962   1.575   0.330  13.379
  194DOPC    HS23963   1.496   0.417  13.350
  194DOPC   O2123964   1.617   0.355  13.515
  194DOPC   C2123965   1.708   0.464  13.544
  194DOPC   O2223966   1.767   0.548  13.466
  194DOPC   C2223967   1.716   0.486  13.695
  194DOPC   H2R23968   1.650   0.404  13.746
  194DOPC   H2S23969   1.668   0.595  13.719
  194DOPC    C323970   1.496   0.177  13.365
  194DOPC    HX23971   1.428   0.185  13.274
  194DOPC    HY23972   1.413   0.163  13.446
  194DOPC   O3123973   1.597   0.054  13.351
  194DOPC   C3123974   1.641   0.007  13.472
  194DOPC   O3223975   1.581   0.043  13.575
  194DOPC   C3223976   1.772  -0.095  13.475
  194DOPC   H2X23977   1.760  -0.189  13.406
  194DOPC   H2Y23978   1.870  -0.028  13.448
  194DOPC   C2323979   1.873   0.466  13.745
  194DOPC   H3R23980   1.882   0.506  13.850
  194DOPC   H3S23981   1.952   0.529  13.682
  194DOPC   C2423982   1.909   0.301  13.740
  194DOPC   H4R23983   1.893   0.263  13.634
  194DOPC   H4S23984   1.827   0.240  13.801
  194DOPC   C2523985   2.066   0.262  13.779
  194DOPC   H5R23986   2.142   0.320  13.710
  194DOPC   H5S23987   2.073   0.142  13.758
  194DOPC   C2623988   2.109   0.287  13.926
  194DOPC   H6R23989   2.119   0.408  13.945
  194DOPC   H6S23990   2.220   0.239  13.942
  194DOPC   C2723991   2.002   0.217  14.027
  194DOPC   H7R23992   1.928   0.143  13.968
  194DOPC   H7S23993   1.932   0.303  14.072
  194DOPC   C2823994   2.071   0.115  14.134
  194DOPC   H8R23995   2.170   0.060  14.093
  194DOPC   H8S23996   1.990   0.024  14.148
  194DOPC   C2923997   2.108   0.177  14.270
  194DOPC   H9R23998   2.207   0.246  14.276
  194DOPC  C21023999   2.015   0.174  14.375
  194DOPC  H10R24000   2.043   0.231  14.468
  194DOPC  C21124001   1.862   0.108  14.370
  194DOPC  H11R24002   1.818   0.097  14.473
  194DOPC  H11S24003   1.861  -0.004  14.326
  194DOPC  C21224004   1.763   0.212  14.286
  194DOPC  H12R24005   1.648   0.194  14.319
  194DOPC  H12S24006   1.767   0.180  14.180
  194DOPC  C21324007   1.800   0.381  14.299
  194DOPC  H13R24008   1.756   0.450  14.219
  194DOPC  H13S24009   1.917   0.407  14.297
  194DOPC  C21424010   1.735   0.418  14.433
  194DOPC  H14R24011   1.786   0.331  14.494
  194DOPC  H14S24012   1.613   0.399  14.428
  194DOPC  C21524013   1.766   0.552  14.518
  194DOPC  H15R24014   1.736   0.519  14.621
  194DOPC  H15S24015   1.681   0.634  14.500
  194DOPC  C21624016   1.923   0.611  14.519
  194DOPC  H16R24017   1.915   0.733  14.532
  194DOPC  H16S24018   1.981   0.591  14.424
  194DOPC  C21724019   2.003   0.552  14.642
  194DOPC  H17R24020   2.069   0.452  14.621
  194DOPC  H17S24021   1.918   0.520  14.717
  194DOPC  C21824022   2.089   0.669  14.714
  194DOPC  H18R24023   2.100   0.643  14.822
  194DOPC  H18S24024   2.027   0.774  14.709
  194DOPC  H18T24025   2.200   0.682  14.670
  194DOPC   C3324026   1.788  -0.149  13.623
  194DOPC   H3X24027   1.784  -0.054  13.693
  194DOPC   H3Y24028   1.895  -0.201  13.636
  194DOPC   C3424029   1.670  -0.261  13.665
  194DOPC   H4X24030   1.705  -0.370  13.624
  194DOPC   H4Y24031   1.562  -0.233  13.617
  194DOPC   C3524032   1.646  -0.267  13.817
  194DOPC   H5X24033   1.750  -0.238  13.866
  194DOPC   H5Y24034   1.613  -0.381  13.847
  194DOPC   C3624035   1.531  -0.158  13.871
  194DOPC   H6X24036   1.571  -0.045  13.854
  194DOPC   H6Y24037   1.437  -0.172  13.806
  194DOPC   C3724038   1.469  -0.179  14.013
  194DOPC   H7X24039   1.407  -0.081  14.048
  194DOPC   H7Y24040   1.390  -0.273  14.008
  194DOPC   C3824041   1.585  -0.218  14.116
  194DOPC   H8X24042   1.642  -0.119  14.154
  194DOPC   H8Y24043   1.660  -0.288  14.057
  194DOPC   C3924044   1.528  -0.318  14.221
  194DOPC   H9X24045   1.474  -0.416  14.177
  194DOPC  C31024046   1.541  -0.304  14.355
  194DOPC  H10X24047   1.502  -0.395  14.418
  194DOPC  C31124048   1.620  -0.180  14.431
  194DOPC  H11X24049   1.610  -0.075  14.376
  194DOPC  H11Y24050   1.741  -0.190  14.447
  194DOPC  C31224051   1.571  -0.172  14.575
  194DOPC  H12X24052   1.518  -0.277  14.602
  194DOPC  H12Y24053   1.488  -0.084  14.572
  194DOPC  C31324054   1.691  -0.141  14.680
  194DOPC  H13X24055   1.759  -0.242  14.678
  194DOPC  H13Y24056   1.758  -0.045  14.649
  194DOPC  C31424057   1.635  -0.117  14.826
  194DOPC  H14X24058   1.537  -0.046  14.812
  194DOPC  H14Y24059   1.597  -0.224  14.865
  194DOPC  C31524060   1.728  -0.040  14.938
  194DOPC  H15X24061   1.719   0.080  14.929
  194DOPC  H15Y24062   1.847  -0.055  14.942
  194DOPC  C31624063   1.685  -0.080  15.082
  194DOPC  H16X24064   1.620  -0.184  15.081
  194DOPC  H16Y24065   1.785  -0.089  15.145
  194DOPC  C31724066   1.601   0.042  15.144
  194DOPC  H17X24067   1.567   0.043  15.250
  194DOPC  H17Y24068   1.675   0.139  15.132
  194DOPC  C31824069   1.466   0.047  15.060
  194DOPC  H18X24070   1.505   0.135  14.991
  194DOPC  H18Y24071   1.451  -0.058  15.005
  194DOPC  H18Z24072   1.362   0.079  15.109
  195DOPC     N24073   6.262   8.301  13.068
  195DOPC   C1224074   6.258   8.202  13.191
  195DOPC  H12A24075   6.162   8.132  13.182
  195DOPC  H12B24076   6.245   8.270  13.280
  195DOPC   C1324077   6.144   8.413  13.077
  195DOPC  H13A24078   6.035   8.362  13.080
  195DOPC  H13B24079   6.156   8.483  13.163
  195DOPC  H13C24080   6.139   8.480  12.987
  195DOPC   C1424081   6.238   8.212  12.944
  195DOPC  H14A24082   6.259   8.275  12.855
  195DOPC  H14B24083   6.317   8.121  12.945
  195DOPC  H14C24084   6.128   8.166  12.940
  195DOPC   C1524085   6.411   8.369  13.055
  195DOPC  H15A24086   6.439   8.435  13.141
  195DOPC  H15B24087   6.420   8.436  12.965
  195DOPC  H15C24088   6.493   8.283  13.041
  195DOPC   C1124089   6.389   8.098  13.220
  195DOPC  H11A24090   6.490   8.162  13.246
  195DOPC  H11B24091   6.358   8.031  13.309
  195DOPC     P24092   6.564   7.970  13.045
  195DOPC   O1324093   6.592   8.094  12.954
  195DOPC   O1424094   6.549   7.822  12.983
  195DOPC   O1224095   6.410   8.000  13.112
  195DOPC   O1124096   6.678   7.966  13.163
  195DOPC    C124097   6.797   8.069  13.177
  195DOPC    HA24098   6.758   8.183  13.161
  195DOPC    HB24099   6.887   8.044  13.105
  195DOPC    C224100   6.860   8.060  13.321
  195DOPC    HS24101   6.928   7.956  13.323
  195DOPC   O2124102   6.736   8.062  13.412
  195DOPC   C2124103   6.708   7.930  13.460
  195DOPC   O2224104   6.791   7.825  13.454
  195DOPC   C2224105   6.558   7.927  13.527
  195DOPC   H2R24106   6.480   7.983  13.461
  195DOPC   H2S24107   6.570   7.990  13.621
  195DOPC    C324108   6.963   8.185  13.362
  195DOPC    HX24109   7.063   8.187  13.298
  195DOPC    HY24110   7.002   8.158  13.466
  195DOPC   O3124111   6.887   8.324  13.353
  195DOPC   C3124112   6.861   8.393  13.468
  195DOPC   O3224113   6.915   8.362  13.575
  195DOPC   C3224114   6.750   8.516  13.445
  195DOPC   H2X24115   6.763   8.598  13.527
  195DOPC   H2Y24116   6.778   8.570  13.349
  195DOPC   C2324117   6.499   7.770  13.560
  195DOPC   H3R24118   6.580   7.713  13.626
  195DOPC   H3S24119   6.489   7.702  13.467
  195DOPC   C2424120   6.348   7.775  13.631
  195DOPC   H4R24121   6.319   7.664  13.667
  195DOPC   H4S24122   6.263   7.806  13.556
  195DOPC   C2524123   6.338   7.886  13.746
  195DOPC   H5R24124   6.229   7.876  13.796
  195DOPC   H5S24125   6.346   7.999  13.705
  195DOPC   C2624126   6.458   7.871  13.852
  195DOPC   H6R24127   6.447   7.972  13.912
  195DOPC   H6S24128   6.570   7.877  13.810
  195DOPC   C2724129   6.444   7.726  13.931
  195DOPC   H7R24130   6.548   7.664  13.922
  195DOPC   H7S24131   6.355   7.656  13.891
  195DOPC   C2824132   6.416   7.745  14.081
  195DOPC   H8R24133   6.511   7.688  14.126
  195DOPC   H8S24134   6.317   7.682  14.114
  195DOPC   C2924135   6.421   7.896  14.138
  195DOPC   H9R24136   6.318   7.955  14.117
  195DOPC  C21024137   6.541   7.982  14.154
  195DOPC  H10R24138   6.522   8.078  14.215
  195DOPC  C21124139   6.700   7.954  14.118
  195DOPC  H11R24140   6.707   7.877  14.031
  195DOPC  H11S24141   6.768   7.909  14.200
  195DOPC  C21224142   6.779   8.099  14.087
  195DOPC  H12R24143   6.727   8.150  13.998
  195DOPC  H12S24144   6.896   8.076  14.058
  195DOPC  C21324145   6.778   8.210  14.204
  195DOPC  H13R24146   6.686   8.188  14.273
  195DOPC  H13S24147   6.753   8.317  14.158
  195DOPC  C21424148   6.917   8.215  14.293
  195DOPC  H14R24149   7.013   8.252  14.233
  195DOPC  H14S24150   6.941   8.101  14.329
  195DOPC  C21524151   6.908   8.316  14.417
  195DOPC  H15R24152   6.918   8.429  14.379
  195DOPC  H15S24153   7.006   8.298  14.481
  195DOPC  C21624154   6.767   8.306  14.503
  195DOPC  H16R24155   6.757   8.193  14.543
  195DOPC  H16S24156   6.670   8.328  14.438
  195DOPC  C21724157   6.754   8.417  14.620
  195DOPC  H17R24158   6.648   8.397  14.674
  195DOPC  H17S24159   6.743   8.529  14.577
  195DOPC  C21824160   6.878   8.414  14.724
  195DOPC  H18R24161   6.867   8.510  14.794
  195DOPC  H18S24162   6.987   8.423  14.676
  195DOPC  H18T24163   6.875   8.312  14.784
  195DOPC   C3324164   6.589   8.458  13.439
  195DOPC   H3X24165   6.584   8.350  13.387
  195DOPC   H3Y24166   6.526   8.537  13.376
  195DOPC   C3424167   6.511   8.449  13.576
  195DOPC   H4X24168   6.391   8.440  13.557
  195DOPC   H4Y24169   6.530   8.554  13.632
  195DOPC   C3524170   6.557   8.318  13.662
  195DOPC   H5X24171   6.674   8.332  13.695
  195DOPC   H5Y24172   6.553   8.218  13.599
  195DOPC   C3624173   6.463   8.293  13.788
  195DOPC   H6X24174   6.346   8.274  13.761
  195DOPC   H6Y24175   6.504   8.190  13.836
  195DOPC   C3724176   6.475   8.416  13.892
  195DOPC   H7X24177   6.593   8.446  13.901
  195DOPC   H7Y24178   6.415   8.516  13.858
  195DOPC   C3824179   6.424   8.372  14.034
  195DOPC   H8X24180   6.472   8.452  14.106
  195DOPC   H8Y24181   6.475   8.264  14.057
  195DOPC   C3924182   6.259   8.369  14.057
  195DOPC   H9X24183   6.192   8.419  13.977
  195DOPC  C31024184   6.192   8.304  14.162
  195DOPC  H10X24185   6.071   8.302  14.167
  195DOPC  C31124186   6.270   8.224  14.274
  195DOPC  H11X24187   6.391   8.234  14.262
  195DOPC  H11Y24188   6.240   8.105  14.269
  195DOPC  C31224189   6.243   8.267  14.420
  195DOPC  H12X24190   6.124   8.253  14.444
  195DOPC  H12Y24191   6.274   8.383  14.438
  195DOPC  C31324192   6.333   8.165  14.513
  195DOPC  H13X24193   6.277   8.057  14.519
  195DOPC  H13Y24194   6.444   8.144  14.469
  195DOPC  C31424195   6.355   8.227  14.654
  195DOPC  H14X24196   6.416   8.146  14.715
  195DOPC  H14Y24197   6.423   8.328  14.647
  195DOPC  C31524198   6.208   8.265  14.723
  195DOPC  H15X24199   6.140   8.164  14.730
  195DOPC  H15Y24200   6.147   8.346  14.660
  195DOPC  C31624201   6.228   8.331  14.863
  195DOPC  H16X24202   6.294   8.435  14.857
  195DOPC  H16Y24203   6.117   8.361  14.901
  195DOPC  C31724204   6.301   8.225  14.961
  195DOPC  H17X24205   6.253   8.114  14.944
  195DOPC  H17Y24206   6.421   8.218  14.939
  195DOPC  C31824207   6.279   8.267  15.108
  195DOPC  H18X24208   6.326   8.182  15.175
  195DOPC  H18Y24209   6.333   8.374  15.130
  195DOPC  H18Z24210   6.160   8.278  15.131
  196DOPC     N24211   0.857   1.243  12.921
  196DOPC   C1224212   1.007   1.178  12.955
  196DOPC  H12A24213   1.072   1.266  12.995
  196DOPC  H12B24214   1.061   1.140  12.866
  196DOPC   C1324215   0.747   1.120  12.913
  196DOPC  H13A24216   0.790   1.031  12.854
  196DOPC  H13B24217   0.730   1.072  13.012
  196DOPC  H13C24218   0.643   1.155  12.872
  196DOPC   C1424219   0.865   1.326  12.792
  196DOPC  H14A24220   0.893   1.247  12.712
  196DOPC  H14B24221   0.760   1.373  12.761
  196DOPC  H14C24222   0.947   1.411  12.791
  196DOPC   C1524223   0.805   1.335  13.036
  196DOPC  H15A24224   0.693   1.373  13.026
  196DOPC  H15B24225   0.878   1.426  13.057
  196DOPC  H15C24226   0.805   1.264  13.125
  196DOPC   C1124227   1.007   1.051  13.057
  196DOPC  H11A24228   0.964   0.948  13.011
  196DOPC  H11B24229   1.121   1.029  13.092
  196DOPC     P24230   0.840   0.987  13.265
  196DOPC   O1324231   0.770   1.084  13.366
  196DOPC   O1424232   0.949   0.878  13.309
  196DOPC   O1224233   0.920   1.095  13.167
  196DOPC   O1124234   0.719   0.913  13.171
  196DOPC    C124235   0.684   0.759  13.182
  196DOPC    HA24236   0.765   0.696  13.245
  196DOPC    HB24237   0.691   0.710  13.081
  196DOPC    C224238   0.527   0.734  13.239
  196DOPC    HS24239   0.448   0.777  13.164
  196DOPC   O2124240   0.518   0.803  13.366
  196DOPC   C2124241   0.451   0.927  13.365
  196DOPC   O2224242   0.396   0.990  13.269
  196DOPC   C2224243   0.432   0.977  13.509
  196DOPC   H2R24244   0.327   0.932  13.544
  196DOPC   H2S24245   0.425   1.098  13.502
  196DOPC    C324246   0.480   0.572  13.265
  196DOPC    HX24247   0.468   0.515  13.168
  196DOPC    HY24248   0.370   0.573  13.314
  196DOPC   O3124249   0.590   0.501  13.345
  196DOPC   C3124250   0.584   0.528  13.474
  196DOPC   O3224251   0.477   0.569  13.538
  196DOPC   C3224252   0.735   0.502  13.534
  196DOPC   H2X24253   0.712   0.482  13.640
  196DOPC   H2Y24254   0.781   0.400  13.490
  196DOPC   C2324255   0.558   0.934  13.606
  196DOPC   H3R24256   0.659   0.901  13.553
  196DOPC   H3S24257   0.524   0.843  13.673
  196DOPC   C2424258   0.595   1.070  13.686
  196DOPC   H4R24259   0.501   1.088  13.754
  196DOPC   H4S24260   0.608   1.165  13.617
  196DOPC   C2524261   0.735   1.061  13.768
  196DOPC   H5R24262   0.833   1.047  13.703
  196DOPC   H5S24263   0.725   0.968  13.839
  196DOPC   C2624264   0.746   1.201  13.851
  196DOPC   H6R24265   0.649   1.197  13.919
  196DOPC   H6S24266   0.737   1.299  13.785
  196DOPC   C2724267   0.883   1.211  13.934
  196DOPC   H7R24268   0.892   1.323  13.979
  196DOPC   H7S24269   0.981   1.194  13.868
  196DOPC   C2824270   0.882   1.097  14.045
  196DOPC   H8R24271   0.992   1.113  14.088
  196DOPC   H8S24272   0.873   0.982  14.007
  196DOPC   C2924273   0.772   1.124  14.152
  196DOPC   H9R24274   0.809   1.209  14.223
  196DOPC  C21024275   0.649   1.051  14.180
  196DOPC  H10R24276   0.590   1.084  14.270
  196DOPC  C21124277   0.577   0.919  14.117
  196DOPC  H11R24278   0.609   0.903  14.011
  196DOPC  H11S24279   0.456   0.930  14.122
  196DOPC  C21224280   0.625   0.786  14.201
  196DOPC  H12R24281   0.740   0.756  14.177
  196DOPC  H12S24282   0.554   0.690  14.176
  196DOPC  C21324283   0.612   0.813  14.353
  196DOPC  H13R24284   0.494   0.835  14.376
  196DOPC  H13S24285   0.679   0.906  14.390
  196DOPC  C21424286   0.663   0.682  14.431
  196DOPC  H14R24287   0.784   0.686  14.444
  196DOPC  H14S24288   0.641   0.581  14.372
  196DOPC  C21524289   0.590   0.679  14.568
  196DOPC  H15R24290   0.535   0.572  14.584
  196DOPC  H15S24291   0.507   0.768  14.577
  196DOPC  C21624292   0.703   0.688  14.677
  196DOPC  H16R24293   0.759   0.795  14.668
  196DOPC  H16S24294   0.784   0.601  14.654
  196DOPC  C21724295   0.641   0.664  14.818
  196DOPC  H17R24296   0.712   0.727  14.890
  196DOPC  H17S24297   0.647   0.547  14.845
  196DOPC  C21824298   0.482   0.712  14.834
  196DOPC  H18R24299   0.452   0.716  14.941
  196DOPC  H18S24300   0.404   0.639  14.782
  196DOPC  H18T24301   0.468   0.823  14.789
  196DOPC   C3324302   0.843   0.632  13.511
  196DOPC   H3X24303   0.781   0.735  13.487
  196DOPC   H3Y24304   0.910   0.609  13.420
  196DOPC   C3424305   0.947   0.666  13.627
  196DOPC   H4X24306   1.013   0.766  13.601
  196DOPC   H4Y24307   1.025   0.572  13.636
  196DOPC   C3524308   0.871   0.693  13.761
  196DOPC   H5X24309   0.773   0.622  13.776
  196DOPC   H5Y24310   0.828   0.805  13.761
  196DOPC   C3624311   0.971   0.669  13.880
  196DOPC   H6X24312   0.896   0.652  13.968
  196DOPC   H6Y24313   1.042   0.571  13.872
  196DOPC   C3724314   1.076   0.794  13.911
  196DOPC   H7X24315   1.179   0.781  13.854
  196DOPC   H7Y24316   1.029   0.902  13.883
  196DOPC   C3824317   1.108   0.778  14.060
  196DOPC   H8X24318   1.176   0.678  14.071
  196DOPC   H8Y24319   1.004   0.761  14.117
  196DOPC   C3924320   1.189   0.908  14.108
  196DOPC   H9X24321   1.267   0.942  14.032
  196DOPC  C31024322   1.168   0.987  14.220
  196DOPC  H10X24323   1.234   1.086  14.238
  196DOPC  C31124324   1.052   0.957  14.322
  196DOPC  H11X24325   0.990   0.854  14.302
  196DOPC  H11Y24326   0.970   1.047  14.324
  196DOPC  C31224327   1.120   0.947  14.460
  196DOPC  H12X24328   1.160   1.056  14.494
  196DOPC  H12Y24329   1.214   0.871  14.455
  196DOPC  C31324330   1.014   0.882  14.561
  196DOPC  H13X24331   0.935   0.968  14.594
  196DOPC  H13Y24332   0.954   0.789  14.517
  196DOPC  C31424333   1.107   0.824  14.675
  196DOPC  H14X24334   1.165   0.724  14.640
  196DOPC  H14Y24335   1.192   0.909  14.695
  196DOPC  C31524336   1.026   0.796  14.808
  196DOPC  H15X24337   0.915   0.845  14.805
  196DOPC  H15Y24338   1.088   0.854  14.888
  196DOPC  C31624339   1.025   0.631  14.841
  196DOPC  H16X24340   0.945   0.579  14.776
  196DOPC  H16Y24341   1.130   0.583  14.809
  196DOPC  C31724342   0.998   0.595  14.989
  196DOPC  H17X24343   1.051   0.685  15.047
  196DOPC  H17Y24344   0.878   0.604  15.008
  196DOPC  C31824345   1.055   0.447  15.040
  196DOPC  H18X24346   1.033   0.354  14.974
  196DOPC  H18Y24347   1.174   0.443  15.051
  196DOPC  H18Z24348   1.009   0.415  15.137
  197DOPC     N24349   1.423   8.087  12.929
  197DOPC   C1224350   1.493   8.153  13.055
  197DOPC  H12A24351   1.409   8.206  13.114
  197DOPC  H12B24352   1.575   8.234  13.026
  197DOPC   C1324353   1.306   7.977  12.962
  197DOPC  H13A24354   1.263   7.925  12.872
  197DOPC  H13B24355   1.350   7.890  13.025
  197DOPC  H13C24356   1.211   8.023  13.013
  197DOPC   C1424357   1.543   8.005  12.856
  197DOPC  H14A24358   1.578   7.911  12.917
  197DOPC  H14B24359   1.507   7.967  12.758
  197DOPC  H14C24360   1.640   8.073  12.844
  197DOPC   C1524361   1.364   8.205  12.843
  197DOPC  H15A24362   1.262   8.249  12.883
  197DOPC  H15B24363   1.343   8.162  12.743
  197DOPC  H15C24364   1.444   8.293  12.829
  197DOPC   C1124365   1.576   8.047  13.146
  197DOPC  H11A24366   1.574   8.092  13.251
  197DOPC  H11B24367   1.515   7.941  13.145
  197DOPC     P24368   1.808   7.901  13.186
  197DOPC   O1324369   1.785   7.931  13.329
  197DOPC   O1424370   1.961   7.888  13.138
  197DOPC   O1224371   1.726   8.028  13.103
  197DOPC   O1124372   1.715   7.765  13.136
  197DOPC    C124373   1.685   7.635  13.211
  197DOPC    HA24374   1.753   7.628  13.303
  197DOPC    HB24375   1.712   7.538  13.149
  197DOPC    C224376   1.520   7.621  13.253
  197DOPC    HS24377   1.459   7.592  13.160
  197DOPC   O2124378   1.470   7.758  13.306
  197DOPC   C2124379   1.328   7.781  13.297
  197DOPC   O2224380   1.238   7.699  13.249
  197DOPC   C2224381   1.298   7.935  13.352
  197DOPC   H2R24382   1.180   7.957  13.356
  197DOPC   H2S24383   1.348   8.019  13.287
  197DOPC    C324384   1.496   7.494  13.356
  197DOPC    HX24385   1.555   7.396  13.317
  197DOPC    HY24386   1.376   7.466  13.357
  197DOPC   O3124387   1.555   7.535  13.486
  197DOPC   C3124388   1.459   7.549  13.586
  197DOPC   O3224389   1.333   7.504  13.583
  197DOPC   C3224390   1.517   7.634  13.708
  197DOPC   H2X24391   1.426   7.709  13.737
  197DOPC   H2Y24392   1.531   7.558  13.793
  197DOPC   C2324393   1.357   7.949  13.493
  197DOPC   H3R24394   1.480   7.957  13.494
  197DOPC   H3S24395   1.326   7.849  13.550
  197DOPC   C2424396   1.289   8.080  13.561
  197DOPC   H4R24397   1.169   8.092  13.536
  197DOPC   H4S24398   1.346   8.182  13.529
  197DOPC   C2524399   1.301   8.056  13.710
  197DOPC   H5R24400   1.276   8.161  13.761
  197DOPC   H5S24401   1.415   8.017  13.734
  197DOPC   C2624402   1.188   7.950  13.765
  197DOPC   H6R24403   1.223   7.836  13.741
  197DOPC   H6S24404   1.078   7.968  13.719
  197DOPC   C2724405   1.176   7.981  13.915
  197DOPC   H7R24406   1.111   8.083  13.931
  197DOPC   H7S24407   1.290   8.003  13.951
  197DOPC   C2824408   1.115   7.855  13.997
  197DOPC   H8R24409   1.007   7.818  13.964
  197DOPC   H8S24410   1.097   7.901  14.099
  197DOPC   C2924411   1.236   7.741  13.990
  197DOPC   H9R24412   1.261   7.693  13.891
  197DOPC  C21024413   1.299   7.682  14.097
  197DOPC  H10R24414   1.385   7.598  14.086
  197DOPC  C21124415   1.254   7.721  14.235
  197DOPC  H11R24416   1.243   7.613  14.283
  197DOPC  H11S24417   1.140   7.762  14.238
  197DOPC  C21224418   1.349   7.813  14.326
  197DOPC  H12R24419   1.306   7.810  14.431
  197DOPC  H12S24420   1.348   7.931  14.299
  197DOPC  C21324421   1.499   7.746  14.340
  197DOPC  H13R24422   1.556   7.826  14.403
  197DOPC  H13S24423   1.553   7.725  14.242
  197DOPC  C21424424   1.491   7.610  14.426
  197DOPC  H14R24425   1.564   7.524  14.389
  197DOPC  H14S24426   1.379   7.564  14.418
  197DOPC  C21524427   1.508   7.638  14.575
  197DOPC  H15R24428   1.440   7.734  14.605
  197DOPC  H15S24429   1.625   7.662  14.601
  197DOPC  C21624430   1.445   7.501  14.641
  197DOPC  H16R24431   1.500   7.402  14.599
  197DOPC  H16S24432   1.327   7.495  14.614
  197DOPC  C21724433   1.454   7.505  14.790
  197DOPC  H17R24434   1.421   7.619  14.818
  197DOPC  H17S24435   1.569   7.484  14.823
  197DOPC  C21824436   1.348   7.402  14.860
  197DOPC  H18R24437   1.371   7.285  14.836
  197DOPC  H18S24438   1.233   7.428  14.831
  197DOPC  H18T24439   1.354   7.415  14.969
  197DOPC   C3324440   1.654   7.729  13.678
  197DOPC   H3X24441   1.615   7.820  13.613
  197DOPC   H3Y24442   1.733   7.664  13.616
  197DOPC   C3424443   1.740   7.794  13.797
  197DOPC   H4X24444   1.672   7.799  13.889
  197DOPC   H4Y24445   1.769   7.908  13.769
  197DOPC   C3524446   1.888   7.711  13.818
  197DOPC   H5X24447   1.938   7.691  13.718
  197DOPC   H5Y24448   1.865   7.605  13.863
  197DOPC   C3624449   2.005   7.780  13.908
  197DOPC   H6X24450   2.042   7.879  13.851
  197DOPC   H6Y24451   1.954   7.810  14.006
  197DOPC   C3724452   2.143   7.686  13.931
  197DOPC   H7X24453   2.105   7.569  13.922
  197DOPC   H7Y24454   2.222   7.708  13.849
  197DOPC   C3824455   2.224   7.696  14.067
  197DOPC   H8X24456   2.276   7.586  14.081
  197DOPC   H8Y24457   2.143   7.698  14.147
  197DOPC   C3924458   2.346   7.806  14.095
  197DOPC   H9X24459   2.451   7.779  14.047
  197DOPC  C31024460   2.342   7.920  14.181
  197DOPC  H10X24461   2.439   7.983  14.207
  197DOPC  C31124462   2.211   7.955  14.264
  197DOPC  H11X24463   2.169   7.855  14.305
  197DOPC  H11Y24464   2.132   7.964  14.190
  197DOPC  C31224465   2.206   8.075  14.374
  197DOPC  H12X24466   2.118   8.160  14.362
  197DOPC  H12Y24467   2.303   8.137  14.346
  197DOPC  C31324468   2.163   8.000  14.511
  197DOPC  H13X24469   2.047   8.033  14.529
  197DOPC  H13Y24470   2.168   7.886  14.496
  197DOPC  C31424471   2.235   8.005  14.650
  197DOPC  H14X24472   2.356   7.995  14.653
  197DOPC  H14Y24473   2.213   8.121  14.658
  197DOPC  C31524474   2.147   7.943  14.777
  197DOPC  H15X24475   2.033   7.962  14.746
  197DOPC  H15Y24476   2.190   8.004  14.866
  197DOPC  C31624477   2.093   7.794  14.836
  197DOPC  H16X24478   2.033   7.728  14.759
  197DOPC  H16Y24479   2.180   7.722  14.880
  197DOPC  C31724480   1.979   7.818  14.945
  197DOPC  H17X24481   2.033   7.857  15.038
  197DOPC  H17Y24482   1.895   7.901  14.915
  197DOPC  C31824483   1.901   7.674  14.970
  197DOPC  H18X24484   1.978   7.579  14.968
  197DOPC  H18Y24485   1.849   7.678  15.069
  197DOPC  H18Z24486   1.815   7.653  14.893
  198DOPC     N24487   7.832   7.379  12.963
  198DOPC   C1224488   7.765   7.254  12.879
  198DOPC  H12A24489   7.823   7.249  12.785
  198DOPC  H12B24490   7.651   7.281  12.855
  198DOPC   C1324491   7.752   7.393  13.093
  198DOPC  H13A24492   7.635   7.405  13.080
  198DOPC  H13B24493   7.764   7.291  13.150
  198DOPC  H13C24494   7.792   7.479  13.157
  198DOPC   C1424495   7.818   7.516  12.883
  198DOPC  H14A24496   7.708   7.530  12.842
  198DOPC  H14B24497   7.835   7.611  12.947
  198DOPC  H14C24498   7.898   7.522  12.804
  198DOPC   C1524499   7.988   7.339  12.999
  198DOPC  H15A24500   8.064   7.335  12.916
  198DOPC  H15B24501   7.987   7.230  13.047
  198DOPC  H15C24502   8.033   7.414  13.074
  198DOPC   C1124503   7.759   7.102  12.944
  198DOPC  H11A24504   7.715   7.020  12.871
  198DOPC  H11B24505   7.871   7.066  12.977
  198DOPC     P24506   7.579   6.995  13.131
  198DOPC   O1324507   7.680   6.909  13.214
  198DOPC   O1424508   7.476   6.927  13.035
  198DOPC   O1224509   7.667   7.115  13.055
  198DOPC   O1124510   7.487   7.106  13.216
  198DOPC    C124511   7.407   7.222  13.149
  198DOPC    HA24512   7.313   7.175  13.091
  198DOPC    HB24513   7.478   7.290  13.084
  198DOPC    C224514   7.348   7.312  13.263
  198DOPC    HS24515   7.449   7.340  13.324
  198DOPC   O2124516   7.248   7.217  13.328
  198DOPC   C2124517   7.286   7.181  13.447
  198DOPC   O2224518   7.411   7.173  13.493
  198DOPC   C2224519   7.142   7.152  13.516
  198DOPC   H2R24520   7.119   7.035  13.515
  198DOPC   H2S24521   7.051   7.194  13.453
  198DOPC    C324522   7.261   7.454  13.249
  198DOPC    HX24523   7.145   7.431  13.221
  198DOPC    HY24524   7.307   7.533  13.176
  198DOPC   O3124525   7.268   7.501  13.385
  198DOPC   C3124526   7.254   7.635  13.427
  198DOPC   O3224527   7.219   7.743  13.362
  198DOPC   C3224528   7.280   7.634  13.577
  198DOPC   H2X24529   7.245   7.742  13.617
  198DOPC   H2Y24530   7.210   7.546  13.620
  198DOPC   C2324531   7.130   7.231  13.652
  198DOPC   H3R24532   7.040   7.185  13.713
  198DOPC   H3S24533   7.095   7.340  13.615
  198DOPC   C2424534   7.267   7.275  13.734
  198DOPC   H4R24535   7.226   7.374  13.787
  198DOPC   H4S24536   7.361   7.312  13.673
  198DOPC   C2524537   7.321   7.173  13.844
  198DOPC   H5R24538   7.283   7.061  13.830
  198DOPC   H5S24539   7.271   7.219  13.937
  198DOPC   C2624540   7.487   7.160  13.865
  198DOPC   H6R24541   7.546   7.178  13.769
  198DOPC   H6S24542   7.512   7.046  13.899
  198DOPC   C2724543   7.532   7.266  13.975
  198DOPC   H7R24544   7.457   7.253  14.063
  198DOPC   H7S24545   7.515   7.378  13.936
  198DOPC   C2824546   7.688   7.239  14.023
  198DOPC   H8R24547   7.753   7.186  13.942
  198DOPC   H8S24548   7.682   7.161  14.109
  198DOPC   C2924549   7.756   7.382  14.059
  198DOPC   H9R24550   7.751   7.466  13.979
  198DOPC  C21024551   7.820   7.421  14.174
  198DOPC  H10R24552   7.873   7.526  14.169
  198DOPC  C21124553   7.843   7.332  14.301
  198DOPC  H11R24554   7.963   7.308  14.310
  198DOPC  H11S24555   7.787   7.224  14.290
  198DOPC  C21224556   7.795   7.391  14.440
  198DOPC  H12R24557   7.867   7.482  14.472
  198DOPC  H12S24558   7.810   7.301  14.514
  198DOPC  C21324559   7.633   7.438  14.447
  198DOPC  H13R24560   7.566   7.347  14.407
  198DOPC  H13S24561   7.614   7.535  14.380
  198DOPC  C21424562   7.576   7.477  14.589
  198DOPC  H14R24563   7.578   7.376  14.651
  198DOPC  H14S24564   7.459   7.512  14.579
  198DOPC  C21524565   7.658   7.599  14.663
  198DOPC  H15R24566   7.675   7.691  14.593
  198DOPC  H15S24567   7.769   7.558  14.693
  198DOPC  C21624568   7.577   7.658  14.787
  198DOPC  H16R24569   7.616   7.602  14.878
  198DOPC  H16S24570   7.457   7.634  14.776
  198DOPC  C21724571   7.593   7.824  14.807
  198DOPC  H17R24572   7.712   7.852  14.813
  198DOPC  H17S24573   7.543   7.853  14.906
  198DOPC  C21824574   7.519   7.913  14.697
  198DOPC  H18R24575   7.500   8.028  14.731
  198DOPC  H18S24576   7.410   7.864  14.672
  198DOPC  H18T24577   7.587   7.916  14.606
  198DOPC   C3324578   7.437   7.597  13.621
  198DOPC   H3X24579   7.512   7.682  13.582
  198DOPC   H3Y24580   7.472   7.488  13.581
  198DOPC   C3424581   7.453   7.593  13.774
  198DOPC   H4X24582   7.564   7.556  13.804
  198DOPC   H4Y24583   7.378   7.514  13.821
  198DOPC   C3524584   7.419   7.741  13.836
  198DOPC   H5X24585   7.302   7.769  13.819
  198DOPC   H5Y24586   7.488   7.826  13.787
  198DOPC   C3624587   7.448   7.735  13.985
  198DOPC   H6X24588   7.512   7.635  14.014
  198DOPC   H6Y24589   7.514   7.832  14.014
  198DOPC   C3724590   7.308   7.747  14.067
  198DOPC   H7X24591   7.345   7.802  14.161
  198DOPC   H7Y24592   7.225   7.817  14.017
  198DOPC   C3824593   7.248   7.598  14.103
  198DOPC   H8X24594   7.343   7.524  14.126
  198DOPC   H8Y24595   7.187   7.546  14.018
  198DOPC   C3924596   7.154   7.631  14.222
  198DOPC   H9X24597   7.075   7.722  14.212
  198DOPC  C31024598   7.158   7.550  14.333
  198DOPC  H10X24599   7.087   7.580  14.419
  198DOPC  C31124600   7.253   7.419  14.349
  198DOPC  H11X24601   7.360   7.457  14.388
  198DOPC  H11Y24602   7.273   7.359  14.254
  198DOPC  C31224603   7.179   7.312  14.444
  198DOPC  H12X24604   7.092   7.250  14.391
  198DOPC  H12Y24605   7.127   7.371  14.529
  198DOPC  C31324606   7.290   7.204  14.502
  198DOPC  H13X24607   7.348   7.147  14.419
  198DOPC  H13Y24608   7.377   7.266  14.556
  198DOPC  C31424609   7.212   7.094  14.594
  198DOPC  H14X24610   7.127   7.036  14.534
  198DOPC  H14Y24611   7.292   7.011  14.630
  198DOPC  C31524612   7.137   7.160  14.718
  198DOPC  H15X24613   7.118   7.070  14.791
  198DOPC  H15Y24614   7.028   7.205  14.690
  198DOPC  C31624615   7.222   7.282  14.788
  198DOPC  H16X24616   7.233   7.381  14.724
  198DOPC  H16Y24617   7.158   7.316  14.878
  198DOPC  C31724618   7.371   7.229  14.831
  198DOPC  H17X24619   7.362   7.118  14.879
  198DOPC  H17Y24620   7.447   7.217  14.745
  198DOPC  C31824621   7.436   7.334  14.931
  198DOPC  H18X24622   7.371   7.335  15.024
  198DOPC  H18Y24623   7.549   7.297  14.951
  198DOPC  H18Z24624   7.439   7.447  14.890
  199DOPC     N24625   7.064   0.304  12.949
  199DOPC   C1224626   7.031   0.468  12.946
  199DOPC  H12A24627   7.032   0.504  12.843
  199DOPC  H12B24628   7.118   0.527  12.999
  199DOPC   C1324629   7.092   0.257  13.090
  199DOPC  H13A24630   7.184   0.319  13.132
  199DOPC  H13B24631   6.998   0.293  13.151
  199DOPC  H13C24632   7.109   0.141  13.099
  199DOPC   C1424633   7.193   0.264  12.863
  199DOPC  H14A24634   7.202   0.145  12.856
  199DOPC  H14B24635   7.180   0.308  12.763
  199DOPC  H14C24636   7.294   0.306  12.906
  199DOPC   C1524637   6.932   0.227  12.893
  199DOPC  H15A24638   6.918   0.256  12.788
  199DOPC  H15B24639   6.834   0.266  12.945
  199DOPC  H15C24640   6.939   0.109  12.900
  199DOPC   C1124641   6.884   0.518  13.010
  199DOPC  H11A24642   6.868   0.639  12.994
  199DOPC  H11B24643   6.790   0.466  12.956
  199DOPC     P24644   6.966   0.583  13.244
  199DOPC   O1324645   6.877   0.715  13.269
  199DOPC   O1424646   7.119   0.600  13.193
  199DOPC   O1224647   6.876   0.479  13.149
  199DOPC   O1124648   6.970   0.491  13.377
  199DOPC    C124649   7.010   0.560  13.499
  199DOPC    HA24650   6.929   0.529  13.577
  199DOPC    HB24651   7.013   0.683  13.494
  199DOPC    C224652   7.164   0.508  13.541
  199DOPC    HS24653   7.246   0.550  13.466
  199DOPC   O2124654   7.162   0.352  13.551
  199DOPC   C2124655   7.244   0.276  13.469
  199DOPC   O2224656   7.323   0.321  13.380
  199DOPC   C2224657   7.234   0.119  13.516
  199DOPC   H2R24658   7.270   0.046  13.433
  199DOPC   H2S24659   7.118   0.092  13.542
  199DOPC    C324660   7.204   0.570  13.680
  199DOPC    HX24661   7.213   0.691  13.673
  199DOPC    HY24662   7.315   0.522  13.704
  199DOPC   O3124663   7.092   0.529  13.775
  199DOPC   C3124664   7.141   0.506  13.897
  199DOPC   O3224665   7.268   0.514  13.933
  199DOPC   C3224666   7.011   0.481  13.990
  199DOPC   H2X24667   6.916   0.438  13.934
  199DOPC   H2Y24668   7.047   0.403  14.069
  199DOPC   C2324669   7.335   0.101  13.638
  199DOPC   H3R24670   7.446   0.146  13.618
  199DOPC   H3S24671   7.343  -0.018  13.656
  199DOPC   C2424672   7.278   0.157  13.772
  199DOPC   H4R24673   7.257   0.277  13.769
  199DOPC   H4S24674   7.365   0.138  13.849
  199DOPC   C2524675   7.139   0.073  13.814
  199DOPC   H5R24676   7.154  -0.047  13.796
  199DOPC   H5S24677   7.044   0.109  13.752
  199DOPC   C2624678   7.107   0.097  13.961
  199DOPC   H6R24679   7.099   0.216  13.976
  199DOPC   H6S24680   7.200   0.057  14.025
  199DOPC   C2724681   6.963   0.028  14.008
  199DOPC   H7R24682   6.985  -0.089  14.036
  199DOPC   H7S24683   6.882   0.025  13.925
  199DOPC   C2824684   6.906   0.117  14.128
  199DOPC   H8R24685   7.002   0.169  14.179
  199DOPC   H8S24686   6.860   0.042  14.201
  199DOPC   C2924687   6.790   0.228  14.092
  199DOPC   H9R24688   6.780   0.253  13.984
  199DOPC  C21024689   6.698   0.290  14.180
  199DOPC  H10R24690   6.618   0.373  14.144
  199DOPC  C21124691   6.695   0.260  14.328
  199DOPC  H11R24692   6.753   0.155  14.353
  199DOPC  H11S24693   6.578   0.240  14.356
  199DOPC  C21224694   6.755   0.378  14.423
  199DOPC  H12R24695   6.701   0.363  14.522
  199DOPC  H12S24696   6.723   0.488  14.386
  199DOPC  C21324697   6.922   0.377  14.451
  199DOPC  H13R24698   6.949   0.482  14.504
  199DOPC  H13S24699   6.989   0.373  14.359
  199DOPC  C21424700   6.969   0.250  14.540
  199DOPC  H14R24701   6.959   0.147  14.483
  199DOPC  H14S24702   6.894   0.243  14.627
  199DOPC  C21524703   7.125   0.260  14.590
  199DOPC  H15R24704   7.201   0.267  14.502
  199DOPC  H15S24705   7.154   0.157  14.644
  199DOPC  C21624706   7.146   0.392  14.681
  199DOPC  H16R24707   7.149   0.494  14.621
  199DOPC  H16S24708   7.256   0.371  14.723
  199DOPC  C21724709   7.046   0.413  14.802
  199DOPC  H17R24710   6.928   0.391  14.782
  199DOPC  H17S24711   7.054   0.531  14.830
  199DOPC  C21824712   7.102   0.329  14.925
  199DOPC  H18R24713   7.059   0.382  15.017
  199DOPC  H18S24714   7.223   0.333  14.930
  199DOPC  H18T24715   7.066   0.212  14.921
  199DOPC   C3324716   6.975   0.625  14.060
  199DOPC   H3X24717   6.927   0.704  13.988
  199DOPC   H3Y24718   7.081   0.666  14.103
  199DOPC   C3424719   6.867   0.615  14.175
  199DOPC   H4X24720   6.901   0.519  14.235
  199DOPC   H4Y24721   6.756   0.593  14.135
  199DOPC   C3524722   6.866   0.752  14.265
  199DOPC   H5X24723   6.773   0.739  14.335
  199DOPC   H5Y24724   6.843   0.851  14.204
  199DOPC   C3624725   7.008   0.779  14.345
  199DOPC   H6X24726   7.041   0.674  14.394
  199DOPC   H6Y24727   7.093   0.811  14.271
  199DOPC   C3724728   6.997   0.903  14.450
  199DOPC   H7X24729   6.942   1.000  14.406
  199DOPC   H7Y24730   6.922   0.860  14.529
  199DOPC   C3824731   7.140   0.954  14.527
  199DOPC   H8X24732   7.174   0.856  14.585
  199DOPC   H8Y24733   7.097   1.037  14.598
  199DOPC   C3924734   7.281   1.020  14.474
  199DOPC   H9X24735   7.308   1.132  14.508
  199DOPC  C31024736   7.377   0.947  14.397
  199DOPC  H10X24737   7.477   1.003  14.362
  199DOPC  C31124738   7.356   0.790  14.353
  199DOPC  H11X24739   7.337   0.786  14.243
  199DOPC  H11Y24740   7.259   0.743  14.404
  199DOPC  C31224741   7.467   0.670  14.385
  199DOPC  H12X24742   7.574   0.690  14.337
  199DOPC  H12Y24743   7.417   0.565  14.350
  199DOPC  C31324744   7.491   0.651  14.533
  199DOPC  H13X24745   7.603   0.690  14.555
  199DOPC  H13Y24746   7.411   0.727  14.580
  199DOPC  C31424747   7.478   0.492  14.582
  199DOPC  H14X24748   7.377   0.441  14.543
  199DOPC  H14Y24749   7.572   0.425  14.550
  199DOPC  C31524750   7.499   0.477  14.731
  199DOPC  H15X24751   7.619   0.490  14.750
  199DOPC  H15Y24752   7.471   0.365  14.766
  199DOPC  C31624753   7.414   0.595  14.808
  199DOPC  H16X24754   7.414   0.707  14.766
  199DOPC  H16Y24755   7.296   0.567  14.818
  199DOPC  C31724756   7.488   0.614  14.941
  199DOPC  H17X24757   7.556   0.516  14.961
  199DOPC  H17Y24758   7.560   0.713  14.934
  199DOPC  C31824759   7.373   0.631  15.048
  199DOPC  H18X24760   7.426   0.616  15.146
  199DOPC  H18Y24761   7.321   0.741  15.042
  199DOPC  H18Z24762   7.285   0.547  15.038
  200DOPC     N24763   1.316   0.206  12.918
  200DOPC   C1224764   1.318   0.371  12.949
  200DOPC  H12A24765   1.264   0.425  12.864
  200DOPC  H12B24766   1.430   0.409  12.956
  200DOPC   C1324767   1.372   0.118  13.034
  200DOPC  H13A24768   1.306   0.143  13.122
  200DOPC  H13B24769   1.362   0.001  13.018
  200DOPC  H13C24770   1.485   0.142  13.057
  200DOPC   C1424771   1.400   0.180  12.793
  200DOPC  H14A24772   1.517   0.196  12.810
  200DOPC  H14B24773   1.383   0.069  12.755
  200DOPC  H14C24774   1.367   0.255  12.714
  200DOPC   C1524775   1.164   0.145  12.890
  200DOPC  H15A24776   1.112   0.192  12.802
  200DOPC  H15B24777   1.090   0.171  12.974
  200DOPC  H15C24778   1.162   0.028  12.881
  200DOPC   C1124779   1.234   0.427  13.072
  200DOPC  H11A24780   1.290   0.399  13.168
  200DOPC  H11B24781   1.217   0.548  13.069
  200DOPC     P24782   0.961   0.355  13.146
  200DOPC   O1324783   0.903   0.204  13.148
  200DOPC   O1424784   0.866   0.476  13.100
  200DOPC   O1224785   1.100   0.357  13.058
  200DOPC   O1124786   1.033   0.386  13.288
  200DOPC    C124787   1.099   0.262  13.354
  200DOPC    HA24788   1.192   0.301  13.415
  200DOPC    HB24789   1.148   0.180  13.284
  200DOPC    C224790   0.986   0.182  13.444
  200DOPC    HS24791   0.875   0.188  13.396
  200DOPC   O2124792   0.986   0.257  13.571
  200DOPC   C2124793   0.921   0.208  13.681
  200DOPC   O2224794   0.862   0.090  13.696
  200DOPC   C2224795   0.937   0.326  13.790
  200DOPC   H2R24796   0.840   0.398  13.784
  200DOPC   H2S24797   1.034   0.392  13.762
  200DOPC    C324798   1.029   0.016  13.451
  200DOPC    HX24799   1.033  -0.024  13.345
  200DOPC    HY24800   0.942  -0.047  13.503
  200DOPC   O3124801   1.173   0.001  13.508
  200DOPC   C3124802   1.166  -0.045  13.634
  200DOPC   O3224803   1.077  -0.130  13.681
  200DOPC   C3224804   1.284   0.032  13.714
  200DOPC   H2X24805   1.270   0.002  13.821
  200DOPC   H2Y24806   1.385  -0.019  13.680
  200DOPC   C2324807   0.954   0.278  13.939
  200DOPC   H3R24808   0.844   0.260  13.983
  200DOPC   H3S24809   1.004   0.372  13.995
  200DOPC   C2424810   1.047   0.142  13.966
  200DOPC   H4R24811   1.151   0.174  14.018
  200DOPC   H4S24812   1.076   0.088  13.871
  200DOPC   C2524813   0.969   0.025  14.049
  200DOPC   H5R24814   0.911  -0.046  13.976
  200DOPC   H5S24815   0.890   0.079  14.117
  200DOPC   C2624816   1.074  -0.064  14.137
  200DOPC   H6R24817   1.172  -0.097  14.078
  200DOPC   H6S24818   1.018  -0.165  14.171
  200DOPC   C2724819   1.117   0.030  14.259
  200DOPC   H7R24820   1.022   0.036  14.330
  200DOPC   H7S24821   1.135   0.142  14.222
  200DOPC   C2824822   1.253  -0.019  14.335
  200DOPC   H8R24823   1.262   0.044  14.430
  200DOPC   H8S24824   1.354   0.010  14.277
  200DOPC   C2924825   1.243  -0.182  14.356
  200DOPC   H9R24826   1.269  -0.244  14.265
  200DOPC  C21024827   1.200  -0.256  14.464
  200DOPC  H10R24828   1.198  -0.377  14.458
  200DOPC  C21124829   1.147  -0.192  14.593
  200DOPC  H11R24830   1.047  -0.251  14.625
  200DOPC  H11S24831   1.108  -0.080  14.572
  200DOPC  C21224832   1.238  -0.199  14.723
  200DOPC  H12R24833   1.357  -0.212  14.712
  200DOPC  H12S24834   1.200  -0.294  14.786
  200DOPC  C21324835   1.219  -0.055  14.797
  200DOPC  H13R24836   1.295  -0.060  14.882
  200DOPC  H13S24837   1.110  -0.053  14.845
  200DOPC  C21424838   1.261   0.078  14.708
  200DOPC  H14R24839   1.174   0.120  14.645
  200DOPC  H14S24840   1.344   0.040  14.637
  200DOPC  C21524841   1.334   0.201  14.784
  200DOPC  H15R24842   1.400   0.132  14.845
  200DOPC  H15S24843   1.255   0.262  14.848
  200DOPC  C21624844   1.445   0.295  14.708
  200DOPC  H16R24845   1.480   0.395  14.758
  200DOPC  H16S24846   1.387   0.336  14.617
  200DOPC  C21724847   1.598   0.229  14.672
  200DOPC  H17R24848   1.606   0.316  14.599
  200DOPC  H17S24849   1.594   0.128  14.611
  200DOPC  C21824850   1.749   0.254  14.745
  200DOPC  H18R24851   1.829   0.312  14.681
  200DOPC  H18S24852   1.809   0.150  14.760
  200DOPC  H18T24853   1.746   0.319  14.838
  200DOPC   C3324854   1.281   0.199  13.693
  200DOPC   H3X24855   1.191   0.246  13.752
  200DOPC   H3Y24856   1.265   0.230  13.587
  200DOPC   C3424857   1.416   0.279  13.741
  200DOPC   H4X24858   1.404   0.399  13.720
  200DOPC   H4Y24859   1.514   0.240  13.687
  200DOPC   C3524860   1.441   0.250  13.888
  200DOPC   H5X24861   1.525   0.162  13.900
  200DOPC   H5Y24862   1.337   0.208  13.930
  200DOPC   C3624863   1.483   0.383  13.971
  200DOPC   H6X24864   1.595   0.420  13.945
  200DOPC   H6Y24865   1.405   0.475  13.957
  200DOPC   C3724866   1.482   0.330  14.115
  200DOPC   H7X24867   1.514   0.211  14.118
  200DOPC   H7Y24868   1.567   0.391  14.168
  200DOPC   C3824869   1.337   0.354  14.189
  200DOPC   H8X24870   1.327   0.263  14.262
  200DOPC   H8Y24871   1.243   0.348  14.118
  200DOPC   C3924872   1.339   0.497  14.263
  200DOPC   H9X24873   1.449   0.544  14.279
  200DOPC  C31024874   1.221   0.570  14.311
  200DOPC  H10X24875   1.238   0.679  14.355
  200DOPC  C31124876   1.065   0.521  14.302
  200DOPC  H11X24877   1.034   0.503  14.196
  200DOPC  H11Y24878   0.991   0.609  14.340
  200DOPC  C31224879   1.038   0.380  14.382
  200DOPC  H12X24880   1.123   0.297  14.358
  200DOPC  H12Y24881   0.931   0.332  14.351
  200DOPC  C31324882   1.042   0.397  14.534
  200DOPC  H13X24883   1.158   0.394  14.568
  200DOPC  H13Y24884   0.997   0.506  14.561
  200DOPC  C31424885   0.955   0.275  14.602
  200DOPC  H14X24886   0.845   0.272  14.562
  200DOPC  H14Y24887   0.993   0.165  14.575
  200DOPC  C31524888   0.938   0.297  14.752
  200DOPC  H15X24889   0.858   0.387  14.764
  200DOPC  H15Y24890   1.048   0.331  14.787
  200DOPC  C31624891   0.879   0.162  14.826
  200DOPC  H16X24892   0.777   0.135  14.774
  200DOPC  H16Y24893   0.954   0.071  14.808
  200DOPC  C31724894   0.832   0.174  14.973
  200DOPC  H17X24895   0.773   0.071  15.004
  200DOPC  H17Y24896   0.928   0.178  15.040
  200DOPC  C31824897   0.732   0.307  14.996
  200DOPC  H18X24898   0.725   0.337  15.103
  200DOPC  H18Y24899   0.775   0.404  14.944
  200DOPC  H18Z24900   0.619   0.285  14.954
  201SOD    SOD24901   7.949   2.073  17.510
  202SOD    SOD24902   7.231   7.025  12.450
  203SOD    SOD24903   7.751   2.015  19.942
  204SOD    SOD24904   8.104   7.641   9.963
  205SOD    SOD24905   6.797   3.445  19.695
  206SOD    SOD24906   2.979   2.806  11.429
  207SOD    SOD24907   1.784   1.293  12.003
  208SOD    SOD24908   4.097   3.491  18.773
  209SOD    SOD24909   1.169   2.959  12.643
  210SOD    SOD24910   5.170   0.771  17.228
  211SOD    SOD24911   2.588   2.785  19.272
  212SOD    SOD24912   0.596   5.513  19.175
  213SOD    SOD24913   2.709   6.116  10.012
  214SOD    SOD24914   2.537   3.533  18.798
  215SOD    SOD24915   7.316   5.587  19.351
  216SOD    SOD24916   2.088   6.249  18.546
  217SOD    SOD24917   1.035   2.918  11.471
  218SOD    SOD24918   6.507   4.516  19.371
  219SOD    SOD24919   7.796   3.106  19.630
  220SOD    SOD24920   4.421   2.355  10.576
  221SOD    SOD24921   0.365   7.716  11.273
  222SOD    SOD24922   5.418   5.931  18.070
  223SOD    SOD24923   3.076   6.687  11.512
  224SOD    SOD24924   0.416   5.151  10.722
  225SOD    SOD24925   3.405   2.320  11.531
  226SOD    SOD24926   0.963   8.004  19.362
  227CLA    CLA24927   6.612   3.968  11.521
  228CLA    CLA24928   5.460   5.364  10.101
  229CLA    CLA24929   0.494   5.117  11.895
  230CLA    CLA24930   6.402   3.387  18.108
  231CLA    CLA24931   5.040   7.294  19.880
  232CLA    CLA24932   5.167   3.066  19.713
  233CLA    CLA24933   5.045   1.364  18.181
  234CLA    CLA24934   6.849   6.266  19.003
  235CLA    CLA24935   1.610   0.730  10.072
  236CLA    CLA24936   2.954   0.641  18.490
  237CLA    CLA24937   2.768   2.320  17.705
  238CLA    CLA24938   5.808   1.570  11.714
  239CLA    CLA24939   8.026   0.765  12.185
  240CLA    CLA24940   7.070   4.424  17.140
  241CLA    CLA24941   5.338   7.986  12.373
  242CLA    CLA24942   5.742   3.484  18.197
  243CLA    CLA24943   0.880   0.710  11.548
  244CLA    CLA24944   3.766   2.734  12.064
  245CLA    CLA24945   7.878   6.993  11.995
  246CLA    CLA24946   1.202   0.825  19.715
  247CLA    CLA24947   4.504   0.817  11.557
  248CLA    CLA24948   4.986   4.878  11.844
  249CLA    CLA24949   2.085   6.795  11.890
  250CLA    CLA24950   5.068   3.078  18.765
  251CLA    CLA24951   1.393   3.597  17.954
  252CLA    CLA24952   0.716   2.510  12.359
  253TIP3   OH224953   4.503   5.358  16.946
  253TIP3    H124954   4.500   5.261  16.904
  253TIP3    H224955   4.569   5.343  17.020
  254TIP3   OH224956   4.503   4.899  17.130
  254TIP3    H124957   4.423   4.947  17.177
  254TIP3    H224958   4.494   4.939  17.041
  255TIP3   OH224959   3.122   4.849  16.958
  255TIP3    H124960   3.150   4.926  17.019
  255TIP3    H224961   3.049   4.898  16.902
  256TIP3   OH224962   2.769   5.206  17.032
  256TIP3    H124963   2.680   5.216  16.981
  256TIP3    H224964   2.729   5.178  17.119
  257TIP3   OH224965   2.538   3.121  16.975
  257TIP3    H124966   2.559   3.175  17.056
  257TIP3    H224967   2.630   3.130  16.927
  258TIP3   OH224968   6.644   4.438  17.183
  258TIP3    H124969   6.678   4.537  17.164
  258TIP3    H224970   6.690   4.382  17.111
  259TIP3   OH224971   6.392   4.425  16.872
  259TIP3    H124972   6.470   4.494  16.849
  259TIP3    H224973   6.333   4.419  16.793
  260TIP3   OH224974   6.802   4.293  16.998
  260TIP3    H124975   6.891   4.314  17.050
  260TIP3    H224976   6.824   4.200  16.955
  261TIP3   OH224977   1.815   2.705  17.005
  261TIP3    H124978   1.889   2.691  16.937
  261TIP3    H224979   1.730   2.730  16.953
  262TIP3   OH224980   6.864   2.598  17.040
  262TIP3    H124981   6.785   2.619  16.976
  262TIP3    H224982   6.870   2.493  17.044
  263TIP3   OH224983   6.393   2.782  16.968
  263TIP3    H124984   6.407   2.880  17.004
  263TIP3    H224985   6.327   2.798  16.894
  264TIP3   OH224986   3.194   6.925  17.041
  264TIP3    H124987   3.196   6.883  17.130
  264TIP3    H224988   3.097   6.971  17.040
  265TIP3   OH224989   3.027   6.643  16.956
  265TIP3    H124990   2.977   6.588  17.026
  265TIP3    H224991   3.109   6.684  17.004
  266TIP3   OH224992   2.921   7.138  17.026
  266TIP3    H124993   2.886   7.238  17.007
  266TIP3    H224994   2.901   7.087  16.941
  267TIP3   OH224995   1.487   6.328  17.111
  267TIP3    H124996   1.531   6.233  17.100
  267TIP3    H224997   1.499   6.378  17.025
  268TIP3   OH224998   1.156   6.148  17.015
  268TIP3    H124999   1.230   6.110  17.076
  268TIP3    H225000   1.198   6.240  16.988
  269TIP3   OH225001   1.354   5.985  17.153
  269TIP3    H125002   1.360   5.973  17.056
  269TIP3    H225003   1.404   5.898  17.187
  270TIP3   OH225004   1.331   5.709  16.942
  270TIP3    H125005   1.287   5.724  17.029
  270TIP3    H225006   1.328   5.602  16.933
  271TIP3   OH225007   3.761   0.698  17.087
  271TIP3    H125008   3.742   0.798  17.120
  271TIP3    H225009   3.676   0.641  17.117
  272TIP3   OH225010   0.694   5.861  17.035
  272TIP3    H125011   0.728   5.761  17.031
  272TIP3    H225012   0.682   5.888  16.942
  273TIP3   OH225013   6.125   7.753  16.991
  273TIP3    H125014   6.030   7.799  16.971
  273TIP3    H225015   6.195   7.828  16.973
  274TIP3   OH225016   2.082   0.497  16.984
  274TIP3    H125017   2.099   0.481  17.079
  274TIP3    H225018   2.178   0.473  16.949
  275TIP3   OH225019   2.902   0.071  17.053
  275TIP3    H125020   2.993   0.102  17.092
  275TIP3    H225021   2.831   0.117  17.114
  276TIP3   OH225022   2.630   0.383  17.100
  276TIP3    H125023   2.670   0.468  17.145
  276TIP3    H225024   2.699   0.371  17.027
  277TIP3   OH225025   5.818   0.167  17.102
  277TIP3    H125026   5.773   0.143  17.017
  277TIP3    H225027   5.838   0.271  17.091
  278TIP3   OH225028   5.971   0.614  16.948
  278TIP3    H125029   6.008   0.648  16.864
  278TIP3    H225030   5.905   0.692  16.973
  279TIP3   OH225031   7.916   2.001  16.964
  279TIP3    H125032   7.824   2.000  16.915
  279TIP3    H225033   7.956   2.097  16.941
  280TIP3   OH225034   8.234   1.844  17.164
  280TIP3    H125035   8.270   1.918  17.103
  280TIP3    H225036   8.240   1.758  17.106
  281TIP3   OH225037   8.138   1.168  16.684
  281TIP3    H125038   8.156   1.247  16.746
  281TIP3    H225039   8.219   1.105  16.714
  282TIP3   OH225040   1.105   0.254  17.004
  282TIP3    H125041   1.022   0.189  16.995
  282TIP3    H225042   1.120   0.257  17.100
  283TIP3   OH225043   1.618   0.517  16.874
  283TIP3    H125044   1.581   0.447  16.939
  283TIP3    H225045   1.555   0.493  16.799
  284TIP3   OH225046   4.555   4.007  12.894
  284TIP3    H125047   4.632   3.948  12.933
  284TIP3    H225048   4.578   4.102  12.933
  285TIP3   OH225049   4.908   4.347  12.910
  285TIP3    H125050   4.860   4.402  12.840
  285TIP3    H225051   5.010   4.354  12.882
  286TIP3   OH225052   5.496   4.061  13.008
  286TIP3    H125053   5.553   4.143  13.045
  286TIP3    H225054   5.562   3.979  13.017
  287TIP3   OH225055   5.314   4.455  12.991
  287TIP3    H125056   5.401   4.508  12.965
  287TIP3    H225057   5.253   4.530  13.030
  288TIP3   OH225058   3.547   5.731  13.034
  288TIP3    H125059   3.541   5.625  13.034
  288TIP3    H225060   3.454   5.757  12.991
  289TIP3   OH225061   4.162   5.792  12.957
  289TIP3    H125062   4.126   5.887  12.933
  289TIP3    H225063   4.087   5.760  13.020
  290TIP3   OH225064   5.001   5.941  12.971
  290TIP3    H125065   4.956   5.853  13.007
  290TIP3    H225066   5.029   5.991  13.053
  291TIP3   OH225067   4.754   5.501  12.930
  291TIP3    H125068   4.677   5.430  12.911
  291TIP3    H225069   4.841   5.440  12.922
  292TIP3   OH225070   3.233   5.732  12.931
  292TIP3    H125071   3.151   5.799  12.949
  292TIP3    H225072   3.186   5.636  12.934
  293TIP3   OH225073   2.615   5.799  12.856
  293TIP3    H125074   2.632   5.696  12.837
  293TIP3    H225075   2.653   5.806  12.946
  294TIP3   OH225076   2.835   6.026  13.058
  294TIP3    H125077   2.845   5.985  12.969
  294TIP3    H225078   2.849   5.938  13.114
  295TIP3   OH225079   2.773   5.553  12.898
  295TIP3    H125080   2.743   5.454  12.922
  295TIP3    H225081   2.851   5.534  12.835
  296TIP3   OH225082   2.930   5.852  12.801
  296TIP3    H125083   2.961   5.819  12.713
  296TIP3    H225084   2.829   5.818  12.807
  297TIP3   OH225085   2.684   1.768  13.130
  297TIP3    H125086   2.747   1.703  13.078
  297TIP3    H225087   2.760   1.804  13.192
  298TIP3   OH225088   2.772   2.082  13.141
  298TIP3    H125089   2.767   2.008  13.074
  298TIP3    H225090   2.760   2.027  13.223
  299TIP3   OH225091   2.113   1.650  12.989
  299TIP3    H125092   2.024   1.610  12.950
  299TIP3    H225093   2.192   1.616  12.929
  300TIP3   OH225094   2.369   1.602  12.858
  300TIP3    H125095   2.437   1.684  12.873
  300TIP3    H225096   2.413   1.518  12.903
  301TIP3   OH225097   2.184   2.160  12.927
  301TIP3    H125098   2.217   2.091  12.994
  301TIP3    H225099   2.163   2.248  12.976
  302TIP3   OH225100   2.533   1.871  12.914
  302TIP3    H125101   2.456   1.909  12.972
  302TIP3    H225102   2.606   1.842  12.981
  303TIP3   OH225103   6.398   6.633  12.918
  303TIP3    H125104   6.331   6.680  12.856
  303TIP3    H225105   6.480   6.699  12.915
  304TIP3   OH225106   3.112   7.227  12.924
  304TIP3    H125107   3.171   7.271  12.854
  304TIP3    H225108   3.153   7.130  12.934
  305TIP3   OH225109   2.602   7.381  13.074
  305TIP3    H125110   2.659   7.291  13.083
  305TIP3    H225111   2.531   7.357  13.007
  306TIP3   OH225112   0.873   6.010  12.990
  306TIP3    H125113   0.870   6.107  13.033
  306TIP3    H225114   0.956   5.962  13.029
  307TIP3   OH225115   0.640   5.626  12.895
  307TIP3    H125116   0.744   5.613  12.914
  307TIP3    H225117   0.607   5.526  12.900
  308TIP3   OH225118   0.884   5.409  12.885
  308TIP3    H125119   0.989   5.405  12.895
  308TIP3    H225120   0.853   5.310  12.909
  309TIP3   OH225121   4.380   7.959  12.978
  309TIP3    H125122   4.323   7.884  13.024
  309TIP3    H225123   4.460   7.901  12.942
  310TIP3   OH225124   3.984   7.923  12.899
  310TIP3    H125125   3.974   7.970  12.812
  310TIP3    H225126   3.900   7.963  12.944
  311TIP3   OH225127   1.130   2.619  12.881
  311TIP3    H125128   1.154   2.529  12.831
  311TIP3    H225129   1.219   2.676  12.879
  312TIP3   OH225130   0.754   2.725  12.850
  312TIP3    H125131   0.744   2.631  12.805
  312TIP3    H225132   0.741   2.697  12.943
  313TIP3   OH225133   7.756   2.797  12.786
  313TIP3    H125134   7.847   2.749  12.805
  313TIP3    H225135   7.692   2.749  12.850
  314TIP3   OH225136   7.389   2.506  13.023
  314TIP3    H125137   7.345   2.420  13.062
  314TIP3    H225138   7.410   2.472  12.933
  315TIP3   OH225139   7.461   3.089  13.057
  315TIP3    H125140   7.497   2.992  13.082
  315TIP3    H225141   7.378   3.104  13.115
  316TIP3   OH225142   6.035   0.239  12.929
  316TIP3    H125143   5.954   0.176  12.903
  316TIP3    H225144   5.991   0.306  12.994
  317TIP3   OH225145   6.316   0.242  13.021
  317TIP3    H125146   6.302   0.139  13.007
  317TIP3    H225147   6.224   0.282  12.986
  318TIP3   OH225148   6.518   0.466  12.976
  318TIP3    H125149   6.421   0.435  13.003
  318TIP3    H225150   6.557   0.514  13.056
  319TIP3   OH225151   7.662   1.293  12.888
  319TIP3    H125152   7.596   1.286  12.965
  319TIP3    H225153   7.630   1.212  12.834
  320TIP3   OH225154   0.263   7.373  12.873
  320TIP3    H125155   0.287   7.477  12.882
  320TIP3    H225156   0.262   7.341  12.965
  321TIP3   OH225157   8.037   0.290  12.956
  321TIP3    H125158   7.971   0.235  12.894
  321TIP3    H225159   8.115   0.310  12.894
  322TIP3   OH225160   7.692   0.410  12.887
  322TIP3    H125161   7.714   0.311  12.857
  322TIP3    H225162   7.746   0.421  12.970
  323TIP3   OH225163   1.329   1.092  17.662
  323TIP3    H125164   1.331   1.192  17.698
  323TIP3    H225165   1.255   1.101  17.592
  324TIP3   OH225166   1.210   0.957  18.010
  324TIP3    H125167   1.211   0.919  18.103
  324TIP3    H225168   1.162   0.876  17.962
  325TIP3   OH225169   0.369   0.991  18.186
  325TIP3    H125170   0.322   0.908  18.231
  325TIP3    H225171   0.448   1.013  18.248
  326TIP3   OH225172   1.554   1.303  17.859
  326TIP3    H125173   1.540   1.225  17.924
  326TIP3    H225174   1.570   1.386  17.918
  327TIP3   OH225175   0.402   1.469  18.000
  327TIP3    H125176   0.378   1.367  17.970
  327TIP3    H225177   0.507   1.462  17.997
  328TIP3   OH225178   0.151   0.814  17.514
  328TIP3    H125179   0.048   0.779  17.513
  328TIP3    H225180   0.206   0.725  17.492
  329TIP3   OH225181   0.182   1.011  17.804
  329TIP3    H125182   0.176   0.909  17.831
  329TIP3    H225183   0.187   1.003  17.707
  330TIP3   OH225184   1.300   1.913  17.843
  330TIP3    H125185   1.376   1.850  17.801
  330TIP3    H225186   1.255   1.839  17.900
  331TIP3   OH225187   1.009   1.309  18.075
  331TIP3    H125188   1.047   1.230  18.021
  331TIP3    H225189   1.097   1.329  18.131
  332TIP3   OH225190   1.959   0.311  18.088
  332TIP3    H125191   1.973   0.399  18.143
  332TIP3    H225192   2.030   0.331  18.017
  333TIP3   OH225193   1.409   0.675  18.111
  333TIP3    H125194   1.430   0.573  18.133
  333TIP3    H225195   1.384   0.666  18.017
  334TIP3   OH225196   1.454   0.440  17.635
  334TIP3    H125197   1.510   0.414  17.715
  334TIP3    H225198   1.520   0.514  17.600
  335TIP3   OH225199   0.212   0.702  17.876
  335TIP3    H125200   0.310   0.671  17.899
  335TIP3    H225201   0.197   0.658  17.789
  336TIP3   OH225202   1.980   0.504  18.314
  336TIP3    H125203   1.931   0.600  18.303
  336TIP3    H225204   1.978   0.490  18.410
  337TIP3   OH225205   0.487   0.345  18.230
  337TIP3    H125206   0.456   0.408  18.158
  337TIP3    H225207   0.407   0.360  18.295
  338TIP3   OH225208   1.258   1.393  17.557
  338TIP3    H125209   1.200   1.387  17.476
  338TIP3    H225210   1.241   1.496  17.580
  339TIP3   OH225211   0.791   1.185  18.220
  339TIP3    H125212   0.728   1.264  18.252
  339TIP3    H225213   0.860   1.240  18.163
  340TIP3   OH225214   1.659   0.441  17.820
  340TIP3    H125215   1.630   0.426  17.912
  340TIP3    H225216   1.762   0.459  17.831
  341TIP3   OH225217   0.615   1.423  18.288
  341TIP3    H125218   0.612   1.500  18.222
  341TIP3    H225219   0.513   1.421  18.318
  342TIP3   OH225220   0.089   1.341  17.450
  342TIP3    H125221   0.130   1.321  17.363
  342TIP3    H225222   0.171   1.386  17.497
  343TIP3   OH225223   1.664   1.527  18.058
  343TIP3    H125224   1.563   1.548  18.086
  343TIP3    H225225   1.686   1.618  18.011
  344TIP3   OH225226   1.717   0.217  18.223
  344TIP3    H125227   1.650   0.248  18.153
  344TIP3    H225228   1.809   0.223  18.172
  345TIP3   OH225229   0.956   0.109  17.932
  345TIP3    H125230   0.931   0.009  17.961
  345TIP3    H225231   0.872   0.165  17.966
  346TIP3   OH225232   1.477   1.723  17.728
  346TIP3    H125233   1.493   1.635  17.673
  346TIP3    H225234   1.572   1.774  17.714
  347TIP3   OH225235   1.602   1.497  17.574
  347TIP3    H125236   1.585   1.428  17.501
  347TIP3    H225237   1.575   1.436  17.650
  348TIP3   OH225238   1.769   1.353  18.445
  348TIP3    H125239   1.791   1.276  18.378
  348TIP3    H225240   1.783   1.440  18.388
  349TIP3   OH225241   1.183   1.019  17.416
  349TIP3    H125242   1.111   1.081  17.370
  349TIP3    H225243   1.264   1.012  17.354
  350TIP3   OH225244   1.203   0.871  17.112
  350TIP3    H125245   1.294   0.875  17.163
  350TIP3    H225246   1.244   0.905  17.026
  351TIP3   OH225247   1.994   0.968  18.242
  351TIP3    H125248   1.919   1.044  18.227
  351TIP3    H225249   2.059   0.990  18.166
  352TIP3   OH225250   1.570   1.015  17.518
  352TIP3    H125251   1.488   1.035  17.580
  352TIP3    H225252   1.643   0.970  17.578
  353TIP3   OH225253   1.536   0.805  18.431
  353TIP3    H125254   1.517   0.908  18.456
  353TIP3    H225255   1.464   0.795  18.358
  354TIP3   OH225256   0.649   1.105  17.693
  354TIP3    H125257   0.594   1.086  17.610
  354TIP3    H225258   0.701   1.015  17.708
  355TIP3   OH225259   0.779   1.449  17.967
  355TIP3    H125260   0.780   1.429  17.872
  355TIP3    H225261   0.868   1.401  18.001
  356TIP3   OH225262   0.689   0.963  18.059
  356TIP3    H125263   0.724   1.015  17.982
  356TIP3    H225264   0.690   1.039  18.128
  357TIP3   OH225265   1.389   1.580  18.138
  357TIP3    H125266   1.375   1.657  18.205
  357TIP3    H225267   1.334   1.498  18.178
  358TIP3   OH225268   0.770   1.449  18.520
  358TIP3    H125269   0.690   1.493  18.574
  358TIP3    H225270   0.720   1.437  18.433
  359TIP3   OH225271   1.443   0.945  17.282
  359TIP3    H125272   1.497   0.980  17.363
  359TIP3    H225273   1.488   1.004  17.212
  360TIP3   OH225274   0.495   1.036  18.434
  360TIP3    H125275   0.475   1.120  18.493
  360TIP3    H225276   0.395   1.001  18.420
  361TIP3   OH225277   1.162   1.725  17.581
  361TIP3    H125278   1.165   1.755  17.673
  361TIP3    H225279   1.128   1.815  17.537
  362TIP3   OH225280   0.573   1.641  18.616
  362TIP3    H125281   0.565   1.668  18.521
  362TIP3    H225282   0.470   1.643  18.642
  363TIP3   OH225283   1.845   0.087  17.272
  363TIP3    H125284   1.780   0.149  17.326
  363TIP3    H225285   1.833   0.134  17.187
  364TIP3   OH225286   0.519   0.984  17.468
  364TIP3    H125287   0.454   1.055  17.426
  364TIP3    H225288   0.479   0.893  17.435
  365TIP3   OH225289   0.178   1.243  18.374
  365TIP3    H125290   0.080   1.255  18.335
  365TIP3    H225291   0.176   1.138  18.398
  366TIP3   OH225292   0.139   1.591  18.026
  366TIP3    H125293   0.221   1.521  18.024
  366TIP3    H225294   0.176   1.654  18.098
  367TIP3   OH225295   2.062   1.620  18.609
  367TIP3    H125296   2.047   1.518  18.586
  367TIP3    H225297   1.964   1.642  18.643
  368TIP3   OH225298   1.046   1.560  18.509
  368TIP3    H125299   1.053   1.645  18.568
  368TIP3    H225300   0.942   1.531  18.512
  369TIP3   OH225301   1.119   1.977  17.449
  369TIP3    H125302   1.075   2.010  17.367
  369TIP3    H225303   1.119   2.067  17.500
  370TIP3   OH225304   1.433   1.894  17.464
  370TIP3    H125305   1.328   1.881  17.456
  370TIP3    H225306   1.461   1.805  17.512
  371TIP3   OH225307   1.717   0.697  18.635
  371TIP3    H125308   1.665   0.741  18.558
  371TIP3    H225309   1.716   0.594  18.609
  372TIP3   OH225310   0.345   1.469  18.413
  372TIP3    H125311   0.360   1.439  18.505
  372TIP3    H225312   0.278   1.388  18.384
  373TIP3   OH225313   0.660   0.243  18.018
  373TIP3    H125314   0.558   0.226  17.992
  373TIP3    H225315   0.645   0.283  18.108
  374TIP3   OH225316   1.096   0.183  18.419
  374TIP3    H125317   1.154   0.094  18.419
  374TIP3    H225318   1.012   0.145  18.367
  375TIP3   OH225319   1.497   0.512  18.449
  375TIP3    H125320   1.431   0.496  18.526
  375TIP3    H225321   1.523   0.615  18.460
  376TIP3   OH225322   0.626   0.679  18.127
  376TIP3    H125323   0.548   0.685  18.193
  376TIP3    H225324   0.645   0.783  18.112
  377TIP3   OH225325   1.230   0.726  17.445
  377TIP3    H125326   1.224   0.834  17.439
  377TIP3    H225327   1.322   0.705  17.398
  378TIP3   OH225328   1.129   0.794  18.650
  378TIP3    H125329   1.080   0.703  18.682
  378TIP3    H225330   1.211   0.795  18.711
  379TIP3   OH225331   1.388   0.673  17.827
  379TIP3    H125332   1.351   0.760  17.782
  379TIP3    H225333   1.373   0.600  17.758
  380TIP3   OH225334   0.373   0.694  18.294
  380TIP3    H125335   0.411   0.737  18.375
  380TIP3    H225336   0.338   0.600  18.325
  381TIP3   OH225337   1.233   0.844  18.261
  381TIP3    H125338   1.296   0.783  18.203
  381TIP3    H225339   1.186   0.767  18.316
  382TIP3   OH225340   1.409   0.343  18.058
  382TIP3    H125341   1.346   0.350  18.138
  382TIP3    H225342   1.342   0.306  17.990
  383TIP3   OH225343   1.739   2.067  18.716
  383TIP3    H125344   1.767   2.114  18.631
  383TIP3    H225345   1.828   2.087  18.766
  384TIP3   OH225346   0.449   1.248  18.622
  384TIP3    H125347   0.521   1.245  18.695
  384TIP3    H225348   0.359   1.231  18.673
  385TIP3   OH225349   1.085   0.711  17.923
  385TIP3    H125350   1.133   0.624  17.889
  385TIP3    H225351   1.030   0.668  17.995
  386TIP3   OH225352   0.934   0.558  18.157
  386TIP3    H125353   0.850   0.620  18.178
  386TIP3    H225354   1.007   0.594  18.221
  387TIP3   OH225355   0.963   1.217  17.349
  387TIP3    H125356   0.879   1.154  17.344
  387TIP3    H225357   0.946   1.262  17.438
  388TIP3   OH225358   1.790   1.190  18.228
  388TIP3    H125359   1.845   1.247  18.159
  388TIP3    H225360   1.693   1.184  18.187
  389TIP3   OH225361   1.345   0.444  17.185
  389TIP3    H125362   1.268   0.498  17.140
  389TIP3    H225363   1.413   0.524  17.208
  390TIP3   OH225364   1.096   1.273  18.469
  390TIP3    H125365   1.071   1.241  18.558
  390TIP3    H225366   1.095   1.379  18.480
  391TIP3   OH225367   1.497   0.646  17.329
  391TIP3    H125368   1.580   0.642  17.390
  391TIP3    H225369   1.505   0.746  17.295
  392TIP3   OH225370   0.465   1.192  17.914
  392TIP3    H125371   0.508   1.173  17.827
  392TIP3    H225372   0.490   1.108  17.968
  393TIP3   OH225373   0.195   0.941  18.434
  393TIP3    H125374   0.191   0.925  18.530
  393TIP3    H225375   0.090   0.936  18.411
  394TIP3   OH225376   0.870   0.950  18.631
  394TIP3    H125377   0.807   0.891  18.574
  394TIP3    H225378   0.965   0.899  18.628
  395TIP3   OH225379   1.417   1.530  18.499
  395TIP3    H125380   1.328   1.540  18.448
  395TIP3    H225381   1.386   1.573  18.585
  396TIP3   OH225382   2.001   0.673  17.324
  396TIP3    H125383   1.931   0.655  17.252
  396TIP3    H225384   2.031   0.772  17.301
  397TIP3   OH225385   2.031   1.299  18.568
  397TIP3    H125386   1.932   1.317  18.532
  397TIP3    H225387   2.090   1.300  18.486
  398TIP3   OH225388   1.814   1.628  17.308
  398TIP3    H125389   1.825   1.559  17.381
  398TIP3    H225390   1.903   1.617  17.256
  399TIP3   OH225391   1.510   1.085  18.035
  399TIP3    H125392   1.413   1.049  18.012
  399TIP3    H225393   1.572   1.010  17.992
  400TIP3   OH225394   0.683   1.505  17.695
  400TIP3    H125395   0.741   1.588  17.661
  400TIP3    H225396   0.587   1.527  17.657
  401TIP3   OH225397   0.226   0.977  17.155
  401TIP3    H125398   0.207   1.003  17.063
  401TIP3    H225399   0.136   0.919  17.167
  402TIP3   OH225400   0.864   1.293  17.602
  402TIP3    H125401   0.805   1.378  17.627
  402TIP3    H225402   0.818   1.219  17.659
  403TIP3   OH225403   0.930   1.738  18.288
  403TIP3    H125404   0.993   1.816  18.253
  403TIP3    H225405   0.989   1.701  18.363
  404TIP3   OH225406   0.727   1.774  17.578
  404TIP3    H125407   0.627   1.788  17.604
  404TIP3    H225408   0.765   1.873  17.585
  405TIP3   OH225409   1.243   1.302  18.224
  405TIP3    H125410   1.198   1.251  18.301
  405TIP3    H225411   1.300   1.224  18.183
  406TIP3   OH225412   1.612   1.788  18.457
  406TIP3    H125413   1.515   1.741  18.444
  406TIP3    H225414   1.624   1.856  18.382
  407TIP3   OH225415   0.286   0.432  18.419
  407TIP3    H125416   0.200   0.486  18.446
  407TIP3    H225417   0.250   0.331  18.419
  408TIP3   OH225418   1.619   1.263  17.385
  408TIP3    H125419   1.605   1.167  17.429
  408TIP3    H225420   1.726   1.267  17.376
  409TIP3   OH225421   0.274   1.718  18.233
  409TIP3    H125422   0.332   1.630  18.246
  409TIP3    H225423   0.252   1.744  18.324
  410TIP3   OH225424   0.740   1.493  17.229
  410TIP3    H125425   0.828   1.482  17.283
  410TIP3    H225426   0.733   1.598  17.224
  411TIP3   OH225427   1.275   0.386  18.306
  411TIP3    H125428   1.366   0.398  18.358
  411TIP3    H225429   1.221   0.312  18.359
  412TIP3   OH225430   1.324   0.307  17.430
  412TIP3    H125431   1.346   0.364  17.349
  412TIP3    H225432   1.370   0.364  17.503
  413TIP3   OH225433   1.039   1.640  17.285
  413TIP3    H125434   0.955   1.708  17.288
  413TIP3    H225435   1.110   1.697  17.336
  414TIP3   OH225436   1.058   0.508  17.565
  414TIP3    H125437   1.115   0.556  17.493
  414TIP3    H225438   1.019   0.591  17.613
  415TIP3   OH225439   1.104   0.646  18.426
  415TIP3    H125440   1.112   0.713  18.503
  415TIP3    H225441   1.137   0.551  18.460
  416TIP3   OH225442   1.115   0.171  17.579
  416TIP3    H125443   1.119   0.244  17.649
  416TIP3    H225444   1.196   0.210  17.523
  417TIP3   OH225445   0.804   1.814  17.300
  417TIP3    H125446   0.771   1.911  17.272
  417TIP3    H225447   0.759   1.803  17.388
  418TIP3   OH225448   1.762   0.420  18.505
  418TIP3    H125449   1.654   0.436  18.500
  418TIP3    H225450   1.780   0.385  18.416
  419TIP3   OH225451   1.629   0.820  17.895
  419TIP3    H125452   1.547   0.749  17.894
  419TIP3    H225453   1.698   0.770  17.955
  420TIP3   OH225454   1.723   1.849  18.054
  420TIP3    H125455   1.724   1.919  17.980
  420TIP3    H225456   1.828   1.839  18.066
  421TIP3   OH225457   0.330   0.185  17.940
  421TIP3    H125458   0.326   0.174  17.841
  421TIP3    H225459   0.341   0.080  17.964
  422TIP3   OH225460   0.246   1.597  17.529
  422TIP3    H125461   0.153   1.615  17.569
  422TIP3    H225462   0.259   1.689  17.479
  423TIP3   OH225463   0.172   1.934  18.684
  423TIP3    H125464   0.240   1.935  18.760
  423TIP3    H225465   0.140   1.833  18.694
  424TIP3   OH225466   0.691   1.826  18.826
  424TIP3    H125467   0.778   1.773  18.856
  424TIP3    H225468   0.664   1.771  18.747
  425TIP3   OH225469   1.354   1.651  18.736
  425TIP3    H125470   1.317   1.556  18.772
  425TIP3    H225471   1.451   1.657  18.781
  426TIP3   OH225472   1.648   1.709  17.010
  426TIP3    H125473   1.635   1.643  17.085
  426TIP3    H225474   1.753   1.701  17.001
  427TIP3   OH225475   0.216   1.263  18.805
  427TIP3    H125476   0.233   1.157  18.797
  427TIP3    H225477   0.109   1.260  18.789
  428TIP3   OH225478   0.865   1.246  18.696
  428TIP3    H125479   0.844   1.308  18.617
  428TIP3    H225480   0.872   1.145  18.659
  429TIP3   OH225481   1.487   1.211  18.487
  429TIP3    H125482   1.584   1.262  18.487
  429TIP3    H225483   1.427   1.298  18.498
  430TIP3   OH225484   0.245   0.937  18.777
  430TIP3    H125485   0.308   0.856  18.750
  430TIP3    H225486   0.263   0.947  18.873
  431TIP3   OH225487   0.675   0.805  18.414
  431TIP3    H125488   0.619   0.892  18.440
  431TIP3    H225489   0.760   0.851  18.370
  432TIP3   OH225490   1.261   1.133  18.800
  432TIP3    H125491   1.335   1.076  18.754
  432TIP3    H225492   1.229   1.063  18.868
  433TIP3   OH225493   1.852   1.126  16.976
  433TIP3    H125494   1.919   1.076  16.917
  433TIP3    H225495   1.892   1.228  16.973
  434TIP3   OH225496   0.720   0.560  18.541
  434TIP3    H125497   0.777   0.504  18.475
  434TIP3    H225498   0.713   0.656  18.495
  435TIP3   OH225499   0.774   0.372  18.316
  435TIP3    H125500   0.834   0.413  18.242
  435TIP3    H225501   0.673   0.400  18.293
  436TIP3   OH225502   0.913   0.944  18.321
  436TIP3    H125503   1.015   0.972  18.317
  436TIP3    H225504   0.865   1.034  18.288
  437TIP3   OH225505   1.400   0.682  18.841
  437TIP3    H125506   1.438   0.582  18.844
  437TIP3    H225507   1.488   0.740  18.854
  438TIP3   OH225508   1.556   1.030  18.688
  438TIP3    H125509   1.519   1.090  18.614
  438TIP3    H225510   1.658   1.015  18.658
  439TIP3   OH225511   0.499   0.684  18.725
  439TIP3    H125512   0.446   0.595  18.747
  439TIP3    H225513   0.574   0.645  18.666
  440TIP3   OH225514   0.832   0.090  18.326
  440TIP3    H125515   0.825   0.199  18.340
  440TIP3    H225516   0.727   0.066  18.324
  441TIP3   OH225517   1.008   0.542  18.749
  441TIP3    H125518   0.953   0.516  18.829
  441TIP3    H225519   0.934   0.516  18.683
  442TIP3   OH225520   1.307   0.418  18.654
  442TIP3    H125521   1.206   0.432  18.682
  442TIP3    H225522   1.351   0.376  18.735
  443TIP3   OH225523   1.503   0.333  18.876
  443TIP3    H125524   1.494   0.224  18.880
  443TIP3    H225525   1.459   0.360  18.964
  444TIP3   OH225526   0.360   0.429  18.791
  444TIP3    H125527   0.356   0.361  18.716
  444TIP3    H225528   0.319   0.366  18.862
  445TIP3   OH225529   0.847   0.071  18.603
  445TIP3    H125530   0.841  -0.035  18.607
  445TIP3    H225531   0.884   0.088  18.512
  446TIP3   OH225532   0.912   0.162  18.853
  446TIP3    H125533   0.904   0.125  18.761
  446TIP3    H225534   0.841   0.242  18.854
  447TIP3   OH225535   0.903   2.047  17.129
  447TIP3    H125536   0.888   2.130  17.191
  447TIP3    H225537   0.809   2.048  17.083
  448TIP3   OH225538   0.123   1.806  17.844
  448TIP3    H125539   0.131   1.702  17.867
  448TIP3    H225540   0.208   1.842  17.892
  449TIP3   OH225541   2.023   1.903  18.067
  449TIP3    H125542   2.064   1.915  18.155
  449TIP3    H225543   2.073   1.979  18.018
  450TIP3   OH225544   1.949   1.860  18.361
  450TIP3    H125545   1.917   1.774  18.307
  450TIP3    H225546   1.977   1.808  18.442
  451TIP3   OH225547   1.821   1.381  18.856
  451TIP3    H125548   1.719   1.386  18.891
  451TIP3    H225549   1.861   1.469  18.900
  452TIP3   OH225550   1.943   1.218  17.377
  452TIP3    H125551   2.034   1.274  17.390
  452TIP3    H225552   1.952   1.146  17.450
  453TIP3   OH225553   1.985   1.023  17.585
  453TIP3    H125554   1.900   0.965  17.615
  453TIP3    H225555   2.047   1.025  17.667
  454TIP3   OH225556   1.974   1.300  18.049
  454TIP3    H125557   2.044   1.217  18.041
  454TIP3    H225558   2.032   1.379  18.009
  455TIP3   OH225559   1.812   1.606  18.294
  455TIP3    H125560   1.737   1.645  18.354
  455TIP3    H225561   1.756   1.578  18.214
  456TIP3   OH225562   2.031   0.992  17.196
  456TIP3    H125563   1.940   0.984  17.144
  456TIP3    H225564   2.012   1.080  17.248
  457TIP3   OH225565   1.833   0.673  17.085
  457TIP3    H125566   1.865   0.750  17.025
  457TIP3    H225567   1.790   0.604  17.021
  458TIP3   OH225568   1.766   0.848  17.658
  458TIP3    H125569   1.728   0.756  17.622
  458TIP3    H225570   1.730   0.845  17.751
  459TIP3   OH225571   0.175   1.176  18.033
  459TIP3    H125572   0.194   1.117  17.953
  459TIP3    H225573   0.254   1.142  18.092
  460TIP3   OH225574   1.869   1.047  18.597
  460TIP3    H125575   1.923   0.954  18.604
  460TIP3    H225576   1.947   1.120  18.582
  461TIP3   OH225577   1.995   0.770  18.646
  461TIP3    H125578   1.896   0.727  18.644
  461TIP3    H225579   2.057   0.682  18.666
  462TIP3   OH225580   1.729   0.605  17.489
  462TIP3    H125581   1.742   0.503  17.519
  462TIP3    H225582   1.825   0.619  17.448
  463TIP3   OH225583   1.815   0.635  18.044
  463TIP3    H125584   1.921   0.663  18.046
  463TIP3    H225585   1.800   0.632  18.140
  464TIP3   OH225586   1.800   0.751  18.291
  464TIP3    H125587   1.698   0.783  18.304
  464TIP3    H225588   1.851   0.845  18.281
  465TIP3   OH225589   0.129   0.584  18.697
  465TIP3    H125590   0.226   0.558  18.733
  465TIP3    H225591   0.105   0.504  18.639
  466TIP3   OH225592   2.112   0.083  18.847
  466TIP3    H125593   2.198   0.071  18.788
  466TIP3    H225594   2.062   0.155  18.791
  467TIP3   OH225595   1.816   0.314  17.510
  467TIP3    H125596   1.841   0.266  17.595
  467TIP3    H225597   1.739   0.248  17.478
  468TIP3   OH225598   0.140   0.396  18.022
  468TIP3    H125599   0.202   0.314  17.994
  468TIP3    H225600   0.204   0.455  18.076
  469TIP3   OH225601   0.076   0.727  18.114
  469TIP3    H125602   0.131   0.708  18.032
  469TIP3    H225603   0.050   0.831  18.108
  470TIP3   OH225604   1.969   0.303  18.699
  470TIP3    H125605   1.888   0.373  18.702
  470TIP3    H225606   1.948   0.254  18.614
  471TIP3   OH225607   1.687   1.915  17.691
  471TIP3    H125608   1.745   1.918  17.608
  471TIP3    H225609   1.727   1.995  17.743
  472TIP3   OH225610   0.124   0.219  18.283
  472TIP3    H125611   0.036   0.180  18.326
  472TIP3    H225612   0.077   0.303  18.239
  473TIP3   OH225613   0.277   1.566  18.704
  473TIP3    H125614   0.194   1.564  18.646
  473TIP3    H225615   0.289   1.464  18.729
  474TIP3   OH225616   0.630   1.749  18.359
  474TIP3    H125617   0.628   1.841  18.309
  474TIP3    H225618   0.734   1.723  18.353
  475TIP3   OH225619   1.079   1.862  18.595
  475TIP3    H125620   1.080   1.838  18.690
  475TIP3    H225621   1.178   1.902  18.584
  476TIP3   OH225622   1.326   2.031  18.551
  476TIP3    H125623   1.401   1.968  18.517
  476TIP3    H225624   1.368   2.065  18.636
  477TIP3   OH225625   1.915   0.152  18.451
  477TIP3    H125626   1.823   0.180  18.409
  477TIP3    H225627   1.894   0.046  18.466
  478TIP3   OH225628   0.350   2.082  18.334
  478TIP3    H125629   0.252   2.115  18.302
  478TIP3    H225630   0.324   2.041  18.420
  479TIP3   OH225631   0.604   2.032  18.207
  479TIP3    H125632   0.503   2.031  18.243
  479TIP3    H225633   0.616   2.136  18.191
  480TIP3   OH225634   1.110   1.965  18.145
  480TIP3    H125635   1.096   2.041  18.077
  480TIP3    H225636   1.138   2.030  18.219
  481TIP3   OH225637   1.339   1.827  18.292
  481TIP3    H125638   1.266   1.862  18.228
  481TIP3    H225639   1.417   1.898  18.273
  482TIP3   OH225640   1.619   2.001  18.261
  482TIP3    H125641   1.641   2.098  18.224
  482TIP3    H225642   1.656   1.940  18.186
  483TIP3   OH225643   0.487   1.735  17.887
  483TIP3    H125644   0.461   1.640  17.927
  483TIP3    H225645   0.579   1.752  17.934
  484TIP3   OH225646   0.777   1.759  18.020
  484TIP3    H125647   0.805   1.656  18.012
  484TIP3    H225648   0.813   1.780  18.109
  485TIP3   OH225649   1.183   0.290  17.881
  485TIP3    H125650   1.104   0.217  17.895
  485TIP3    H225651   1.256   0.230  17.835
  486TIP3   OH225652   1.673   0.120  17.895
  486TIP3    H125653   1.741   0.154  17.826
  486TIP3    H225654   1.584   0.175  17.875
  487TIP3   OH225655   1.923   0.195  17.729
  487TIP3    H125656   1.960   0.117  17.671
  487TIP3    H225657   2.002   0.271  17.729
  488TIP3   OH225658   0.356   0.151  17.683
  488TIP3    H125659   0.361   0.221  17.609
  488TIP3    H225660   0.340   0.058  17.637
  489TIP3   OH225661   0.186   0.107  17.285
  489TIP3    H125662   0.161   0.186  17.225
  489TIP3    H225663   0.141   0.134  17.369
  490TIP3   OH225664   0.841   0.156  17.690
  490TIP3    H125665   0.916   0.147  17.621
  490TIP3    H225666   0.902   0.160  17.770
  491TIP3   OH225667   1.404   0.133  17.775
  491TIP3    H125668   1.448   0.111  17.690
  491TIP3    H225669   1.412   0.041  17.825
  492TIP3   OH225670   1.588   0.166  17.402
  492TIP3    H125671   1.484   0.197  17.398
  492TIP3    H225672   1.580   0.059  17.403
  493TIP3   OH225673   0.187   1.834  17.367
  493TIP3    H125674   0.114   1.791  17.307
  493TIP3    H225675   0.198   1.933  17.335
  494TIP3   OH225676   0.945   0.284  17.321
  494TIP3    H125677   0.965   0.235  17.405
  494TIP3    H225678   0.936   0.386  17.347
  495TIP3   OH225679   1.172   1.887  17.172
  495TIP3    H125680   1.238   1.970  17.174
  495TIP3    H225681   1.074   1.933  17.176
  496TIP3   OH225682   1.857   1.865  17.477
  496TIP3    H125683   1.835   1.781  17.419
  496TIP3    H225684   1.876   1.937  17.405
  497TIP3   OH225685   0.290   0.151  18.639
  497TIP3    H125686   0.275   0.051  18.610
  497TIP3    H225687   0.391   0.142  18.675
  498TIP3   OH225688   0.544   0.109  18.785
  498TIP3    H125689   0.642   0.123  18.748
  498TIP3    H225690   0.530   0.002  18.774
  499TIP3   OH225691   1.454   0.046  18.833
  499TIP3    H125692   1.395  -0.040  18.850
  499TIP3    H225693   1.530   0.003  18.777
  500TIP3   OH225694   1.805   1.759  18.645
  500TIP3    H125695   1.726   1.757  18.578
  500TIP3    H225696   1.791   1.857  18.681
  501TIP3   OH225697   3.409   1.093  17.666
  501TIP3    H125698   3.364   1.138  17.743
  501TIP3    H225699   3.333   1.100  17.597
  502TIP3   OH225700   3.289   0.965  17.983
  502TIP3    H125701   3.281   0.930  18.076
  502TIP3    H225702   3.212   0.904  17.940
  503TIP3   OH225703   2.406   0.975  18.147
  503TIP3    H125704   2.406   0.894  18.210
  503TIP3    H225705   2.468   1.045  18.192
  504TIP3   OH225706   2.533   1.486  17.985
  504TIP3    H125707   2.490   1.391  17.959
  504TIP3    H225708   2.636   1.458  17.973
  505TIP3   OH225709   2.164   0.735  17.547
  505TIP3    H125710   2.131   0.832  17.572
  505TIP3    H225711   2.076   0.698  17.503
  506TIP3   OH225712   2.215   1.025  17.793
  506TIP3    H125713   2.266   0.932  17.809
  506TIP3    H225714   2.283   1.078  17.735
  507TIP3   OH225715   3.080   1.223  18.081
  507TIP3    H125716   3.131   1.192  18.001
  507TIP3    H225717   3.161   1.267  18.132
  508TIP3   OH225718   4.039   0.333  18.068
  508TIP3    H125719   4.049   0.413  18.134
  508TIP3    H225720   4.123   0.360  18.011
  509TIP3   OH225721   3.468   0.673  18.113
  509TIP3    H125722   3.487   0.569  18.125
  509TIP3    H225723   3.454   0.673  18.016
  510TIP3   OH225724   2.692   0.435  17.784
  510TIP3    H125725   2.714   0.522  17.731
  510TIP3    H225726   2.651   0.369  17.715
  511TIP3   OH225727   3.536   0.458  17.639
  511TIP3    H125728   3.586   0.430  17.723
  511TIP3    H225729   3.606   0.530  17.607
  512TIP3   OH225730   2.307   0.737  17.875
  512TIP3    H125731   2.373   0.686  17.937
  512TIP3    H225732   2.328   0.683  17.792
  513TIP3   OH225733   2.837   0.884  17.824
  513TIP3    H125734   2.929   0.836  17.849
  513TIP3    H225735   2.798   0.811  17.762
  514TIP3   OH225736   4.060   0.493  18.311
  514TIP3    H125737   4.004   0.584  18.307
  514TIP3    H225738   4.056   0.469  18.405
  515TIP3   OH225739   2.567   0.338  18.208
  515TIP3    H125740   2.533   0.407  18.138
  515TIP3    H225741   2.485   0.345  18.272
  516TIP3   OH225742   2.806   1.186  18.181
  516TIP3    H125743   2.756   1.274  18.216
  516TIP3    H225744   2.890   1.230  18.134
  517TIP3   OH225745   3.720   0.454  17.846
  517TIP3    H125746   3.715   0.361  17.891
  517TIP3    H225747   3.810   0.493  17.887
  518TIP3   OH225748   2.533   0.543  17.993
  518TIP3    H125749   2.606   0.607  18.039
  518TIP3    H225750   2.586   0.514  17.911
  519TIP3   OH225751   2.676   1.415  18.298
  519TIP3    H125752   2.654   1.498  18.242
  519TIP3    H225753   2.583   1.400  18.346
  520TIP3   OH225754   2.222   1.342  17.384
  520TIP3    H125755   2.210   1.385  17.295
  520TIP3    H225756   2.278   1.418  17.429
  521TIP3   OH225757   3.775   0.237  18.222
  521TIP3    H125758   3.692   0.289  18.186
  521TIP3    H225759   3.835   0.224  18.141
  522TIP3   OH225760   2.997   0.103  17.906
  522TIP3    H125761   3.005   0.008  17.950
  522TIP3    H225762   2.934   0.157  17.968
  523TIP3   OH225763   3.849   1.353  18.448
  523TIP3    H125764   3.865   1.277  18.378
  523TIP3    H225765   3.858   1.442  18.394
  524TIP3   OH225766   3.240   0.970  17.383
  524TIP3    H125767   3.177   1.030  17.325
  524TIP3    H225768   3.333   0.971  17.334
  525TIP3   OH225769   3.300   0.826  17.122
  525TIP3    H125770   3.388   0.868  17.162
  525TIP3    H225771   3.339   0.734  17.089
  526TIP3   OH225772   4.051   0.954  18.228
  526TIP3    H125773   3.997   1.045  18.243
  526TIP3    H225774   4.112   0.984  18.152
  527TIP3   OH225775   3.650   1.003  17.503
  527TIP3    H125776   3.573   1.031  17.568
  527TIP3    H225777   3.720   0.949  17.561
  528TIP3   OH225778   3.593   0.807  18.435
  528TIP3    H125779   3.588   0.912  18.450
  528TIP3    H225780   3.514   0.795  18.370
  529TIP3   OH225781   2.686   1.085  17.681
  529TIP3    H125782   2.674   1.037  17.595
  529TIP3    H225783   2.746   1.013  17.730
  530TIP3   OH225784   2.852   1.437  17.952
  530TIP3    H125785   2.870   1.460  17.858
  530TIP3    H225786   2.940   1.385  17.980
  531TIP3   OH225787   2.701   0.953  18.060
  531TIP3    H125788   2.750   0.957  17.973
  531TIP3    H225789   2.747   1.034  18.110
  532TIP3   OH225790   3.483   1.569  18.130
  532TIP3    H125791   3.436   1.638  18.189
  532TIP3    H225792   3.444   1.475  18.159
  533TIP3   OH225793   2.853   1.449  18.510
  533TIP3    H125794   2.778   1.506  18.558
  533TIP3    H225795   2.806   1.438  18.422
  534TIP3   OH225796   3.522   0.932  17.273
  534TIP3    H125797   3.578   0.960  17.353
  534TIP3    H225798   3.571   0.997  17.207
  535TIP3   OH225799   2.457   1.096  18.411
  535TIP3    H125800   2.473   1.167  18.482
  535TIP3    H225801   2.387   1.030  18.453
  536TIP3   OH225802   3.220   1.709  17.639
  536TIP3    H125803   3.283   1.797  17.646
  536TIP3    H225804   3.211   1.703  17.544
  537TIP3   OH225805   2.658   1.646  18.610
  537TIP3    H125806   2.642   1.679  18.517
  537TIP3    H225807   2.555   1.624  18.635
  538TIP3   OH225808   3.909   0.081  17.288
  538TIP3    H125809   3.827   0.068  17.349
  538TIP3    H225810   3.878   0.171  17.246
  539TIP3   OH225811   2.576   0.981  17.418
  539TIP3    H125812   2.499   1.053  17.433
  539TIP3    H225813   2.520   0.892  17.398
  540TIP3   OH225814   2.185   1.289  18.346
  540TIP3    H125815   2.134   1.280  18.261
  540TIP3    H225816   2.232   1.194  18.351
  541TIP3   OH225817   2.175   1.552  18.021
  541TIP3    H125818   2.281   1.552  18.019
  541TIP3    H225819   2.155   1.639  18.072
  542TIP3   OH225820   4.127   1.623  18.588
  542TIP3    H125821   4.120   1.517  18.575
  542TIP3    H225822   4.033   1.640  18.633
  543TIP3   OH225823   3.115   1.594  18.508
  543TIP3    H125824   3.111   1.691  18.550
  543TIP3    H225825   3.014   1.556  18.511
  544TIP3   OH225826   2.487   1.866  17.660
  544TIP3    H125827   2.534   1.848  17.747
  544TIP3    H225828   2.392   1.816  17.674
  545TIP3   OH225829   3.782   0.707  18.636
  545TIP3    H125830   3.732   0.741  18.555
  545TIP3    H225831   3.783   0.603  18.617
  546TIP3   OH225832   2.427   1.420  18.434
  546TIP3    H125833   2.423   1.382  18.527
  546TIP3    H225834   2.338   1.376  18.397
  547TIP3   OH225835   2.756   0.220  18.038
  547TIP3    H125836   2.673   0.248  17.981
  547TIP3    H225837   2.718   0.264  18.122
  548TIP3   OH225838   3.165   0.185  18.446
  548TIP3    H125839   3.201   0.088  18.420
  548TIP3    H225840   3.073   0.186  18.397
  549TIP3   OH225841   3.585   0.499  18.469
  549TIP3    H125842   3.503   0.481  18.532
  549TIP3    H225843   3.563   0.602  18.446
  550TIP3   OH225844   3.692   1.049  17.094
  550TIP3    H125845   3.661   1.013  17.007
  550TIP3    H225846   3.794   1.076  17.073
  551TIP3   OH225847   3.198   0.356  17.140
  551TIP3    H125848   3.126   0.324  17.208
  551TIP3    H225849   3.164   0.310  17.059
  552TIP3   OH225850   2.722   0.682  18.158
  552TIP3    H125851   2.662   0.705  18.235
  552TIP3    H225852   2.715   0.779  18.112
  553TIP3   OH225853   2.711   0.686  17.640
  553TIP3    H125854   2.607   0.658  17.638
  553TIP3    H225855   2.746   0.653  17.550
  554TIP3   OH225856   3.344   0.744  17.527
  554TIP3    H125857   3.289   0.828  17.491
  554TIP3    H225858   3.398   0.716  17.449
  555TIP3   OH225859   3.204   0.810  18.686
  555TIP3    H125860   3.151   0.716  18.676
  555TIP3    H225861   3.293   0.777  18.730
  556TIP3   OH225862   3.428   0.670  17.836
  556TIP3    H125863   3.417   0.745  17.767
  556TIP3    H225864   3.443   0.583  17.781
  557TIP3   OH225865   2.405   0.702  18.297
  557TIP3    H125866   2.482   0.745  18.355
  557TIP3    H225867   2.397   0.602  18.332
  558TIP3   OH225868   2.119   0.415  17.730
  558TIP3    H125869   2.196   0.413  17.797
  558TIP3    H225870   2.166   0.375  17.651
  559TIP3   OH225871   2.211   0.450  17.269
  559TIP3    H125872   2.296   0.502  17.233
  559TIP3    H225873   2.149   0.534  17.298
  560TIP3   OH225874   3.310   0.878  18.244
  560TIP3    H125875   3.380   0.815  18.196
  560TIP3    H225876   3.277   0.806  18.313
  561TIP3   OH225877   3.014   0.421  17.741
  561TIP3    H125878   2.914   0.386  17.754
  561TIP3    H225879   3.057   0.394  17.827
  562TIP3   OH225880   2.425   0.597  17.634
  562TIP3    H125881   2.338   0.631  17.585
  562TIP3    H225882   2.458   0.512  17.583
  563TIP3   OH225883   2.798   0.592  17.403
  563TIP3    H125884   2.902   0.606  17.430
  563TIP3    H225885   2.786   0.670  17.339
  564TIP3   OH225886   3.497   0.345  18.065
  564TIP3    H125887   3.419   0.344  18.132
  564TIP3    H225888   3.461   0.284  17.993
  565TIP3   OH225889   2.632   0.817  17.136
  565TIP3    H125890   2.555   0.747  17.112
  565TIP3    H225891   2.724   0.777  17.102
  566TIP3   OH225892   3.806   2.077  18.706
  566TIP3    H125893   3.851   2.073  18.617
  566TIP3    H225894   3.891   2.104  18.759
  567TIP3   OH225895   2.443   1.255  18.672
  567TIP3    H125896   2.533   1.257  18.725
  567TIP3    H225897   2.372   1.217  18.736
  568TIP3   OH225898   3.124   0.741  17.908
  568TIP3    H125899   3.208   0.696  17.861
  568TIP3    H225900   3.115   0.673  17.983
  569TIP3   OH225901   2.583   0.333  17.546
  569TIP3    H125902   2.533   0.246  17.581
  569TIP3    H225903   2.668   0.290  17.502
  570TIP3   OH225904   3.025   0.571  18.158
  570TIP3    H125905   2.935   0.629  18.150
  570TIP3    H225906   3.054   0.602  18.247
  571TIP3   OH225907   3.001   1.183  17.337
  571TIP3    H125908   2.990   1.102  17.399
  571TIP3    H225909   3.006   1.265  17.398
  572TIP3   OH225910   3.867   1.187  18.231
  572TIP3    H125911   3.918   1.243  18.161
  572TIP3    H225912   3.773   1.164  18.187
  573TIP3   OH225913   3.472   0.473  17.071
  573TIP3    H125914   3.374   0.430  17.080
  573TIP3    H225915   3.485   0.516  17.159
  574TIP3   OH225916   3.167   1.255  18.467
  574TIP3    H125917   3.118   1.177  18.515
  574TIP3    H225918   3.144   1.343  18.518
  575TIP3   OH225919   3.544   0.631  17.306
  575TIP3    H125920   3.633   0.628  17.362
  575TIP3    H225921   3.542   0.738  17.289
  576TIP3   OH225922   2.518   1.188  17.909
  576TIP3    H125923   2.584   1.168  17.836
  576TIP3    H225924   2.532   1.104  17.968
  577TIP3   OH225925   2.166   0.977  18.475
  577TIP3    H125926   2.144   0.900  18.541
  577TIP3    H225927   2.112   0.941  18.396
  578TIP3   OH225928   2.954   0.960  18.659
  578TIP3    H125929   2.919   0.879  18.603
  578TIP3    H225930   3.057   0.928  18.664
  579TIP3   OH225931   3.485   1.508  18.490
  579TIP3    H125932   3.405   1.532  18.430
  579TIP3    H225933   3.454   1.561  18.571
  580TIP3   OH225934   4.078   0.691  17.298
  580TIP3    H125935   4.004   0.662  17.235
  580TIP3    H225936   4.084   0.799  17.281
  581TIP3   OH225937   4.105   1.306  18.588
  581TIP3    H125938   4.001   1.323  18.571
  581TIP3    H225939   4.143   1.290  18.497
  582TIP3   OH225940   3.949   1.594  17.336
  582TIP3    H125941   3.898   1.505  17.313
  582TIP3    H225942   3.936   1.660  17.261
  583TIP3   OH225943   3.616   1.060  18.066
  583TIP3    H125944   3.512   1.039  18.051
  583TIP3    H225945   3.661   0.991  18.003
  584TIP3   OH225946   2.771   1.542  17.678
  584TIP3    H125947   2.825   1.627  17.644
  584TIP3    H225948   2.673   1.566  17.645
  585TIP3   OH225949   2.334   0.989  17.153
  585TIP3    H125950   2.317   1.088  17.123
  585TIP3    H225951   2.232   0.959  17.171
  586TIP3   OH225952   2.949   1.301  17.605
  586TIP3    H125953   2.904   1.399  17.603
  586TIP3    H225954   2.895   1.258  17.679
  587TIP3   OH225955   2.993   1.751  18.287
  587TIP3    H125956   3.058   1.822  18.242
  587TIP3    H225957   3.057   1.712  18.357
  588TIP3   OH225958   2.751   1.793  17.528
  588TIP3    H125959   2.661   1.836  17.566
  588TIP3    H225960   2.826   1.861  17.566
  589TIP3   OH225961   3.312   1.301  18.229
  589TIP3    H125962   3.261   1.274  18.315
  589TIP3    H225963   3.362   1.210  18.209
  590TIP3   OH225964   3.687   1.788  18.448
  590TIP3    H125965   3.587   1.750  18.431
  590TIP3    H225966   3.693   1.868  18.382
  591TIP3   OH225967   4.106   1.957  17.143
  591TIP3    H125968   4.120   2.034  17.078
  591TIP3    H225969   4.035   2.004  17.201
  592TIP3   OH225970   2.349   0.400  18.384
  592TIP3    H125971   2.247   0.432  18.380
  592TIP3    H225972   2.341   0.309  18.435
  593TIP3   OH225973   3.703   1.264  17.381
  593TIP3    H125974   3.687   1.166  17.416
  593TIP3    H225975   3.809   1.270  17.385
  594TIP3   OH225976   2.339   1.716  18.232
  594TIP3    H125977   2.402   1.632  18.247
  594TIP3    H225978   2.339   1.758  18.321
  595TIP3   OH225979   2.836   1.491  17.280
  595TIP3    H125980   2.935   1.469  17.252
  595TIP3    H225981   2.838   1.598  17.278
  596TIP3   OH225982   3.347   0.363  18.312
  596TIP3    H125983   3.424   0.371  18.379
  596TIP3    H225984   3.276   0.304  18.362
  597TIP3   OH225985   3.398   0.319  17.445
  597TIP3    H125986   3.377   0.387  17.373
  597TIP3    H225987   3.461   0.377  17.505
  598TIP3   OH225988   3.077   0.548  17.500
  598TIP3    H125989   3.181   0.572  17.509
  598TIP3    H225990   3.053   0.508  17.589
  599TIP3   OH225991   3.293   0.642  18.411
  599TIP3    H125992   3.203   0.664  18.460
  599TIP3    H225993   3.280   0.540  18.384
  600TIP3   OH225994   3.174   0.212  17.571
  600TIP3    H125995   3.150   0.284  17.641
  600TIP3    H225996   3.273   0.248  17.544
  601TIP3   OH225997   2.796   1.808  17.263
  601TIP3    H125998   2.847   1.898  17.238
  601TIP3    H225999   2.778   1.821  17.360
  602TIP3   OH226000   3.852   0.404  18.507
  602TIP3    H126001   3.747   0.421  18.517
  602TIP3    H226002   3.857   0.383  18.411
  603TIP3   OH226003   3.697   0.788  17.888
  603TIP3    H126004   3.617   0.718  17.896
  603TIP3    H226005   3.774   0.739  17.941
  604TIP3   OH226006   2.331   0.708  17.051
  604TIP3    H126007   2.362   0.801  17.093
  604TIP3    H226008   2.265   0.747  16.983
  605TIP3   OH226009   3.793   1.858  18.069
  605TIP3    H126010   3.785   1.939  18.005
  605TIP3    H226011   3.898   1.857  18.086
  606TIP3   OH226012   2.443   0.172  17.941
  606TIP3    H126013   2.423   0.154  17.847
  606TIP3    H226014   2.427   0.071  17.975
  607TIP3   OH226015   2.273   1.639  17.566
  607TIP3    H126016   2.187   1.694  17.538
  607TIP3    H226017   2.343   1.676  17.503
  608TIP3   OH226018   2.207   1.916  18.686
  608TIP3    H126019   2.278   1.896  18.758
  608TIP3    H226020   2.170   1.816  18.669
  609TIP3   OH226021   2.747   1.814  18.830
  609TIP3    H126022   2.844   1.774  18.853
  609TIP3    H226023   2.731   1.773  18.741
  610TIP3   OH226024   3.435   1.649  18.727
  610TIP3    H126025   3.396   1.553  18.759
  610TIP3    H226026   3.529   1.649  18.778
  611TIP3   OH226027   2.174   1.234  18.796
  611TIP3    H126028   2.143   1.132  18.793
  611TIP3    H226029   2.127   1.270  18.713
  612TIP3   OH226030   2.943   1.258  18.703
  612TIP3    H126031   2.915   1.310  18.620
  612TIP3    H226032   2.934   1.153  18.680
  613TIP3   OH226033   3.579   1.207  18.478
  613TIP3    H126034   3.669   1.266  18.473
  613TIP3    H226035   3.509   1.287  18.494
  614TIP3   OH226036   2.351   0.908  18.757
  614TIP3    H126037   2.411   0.821  18.763
  614TIP3    H226038   2.385   0.970  18.830
  615TIP3   OH226039   2.659   0.833  18.398
  615TIP3    H126040   2.645   0.917  18.454
  615TIP3    H226041   2.765   0.837  18.386
  616TIP3   OH226042   2.971   0.890  17.083
  616TIP3    H126043   2.948   0.900  16.989
  616TIP3    H226044   3.071   0.851  17.085
  617TIP3   OH226045   3.337   1.129  18.797
  617TIP3    H126046   3.422   1.104  18.741
  617TIP3    H226047   3.279   1.039  18.790
  618TIP3   OH226048   3.941   1.086  16.964
  618TIP3    H126049   3.962   1.064  16.871
  618TIP3    H226050   3.983   1.183  16.973
  619TIP3   OH226051   2.711   0.413  18.553
  619TIP3    H126052   2.778   0.351  18.501
  619TIP3    H226053   2.754   0.507  18.527
  620TIP3   OH226054   2.837   0.363  18.319
  620TIP3    H126055   2.884   0.441  18.267
  620TIP3    H226056   2.732   0.389  18.314
  621TIP3   OH226057   2.963   1.009  18.366
  621TIP3    H126058   3.053   0.987  18.318
  621TIP3    H226059   2.912   1.071  18.304
  622TIP3   OH226060   3.494   0.690  18.841
  622TIP3    H126061   3.526   0.587  18.845
  622TIP3    H226062   3.585   0.744  18.856
  623TIP3   OH226063   3.638   1.034  18.690
  623TIP3    H126064   3.610   1.091  18.611
  623TIP3    H226065   3.731   0.994  18.660
  624TIP3   OH226066   2.631   0.645  18.764
  624TIP3    H126067   2.537   0.601  18.737
  624TIP3    H226068   2.694   0.612  18.692
  625TIP3   OH226069   2.919   0.089  18.318
  625TIP3    H126070   2.907   0.196  18.323
  625TIP3    H226071   2.827   0.067  18.277
  626TIP3   OH226072   3.049   0.525  18.764
  626TIP3    H126073   2.967   0.510  18.825
  626TIP3    H226074   2.995   0.532  18.679
  627TIP3   OH226075   3.364   0.433  18.652
  627TIP3    H126076   3.259   0.453  18.658
  627TIP3    H226077   3.375   0.359  18.720
  628TIP3   OH226078   3.615   0.318  18.844
  628TIP3    H126079   3.577   0.216  18.837
  628TIP3    H226080   3.552   0.355  18.916
  629TIP3   OH226081   2.405   0.453  18.774
  629TIP3    H126082   2.454   0.383  18.718
  629TIP3    H226083   2.385   0.397  18.857
  630TIP3   OH226084   2.903   0.065  18.612
  630TIP3    H126085   2.875  -0.041  18.604
  630TIP3    H226086   2.971   0.078  18.538
  631TIP3   OH226087   2.972   0.138  18.876
  631TIP3    H126088   2.973   0.103  18.783
  631TIP3    H226089   2.915   0.227  18.866
  632TIP3   OH226090   2.956   2.089  17.157
  632TIP3    H126091   3.047   2.089  17.204
  632TIP3    H226092   2.949   2.192  17.131
  633TIP3   OH226093   2.085   2.015  17.601
  633TIP3    H126094   2.002   1.958  17.564
  633TIP3    H226095   2.122   1.948  17.670
  634TIP3   OH226096   2.161   1.827  17.790
  634TIP3    H126097   2.092   1.747  17.804
  634TIP3    H226098   2.191   1.848  17.881
  635TIP3   OH226099   4.080   1.954  18.115
  635TIP3    H126100   4.106   1.967  18.209
  635TIP3    H226101   4.165   2.002  18.074
  636TIP3   OH226102   4.037   1.840  18.383
  636TIP3    H126103   4.007   1.757  18.326
  636TIP3    H226104   4.064   1.790  18.466
  637TIP3   OH226105   3.894   1.378  18.864
  637TIP3    H126106   3.792   1.387  18.897
  637TIP3    H226107   3.936   1.471  18.896
  638TIP3   OH226108   3.988   1.227  17.416
  638TIP3    H126109   4.090   1.262  17.416
  638TIP3    H226110   3.997   1.131  17.461
  639TIP3   OH226111   4.054   0.994  17.583
  639TIP3    H126112   3.974   0.932  17.616
  639TIP3    H226113   4.117   1.012  17.660
  640TIP3   OH226114   4.027   1.301  18.038
  640TIP3    H126115   4.101   1.225  18.020
  640TIP3    H226116   4.081   1.391  18.021
  641TIP3   OH226117   3.880   1.608  18.290
  641TIP3    H126118   3.816   1.665  18.350
  641TIP3    H226119   3.814   1.595  18.215
  642TIP3   OH226120   4.084   0.972  17.242
  642TIP3    H126121   4.028   1.014  17.169
  642TIP3    H226122   4.158   1.047  17.258
  643TIP3   OH226123   3.826   0.843  17.653
  643TIP3    H126124   3.809   0.743  17.625
  643TIP3    H226125   3.789   0.840  17.745
  644TIP3   OH226126   2.168   1.088  18.054
  644TIP3    H126127   2.179   1.066  17.957
  644TIP3    H226128   2.269   1.063  18.083
  645TIP3   OH226129   3.956   1.037  18.590
  645TIP3    H126130   4.001   0.947  18.625
  645TIP3    H226131   4.043   1.092  18.560
  646TIP3   OH226132   4.061   0.773  18.672
  646TIP3    H126133   3.962   0.732  18.656
  646TIP3    H226134   4.121   0.683  18.680
  647TIP3   OH226135   3.799   0.606  17.455
  647TIP3    H126136   3.822   0.503  17.480
  647TIP3    H226137   3.901   0.638  17.445
  648TIP3   OH226138   3.891   0.641  18.049
  648TIP3    H126139   3.999   0.660  18.056
  648TIP3    H226140   3.869   0.642  18.144
  649TIP3   OH226141   3.875   0.734  18.311
  649TIP3    H126142   3.773   0.765  18.323
  649TIP3    H226143   3.925   0.823  18.276
  650TIP3   OH226144   2.155   0.527  18.668
  650TIP3    H126145   2.253   0.509  18.711
  650TIP3    H226146   2.106   0.433  18.690
  651TIP3   OH226147   4.172   0.089  18.839
  651TIP3    H126148   4.266   0.078  18.793
  651TIP3    H226149   4.128   0.160  18.776
  652TIP3   OH226150   3.887   0.337  17.494
  652TIP3    H126151   3.929   0.285  17.571
  652TIP3    H226152   3.802   0.273  17.476
  653TIP3   OH226153   2.256   0.404  17.990
  653TIP3    H126154   2.289   0.305  18.013
  653TIP3    H226155   2.352   0.452  17.984
  654TIP3   OH226156   2.094   0.716  18.061
  654TIP3    H126157   2.153   0.695  17.981
  654TIP3    H226158   2.165   0.778  18.107
  655TIP3   OH226159   4.041   0.284  18.687
  655TIP3    H126160   3.957   0.350  18.694
  655TIP3    H226161   4.024   0.241  18.598
  656TIP3   OH226162   2.122   0.265  17.477
  656TIP3    H126163   2.019   0.294  17.473
  656TIP3    H226164   2.157   0.317  17.397
  657TIP3   OH226165   2.151   0.176  18.281
  657TIP3    H126166   2.085   0.185  18.358
  657TIP3    H226167   2.094   0.229  18.214
  658TIP3   OH226168   2.372   1.570  18.690
  658TIP3    H126169   2.276   1.602  18.657
  658TIP3    H226170   2.350   1.503  18.762
  659TIP3   OH226171   2.697   1.745  18.352
  659TIP3    H126172   2.696   1.845  18.316
  659TIP3    H226173   2.803   1.727  18.349
  660TIP3   OH226174   3.143   1.880  18.604
  660TIP3    H126175   3.163   1.845  18.695
  660TIP3    H226176   3.240   1.918  18.580
  661TIP3   OH226177   3.394   2.032  18.553
  661TIP3    H126178   3.479   1.977  18.526
  661TIP3    H226179   3.429   2.073  18.639
  662TIP3   OH226180   3.994   0.151  18.444
  662TIP3    H126181   3.904   0.174  18.396
  662TIP3    H226182   3.972   0.047  18.466
  663TIP3   OH226183   2.404   2.064  18.307
  663TIP3    H126184   2.311   2.110  18.278
  663TIP3    H226185   2.395   2.070  18.404
  664TIP3   OH226186   2.682   2.003  18.223
  664TIP3    H126187   2.577   2.022  18.243
  664TIP3    H226188   2.693   2.062  18.142
  665TIP3   OH226189   3.160   1.961  18.163
  665TIP3    H126190   3.104   2.010  18.090
  665TIP3    H226191   3.197   2.047  18.211
  666TIP3   OH226192   3.402   1.816  18.294
  666TIP3    H126193   3.317   1.863  18.253
  666TIP3    H226194   3.478   1.888  18.272
  667TIP3   OH226195   3.694   2.014  18.274
  667TIP3    H126196   3.691   2.115  18.242
  667TIP3    H226197   3.728   1.964  18.192
  668TIP3   OH226198   2.361   1.884  18.006
  668TIP3    H126199   2.342   1.823  18.085
  668TIP3    H226200   2.462   1.851  17.983
  669TIP3   OH226201   2.610   1.773  17.890
  669TIP3    H126202   2.596   1.670  17.915
  669TIP3    H226203   2.709   1.791  17.926
  670TIP3   OH226204   2.863   1.742  18.026
  670TIP3    H126205   2.900   1.642  18.018
  670TIP3    H226206   2.888   1.762  18.119
  671TIP3   OH226207   3.227   0.294  17.894
  671TIP3    H126208   3.169   0.205  17.898
  671TIP3    H226209   3.308   0.264  17.835
  672TIP3   OH226210   3.776   0.129  17.878
  672TIP3    H126211   3.859   0.152  17.817
  672TIP3    H226212   3.699   0.108  17.815
  673TIP3   OH226213   3.986   0.169  17.695
  673TIP3    H126214   4.037   0.091  17.650
  673TIP3    H226215   4.067   0.235  17.726
  674TIP3   OH226216   2.402   0.132  17.650
  674TIP3    H126217   2.349   0.155  17.567
  674TIP3    H226218   2.383   0.026  17.659
  675TIP3   OH226219   2.344   0.100  17.351
  675TIP3    H126220   2.371   0.182  17.294
  675TIP3    H226221   2.237   0.105  17.354
  676TIP3   OH226222   2.905   0.131  17.650
  676TIP3    H126223   2.994   0.162  17.602
  676TIP3    H226224   2.939   0.127  17.743
  677TIP3   OH226225   3.480   0.161  17.783
  677TIP3    H126226   3.518   0.164  17.692
  677TIP3    H226227   3.483   0.056  17.806
  678TIP3   OH226228   3.648   0.177  17.444
  678TIP3    H126229   3.554   0.217  17.410
  678TIP3    H226230   3.632   0.073  17.425
  679TIP3   OH226231   2.213   1.813  17.341
  679TIP3    H126232   2.209   1.769  17.254
  679TIP3    H226233   2.225   1.917  17.321
  680TIP3   OH226234   2.988   0.301  17.337
  680TIP3    H126235   3.057   0.255  17.398
  680TIP3    H226236   2.987   0.402  17.372
  681TIP3   OH226237   2.330   0.119  18.671
  681TIP3    H126238   2.349   0.030  18.622
  681TIP3    H226239   2.425   0.138  18.712
  682TIP3   OH226240   2.600   0.118  18.773
  682TIP3    H126241   2.694   0.156  18.739
  682TIP3    H226242   2.615   0.012  18.750
  683TIP3   OH226243   2.451   1.972  17.035
  683TIP3    H126244   2.407   2.008  17.119
  683TIP3    H226245   2.510   1.891  17.066
  684TIP3   OH226246   3.491   0.036  18.815
  684TIP3    H126247   3.453  -0.062  18.836
  684TIP3    H226248   3.567   0.011  18.753
  685TIP3   OH226249   3.876   1.751  18.655
  685TIP3    H126250   3.803   1.750  18.582
  685TIP3    H226251   3.861   1.848  18.692
  686TIP3   OH226252   5.455   1.100  17.671
  686TIP3    H126253   5.443   1.207  17.660
  686TIP3    H226254   5.374   1.063  17.620
  687TIP3   OH226255   5.295   0.966  18.042
  687TIP3    H126256   5.304   0.912  18.126
  687TIP3    H226257   5.263   0.886  17.983
  688TIP3   OH226258   4.480   0.998  18.179
  688TIP3    H126259   4.504   0.899  18.205
  688TIP3    H226260   4.576   1.044  18.186
  689TIP3   OH226261   4.611   1.463  17.972
  689TIP3    H126262   4.576   1.362  17.962
  689TIP3    H226263   4.708   1.452  17.927
  690TIP3   OH226264   4.238   0.711  17.542
  690TIP3    H126265   4.202   0.804  17.574
  690TIP3    H226266   4.227   0.729  17.445
  691TIP3   OH226267   4.296   1.002  17.800
  691TIP3    H126268   4.354   0.914  17.817
  691TIP3    H226269   4.369   1.075  17.773
  692TIP3   OH226270   5.297   1.267  17.979
  692TIP3    H126271   5.289   1.160  17.978
  692TIP3    H226272   5.237   1.294  18.058
  693TIP3   OH226273   6.104   0.324  18.099
  693TIP3    H126274   6.112   0.396  18.173
  693TIP3    H226275   6.167   0.373  18.033
  694TIP3   OH226276   5.556   0.678  18.098
  694TIP3    H126277   5.566   0.571  18.100
  694TIP3    H226278   5.523   0.694  18.006
  695TIP3   OH226279   4.777   0.432  17.779
  695TIP3    H126280   4.788   0.521  17.724
  695TIP3    H226281   4.728   0.367  17.715
  696TIP3   OH226282   5.601   0.459  17.661
  696TIP3    H126283   5.662   0.429  17.738
  696TIP3    H226284   5.672   0.527  17.620
  697TIP3   OH226285   4.372   0.715  17.889
  697TIP3    H126286   4.436   0.661  17.949
  697TIP3    H226287   4.412   0.685  17.802
  698TIP3   OH226288   4.928   0.887  17.836
  698TIP3    H126289   5.031   0.864  17.847
  698TIP3    H226290   4.898   0.807  17.776
  699TIP3   OH226291   6.127   0.498  18.317
  699TIP3    H126292   6.083   0.597  18.302
  699TIP3    H226293   6.124   0.491  18.414
  700TIP3   OH226294   4.634   0.345  18.209
  700TIP3    H126295   4.600   0.404  18.132
  700TIP3    H226296   4.553   0.354  18.273
  701TIP3   OH226297   5.418   1.362  17.559
  701TIP3    H126298   5.389   1.338  17.468
  701TIP3    H226299   5.409   1.466  17.556
  702TIP3   OH226300   4.840   1.128  18.273
  702TIP3    H126301   4.772   1.198  18.313
  702TIP3    H226302   4.915   1.202  18.247
  703TIP3   OH226303   5.819   0.427  17.831
  703TIP3    H126304   5.792   0.388  17.919
  703TIP3    H226305   5.912   0.471  17.853
  704TIP3   OH226306   4.621   0.541  17.999
  704TIP3    H126307   4.688   0.616  18.034
  704TIP3    H226308   4.674   0.509  17.917
  705TIP3   OH226309   4.722   1.399  18.313
  705TIP3    H126310   4.711   1.454  18.230
  705TIP3    H226311   4.623   1.404  18.352
  706TIP3   OH226312   4.252   1.345  17.383
  706TIP3    H126313   4.283   1.412  17.314
  706TIP3    H226314   4.304   1.385  17.460
  707TIP3   OH226315   5.819   1.552  18.084
  707TIP3    H126316   5.711   1.556  18.094
  707TIP3    H226317   5.828   1.616  18.007
  708TIP3   OH226318   5.849   0.211  18.208
  708TIP3    H126319   5.771   0.243  18.147
  708TIP3    H226320   5.933   0.213  18.148
  709TIP3   OH226321   5.092   0.101  17.891
  709TIP3    H126322   5.091   0.001  17.929
  709TIP3    H226323   5.027   0.152  17.955
  710TIP3   OH226324   5.639   1.733  17.716
  710TIP3    H126325   5.651   1.645  17.661
  710TIP3    H226326   5.652   1.811  17.652
  711TIP3   OH226327   5.920   1.366  18.448
  711TIP3    H126328   5.931   1.284  18.384
  711TIP3    H226329   5.936   1.450  18.388
  712TIP3   OH226330   5.297   0.947  17.364
  712TIP3    H126331   5.244   1.041  17.367
  712TIP3    H226332   5.389   0.979  17.324
  713TIP3   OH226333   5.387   0.828  17.118
  713TIP3    H126334   5.479   0.866  17.156
  713TIP3    H226335   5.423   0.785  17.036
  714TIP3   OH226336   6.152   0.974  18.244
  714TIP3    H126337   6.071   1.043  18.231
  714TIP3    H226338   6.216   1.010  18.171
  715TIP3   OH226339   5.700   0.809  18.428
  715TIP3    H126340   5.679   0.905  18.464
  715TIP3    H226341   5.635   0.809  18.349
  716TIP3   OH226342   4.757   1.087  17.690
  716TIP3    H126343   4.745   1.067  17.595
  716TIP3    H226344   4.829   1.012  17.716
  717TIP3   OH226345   4.900   1.476  17.913
  717TIP3    H126346   4.951   1.419  17.843
  717TIP3    H226347   4.953   1.442  17.993
  718TIP3   OH226348   4.773   0.958  18.066
  718TIP3    H126349   4.836   0.955  17.985
  718TIP3    H226350   4.818   1.037  18.117
  719TIP3   OH226351   5.518   1.581  18.118
  719TIP3    H126352   5.486   1.639  18.195
  719TIP3    H226353   5.485   1.482  18.145
  720TIP3   OH226354   4.939   1.438  18.506
  720TIP3    H126355   4.857   1.489  18.548
  720TIP3    H226356   4.900   1.419  18.415
  721TIP3   OH226357   5.609   0.979  17.286
  721TIP3    H126358   5.635   1.059  17.347
  721TIP3    H226359   5.678   1.003  17.212
  722TIP3   OH226360   4.612   0.967  18.454
  722TIP3    H126361   4.629   1.072  18.459
  722TIP3    H226362   4.523   0.960  18.508
  723TIP3   OH226363   4.729   1.631  18.606
  723TIP3    H126364   4.709   1.675  18.517
  723TIP3    H226365   4.629   1.617  18.638
  724TIP3   OH226366   6.007   0.101  17.315
  724TIP3    H126367   5.937   0.115  17.241
  724TIP3    H226368   6.087   0.160  17.278
  725TIP3   OH226369   4.690   0.971  17.437
  725TIP3    H126370   4.621   1.049  17.409
  725TIP3    H226371   4.624   0.887  17.439
  726TIP3   OH226372   4.220   1.281  18.344
  726TIP3    H126373   4.158   1.276  18.265
  726TIP3    H226374   4.276   1.189  18.336
  727TIP3   OH226375   4.226   1.565  17.996
  727TIP3    H126376   4.331   1.547  18.002
  727TIP3    H226377   4.215   1.638  18.065
  728TIP3   OH226378   6.229   1.626  18.607
  728TIP3    H126379   6.204   1.525  18.585
  728TIP3    H226380   6.131   1.661  18.635
  729TIP3   OH226381   5.222   1.549  18.517
  729TIP3    H126382   5.207   1.656  18.513
  729TIP3    H226383   5.119   1.517  18.505
  730TIP3   OH226384   5.549   1.904  17.145
  730TIP3    H126385   5.603   1.816  17.124
  730TIP3    H226386   5.600   1.940  17.223
  731TIP3   OH226387   5.862   0.677  18.644
  731TIP3    H126388   5.817   0.716  18.564
  731TIP3    H226389   5.870   0.573  18.619
  732TIP3   OH226390   4.465   1.411  18.437
  732TIP3    H126391   4.484   1.372  18.527
  732TIP3    H226392   4.366   1.374  18.417
  733TIP3   OH226393   4.832   0.226  18.036
  733TIP3    H126394   4.765   0.263  17.968
  733TIP3    H226395   4.793   0.277  18.114
  734TIP3   OH226396   5.234   0.188  18.420
  734TIP3    H126397   5.286   0.094  18.426
  734TIP3    H226398   5.152   0.154  18.363
  735TIP3   OH226399   5.647   0.512  18.446
  735TIP3    H126400   5.576   0.488  18.517
  735TIP3    H226401   5.675   0.612  18.468
  736TIP3   OH226402   5.224   0.464  17.152
  736TIP3    H126403   5.205   0.375  17.205
  736TIP3    H226404   5.156   0.451  17.078
  737TIP3   OH226405   4.801   0.685  18.166
  737TIP3    H126406   4.711   0.669  18.218
  737TIP3    H226407   4.794   0.790  18.144
  738TIP3   OH226408   4.804   0.690  17.646
  738TIP3    H126409   4.697   0.688  17.643
  738TIP3    H226410   4.827   0.653  17.556
  739TIP3   OH226411   5.447   0.739  17.511
  739TIP3    H126412   5.408   0.824  17.463
  739TIP3    H226413   5.492   0.683  17.441
  740TIP3   OH226414   5.268   0.790  18.667
  740TIP3    H126415   5.226   0.694  18.693
  740TIP3    H226416   5.357   0.788  18.720
  741TIP3   OH226417   5.519   0.682  17.815
  741TIP3    H126418   5.499   0.759  17.748
  741TIP3    H226419   5.530   0.597  17.755
  742TIP3   OH226420   4.532   0.697  18.290
  742TIP3    H126421   4.558   0.748  18.373
  742TIP3    H226422   4.491   0.605  18.323
  743TIP3   OH226423   4.850   0.476  17.023
  743TIP3    H126424   4.826   0.377  17.050
  743TIP3    H226425   4.862   0.460  16.926
  744TIP3   OH226426   4.193   0.378  17.729
  744TIP3    H126427   4.259   0.396  17.804
  744TIP3    H226428   4.207   0.466  17.676
  745TIP3   OH226429   5.387   0.833  18.269
  745TIP3    H126430   5.457   0.783  18.209
  745TIP3    H226431   5.346   0.750  18.320
  746TIP3   OH226432   5.101   0.438  17.718
  746TIP3    H126433   5.003   0.397  17.738
  746TIP3    H226434   5.151   0.417  17.803
  747TIP3   OH226435   4.492   0.592  17.641
  747TIP3    H126436   4.407   0.619  17.587
  747TIP3    H226437   4.541   0.513  17.590
  748TIP3   OH226438   4.837   0.596  17.395
  748TIP3    H126439   4.939   0.620  17.407
  748TIP3    H226440   4.801   0.669  17.329
  749TIP3   OH226441   5.573   0.331  18.054
  749TIP3    H126442   5.506   0.337  18.132
  749TIP3    H226443   5.519   0.271  17.991
  750TIP3   OH226444   4.714   0.747  17.197
  750TIP3    H126445   4.628   0.691  17.170
  750TIP3    H226446   4.772   0.748  17.116
  751TIP3   OH226447   5.865   2.085  18.722
  751TIP3    H126448   5.878   2.115  18.630
  751TIP3    H226449   5.964   2.094  18.758
  752TIP3   OH226450   4.526   1.243  18.669
  752TIP3    H126451   4.611   1.234  18.730
  752TIP3    H226452   4.446   1.207  18.723
  753TIP3   OH226453   5.229   0.717  17.923
  753TIP3    H126454   5.309   0.675  17.869
  753TIP3    H226455   5.195   0.630  17.970
  754TIP3   OH226456   4.638   0.327  17.561
  754TIP3    H126457   4.598   0.237  17.601
  754TIP3    H226458   4.710   0.289  17.497
  755TIP3   OH226459   5.058   0.520  18.175
  755TIP3    H126460   4.991   0.605  18.174
  755TIP3    H226461   5.141   0.559  18.225
  756TIP3   OH226462   5.938   1.195  18.234
  756TIP3    H126463   5.985   1.245  18.159
  756TIP3    H226464   5.834   1.196  18.211
  757TIP3   OH226465   5.523   0.470  17.086
  757TIP3    H126466   5.421   0.473  17.117
  757TIP3    H226467   5.575   0.519  17.157
  758TIP3   OH226468   5.336   1.263  18.518
  758TIP3    H126469   5.250   1.202  18.503
  758TIP3    H226470   5.294   1.362  18.526
  759TIP3   OH226471   5.628   0.661  17.300
  759TIP3    H126472   5.702   0.637  17.368
  759TIP3    H226473   5.644   0.767  17.291
  760TIP3   OH226474   4.578   1.176  17.902
  760TIP3    H126475   4.643   1.163  17.825
  760TIP3    H226476   4.611   1.098  17.961
  761TIP3   OH226477   4.228   0.977  18.464
  761TIP3    H126478   4.223   0.905  18.537
  761TIP3    H226479   4.168   0.930  18.395
  762TIP3   OH226480   5.019   0.944  18.653
  762TIP3    H126481   4.974   0.873  18.593
  762TIP3    H226482   5.115   0.896  18.667
  763TIP3   OH226483   5.563   1.550  18.488
  763TIP3    H126484   5.470   1.539  18.441
  763TIP3    H226485   5.530   1.581  18.577
  764TIP3   OH226486   6.158   0.674  17.334
  764TIP3    H126487   6.098   0.624  17.267
  764TIP3    H226488   6.150   0.780  17.309
  765TIP3   OH226489   6.169   1.307  18.578
  765TIP3    H126490   6.068   1.327  18.549
  765TIP3    H226491   6.218   1.298  18.491
  766TIP3   OH226492   4.990   1.340  17.629
  766TIP3    H126493   5.000   1.366  17.534
  766TIP3    H226494   4.897   1.288  17.633
  767TIP3   OH226495   5.048   1.729  18.293
  767TIP3    H126496   5.115   1.796  18.251
  767TIP3    H226497   5.069   1.636  18.249
  768TIP3   OH226498   5.431   1.307  18.240
  768TIP3    H126499   5.398   1.289  18.332
  768TIP3    H226500   5.422   1.210  18.201
  769TIP3   OH226501   5.751   1.803  18.473
  769TIP3    H126502   5.655   1.752  18.464
  769TIP3    H226503   5.750   1.866  18.393
  770TIP3   OH226504   6.201   1.969  17.221
  770TIP3    H126505   6.191   2.037  17.146
  770TIP3    H226506   6.110   1.914  17.215
  771TIP3   OH226507   4.428   0.387  18.406
  771TIP3    H126508   4.345   0.450  18.429
  771TIP3    H226509   4.385   0.289  18.416
  772TIP3   OH226510   4.390   1.676  18.249
  772TIP3    H126511   4.474   1.609  18.244
  772TIP3    H226512   4.400   1.713  18.339
  773TIP3   OH226513   4.516   1.175  17.329
  773TIP3    H126514   4.417   1.175  17.292
  773TIP3    H226515   4.558   1.252  17.272
  774TIP3   OH226516   5.412   0.382  18.302
  774TIP3    H126517   5.485   0.403  18.371
  774TIP3    H226518   5.350   0.309  18.350
  775TIP3   OH226519   5.455   0.364  17.452
  775TIP3    H126520   5.513   0.420  17.390
  775TIP3    H226521   5.516   0.373  17.533
  776TIP3   OH226522   5.137   0.568  17.465
  776TIP3    H126523   5.243   0.572  17.480
  776TIP3    H226524   5.106   0.528  17.552
  777TIP3   OH226525   5.268   0.638  18.437
  777TIP3    H126526   5.269   0.695  18.520
  777TIP3    H226527   5.286   0.536  18.462
  778TIP3   OH226528   5.246   0.207  17.563
  778TIP3    H126529   5.223   0.282  17.630
  778TIP3    H226530   5.339   0.243  17.527
  779TIP3   OH226531   4.791   0.310  17.314
  779TIP3    H126532   4.781   0.416  17.324
  779TIP3    H226533   4.897   0.298  17.322
  780TIP3   OH226534   5.914   0.421  18.503
  780TIP3    H126535   5.807   0.431  18.492
  780TIP3    H226536   5.941   0.395  18.411
  781TIP3   OH226537   5.772   0.821  17.894
  781TIP3    H126538   5.681   0.767  17.888
  781TIP3    H226539   5.837   0.755  17.946
  782TIP3   OH226540   4.599   1.406  17.177
  782TIP3    H126541   4.676   1.455  17.226
  782TIP3    H226542   4.655   1.342  17.118
  783TIP3   OH226543   4.390   0.653  17.079
  783TIP3    H126544   4.372   0.757  17.098
  783TIP3    H226545   4.400   0.657  16.982
  784TIP3   OH226546   5.870   1.845  18.028
  784TIP3    H126547   5.908   1.856  17.937
  784TIP3    H226548   5.962   1.839  18.078
  785TIP3   OH226549   4.490   0.180  17.920
  785TIP3    H126550   4.478   0.156  17.825
  785TIP3    H226551   4.485   0.081  17.958
  786TIP3   OH226552   4.376   1.566  17.522
  786TIP3    H126553   4.343   1.639  17.585
  786TIP3    H226554   4.372   1.626  17.440
  787TIP3   OH226555   4.278   1.932  18.687
  787TIP3    H126556   4.351   1.913  18.758
  787TIP3    H226557   4.249   1.832  18.662
  788TIP3   OH226558   4.819   1.806  18.827
  788TIP3    H126559   4.919   1.771  18.843
  788TIP3    H226560   4.798   1.759  18.742
  789TIP3   OH226561   5.511   1.665  18.739
  789TIP3    H126562   5.470   1.567  18.758
  789TIP3    H226563   5.607   1.657  18.786
  790TIP3   OH226564   4.253   1.231  18.808
  790TIP3    H126565   4.215   1.133  18.822
  790TIP3    H226566   4.200   1.257  18.726
  791TIP3   OH226567   5.019   1.240  18.696
  791TIP3    H126568   5.000   1.302  18.617
  791TIP3    H226569   5.030   1.141  18.659
  792TIP3   OH226570   5.635   1.212  18.483
  792TIP3    H126571   5.715   1.286  18.481
  792TIP3    H226572   5.547   1.275  18.494
  793TIP3   OH226573   4.423   0.913  18.771
  793TIP3    H126574   4.500   0.840  18.778
  793TIP3    H226575   4.442   0.978  18.847
  794TIP3   OH226576   4.950   0.952  17.240
  794TIP3    H126577   4.866   0.955  17.302
  794TIP3    H226578   4.914   1.026  17.179
  795TIP3   OH226579   4.863   0.790  18.444
  795TIP3    H126580   4.772   0.843  18.459
  795TIP3    H226581   4.914   0.857  18.383
  796TIP3   OH226582   5.399   1.112  18.814
  796TIP3    H126583   5.472   1.082  18.751
  796TIP3    H226584   5.382   1.022  18.866
  797TIP3   OH226585   4.903   0.532  18.560
  797TIP3    H126586   4.912   0.464  18.484
  797TIP3    H226587   4.906   0.625  18.507
  798TIP3   OH226588   4.885   0.373  18.342
  798TIP3    H126589   4.944   0.410  18.267
  798TIP3    H226590   4.784   0.389  18.310
  799TIP3   OH226591   5.066   0.946  18.319
  799TIP3    H126592   5.159   0.993  18.306
  799TIP3    H226593   4.997   1.019  18.282
  800TIP3   OH226594   5.543   0.680  18.833
  800TIP3    H126595   5.582   0.581  18.842
  800TIP3    H226596   5.626   0.741  18.857
  801TIP3   OH226597   5.709   1.037  18.686
  801TIP3    H126598   5.672   1.099  18.613
  801TIP3    H226599   5.811   1.027  18.658
  802TIP3   OH226600   4.705   0.638  18.743
  802TIP3    H126601   4.619   0.580  18.720
  802TIP3    H226602   4.778   0.595  18.681
  803TIP3   OH226603   4.975   0.101  18.322
  803TIP3    H126604   4.953   0.206  18.341
  803TIP3    H226605   4.884   0.074  18.278
  804TIP3   OH226606   5.134   0.532  18.751
  804TIP3    H126607   5.068   0.510  18.826
  804TIP3    H226608   5.066   0.514  18.677
  805TIP3   OH226609   5.448   0.437  18.641
  805TIP3    H126610   5.345   0.437  18.669
  805TIP3    H226611   5.492   0.381  18.714
  806TIP3   OH226612   5.663   0.330  18.845
  806TIP3    H126613   5.649   0.222  18.851
  806TIP3    H226614   5.619   0.360  18.931
  807TIP3   OH226615   4.466   0.436  18.764
  807TIP3    H126616   4.445   0.348  18.712
  807TIP3    H226617   4.465   0.397  18.857
  808TIP3   OH226618   4.993   0.076  18.610
  808TIP3    H126619   4.982  -0.031  18.616
  808TIP3    H226620   5.018   0.094  18.517
  809TIP3   OH226621   5.046   0.144  18.877
  809TIP3    H126622   5.060   0.102  18.788
  809TIP3    H226623   4.987   0.231  18.856
  810TIP3   OH226624   4.290   1.823  17.803
  810TIP3    H126625   4.219   1.745  17.808
  810TIP3    H226626   4.308   1.841  17.898
  811TIP3   OH226627   6.174   1.874  18.054
  811TIP3    H126628   6.174   1.885  18.152
  811TIP3    H226629   6.268   1.921  18.035
  812TIP3   OH226630   6.114   1.872  18.334
  812TIP3    H126631   6.069   1.775  18.315
  812TIP3    H226632   6.158   1.848  18.420
  813TIP3   OH226633   5.971   1.371  18.862
  813TIP3    H126634   5.870   1.379  18.894
  813TIP3    H226635   6.015   1.458  18.901
  814TIP3   OH226636   6.110   1.299  18.042
  814TIP3    H126637   6.193   1.229  18.041
  814TIP3    H226638   6.164   1.391  18.029
  815TIP3   OH226639   5.965   1.617  18.305
  815TIP3    H126640   5.884   1.657  18.356
  815TIP3    H226641   5.916   1.594  18.219
  816TIP3   OH226642   6.146   0.971  17.259
  816TIP3    H126643   6.091   1.011  17.185
  816TIP3    H226644   6.162   1.057  17.314
  817TIP3   OH226645   4.235   1.072  18.053
  817TIP3    H126646   4.250   1.030  17.964
  817TIP3    H226647   4.333   1.063  18.093
  818TIP3   OH226648   6.015   1.045  18.605
  818TIP3    H126649   6.069   0.952  18.617
  818TIP3    H226650   6.092   1.119  18.594
  819TIP3   OH226651   6.139   0.774  18.653
  819TIP3    H126652   6.039   0.732  18.657
  819TIP3    H226653   6.202   0.689  18.667
  820TIP3   OH226654   5.827   0.590  17.501
  820TIP3    H126655   5.873   0.491  17.504
  820TIP3    H226656   5.912   0.648  17.482
  821TIP3   OH226657   5.958   0.632  18.041
  821TIP3    H126658   6.061   0.667  18.047
  821TIP3    H226659   5.935   0.613  18.133
  822TIP3   OH226660   5.966   0.747  18.317
  822TIP3    H126661   5.870   0.771  18.352
  822TIP3    H226662   6.008   0.843  18.292
  823TIP3   OH226663   4.210   0.528  18.660
  823TIP3    H126664   4.310   0.524  18.697
  823TIP3    H226665   4.165   0.436  18.689
  824TIP3   OH226666   6.262   0.078  18.844
  824TIP3    H126667   6.351   0.064  18.790
  824TIP3    H226668   6.221   0.156  18.789
  825TIP3   OH226669   5.963   0.328  17.508
  825TIP3    H126670   5.973   0.297  17.601
  825TIP3    H226671   5.895   0.251  17.475
  826TIP3   OH226672   4.335   0.420  17.991
  826TIP3    H126673   4.379   0.320  17.984
  826TIP3    H226674   4.425   0.475  18.006
  827TIP3   OH226675   4.171   0.701  18.079
  827TIP3    H126676   4.231   0.672  18.001
  827TIP3    H226677   4.217   0.792  18.103
  828TIP3   OH226678   6.123   0.317  18.699
  828TIP3    H126679   6.035   0.380  18.701
  828TIP3    H226680   6.101   0.260  18.619
  829TIP3   OH226681   6.162   0.314  17.144
  829TIP3    H126682   6.175   0.228  17.087
  829TIP3    H226683   6.248   0.371  17.119
  830TIP3   OH226684   4.215   0.185  18.258
  830TIP3    H126685   4.148   0.190  18.336
  830TIP3    H226686   4.167   0.259  18.201
  831TIP3   OH226687   4.448   1.559  18.688
  831TIP3    H126688   4.357   1.593  18.650
  831TIP3    H226689   4.418   1.494  18.760
  832TIP3   OH226690   4.740   1.770  18.369
  832TIP3    H126691   4.784   1.846  18.313
  832TIP3    H226692   4.824   1.705  18.381
  833TIP3   OH226693   5.214   1.867  18.608
  833TIP3    H126694   5.231   1.825  18.697
  833TIP3    H226695   5.311   1.910  18.588
  834TIP3   OH226696   5.464   2.032  18.554
  834TIP3    H126697   5.543   1.966  18.531
  834TIP3    H226698   5.496   2.066  18.643
  835TIP3   OH226699   6.057   0.158  18.453
  835TIP3    H126700   5.964   0.185  18.411
  835TIP3    H226701   6.036   0.054  18.472
  836TIP3   OH226702   4.480   2.060  18.320
  836TIP3    H126703   4.399   2.128  18.306
  836TIP3    H226704   4.483   2.044  18.416
  837TIP3   OH226705   4.753   2.043  18.210
  837TIP3    H126706   4.649   2.017  18.231
  837TIP3    H226707   4.745   2.148  18.222
  838TIP3   OH226708   5.240   1.977  18.147
  838TIP3    H126709   5.187   2.055  18.102
  838TIP3    H226710   5.280   2.034  18.222
  839TIP3   OH226711   5.480   1.826  18.292
  839TIP3    H126712   5.410   1.860  18.227
  839TIP3    H226713   5.565   1.887  18.270
  840TIP3   OH226714   5.760   1.976  18.261
  840TIP3    H126715   5.778   2.080  18.251
  840TIP3    H226716   5.787   1.940  18.171
  841TIP3   OH226717   4.414   1.907  18.056
  841TIP3    H126718   4.400   1.876  18.148
  841TIP3    H226719   4.503   1.852  18.031
  842TIP3   OH226720   4.654   1.763  17.974
  842TIP3    H126721   4.618   1.662  17.964
  842TIP3    H226722   4.756   1.745  17.954
  843TIP3   OH226723   5.288   0.330  17.906
  843TIP3    H126724   5.244   0.233  17.918
  843TIP3    H226725   5.371   0.303  17.850
  844TIP3   OH226726   5.853   0.117  17.894
  844TIP3    H126727   5.937   0.169  17.853
  844TIP3    H226728   5.782   0.121  17.823
  845TIP3   OH226729   6.081   0.200  17.731
  845TIP3    H126730   6.116   0.125  17.668
  845TIP3    H226731   6.151   0.282  17.721
  846TIP3   OH226732   4.480   0.114  17.662
  846TIP3    H126733   4.415   0.129  17.589
  846TIP3    H226734   4.479   0.005  17.672
  847TIP3   OH226735   4.992   0.086  17.637
  847TIP3    H126736   5.080   0.128  17.595
  847TIP3    H226737   5.022   0.096  17.731
  848TIP3   OH226738   5.520   0.158  17.796
  848TIP3    H126739   5.561   0.160  17.707
  848TIP3    H226740   5.535   0.057  17.823
  849TIP3   OH226741   5.720   0.174  17.446
  849TIP3    H126742   5.658   0.206  17.372
  849TIP3    H226743   5.762   0.086  17.406
  850TIP3   OH226744   4.277   1.792  17.345
  850TIP3    H126745   4.222   1.802  17.262
  850TIP3    H226746   4.256   1.885  17.386
  851TIP3   OH226747   5.081   0.299  17.344
  851TIP3    H126748   5.125   0.255  17.424
  851TIP3    H226749   5.088   0.403  17.368
  852TIP3   OH226750   4.406   0.108  18.676
  852TIP3    H126751   4.412   0.008  18.643
  852TIP3    H226752   4.504   0.121  18.713
  853TIP3   OH226753   4.667   0.094  18.793
  853TIP3    H126754   4.759   0.139  18.764
  853TIP3    H226755   4.681  -0.005  18.753
  854TIP3   OH226756   4.484   1.895  17.067
  854TIP3    H126757   4.514   1.898  17.160
  854TIP3    H226758   4.574   1.919  17.022
  855TIP3   OH226759   5.599   0.050  18.845
  855TIP3    H126760   5.536  -0.032  18.867
  855TIP3    H226761   5.671  -0.004  18.793
  856TIP3   OH226762   5.974   1.763  18.635
  856TIP3    H126763   5.898   1.755  18.565
  856TIP3    H226764   5.941   1.854  18.677
  857TIP3   OH226765   7.556   1.099  17.665
  857TIP3    H126766   7.558   1.207  17.655
  857TIP3    H226767   7.484   1.074  17.597
  858TIP3   OH226768   7.418   0.957  17.997
  858TIP3    H126769   7.435   0.915  18.088
  858TIP3    H226770   7.319   0.995  18.001
  859TIP3   OH226771   6.552   0.971  18.150
  859TIP3    H126772   6.545   0.893  18.216
  859TIP3    H226773   6.651   1.005  18.169
  860TIP3   OH226774   7.821   1.332  17.878
  860TIP3    H126775   7.814   1.248  17.937
  860TIP3    H226776   7.814   1.413  17.940
  861TIP3   OH226777   6.680   1.480  17.987
  861TIP3    H126778   6.641   1.383  17.963
  861TIP3    H226779   6.784   1.460  17.969
  862TIP3   OH226780   6.315   0.762  17.558
  862TIP3    H126781   6.249   0.834  17.596
  862TIP3    H226782   6.247   0.700  17.509
  863TIP3   OH226783   6.395   1.007  17.804
  863TIP3    H126784   6.433   0.905  17.813
  863TIP3    H226785   6.412   1.034  17.713
  864TIP3   OH226786   7.514   1.949  17.841
  864TIP3    H126787   7.575   1.870  17.801
  864TIP3    H226788   7.471   1.898  17.915
  865TIP3   OH226789   7.222   1.256  18.097
  865TIP3    H126790   7.253   1.269  18.006
  865TIP3    H226791   7.314   1.278  18.144
  866TIP3   OH226792   8.176   0.377  18.103
  866TIP3    H126793   8.208   0.449  18.169
  866TIP3    H226794   8.213   0.420  18.020
  867TIP3   OH226795   6.835   0.441  17.769
  867TIP3    H126796   6.841   0.534  17.720
  867TIP3    H226797   6.801   0.373  17.700
  868TIP3   OH226798   6.459   0.717  17.891
  868TIP3    H126799   6.540   0.682  17.947
  868TIP3    H226800   6.482   0.668  17.807
  869TIP3   OH226801   6.986   0.878  17.837
  869TIP3    H126802   7.072   0.815  17.842
  869TIP3    H226803   6.918   0.809  17.794
  870TIP3   OH226804   8.271   0.493  18.342
  870TIP3    H126805   8.203   0.575  18.331
  870TIP3    H226806   8.241   0.463  18.430
  871TIP3   OH226807   6.710   0.337  18.207
  871TIP3    H126808   6.674   0.408  18.142
  871TIP3    H226809   6.631   0.338  18.275
  872TIP3   OH226810   7.492   1.393  17.578
  872TIP3    H126811   7.491   1.399  17.480
  872TIP3    H226812   7.443   1.485  17.602
  873TIP3   OH226813   6.969   1.166  18.208
  873TIP3    H126814   6.908   1.250  18.240
  873TIP3    H226815   7.052   1.217  18.166
  874TIP3   OH226816   6.702   0.554  17.995
  874TIP3    H126817   6.777   0.614  18.042
  874TIP3    H226818   6.760   0.516  17.919
  875TIP3   OH226819   6.828   1.406  18.294
  875TIP3    H126820   6.810   1.489  18.237
  875TIP3    H226821   6.733   1.401  18.342
  876TIP3   OH226822   6.378   1.350  17.355
  876TIP3    H126823   6.307   1.410  17.309
  876TIP3    H226824   6.416   1.423  17.419
  877TIP3   OH226825   7.875   1.553  18.059
  877TIP3    H126826   7.770   1.573  18.081
  877TIP3    H226827   7.902   1.651  18.027
  878TIP3   OH226828   7.945   0.187  18.227
  878TIP3    H126829   7.869   0.222  18.166
  878TIP3    H226830   8.028   0.183  18.165
  879TIP3   OH226831   7.106   0.091  17.898
  879TIP3    H126832   7.120  -0.002  17.944
  879TIP3    H226833   7.066   0.154  17.968
  880TIP3   OH226834   7.674   1.733  17.728
  880TIP3    H126835   7.702   1.634  17.700
  880TIP3    H226836   7.742   1.792  17.675
  881TIP3   OH226837   7.844   1.511  17.585
  881TIP3    H126838   7.836   1.441  17.510
  881TIP3    H226839   7.853   1.444  17.660
  882TIP3   OH226840   7.977   1.335  18.442
  882TIP3    H126841   7.991   1.268  18.365
  882TIP3    H226842   7.986   1.432  18.398
  883TIP3   OH226843   8.162   0.941  18.217
  883TIP3    H126844   8.106   1.033  18.212
  883TIP3    H226845   8.242   0.959  18.153
  884TIP3   OH226846   7.763   1.015  17.472
  884TIP3    H126847   7.690   1.039  17.540
  884TIP3    H226848   7.832   0.957  17.523
  885TIP3   OH226849   7.776   0.814  18.415
  885TIP3    H126850   7.752   0.890  18.480
  885TIP3    H226851   7.730   0.860  18.338
  886TIP3   OH226852   6.862   1.093  17.682
  886TIP3    H126853   6.824   1.054  17.597
  886TIP3    H226854   6.921   1.015  17.720
  887TIP3   OH226855   6.999   1.451  17.971
  887TIP3    H126856   7.018   1.424  17.879
  887TIP3    H226857   7.071   1.393  18.020
  888TIP3   OH226858   6.846   0.963  18.068
  888TIP3    H126859   6.894   0.953  17.980
  888TIP3    H226860   6.904   1.042  18.109
  889TIP3   OH226861   7.604   1.581  18.143
  889TIP3    H126862   7.547   1.653  18.191
  889TIP3    H226863   7.561   1.492  18.182
  890TIP3   OH226864   7.008   1.449  18.502
  890TIP3    H126865   6.930   1.498  18.552
  890TIP3    H226866   6.956   1.436  18.415
  891TIP3   OH226867   6.655   0.995  18.439
  891TIP3    H126868   6.679   1.095  18.466
  891TIP3    H226869   6.578   0.974  18.504
  892TIP3   OH226870   7.373   1.664  17.647
  892TIP3    H126871   7.445   1.709  17.707
  892TIP3    H226872   7.367   1.734  17.576
  893TIP3   OH226873   6.815   1.638  18.617
  893TIP3    H126874   6.806   1.683  18.528
  893TIP3    H226875   6.711   1.615  18.635
  894TIP3   OH226876   8.048   0.078  17.277
  894TIP3    H126877   7.964   0.134  17.309
  894TIP3    H226878   8.107   0.156  17.236
  895TIP3   OH226879   6.727   0.982  17.449
  895TIP3    H126880   6.706   1.075  17.400
  895TIP3    H226881   6.628   0.950  17.467
  896TIP3   OH226882   6.346   1.281  18.366
  896TIP3    H126883   6.310   1.257  18.279
  896TIP3    H226884   6.381   1.184  18.394
  897TIP3   OH226885   6.289   1.565  18.011
  897TIP3    H126886   6.394   1.563  18.030
  897TIP3    H226887   6.259   1.658  18.051
  898TIP3   OH226888   8.284   1.636  18.576
  898TIP3    H126889   8.278   1.531  18.572
  898TIP3    H226890   8.195   1.653  18.630
  899TIP3   OH226891   7.283   1.561  18.502
  899TIP3    H126892   7.296   1.646  18.560
  899TIP3    H226893   7.179   1.536  18.511
  900TIP3   OH226894   7.394   2.014  17.449
  900TIP3    H126895   7.321   1.944  17.475
  900TIP3    H226896   7.361   2.105  17.494
  901TIP3   OH226897   6.662   1.847  17.654
  901TIP3    H126898   6.674   1.813  17.747
  901TIP3    H226899   6.558   1.828  17.635
  902TIP3   OH226900   7.660   1.943  17.161
  902TIP3    H126901   7.733   1.883  17.114
  902TIP3    H226902   7.598   1.866  17.196
  903TIP3   OH226903   7.666   1.907  17.477
  903TIP3    H126904   7.569   1.951  17.461
  903TIP3    H226905   7.646   1.804  17.460
  904TIP3   OH226906   7.941   0.710  18.634
  904TIP3    H126907   7.874   0.725  18.558
  904TIP3    H226908   7.990   0.619  18.602
  905TIP3   OH226909   6.584   1.426  18.438
  905TIP3    H126910   6.590   1.391  18.531
  905TIP3    H226911   6.487   1.386  18.415
  906TIP3   OH226912   6.896   0.241  18.030
  906TIP3    H126913   6.818   0.263  17.967
  906TIP3    H226914   6.849   0.275  18.113
  907TIP3   OH226915   7.318   0.182  18.400
  907TIP3    H126916   7.365   0.085  18.412
  907TIP3    H226917   7.236   0.152  18.343
  908TIP3   OH226918   7.723   0.515  18.443
  908TIP3    H126919   7.649   0.495  18.512
  908TIP3    H226920   7.734   0.620  18.450
  909TIP3   OH226921   6.876   0.696  18.162
  909TIP3    H126922   6.788   0.685  18.218
  909TIP3    H226923   6.863   0.799  18.132
  910TIP3   OH226924   6.859   0.713  17.660
  910TIP3    H126925   6.751   0.702  17.653
  910TIP3    H226926   6.887   0.722  17.568
  911TIP3   OH226927   7.340   0.784  18.659
  911TIP3    H126928   7.293   0.690  18.684
  911TIP3    H226929   7.423   0.783  18.719
  912TIP3   OH226930   6.609   0.691  18.295
  912TIP3    H126931   6.635   0.745  18.375
  912TIP3    H226932   6.563   0.604  18.330
  913TIP3   OH226933   6.986   0.461  17.018
  913TIP3    H126934   6.944   0.399  17.087
  913TIP3    H226935   7.026   0.391  16.957
  914TIP3   OH226936   6.270   0.428  17.726
  914TIP3    H126937   6.340   0.430  17.799
  914TIP3    H226938   6.327   0.396  17.650
  915TIP3   OH226939   6.411   0.464  17.313
  915TIP3    H126940   6.467   0.460  17.232
  915TIP3    H226941   6.349   0.550  17.300
  916TIP3   OH226942   7.473   0.837  18.244
  916TIP3    H126943   7.565   0.786  18.228
  916TIP3    H226944   7.419   0.767  18.301
  917TIP3   OH226945   6.579   0.622  17.633
  917TIP3    H126946   6.489   0.645  17.584
  917TIP3    H226947   6.595   0.518  17.612
  918TIP3   OH226948   7.966   2.037  18.719
  918TIP3    H126949   8.012   2.066  18.635
  918TIP3    H226950   8.045   2.059  18.781
  919TIP3   OH226951   6.589   1.258  18.679
  919TIP3    H126952   6.676   1.257  18.737
  919TIP3    H226953   6.514   1.213  18.735
  920TIP3   OH226954   6.706   0.319  17.543
  920TIP3    H126955   6.645   0.243  17.589
  920TIP3    H226956   6.772   0.257  17.492
  921TIP3   OH226957   7.129   0.528  18.181
  921TIP3    H126958   7.058   0.609  18.178
  921TIP3    H226959   7.214   0.576  18.221
  922TIP3   OH226960   7.153   1.253  17.364
  922TIP3    H126961   7.101   1.163  17.359
  922TIP3    H226962   7.140   1.280  17.459
  923TIP3   OH226963   7.995   1.179  18.221
  923TIP3    H126964   8.045   1.230  18.149
  923TIP3    H226965   7.898   1.160  18.182
  924TIP3   OH226966   7.336   1.268  18.478
  924TIP3    H126967   7.299   1.245  18.566
  924TIP3    H226968   7.315   1.374  18.477
  925TIP3   OH226969   6.644   1.202  17.889
  925TIP3    H126970   6.692   1.167  17.809
  925TIP3    H226971   6.663   1.123  17.952
  926TIP3   OH226972   7.409   1.429  17.315
  926TIP3    H126973   7.353   1.520  17.304
  926TIP3    H226974   7.336   1.351  17.310
  927TIP3   OH226975   6.323   0.989  18.474
  927TIP3    H126976   6.301   0.917  18.544
  927TIP3    H226977   6.269   0.948  18.398
  928TIP3   OH226978   7.095   0.946  18.643
  928TIP3    H126979   7.037   0.877  18.594
  928TIP3    H226980   7.194   0.900  18.642
  929TIP3   OH226981   7.641   1.519  18.495
  929TIP3    H126982   7.549   1.515  18.446
  929TIP3    H226983   7.610   1.574  18.574
  930TIP3   OH226984   8.285   0.641  17.312
  930TIP3    H126985   8.212   0.625  17.241
  930TIP3    H226986   8.334   0.725  17.272
  931TIP3   OH226987   8.224   1.300  18.573
  931TIP3    H126988   8.126   1.329  18.539
  931TIP3    H226989   8.280   1.286  18.490
  932TIP3   OH226990   8.061   1.596  17.336
  932TIP3    H126991   7.994   1.521  17.370
  932TIP3    H226992   8.064   1.571  17.242
  933TIP3   OH226993   7.758   1.078  18.048
  933TIP3    H126994   7.655   1.072  18.021
  933TIP3    H226995   7.792   0.991  17.999
  934TIP3   OH226996   6.913   1.572  17.648
  934TIP3    H126997   6.928   1.675  17.623
  934TIP3    H226998   6.810   1.560  17.631
  935TIP3   OH226999   7.052   1.308  17.610
  935TIP3    H127000   7.007   1.406  17.620
  935TIP3    H227001   6.978   1.242  17.647
  936TIP3   OH227002   7.131   1.752  18.296
  936TIP3    H127003   7.198   1.828  18.267
  936TIP3    H227004   7.187   1.701  18.365
  937TIP3   OH227005   6.939   1.857  17.556
  937TIP3    H127006   6.834   1.861  17.584
  937TIP3    H227007   6.973   1.947  17.601
  938TIP3   OH227008   7.472   1.302  18.232
  938TIP3    H127009   7.428   1.264  18.316
  938TIP3    H227010   7.557   1.240  18.220
  939TIP3   OH227011   7.836   1.791  18.456
  939TIP3    H127012   7.739   1.747  18.459
  939TIP3    H227013   7.830   1.860  18.381
  940TIP3   OH227014   6.509   0.382  18.409
  940TIP3    H127015   6.437   0.454  18.440
  940TIP3    H227016   6.466   0.289  18.436
  941TIP3   OH227017   7.885   1.334  17.363
  941TIP3    H127018   7.823   1.251  17.337
  941TIP3    H227019   7.983   1.289  17.360
  942TIP3   OH227020   6.472   1.703  18.246
  942TIP3    H127021   6.537   1.619  18.258
  942TIP3    H227022   6.497   1.758  18.325
  943TIP3   OH227023   7.017   1.499  17.230
  943TIP3    H127024   7.068   1.429  17.287
  943TIP3    H227025   7.022   1.591  17.280
  944TIP3   OH227026   6.632   1.195  17.281
  944TIP3    H127027   6.541   1.247  17.309
  944TIP3    H227028   6.667   1.263  17.213
  945TIP3   OH227029   7.490   0.392  18.300
  945TIP3    H127030   7.561   0.381  18.372
  945TIP3    H227031   7.428   0.307  18.319
  946TIP3   OH227032   7.313   1.725  17.304
  946TIP3    H127033   7.209   1.755  17.316
  946TIP3    H227034   7.323   1.734  17.206
  947TIP3   OH227035   7.334   0.656  18.412
  947TIP3    H127036   7.345   0.702  18.501
  947TIP3    H227037   7.372   0.556  18.423
  948TIP3   OH227038   7.035   1.805  17.311
  948TIP3    H127039   6.954   1.852  17.265
  948TIP3    H227040   6.998   1.814  17.404
  949TIP3   OH227041   6.883   0.327  17.244
  949TIP3    H127042   6.864   0.404  17.309
  949TIP3    H227043   6.971   0.283  17.281
  950TIP3   OH227044   7.988   0.422  18.489
  950TIP3    H127045   7.887   0.455  18.474
  950TIP3    H227046   8.001   0.361  18.411
  951TIP3   OH227047   7.786   0.809  17.909
  951TIP3    H127048   7.729   0.729  17.872
  951TIP3    H227049   7.864   0.755  17.957
  952TIP3   OH227050   7.978   1.841  18.054
  952TIP3    H127051   7.981   1.915  17.982
  952TIP3    H227052   8.082   1.844  18.082
  953TIP3   OH227053   6.548   0.158  17.964
  953TIP3    H127054   6.543   0.135  17.869
  953TIP3    H227055   6.560   0.056  17.995
  954TIP3   OH227056   6.451   1.580  17.497
  954TIP3    H127057   6.418   1.596  17.588
  954TIP3    H227058   6.449   1.678  17.458
  955TIP3   OH227059   6.357   1.927  18.692
  955TIP3    H127060   6.428   1.917  18.764
  955TIP3    H227061   6.333   1.824  18.675
  956TIP3   OH227062   6.903   1.814  18.831
  956TIP3    H127063   6.992   1.761  18.859
  956TIP3    H227064   6.881   1.763  18.748
  957TIP3   OH227065   7.344   1.717  17.041
  957TIP3    H127066   7.263   1.682  16.986
  957TIP3    H227067   7.431   1.675  16.998
  958TIP3   OH227068   7.580   1.651  18.738
  958TIP3    H127069   7.546   1.553  18.767
  958TIP3    H227070   7.676   1.653  18.783
  959TIP3   OH227071   6.322   1.244  18.799
  959TIP3    H127072   6.289   1.142  18.792
  959TIP3    H227073   6.282   1.283  18.714
  960TIP3   OH227074   7.079   1.235  18.677
  960TIP3    H127075   7.060   1.296  18.597
  960TIP3    H227076   7.066   1.133  18.644
  961TIP3   OH227077   7.718   1.190  18.485
  961TIP3    H127078   7.819   1.231  18.483
  961TIP3    H227079   7.669   1.279  18.515
  962TIP3   OH227080   6.507   0.919  18.747
  962TIP3    H127081   6.555   0.826  18.766
  962TIP3    H227082   6.534   0.979  18.824
  963TIP3   OH227083   6.872   0.805  18.428
  963TIP3    H127084   6.790   0.876  18.428
  963TIP3    H227085   6.948   0.860  18.381
  964TIP3   OH227086   7.453   1.113  18.804
  964TIP3    H127087   7.533   1.071  18.752
  964TIP3    H227088   7.421   1.024  18.849
  965TIP3   OH227089   6.970   0.564  18.549
  965TIP3    H127090   6.986   0.493  18.478
  965TIP3    H227091   6.960   0.655  18.495
  966TIP3   OH227092   6.963   0.372  18.347
  966TIP3    H127093   7.030   0.418  18.283
  966TIP3    H227094   6.870   0.376  18.299
  967TIP3   OH227095   7.130   0.950  18.319
  967TIP3    H127096   7.231   0.981  18.319
  967TIP3    H227097   7.079   1.038  18.286
  968TIP3   OH227098   7.647   0.666  18.843
  968TIP3    H127099   7.691   0.571  18.831
  968TIP3    H227100   7.730   0.733  18.850
  969TIP3   OH227101   7.748   1.013  18.695
  969TIP3    H127102   7.721   1.074  18.617
  969TIP3    H227103   7.847   0.980  18.672
  970TIP3   OH227104   6.777   0.649  18.754
  970TIP3    H127105   6.684   0.597  18.738
  970TIP3    H227106   6.841   0.607  18.683
  971TIP3   OH227107   7.046   0.100  18.321
  971TIP3    H127108   7.029   0.207  18.334
  971TIP3    H227109   6.945   0.068  18.303
  972TIP3   OH227110   7.205   0.540  18.749
  972TIP3    H127111   7.143   0.519  18.826
  972TIP3    H227112   7.136   0.518  18.678
  973TIP3   OH227113   7.539   0.448  18.637
  973TIP3    H127114   7.439   0.420  18.655
  973TIP3    H227115   7.594   0.385  18.699
  974TIP3   OH227116   7.710   0.319  18.852
  974TIP3    H127117   7.696   0.211  18.866
  974TIP3    H227118   7.674   0.353  18.940
  975TIP3   OH227119   6.549   0.454  18.759
  975TIP3    H127120   6.553   0.369  18.703
  975TIP3    H227121   6.540   0.410  18.849
  976TIP3   OH227122   7.065   0.077  18.606
  976TIP3    H127123   7.051  -0.030  18.610
  976TIP3    H227124   7.095   0.092  18.513
  977TIP3   OH227125   7.130   0.138  18.875
  977TIP3    H127126   7.129   0.109  18.781
  977TIP3    H227127   7.083   0.233  18.871
  978TIP3   OH227128   6.350   1.799  17.794
  978TIP3    H127129   6.274   1.740  17.836
  978TIP3    H227130   6.407   1.832  17.871
  979TIP3   OH227131   8.285   1.885  18.126
  979TIP3    H127132   8.296   1.851  18.217
  979TIP3    H227133   8.268   1.991  18.143
  980TIP3   OH227134   8.201   1.837  18.390
  980TIP3    H127135   8.141   1.762  18.343
  980TIP3    H227136   8.246   1.771  18.456
  981TIP3   OH227137   8.041   1.377  18.887
  981TIP3    H127138   7.946   1.393  18.931
  981TIP3    H227139   8.078   1.477  18.885
  982TIP3   OH227140   8.177   1.221  17.392
  982TIP3    H127141   8.279   1.254  17.402
  982TIP3    H227142   8.174   1.138  17.454
  983TIP3   OH227143   8.204   1.005  17.593
  983TIP3    H127144   8.109   0.956  17.607
  983TIP3    H227145   8.246   1.002  17.682
  984TIP3   OH227146   8.218   1.281  18.071
  984TIP3    H127147   8.321   1.291  18.050
  984TIP3    H227148   8.194   1.386  18.053
  985TIP3   OH227149   8.027   1.605  18.314
  985TIP3    H127150   7.943   1.649  18.360
  985TIP3    H227151   7.989   1.592  18.223
  986TIP3   OH227152   8.129   0.653  17.089
  986TIP3    H127153   8.142   0.748  17.041
  986TIP3    H227154   8.120   0.586  17.016
  987TIP3   OH227155   7.956   0.847  17.644
  987TIP3    H127156   7.951   0.755  17.593
  987TIP3    H227157   7.945   0.818  17.738
  988TIP3   OH227158   6.317   1.085  18.048
  988TIP3    H127159   6.322   1.056  17.954
  988TIP3    H227160   6.415   1.045  18.073
  989TIP3   OH227161   8.066   1.048  18.610
  989TIP3    H127162   8.141   0.976  18.587
  989TIP3    H227163   8.121   1.141  18.604
  990TIP3   OH227164   8.227   0.806  18.633
  990TIP3    H127165   8.120   0.811  18.651
  990TIP3    H227166   8.249   0.707  18.668
  991TIP3   OH227167   7.973   0.602  17.479
  991TIP3    H127168   7.993   0.498  17.503
  991TIP3    H227169   8.048   0.622  17.413
  992TIP3   OH227170   7.968   0.638  18.037
  992TIP3    H127171   8.071   0.638  18.005
  992TIP3    H227172   7.986   0.617  18.131
  993TIP3   OH227173   8.049   0.691  18.306
  993TIP3    H127174   7.952   0.713  18.342
  993TIP3    H227175   8.080   0.789  18.274
  994TIP3   OH227176   6.305   0.537  18.642
  994TIP3    H127177   6.397   0.526  18.694
  994TIP3    H227178   6.248   0.451  18.671
  995TIP3   OH227179   8.334   0.098  18.861
  995TIP3    H127180   8.425   0.092  18.812
  995TIP3    H227181   8.271   0.152  18.798
  996TIP3   OH227182   8.032   0.305  17.521
  996TIP3    H127183   8.059   0.233  17.590
  996TIP3    H227184   7.940   0.263  17.487
  997TIP3   OH227185   6.417   0.422  17.998
  997TIP3    H127186   6.433   0.317  18.010
  997TIP3    H227187   6.519   0.456  17.988
  998TIP3   OH227188   6.234   0.726  18.061
  998TIP3    H127189   6.306   0.698  17.992
  998TIP3    H227190   6.294   0.785  18.118
  999TIP3   OH227191   8.186   0.285  18.700
  999TIP3    H127192   8.099   0.336  18.738
  999TIP3    H227193   8.147   0.255  18.613
 1000TIP3   OH227194   8.206   0.276  17.144
 1000TIP3    H127195   8.276   0.234  17.083
 1000TIP3    H227196   8.210   0.378  17.122
 1001TIP3   OH227197   6.296   0.223  17.467
 1001TIP3    H127198   6.191   0.230  17.457
 1001TIP3    H227199   6.326   0.296  17.399
 1002TIP3   OH227200   7.927   1.904  17.669
 1002TIP3    H127201   7.966   1.811  17.638
 1002TIP3    H227202   7.989   1.922  17.747
 1003TIP3   OH227203   6.283   0.169  18.275
 1003TIP3    H127204   6.213   0.185  18.347
 1003TIP3    H227205   6.248   0.242  18.210
 1004TIP3   OH227206   6.524   1.577  18.686
 1004TIP3    H127207   6.427   1.602  18.650
 1004TIP3    H227208   6.502   1.520  18.764
 1005TIP3   OH227209   6.844   1.748  18.361
 1005TIP3    H127210   6.846   1.845  18.318
 1005TIP3    H227211   6.948   1.720  18.353
 1006TIP3   OH227212   7.290   1.860  18.603
 1006TIP3    H127213   7.303   1.832  18.696
 1006TIP3    H227214   7.387   1.901  18.583
 1007TIP3   OH227215   7.543   2.026  18.563
 1007TIP3    H127216   7.630   1.994  18.517
 1007TIP3    H227217   7.581   2.066  18.647
 1008TIP3   OH227218   8.099   0.141  18.487
 1008TIP3    H127219   8.011   0.156  18.433
 1008TIP3    H227220   8.099   0.034  18.499
 1009TIP3   OH227221   6.548   2.068  18.321
 1009TIP3    H127222   6.459   2.123  18.296
 1009TIP3    H227223   6.540   2.068  18.418
 1010TIP3   OH227224   6.813   2.017  18.225
 1010TIP3    H127225   6.712   2.031  18.259
 1010TIP3    H227226   6.816   2.093  18.156
 1011TIP3   OH227227   7.339   1.976  18.150
 1011TIP3    H127228   7.261   2.012  18.094
 1011TIP3    H227229   7.353   2.059  18.211
 1012TIP3   OH227230   7.547   1.834  18.297
 1012TIP3    H127231   7.472   1.879  18.240
 1012TIP3    H227232   7.633   1.889  18.269
 1013TIP3   OH227233   7.841   1.987  18.260
 1013TIP3    H127234   7.851   2.091  18.246
 1013TIP3    H227235   7.889   1.947  18.179
 1014TIP3   OH227236   6.496   1.884  18.015
 1014TIP3    H127237   6.480   1.819  18.093
 1014TIP3    H227238   6.598   1.855  17.992
 1015TIP3   OH227239   6.744   1.783  17.909
 1015TIP3    H127240   6.730   1.679  17.929
 1015TIP3    H227241   6.845   1.795  17.942
 1016TIP3   OH227242   7.003   1.769  18.031
 1016TIP3    H127243   7.039   1.669  18.017
 1016TIP3    H227244   7.014   1.779  18.127
 1017TIP3   OH227245   7.918   0.143  17.903
 1017TIP3    H127246   7.991   0.140  17.832
 1017TIP3    H227247   7.831   0.179  17.857
 1018TIP3   OH227248   8.143   0.119  17.699
 1018TIP3    H127249   8.209   0.037  17.678
 1018TIP3    H227250   8.215   0.198  17.713
 1019TIP3   OH227251   6.516   0.143  17.660
 1019TIP3    H127252   6.447   0.163  17.586
 1019TIP3    H227253   6.522   0.035  17.659
 1020TIP3   OH227254   6.301   0.042  17.213
 1020TIP3    H127255   6.404   0.035  17.190
 1020TIP3    H227256   6.304   0.077  17.305
 1021TIP3   OH227257   7.080   0.134  17.638
 1021TIP3    H127258   7.164   0.187  17.606
 1021TIP3    H227259   7.096   0.134  17.736
 1022TIP3   OH227260   7.647   0.157  17.764
 1022TIP3    H127261   7.631   0.146  17.668
 1022TIP3    H227262   7.635   0.056  17.794
 1023TIP3   OH227263   7.798   0.198  17.396
 1023TIP3    H127264   7.700   0.233  17.374
 1023TIP3    H227265   7.780   0.090  17.396
 1024TIP3   OH227266   6.434   1.880  17.385
 1024TIP3    H127267   6.339   1.869  17.338
 1024TIP3    H227268   6.486   1.943  17.322
 1025TIP3   OH227269   6.608   0.199  17.177
 1025TIP3    H127270   6.607   0.097  17.142
 1025TIP3    H227271   6.712   0.219  17.185
 1026TIP3   OH227272   8.103   1.876  17.416
 1026TIP3    H127273   8.094   1.767  17.406
 1026TIP3    H227274   8.118   1.896  17.321
 1027TIP3   OH227275   6.477   0.102  18.668
 1027TIP3    H127276   6.494   0.002  18.636
 1027TIP3    H227277   6.574   0.125  18.706
 1028TIP3   OH227278   6.749   0.113  18.772
 1028TIP3    H127279   6.844   0.151  18.746
 1028TIP3    H227280   6.763   0.010  18.741
 1029TIP3   OH227281   7.671   0.034  18.842
 1029TIP3    H127282   7.628  -0.063  18.830
 1029TIP3    H227283   7.752   0.025  18.780
 1030TIP3   OH227284   8.016   1.699  18.647
 1030TIP3    H127285   7.950   1.723  18.572
 1030TIP3    H227286   8.029   1.795  18.685
 1031TIP3   OH227287   8.320   0.729  17.562
 1031TIP3    H127288   8.279   0.825  17.538
 1031TIP3    H227289   8.307   0.674  17.478
 1032TIP3   OH227290   8.344   1.227  18.325
 1032TIP3    H127291   8.273   1.219  18.252
 1032TIP3    H227292   8.345   1.125  18.361
 1033TIP3   OH227293   8.303   1.551  18.019
 1033TIP3    H127294   8.412   1.550  18.013
 1033TIP3    H227295   8.290   1.645  18.064
 1034TIP3   OH227296   8.319   0.359  17.743
 1034TIP3    H127297   8.400   0.409  17.787
 1034TIP3    H227298   8.363   0.341  17.655
 1035TIP3   OH227299   8.341   0.960  18.435
 1035TIP3    H127300   8.323   0.891  18.509
 1035TIP3    H227301   8.264   0.930  18.371
 1036TIP3   OH227302   8.391   1.172  18.754
 1036TIP3    H127303   8.336   1.090  18.790
 1036TIP3    H227304   8.320   1.220  18.693
 1037TIP3   OH227305   8.285   2.008  17.599
 1037TIP3    H127306   8.238   1.945  17.532
 1037TIP3    H227307   8.308   1.933  17.666
 1038TIP3   OH227308   8.284   1.790  17.788
 1038TIP3    H127309   8.278   1.683  17.796
 1038TIP3    H227310   8.375   1.808  17.839
 1039TIP3   OH227311   8.394   1.003  18.065
 1039TIP3    H127312   8.360   1.042  17.980
 1039TIP3    H227313   8.477   1.072  18.079
 1040TIP3   OH227314   8.288   0.549  18.737
 1040TIP3    H127315   8.392   0.570  18.754
 1040TIP3    H227316   8.283   0.441  18.731
 1041TIP3   OH227317   8.263   0.680  17.997
 1041TIP3    H127318   8.360   0.651  17.967
 1041TIP3    H227319   8.290   0.735  18.076
 1042TIP3   OH227320   8.356   0.255  17.475
 1042TIP3    H127321   8.252   0.238  17.459
 1042TIP3    H227322   8.381   0.305  17.394
 1043TIP3   OH227323   8.273   0.163  18.285
 1043TIP3    H127324   8.208   0.179  18.362
 1043TIP3    H227325   8.239   0.240  18.223
 1044TIP3   OH227326   1.311   3.157  17.650
 1044TIP3    H127327   1.300   3.264  17.655
 1044TIP3    H227328   1.242   3.135  17.577
 1045TIP3   OH227329   1.200   3.051  18.008
 1045TIP3    H127330   1.220   3.022  18.101
 1045TIP3    H227331   1.135   2.969  17.983
 1046TIP3   OH227332   0.372   3.033  18.177
 1046TIP3    H127333   0.338   2.945  18.225
 1046TIP3    H227334   0.450   3.066  18.236
 1047TIP3   OH227335   1.577   3.336  17.843
 1047TIP3    H127336   1.477   3.300  17.853
 1047TIP3    H227337   1.561   3.434  17.882
 1048TIP3   OH227338   0.408   3.546  17.981
 1048TIP3    H127339   0.382   3.443  17.965
 1048TIP3    H227340   0.514   3.531  17.980
 1049TIP3   OH227341   0.152   2.881  17.525
 1049TIP3    H127342   0.118   2.923  17.609
 1049TIP3    H227343   0.070   2.815  17.503
 1050TIP3   OH227344   0.135   3.065  17.804
 1050TIP3    H127345   0.198   2.978  17.825
 1050TIP3    H227346   0.204   3.127  17.757
 1051TIP3   OH227347   1.309   3.990  17.822
 1051TIP3    H127348   1.372   3.916  17.778
 1051TIP3    H227349   1.262   3.928  17.887
 1052TIP3   OH227350   1.009   3.356  18.068
 1052TIP3    H127351   1.063   3.323  17.989
 1052TIP3    H227352   1.095   3.373  18.127
 1053TIP3   OH227353   1.957   2.396  18.101
 1053TIP3    H127354   1.956   2.464  18.178
 1053TIP3    H227355   2.048   2.428  18.057
 1054TIP3   OH227356   1.421   2.732  18.098
 1054TIP3    H127357   1.426   2.627  18.112
 1054TIP3    H227358   1.372   2.734  18.012
 1055TIP3   OH227359   0.617   2.499  17.772
 1055TIP3    H127360   0.648   2.599  17.745
 1055TIP3    H227361   0.600   2.460  17.684
 1056TIP3   OH227362   1.448   2.530  17.665
 1056TIP3    H127363   1.507   2.494  17.742
 1056TIP3    H227364   1.514   2.605  17.631
 1057TIP3   OH227365   0.283   2.801  17.853
 1057TIP3    H127366   0.344   2.736  17.909
 1057TIP3    H227367   0.295   2.749  17.767
 1058TIP3   OH227368   0.772   2.981  17.830
 1058TIP3    H127369   0.861   2.930  17.857
 1058TIP3    H227370   0.739   2.912  17.760
 1059TIP3   OH227371   1.966   2.556  18.332
 1059TIP3    H127372   1.929   2.651  18.295
 1059TIP3    H227373   2.004   2.592  18.416
 1060TIP3   OH227374   0.524   2.385  18.189
 1060TIP3    H127375   0.482   2.454  18.124
 1060TIP3    H227376   0.465   2.411  18.267
 1061TIP3   OH227377   1.306   3.455  17.530
 1061TIP3    H127378   1.273   3.462  17.437
 1061TIP3    H227379   1.256   3.540  17.569
 1062TIP3   OH227380   0.768   3.238  18.215
 1062TIP3    H127381   0.698   3.315  18.244
 1062TIP3    H227382   0.835   3.296  18.158
 1063TIP3   OH227383   1.657   2.489  17.848
 1063TIP3    H127384   1.666   2.399  17.898
 1063TIP3    H227385   1.747   2.541  17.872
 1064TIP3   OH227386   0.448   2.615  17.995
 1064TIP3    H127387   0.509   2.681  18.052
 1064TIP3    H227388   0.519   2.573  17.934
 1065TIP3   OH227389   0.609   3.488  18.283
 1065TIP3    H127390   0.619   3.573  18.225
 1065TIP3    H227391   0.507   3.498  18.313
 1066TIP3   OH227392   0.097   3.418  17.405
 1066TIP3    H127393   0.157   3.387  17.332
 1066TIP3    H227394   0.166   3.467  17.463
 1067TIP3   OH227395   1.692   3.607  18.098
 1067TIP3    H127396   1.593   3.579  18.068
 1067TIP3    H227397   1.702   3.694  18.042
 1068TIP3   OH227398   1.643   2.341  18.172
 1068TIP3    H127399   1.562   2.364  18.111
 1068TIP3    H227400   1.728   2.373  18.119
 1069TIP3   OH227401   0.850   2.092  17.952
 1069TIP3    H127402   0.826   1.989  17.966
 1069TIP3    H227403   0.788   2.141  18.017
 1070TIP3   OH227404   1.472   3.799  17.679
 1070TIP3    H127405   1.514   3.702  17.667
 1070TIP3    H227406   1.560   3.863  17.676
 1071TIP3   OH227407   1.620   3.552  17.588
 1071TIP3    H127408   1.526   3.505  17.573
 1071TIP3    H227409   1.653   3.495  17.665
 1072TIP3   OH227410   1.774   3.427  18.438
 1072TIP3    H127411   1.785   3.344  18.374
 1072TIP3    H227412   1.778   3.509  18.376
 1073TIP3   OH227413   1.162   3.090  17.419
 1073TIP3    H127414   1.100   3.148  17.359
 1073TIP3    H227415   1.243   3.065  17.359
 1074TIP3   OH227416   1.168   2.855  17.135
 1074TIP3    H127417   1.254   2.812  17.174
 1074TIP3    H227418   1.121   2.772  17.091
 1075TIP3   OH227419   1.998   3.037  18.218
 1075TIP3    H127420   1.924   3.113  18.237
 1075TIP3    H227421   2.048   3.082  18.143
 1076TIP3   OH227422   1.594   3.131  17.520
 1076TIP3    H127423   1.511   3.148  17.581
 1076TIP3    H227424   1.657   3.070  17.579
 1077TIP3   OH227425   1.560   2.914  18.411
 1077TIP3    H127426   1.525   3.006  18.444
 1077TIP3    H227427   1.499   2.906  18.332
 1078TIP3   OH227428   0.608   3.182  17.703
 1078TIP3    H127429   0.583   3.124  17.623
 1078TIP3    H227430   0.668   3.111  17.754
 1079TIP3   OH227431   0.781   3.507  17.975
 1079TIP3    H127432   0.815   3.513  17.883
 1079TIP3    H227433   0.865   3.454  18.016
 1080TIP3   OH227434   0.681   3.012  18.075
 1080TIP3    H127435   0.724   3.023  17.985
 1080TIP3    H227436   0.712   3.100  18.124
 1081TIP3   OH227437   1.217   3.659  18.250
 1081TIP3    H127438   1.254   3.758  18.251
 1081TIP3    H227439   1.266   3.619  18.170
 1082TIP3   OH227440   0.778   3.518  18.507
 1082TIP3    H127441   0.697   3.571  18.553
 1082TIP3    H227442   0.730   3.502  18.421
 1083TIP3   OH227443   1.427   3.044  17.299
 1083TIP3    H127444   1.488   3.069  17.378
 1083TIP3    H227445   1.471   3.093  17.225
 1084TIP3   OH227446   0.491   3.103  18.423
 1084TIP3    H127447   0.482   3.183  18.489
 1084TIP3    H227448   0.392   3.061  18.427
 1085TIP3   OH227449   1.119   3.757  17.630
 1085TIP3    H127450   1.196   3.773  17.694
 1085TIP3    H227451   1.130   3.836  17.568
 1086TIP3   OH227452   0.571   3.708  18.612
 1086TIP3    H127453   0.559   3.746  18.521
 1086TIP3    H227454   0.469   3.705  18.642
 1087TIP3   OH227455   1.869   2.081  17.301
 1087TIP3    H127456   1.762   2.086  17.310
 1087TIP3    H227457   1.887   2.157  17.235
 1088TIP3   OH227458   0.495   3.035  17.489
 1088TIP3    H127459   0.439   3.114  17.451
 1088TIP3    H227460   0.440   2.947  17.466
 1089TIP3   OH227461   0.179   3.306  18.357
 1089TIP3    H127462   0.071   3.306  18.345
 1089TIP3    H227463   0.207   3.207  18.330
 1090TIP3   OH227464   0.145   3.684  17.987
 1090TIP3    H127465   0.234   3.623  17.991
 1090TIP3    H227466   0.153   3.735  18.073
 1091TIP3   OH227467   2.057   3.707  18.589
 1091TIP3    H127468   2.030   3.611  18.556
 1091TIP3    H227469   1.961   3.732  18.631
 1092TIP3   OH227470   1.051   3.650  18.514
 1092TIP3    H127471   1.045   3.757  18.510
 1092TIP3    H227472   0.947   3.617  18.507
 1093TIP3   OH227473   1.125   4.079  17.420
 1093TIP3    H127474   1.136   4.085  17.322
 1093TIP3    H227475   1.136   4.179  17.451
 1094TIP3   OH227476   0.451   3.931  17.649
 1094TIP3    H127477   0.487   3.909  17.739
 1094TIP3    H227478   0.345   3.925  17.666
 1095TIP3   OH227479   1.416   3.967  17.458
 1095TIP3    H127480   1.310   3.985  17.449
 1095TIP3    H227481   1.418   3.900  17.535
 1096TIP3   OH227482   1.727   2.756  18.627
 1096TIP3    H127483   1.664   2.801  18.558
 1096TIP3    H227484   1.717   2.652  18.604
 1097TIP3   OH227485   0.343   3.523  18.416
 1097TIP3    H127486   0.365   3.473  18.500
 1097TIP3    H227487   0.273   3.451  18.381
 1098TIP3   OH227488   1.168   2.159  18.338
 1098TIP3    H127489   1.202   2.113  18.421
 1098TIP3    H227490   1.060   2.161  18.348
 1099TIP3   OH227491   1.475   2.618  18.492
 1099TIP3    H127492   1.411   2.563  18.553
 1099TIP3    H227493   1.432   2.716  18.496
 1100TIP3   OH227494   1.077   2.496  17.176
 1100TIP3    H127495   1.074   2.404  17.224
 1100TIP3    H227496   1.097   2.460  17.086
 1101TIP3   OH227497   0.649   2.736  18.154
 1101TIP3    H127498   0.565   2.754  18.214
 1101TIP3    H227499   0.667   2.838  18.125
 1102TIP3   OH227500   0.661   2.762  17.677
 1102TIP3    H127501   0.554   2.782  17.663
 1102TIP3    H227502   0.693   2.750  17.584
 1103TIP3   OH227503   1.207   2.783  17.491
 1103TIP3    H127504   1.185   2.884  17.466
 1103TIP3    H227505   1.287   2.758  17.428
 1104TIP3   OH227506   1.123   2.859  18.661
 1104TIP3    H127507   1.072   2.769  18.690
 1104TIP3    H227508   1.201   2.863  18.726
 1105TIP3   OH227509   1.340   2.775  17.822
 1105TIP3    H127510   1.346   2.864  17.769
 1105TIP3    H227511   1.341   2.699  17.753
 1106TIP3   OH227512   0.393   2.763  18.295
 1106TIP3    H127513   0.464   2.795  18.361
 1106TIP3    H227514   0.342   2.683  18.339
 1107TIP3   OH227515   0.758   2.365  17.045
 1107TIP3    H127516   0.695   2.324  17.113
 1107TIP3    H227517   0.737   2.468  17.049
 1108TIP3   OH227518   0.149   2.531  17.716
 1108TIP3    H127519   0.101   2.503  17.798
 1108TIP3    H227520   0.074   2.512  17.650
 1109TIP3   OH227521   1.253   2.921  18.243
 1109TIP3    H127522   1.320   2.852  18.200
 1109TIP3    H227523   1.201   2.856  18.307
 1110TIP3   OH227524   0.930   2.509  17.759
 1110TIP3    H127525   0.826   2.505  17.785
 1110TIP3    H227526   0.970   2.425  17.806
 1111TIP3   OH227527   0.382   2.713  17.607
 1111TIP3    H127528   0.303   2.749  17.548
 1111TIP3    H227529   0.374   2.608  17.590
 1112TIP3   OH227530   0.748   2.720  17.426
 1112TIP3    H127531   0.841   2.669  17.423
 1112TIP3    H227532   0.711   2.710  17.336
 1113TIP3   OH227533   1.400   2.424  18.047
 1113TIP3    H127534   1.324   2.400  18.113
 1113TIP3    H227535   1.387   2.351  17.979
 1114TIP3   OH227536   1.737   4.170  18.725
 1114TIP3    H127537   1.774   4.212  18.643
 1114TIP3    H227538   1.826   4.176  18.780
 1115TIP3   OH227539   0.460   3.321  18.610
 1115TIP3    H127540   0.531   3.328  18.683
 1115TIP3    H227541   0.370   3.306  18.660
 1116TIP3   OH227542   1.060   2.798  17.949
 1116TIP3    H127543   1.134   2.780  17.882
 1116TIP3    H227544   1.039   2.699  17.980
 1117TIP3   OH227545   0.926   2.600  18.202
 1117TIP3    H127546   0.846   2.666  18.179
 1117TIP3    H227547   1.001   2.668  18.235
 1118TIP3   OH227548   0.928   3.292  17.325
 1118TIP3    H127549   0.851   3.225  17.302
 1118TIP3    H227550   0.898   3.323  17.414
 1119TIP3   OH227551   1.785   3.250  18.233
 1119TIP3    H127552   1.842   3.301  18.162
 1119TIP3    H227553   1.690   3.240  18.189
 1120TIP3   OH227554   1.105   3.353  18.487
 1120TIP3    H127555   1.055   3.335  18.571
 1120TIP3    H227556   1.108   3.461  18.486
 1121TIP3   OH227557   1.441   2.731  17.326
 1121TIP3    H127558   1.525   2.719  17.386
 1121TIP3    H227559   1.472   2.813  17.272
 1122TIP3   OH227560   0.442   3.267  17.912
 1122TIP3    H127561   0.488   3.254  17.824
 1122TIP3    H227562   0.487   3.188  17.963
 1123TIP3   OH227563   1.199   3.443  17.280
 1123TIP3    H127564   1.158   3.543  17.272
 1123TIP3    H227565   1.109   3.385  17.272
 1124TIP3   OH227566   0.195   3.004  18.419
 1124TIP3    H127567   0.190   2.988  18.515
 1124TIP3    H227568   0.088   3.013  18.402
 1125TIP3   OH227569   0.875   3.033  18.649
 1125TIP3    H127570   0.824   2.975  18.580
 1125TIP3    H227571   0.969   2.981  18.652
 1126TIP3   OH227572   1.415   3.599  18.487
 1126TIP3    H127573   1.344   3.608  18.413
 1126TIP3    H227574   1.364   3.655  18.557
 1127TIP3   OH227575   1.987   2.727  17.313
 1127TIP3    H127576   1.917   2.709  17.240
 1127TIP3    H227577   2.003   2.833  17.301
 1128TIP3   OH227578   2.035   3.391  18.577
 1128TIP3    H127579   1.931   3.405  18.555
 1128TIP3    H227580   2.077   3.376  18.487
 1129TIP3   OH227581   1.808   3.694  17.345
 1129TIP3    H127582   1.775   3.647  17.427
 1129TIP3    H227583   1.896   3.746  17.373
 1130TIP3   OH227584   1.541   3.106  18.092
 1130TIP3    H127585   1.440   3.115  18.064
 1130TIP3    H227586   1.587   3.066  18.012
 1131TIP3   OH227587   0.716   3.611  17.693
 1131TIP3    H127588   0.750   3.711  17.677
 1131TIP3    H227589   0.619   3.614  17.654
 1132TIP3   OH227590   0.828   3.348  17.594
 1132TIP3    H127591   0.789   3.445  17.617
 1132TIP3    H227592   0.772   3.281  17.651
 1133TIP3   OH227593   0.926   3.797  18.279
 1133TIP3    H127594   0.984   3.883  18.256
 1133TIP3    H227595   1.007   3.725  18.291
 1134TIP3   OH227596   0.725   3.887  17.554
 1134TIP3    H127597   0.620   3.903  17.577
 1134TIP3    H227598   0.769   3.963  17.611
 1135TIP3   OH227599   1.248   3.355  18.224
 1135TIP3    H127600   1.221   3.350  18.319
 1135TIP3    H227601   1.328   3.287  18.216
 1136TIP3   OH227602   1.612   3.854  18.449
 1136TIP3    H127603   1.515   3.809  18.435
 1136TIP3    H227604   1.615   3.927  18.376
 1137TIP3   OH227605   2.023   3.940  17.180
 1137TIP3    H127606   2.078   4.001  17.119
 1137TIP3    H227607   1.957   4.017  17.215
 1138TIP3   OH227608   0.298   2.498  18.397
 1138TIP3    H127609   0.262   2.538  18.481
 1138TIP3    H227610   0.288   2.394  18.413
 1139TIP3   OH227611   0.277   3.806  18.221
 1139TIP3    H127612   0.337   3.722  18.244
 1139TIP3    H227613   0.251   3.841  18.309
 1140TIP3   OH227614   0.926   3.544  17.028
 1140TIP3    H127615   0.946   3.608  16.953
 1140TIP3    H227616   0.822   3.530  17.020
 1141TIP3   OH227617   0.745   3.578  17.235
 1141TIP3    H127618   0.839   3.546  17.195
 1141TIP3    H227619   0.772   3.677  17.263
 1142TIP3   OH227620   1.252   2.451  18.316
 1142TIP3    H127621   1.354   2.458  18.338
 1142TIP3    H227622   1.227   2.351  18.343
 1143TIP3   OH227623   1.396   2.380  17.436
 1143TIP3    H127624   1.373   2.445  17.361
 1143TIP3    H227625   1.409   2.446  17.513
 1144TIP3   OH227626   1.096   3.724  17.276
 1144TIP3    H127627   0.997   3.761  17.290
 1144TIP3    H227628   1.132   3.796  17.212
 1145TIP3   OH227629   1.007   2.559  17.484
 1145TIP3    H127630   1.069   2.647  17.484
 1145TIP3    H227631   0.961   2.560  17.573
 1146TIP3   OH227632   1.141   2.719  18.409
 1146TIP3    H127633   1.154   2.756  18.500
 1146TIP3    H227634   1.165   2.614  18.417
 1147TIP3   OH227635   1.154   2.297  17.607
 1147TIP3    H127636   1.117   2.397  17.608
 1147TIP3    H227637   1.214   2.305  17.527
 1148TIP3   OH227638   0.825   3.883  17.295
 1148TIP3    H127639   0.900   3.958  17.303
 1148TIP3    H227640   0.781   3.883  17.385
 1149TIP3   OH227641   1.740   2.475  18.512
 1149TIP3    H127642   1.638   2.503  18.494
 1149TIP3    H227643   1.789   2.493  18.426
 1150TIP3   OH227644   1.629   2.878  17.879
 1150TIP3    H127645   1.542   2.817  17.892
 1150TIP3    H227646   1.701   2.831  17.940
 1151TIP3   OH227647   0.429   3.551  17.122
 1151TIP3    H127648   0.502   3.553  17.193
 1151TIP3    H227649   0.485   3.485  17.064
 1152TIP3   OH227650   1.741   3.934  18.063
 1152TIP3    H127651   1.741   4.006  17.991
 1152TIP3    H227652   1.848   3.923  18.073
 1153TIP3   OH227653   0.246   3.705  17.535
 1153TIP3    H127654   0.146   3.737  17.533
 1153TIP3    H227655   0.287   3.762  17.462
 1154TIP3   OH227656   0.173   4.002  18.676
 1154TIP3    H127657   0.237   4.010  18.754
 1154TIP3    H227658   0.142   3.902  18.689
 1155TIP3   OH227659   0.686   3.901  18.830
 1155TIP3    H127660   0.771   3.845  18.860
 1155TIP3    H227661   0.666   3.853  18.746
 1156TIP3   OH227662   1.357   3.727  18.732
 1156TIP3    H127663   1.319   3.627  18.750
 1156TIP3    H227664   1.455   3.720  18.770
 1157TIP3   OH227665   0.217   3.350  18.798
 1157TIP3    H127666   0.238   3.245  18.811
 1157TIP3    H227667   0.113   3.339  18.775
 1158TIP3   OH227668   0.615   3.337  17.025
 1158TIP3    H127669   0.689   3.278  17.071
 1158TIP3    H227670   0.641   3.311  16.934
 1159TIP3   OH227671   0.861   3.329  18.699
 1159TIP3    H127672   0.844   3.383  18.614
 1159TIP3    H227673   0.873   3.225  18.672
 1160TIP3   OH227674   1.484   3.297  18.483
 1160TIP3    H127675   1.578   3.347  18.488
 1160TIP3    H227676   1.420   3.381  18.470
 1161TIP3   OH227677   0.238   2.990  18.763
 1161TIP3    H127678   0.316   2.916  18.753
 1161TIP3    H227679   0.241   3.013  18.859
 1162TIP3   OH227680   0.671   2.874  18.428
 1162TIP3    H127681   0.614   2.966  18.438
 1162TIP3    H227682   0.758   2.913  18.380
 1163TIP3   OH227683   1.266   3.196  18.785
 1163TIP3    H127684   1.326   3.143  18.720
 1163TIP3    H227685   1.231   3.114  18.839
 1164TIP3   OH227686   0.718   2.611  18.542
 1164TIP3    H127687   0.734   2.544  18.467
 1164TIP3    H227688   0.722   2.707  18.497
 1165TIP3   OH227689   0.773   2.399  18.334
 1165TIP3    H127690   0.841   2.460  18.281
 1165TIP3    H227691   0.686   2.406  18.278
 1166TIP3   OH227692   0.913   3.016  18.334
 1166TIP3    H127693   1.011   3.026  18.300
 1166TIP3    H227694   0.865   3.104  18.296
 1167TIP3   OH227695   1.405   2.750  18.824
 1167TIP3    H127696   1.438   2.649  18.815
 1167TIP3    H227697   1.494   2.803  18.846
 1168TIP3   OH227698   1.578   3.108  18.677
 1168TIP3    H127699   1.535   3.166  18.606
 1168TIP3    H227700   1.681   3.108  18.648
 1169TIP3   OH227701   0.498   2.747  18.738
 1169TIP3    H127702   0.436   2.661  18.756
 1169TIP3    H227703   0.567   2.704  18.674
 1170TIP3   OH227704   0.868   2.126  18.341
 1170TIP3    H127705   0.834   2.229  18.348
 1170TIP3    H227706   0.780   2.078  18.310
 1171TIP3   OH227707   0.979   2.612  18.732
 1171TIP3    H127708   0.936   2.573  18.813
 1171TIP3    H227709   0.903   2.591  18.666
 1172TIP3   OH227710   1.278   2.509  18.655
 1172TIP3    H127711   1.179   2.523  18.686
 1172TIP3    H227712   1.317   2.446  18.727
 1173TIP3   OH227713   1.447   2.359  18.830
 1173TIP3    H127714   1.450   2.253  18.825
 1173TIP3    H227715   1.441   2.377  18.925
 1174TIP3   OH227716   0.332   2.503  18.763
 1174TIP3    H127717   0.372   2.418  18.715
 1174TIP3    H227718   0.298   2.456  18.847
 1175TIP3   OH227719   0.860   2.100  18.626
 1175TIP3    H127720   0.946   2.037  18.635
 1175TIP3    H227721   0.857   2.106  18.529
 1176TIP3   OH227722   0.870   2.229  18.877
 1176TIP3    H127723   0.853   2.186  18.788
 1176TIP3    H227724   0.822   2.325  18.872
 1177TIP3   OH227725   0.128   3.468  17.058
 1177TIP3    H127726   0.154   3.565  17.090
 1177TIP3    H227727   0.224   3.428  17.048
 1178TIP3   OH227728   0.087   4.066  17.528
 1178TIP3    H127729  -0.005   4.090  17.575
 1178TIP3    H227730   0.154   4.084  17.601
 1179TIP3   OH227731   0.194   3.919  17.784
 1179TIP3    H127732   0.187   3.813  17.780
 1179TIP3    H227733   0.228   3.938  17.875
 1180TIP3   OH227734   2.057   3.974  18.062
 1180TIP3    H127735   2.076   3.951  18.154
 1180TIP3    H227736   2.099   4.072  18.057
 1181TIP3   OH227737   2.008   3.913  18.386
 1181TIP3    H127738   1.958   3.828  18.345
 1181TIP3    H227739   2.038   3.869  18.472
 1182TIP3   OH227740   1.827   3.446  18.861
 1182TIP3    H127741   1.727   3.457  18.895
 1182TIP3    H227742   1.870   3.543  18.883
 1183TIP3   OH227743   1.962   3.287  17.350
 1183TIP3    H127744   2.061   3.329  17.364
 1183TIP3    H227745   1.950   3.232  17.434
 1184TIP3   OH227746   1.978   3.084  17.573
 1184TIP3    H127747   1.896   3.022  17.606
 1184TIP3    H227748   2.036   3.093  17.655
 1185TIP3   OH227749   1.976   3.361  18.062
 1185TIP3    H127750   2.052   3.290  18.033
 1185TIP3    H227751   2.014   3.454  18.029
 1186TIP3   OH227752   1.832   3.692  18.311
 1186TIP3    H127753   1.750   3.735  18.361
 1186TIP3    H227754   1.777   3.662  18.229
 1187TIP3   OH227755   1.991   3.006  17.226
 1187TIP3    H127756   1.976   3.048  17.139
 1187TIP3    H227757   2.019   3.091  17.281
 1188TIP3   OH227758   1.763   2.910  17.646
 1188TIP3    H127759   1.726   2.815  17.619
 1188TIP3    H227760   1.737   2.910  17.741
 1189TIP3   OH227761   0.184   3.215  18.059
 1189TIP3    H127762   0.213   3.183  17.970
 1189TIP3    H227763   0.273   3.188  18.107
 1190TIP3   OH227764   1.883   3.123  18.606
 1190TIP3    H127765   1.934   3.028  18.621
 1190TIP3    H227766   1.962   3.197  18.603
 1191TIP3   OH227767   2.006   2.853  18.643
 1191TIP3    H127768   1.905   2.819  18.624
 1191TIP3    H227769   2.060   2.761  18.658
 1192TIP3   OH227770   1.694   2.676  17.489
 1192TIP3    H127771   1.707   2.569  17.488
 1192TIP3    H227772   1.795   2.704  17.467
 1193TIP3   OH227773   1.816   2.718  18.028
 1193TIP3    H127774   1.923   2.731  18.035
 1193TIP3    H227775   1.790   2.727  18.122
 1194TIP3   OH227776   1.811   2.797  18.291
 1194TIP3    H127777   1.718   2.825  18.334
 1194TIP3    H227778   1.856   2.892  18.268
 1195TIP3   OH227779   0.122   2.593  18.603
 1195TIP3    H127780   0.205   2.604  18.666
 1195TIP3    H227781   0.119   2.487  18.591
 1196TIP3   OH227782   2.075   2.181  18.817
 1196TIP3    H127783   2.124   2.100  18.773
 1196TIP3    H227784   2.059   2.251  18.741
 1197TIP3   OH227785   1.800   2.374  17.509
 1197TIP3    H127786   1.834   2.313  17.584
 1197TIP3    H227787   1.749   2.302  17.454
 1198TIP3   OH227788   0.085   2.751  18.051
 1198TIP3    H127789   0.154   2.760  17.977
 1198TIP3    H227790   0.109   2.838  18.103
 1199TIP3   OH227791   1.992   2.371  18.630
 1199TIP3    H127792   1.895   2.417  18.640
 1199TIP3    H227793   1.966   2.306  18.556
 1200TIP3   OH227794   2.012   2.321  17.123
 1200TIP3    H127795   2.090   2.251  17.118
 1200TIP3    H227796   2.065   2.413  17.136
 1201TIP3   OH227797   1.690   3.997  17.675
 1201TIP3    H127798   1.770   4.011  17.612
 1201TIP3    H227799   1.714   4.064  17.748
 1202TIP3   OH227800   0.075   2.180  18.313
 1202TIP3    H127801  -0.004   2.178  18.379
 1202TIP3    H227802   0.034   2.243  18.245
 1203TIP3   OH227803   0.274   3.650  18.696
 1203TIP3    H127804   0.187   3.631  18.642
 1203TIP3    H227805   0.287   3.556  18.743
 1204TIP3   OH227806   0.616   3.821  18.356
 1204TIP3    H127807   0.609   3.919  18.317
 1204TIP3    H227808   0.722   3.803  18.351
 1205TIP3   OH227809   1.082   3.946  18.595
 1205TIP3    H127810   1.091   3.893  18.679
 1205TIP3    H227811   1.181   3.984  18.582
 1206TIP3   OH227812   1.326   4.112  18.541
 1206TIP3    H127813   1.403   4.049  18.508
 1206TIP3    H227814   1.360   4.137  18.631
 1207TIP3   OH227815   1.884   2.133  18.473
 1207TIP3    H127816   1.808   2.179  18.419
 1207TIP3    H227817   1.894   2.037  18.428
 1208TIP3   OH227818   0.345   4.141  18.341
 1208TIP3    H127819   0.251   4.177  18.306
 1208TIP3    H227820   0.323   4.125  18.435
 1209TIP3   OH227821   0.602   4.089  18.227
 1209TIP3    H127822   0.498   4.097  18.257
 1209TIP3    H227823   0.605   4.162  18.158
 1210TIP3   OH227824   1.095   4.038  18.173
 1210TIP3    H127825   1.024   4.067  18.104
 1210TIP3    H227826   1.108   4.135  18.212
 1211TIP3   OH227827   1.349   3.928  18.292
 1211TIP3    H127828   1.277   3.964  18.227
 1211TIP3    H227829   1.422   4.003  18.280
 1212TIP3   OH227830   1.634   4.096  18.266
 1212TIP3    H127831   1.653   4.197  18.235
 1212TIP3    H227832   1.648   4.041  18.182
 1213TIP3   OH227833   0.324   3.994  18.022
 1213TIP3    H127834   0.290   3.928  18.094
 1213TIP3    H227835   0.416   3.944  17.993
 1214TIP3   OH227836   0.544   3.847  17.895
 1214TIP3    H127837   0.505   3.749  17.911
 1214TIP3    H227838   0.643   3.839  17.935
 1215TIP3   OH227839   0.793   3.813  18.035
 1215TIP3    H127840   0.843   3.718  18.037
 1215TIP3    H227841   0.822   3.850  18.122
 1216TIP3   OH227842   1.098   2.232  17.888
 1216TIP3    H127843   1.026   2.152  17.880
 1216TIP3    H227844   1.138   2.244  17.800
 1217TIP3   OH227845   1.746   2.098  17.890
 1217TIP3    H127846   1.817   2.156  17.837
 1217TIP3    H227847   1.652   2.126  17.849
 1218TIP3   OH227848   1.925   2.234  17.721
 1218TIP3    H127849   1.994   2.165  17.678
 1218TIP3    H227850   1.990   2.320  17.736
 1219TIP3   OH227851   0.843   2.122  17.653
 1219TIP3    H127852   0.900   2.202  17.616
 1219TIP3    H227853   0.864   2.124  17.748
 1220TIP3   OH227854   1.471   2.146  17.780
 1220TIP3    H127855   1.409   2.171  17.704
 1220TIP3    H227856   1.417   2.060  17.815
 1221TIP3   OH227857   1.587   2.123  17.346
 1221TIP3    H127858   1.523   2.201  17.375
 1221TIP3    H227859   1.544   2.038  17.394
 1222TIP3   OH227860   0.136   3.895  17.307
 1222TIP3    H127861   0.036   3.916  17.280
 1222TIP3    H227862   0.138   3.957  17.388
 1223TIP3   OH227863   0.942   2.289  17.345
 1223TIP3    H127864   0.833   2.284  17.346
 1223TIP3    H227865   0.953   2.388  17.383
 1224TIP3   OH227866   1.186   3.980  17.177
 1224TIP3    H127867   1.266   4.029  17.132
 1224TIP3    H227868   1.135   3.945  17.096
 1225TIP3   OH227869   1.874   3.959  17.478
 1225TIP3    H127870   1.807   3.893  17.434
 1225TIP3    H227871   1.877   4.041  17.414
 1226TIP3   OH227872   0.272   2.212  18.634
 1226TIP3    H127873   0.221   2.116  18.631
 1226TIP3    H227874   0.369   2.182  18.668
 1227TIP3   OH227875   0.531   2.147  18.806
 1227TIP3    H127876   0.629   2.115  18.779
 1227TIP3    H227877   0.498   2.057  18.850
 1228TIP3   OH227878   1.453   2.058  18.812
 1228TIP3    H127879   1.459   1.992  18.890
 1228TIP3    H227880   1.554   2.050  18.778
 1229TIP3   OH227881   1.804   3.831  18.653
 1229TIP3    H127882   1.725   3.825  18.585
 1229TIP3    H227883   1.793   3.933  18.683
 1230TIP3   OH227884   3.414   3.164  17.641
 1230TIP3    H127885   3.390   3.267  17.643
 1230TIP3    H227886   3.332   3.130  17.586
 1231TIP3   OH227887   3.287   3.043  17.999
 1231TIP3    H127888   3.294   2.996  18.087
 1231TIP3    H227889   3.219   2.971  17.958
 1232TIP3   OH227890   2.407   3.044  18.172
 1232TIP3    H127891   2.401   2.950  18.220
 1232TIP3    H227892   2.511   3.064  18.175
 1233TIP3   OH227893   2.529   3.532  17.983
 1233TIP3    H127894   2.498   3.432  17.962
 1233TIP3    H227895   2.635   3.524  17.967
 1234TIP3   OH227896   2.166   2.801  17.536
 1234TIP3    H127897   2.126   2.895  17.563
 1234TIP3    H227898   2.081   2.760  17.491
 1235TIP3   OH227899   2.208   3.048  17.795
 1235TIP3    H127900   2.269   2.963  17.818
 1235TIP3    H227901   2.277   3.121  17.761
 1236TIP3   OH227902   3.346   3.972  17.836
 1236TIP3    H127903   3.356   3.914  17.754
 1236TIP3    H227904   3.322   3.900  17.903
 1237TIP3   OH227905   3.077   3.328  18.085
 1237TIP3    H127906   3.131   3.273  18.019
 1237TIP3    H227907   3.160   3.361  18.139
 1238TIP3   OH227908   4.011   2.419  18.102
 1238TIP3    H127909   4.026   2.475  18.185
 1238TIP3    H227910   4.097   2.446  18.051
 1239TIP3   OH227911   3.480   2.742  18.129
 1239TIP3    H127912   3.493   2.636  18.123
 1239TIP3    H227913   3.446   2.768  18.039
 1240TIP3   OH227914   2.696   2.599  17.871
 1240TIP3    H127915   2.685   2.655  17.788
 1240TIP3    H227916   2.737   2.508  17.834
 1241TIP3   OH227917   3.551   2.569  17.698
 1241TIP3    H127918   3.622   2.506  17.743
 1241TIP3    H227919   3.586   2.569  17.607
 1242TIP3   OH227920   2.312   2.767  17.861
 1242TIP3    H127921   2.376   2.722  17.929
 1242TIP3    H227922   2.357   2.729  17.779
 1243TIP3   OH227923   2.831   2.972  17.839
 1243TIP3    H127924   2.924   2.936  17.876
 1243TIP3    H227925   2.806   2.892  17.778
 1244TIP3   OH227926   4.039   2.551  18.338
 1244TIP3    H127927   3.994   2.644  18.309
 1244TIP3    H227928   4.083   2.581  18.422
 1245TIP3   OH227929   2.559   2.396  18.223
 1245TIP3    H127930   2.520   2.452  18.148
 1245TIP3    H227931   2.490   2.421  18.295
 1246TIP3   OH227932   2.814   3.241  18.196
 1246TIP3    H127933   2.756   3.320  18.234
 1246TIP3    H227934   2.890   3.294  18.146
 1247TIP3   OH227935   3.786   2.483  17.859
 1247TIP3    H127936   3.759   2.397  17.908
 1247TIP3    H227937   3.821   2.550  17.928
 1248TIP3   OH227938   2.486   2.635  18.042
 1248TIP3    H127939   2.552   2.688  18.103
 1248TIP3    H227940   2.559   2.611  17.971
 1249TIP3   OH227941   2.682   3.489  18.290
 1249TIP3    H127942   2.660   3.562  18.222
 1249TIP3    H227943   2.585   3.476  18.332
 1250TIP3   OH227944   2.224   3.428  17.398
 1250TIP3    H127945   2.245   3.497  17.327
 1250TIP3    H227946   2.235   3.494  17.476
 1251TIP3   OH227947   3.706   2.355  18.194
 1251TIP3    H127948   3.623   2.386  18.136
 1251TIP3    H227949   3.789   2.371  18.134
 1252TIP3   OH227950   2.973   2.130  17.988
 1252TIP3    H127951   2.936   2.052  17.933
 1252TIP3    H227952   2.883   2.190  17.996
 1253TIP3   OH227953   3.838   3.428  18.447
 1253TIP3    H127954   3.852   3.346  18.382
 1253TIP3    H227955   3.841   3.510  18.384
 1254TIP3   OH227956   3.252   3.065  17.408
 1254TIP3    H127957   3.169   3.130  17.381
 1254TIP3    H227958   3.328   3.100  17.347
 1255TIP3   OH227959   3.266   2.874  17.072
 1255TIP3    H127960   3.317   2.918  17.149
 1255TIP3    H227961   3.237   2.779  17.107
 1256TIP3   OH227962   4.067   3.023  18.231
 1256TIP3    H127963   4.002   3.108  18.244
 1256TIP3    H227964   4.127   3.058  18.158
 1257TIP3   OH227965   3.666   3.097  17.509
 1257TIP3    H127966   3.575   3.118  17.557
 1257TIP3    H227967   3.721   3.037  17.574
 1258TIP3   OH227968   3.622   2.908  18.414
 1258TIP3    H127969   3.599   3.007  18.443
 1258TIP3    H227970   3.566   2.905  18.331
 1259TIP3   OH227971   2.732   3.177  17.671
 1259TIP3    H127972   2.690   3.118  17.597
 1259TIP3    H227973   2.779   3.101  17.727
 1260TIP3   OH227974   2.860   3.529  17.968
 1260TIP3    H127975   2.873   3.503  17.874
 1260TIP3    H227976   2.937   3.472  18.012
 1261TIP3   OH227977   2.704   3.010  18.069
 1261TIP3    H127978   2.742   3.007  17.977
 1261TIP3    H227979   2.762   3.088  18.111
 1262TIP3   OH227980   3.476   3.673  18.137
 1262TIP3    H127981   3.438   3.738  18.207
 1262TIP3    H227982   3.442   3.576  18.164
 1263TIP3   OH227983   2.851   3.523  18.507
 1263TIP3    H127984   2.770   3.573  18.552
 1263TIP3    H227985   2.804   3.508  18.420
 1264TIP3   OH227986   3.509   3.026  17.259
 1264TIP3    H127987   3.554   2.978  17.336
 1264TIP3    H227988   3.579   3.104  17.240
 1265TIP3   OH227989   2.542   3.114  18.445
 1265TIP3    H127990   2.514   3.213  18.466
 1265TIP3    H227991   2.450   3.068  18.424
 1266TIP3   OH227992   2.641   3.696  18.604
 1266TIP3    H127993   2.669   3.735  18.515
 1266TIP3    H227994   2.536   3.705  18.597
 1267TIP3   OH227995   2.573   3.056  17.455
 1267TIP3    H127996   2.542   3.149  17.412
 1267TIP3    H227997   2.511   2.985  17.412
 1268TIP3   OH227998   4.145   3.675  17.167
 1268TIP3    H127999   4.077   3.758  17.164
 1268TIP3    H228000   4.165   3.661  17.073
 1269TIP3   OH228001   2.200   3.322  18.365
 1269TIP3    H128002   2.159   3.309  18.277
 1269TIP3    H228003   2.224   3.219  18.385
 1270TIP3   OH228004   2.169   3.627  17.994
 1270TIP3    H128005   2.276   3.621  18.000
 1270TIP3    H228006   2.149   3.703  18.058
 1271TIP3   OH228007   4.125   3.683  18.622
 1271TIP3    H128008   4.088   3.647  18.537
 1271TIP3    H228009   4.035   3.732  18.655
 1272TIP3   OH228010   3.135   3.651  18.496
 1272TIP3    H128011   3.135   3.744  18.545
 1272TIP3    H228012   3.032   3.618  18.500
 1273TIP3   OH228013   3.177   4.090  17.439
 1273TIP3    H128014   3.186   4.087  17.342
 1273TIP3    H228015   3.204   4.190  17.462
 1274TIP3   OH228016   2.499   3.931  17.657
 1274TIP3    H128017   2.526   3.897  17.747
 1274TIP3    H228018   2.399   3.896  17.648
 1275TIP3   OH228019   3.804   2.778  18.627
 1275TIP3    H128020   3.739   2.827  18.563
 1275TIP3    H228021   3.789   2.675  18.599
 1276TIP3   OH228022   2.437   3.455  18.445
 1276TIP3    H128023   2.422   3.410  18.533
 1276TIP3    H228024   2.346   3.420  18.400
 1277TIP3   OH228025   2.707   2.233  18.046
 1277TIP3    H128026   2.616   2.247  17.996
 1277TIP3    H228027   2.673   2.254  18.136
 1278TIP3   OH228028   3.244   2.163  18.341
 1278TIP3    H128029   3.282   2.121  18.424
 1278TIP3    H228030   3.137   2.165  18.356
 1279TIP3   OH228031   3.514   2.618  18.488
 1279TIP3    H128032   3.452   2.589  18.565
 1279TIP3    H228033   3.503   2.724  18.484
 1280TIP3   OH228034   2.734   2.735  18.167
 1280TIP3    H128035   2.670   2.768  18.238
 1280TIP3    H228036   2.738   2.825  18.113
 1281TIP3   OH228037   2.711   2.796  17.654
 1281TIP3    H128038   2.609   2.773  17.631
 1281TIP3    H228039   2.750   2.814  17.563
 1282TIP3   OH228040   3.328   2.835  17.567
 1282TIP3    H128041   3.290   2.914  17.509
 1282TIP3    H228042   3.400   2.792  17.506
 1283TIP3   OH228043   3.187   2.861  18.676
 1283TIP3    H128044   3.146   2.768  18.709
 1283TIP3    H228045   3.276   2.868  18.730
 1284TIP3   OH228046   3.423   2.776  17.843
 1284TIP3    H128047   3.396   2.819  17.757
 1284TIP3    H228048   3.455   2.681  17.808
 1285TIP3   OH228049   2.444   2.759  18.298
 1285TIP3    H128050   2.490   2.780  18.383
 1285TIP3    H228051   2.408   2.660  18.315
 1286TIP3   OH228052   2.116   2.457  17.743
 1286TIP3    H128053   2.192   2.462  17.811
 1286TIP3    H228054   2.173   2.445  17.662
 1287TIP3   OH228055   2.206   2.537  17.251
 1287TIP3    H128056   2.285   2.578  17.200
 1287TIP3    H228057   2.142   2.621  17.270
 1288TIP3   OH228058   3.313   2.944  18.252
 1288TIP3    H128059   3.387   2.873  18.218
 1288TIP3    H228060   3.254   2.880  18.310
 1289TIP3   OH228061   3.049   2.519  17.751
 1289TIP3    H128062   2.958   2.463  17.735
 1289TIP3    H228063   3.089   2.469  17.828
 1290TIP3   OH228064   2.432   2.680  17.612
 1290TIP3    H128065   2.336   2.697  17.570
 1290TIP3    H228066   2.474   2.599  17.559
 1291TIP3   OH228067   2.829   2.768  17.403
 1291TIP3    H128068   2.918   2.720  17.439
 1291TIP3    H228069   2.807   2.703  17.329
 1292TIP3   OH228070   3.480   2.434  18.053
 1292TIP3    H128071   3.411   2.429  18.129
 1292TIP3    H228072   3.442   2.359  17.991
 1293TIP3   OH228073   3.800   4.159  18.710
 1293TIP3    H128074   3.833   4.199  18.624
 1293TIP3    H228075   3.891   4.164  18.761
 1294TIP3   OH228076   2.443   3.329  18.692
 1294TIP3    H128077   2.519   3.275  18.740
 1294TIP3    H228078   2.356   3.283  18.732
 1295TIP3   OH228079   3.101   2.818  17.939
 1295TIP3    H128080   3.158   2.776  17.867
 1295TIP3    H228081   3.081   2.730  17.991
 1296TIP3   OH228082   2.500   2.352  17.521
 1296TIP3    H128083   2.462   2.292  17.594
 1296TIP3    H228084   2.602   2.362  17.557
 1297TIP3   OH228085   3.013   2.612  18.160
 1297TIP3    H128086   2.918   2.663  18.157
 1297TIP3    H228087   3.062   2.664  18.232
 1298TIP3   OH228088   3.045   3.268  17.354
 1298TIP3    H128089   2.949   3.223  17.332
 1298TIP3    H228090   3.024   3.328  17.433
 1299TIP3   OH228091   3.870   3.253  18.234
 1299TIP3    H128092   3.917   3.297  18.155
 1299TIP3    H228093   3.780   3.217  18.193
 1300TIP3   OH228094   3.179   3.356  18.471
 1300TIP3    H128095   3.141   3.317  18.554
 1300TIP3    H228096   3.169   3.462  18.487
 1301TIP3   OH228097   3.539   2.735  17.359
 1301TIP3    H128098   3.634   2.691  17.380
 1301TIP3    H228099   3.544   2.746  17.263
 1302TIP3   OH228100   2.526   3.235  17.903
 1302TIP3    H128101   2.592   3.232  17.826
 1302TIP3    H228102   2.563   3.156  17.959
 1303TIP3   OH228103   2.199   3.037  18.435
 1303TIP3    H128104   2.168   2.995  18.520
 1303TIP3    H228105   2.130   2.994  18.371
 1304TIP3   OH228106   2.933   3.025  18.651
 1304TIP3    H128107   2.888   2.960  18.587
 1304TIP3    H228108   3.033   2.983  18.657
 1305TIP3   OH228109   3.486   3.593  18.494
 1305TIP3    H128110   3.396   3.605  18.443
 1305TIP3    H228111   3.457   3.647  18.575
 1306TIP3   OH228112   4.054   2.719  17.320
 1306TIP3    H128113   4.054   2.627  17.268
 1306TIP3    H228114   4.143   2.764  17.289
 1307TIP3   OH228115   4.102   3.370  18.569
 1307TIP3    H128116   4.004   3.376  18.528
 1307TIP3    H228117   4.161   3.359  18.487
 1308TIP3   OH228118   3.619   3.090  18.083
 1308TIP3    H128119   3.514   3.098  18.062
 1308TIP3    H228120   3.654   3.029  18.008
 1309TIP3   OH228121   2.765   3.627  17.699
 1309TIP3    H128122   2.819   3.714  17.672
 1309TIP3    H228123   2.668   3.644  17.663
 1310TIP3   OH228124   2.955   3.379  17.623
 1310TIP3    H128125   2.883   3.460  17.628
 1310TIP3    H228126   2.896   3.293  17.647
 1311TIP3   OH228127   2.989   3.814  18.297
 1311TIP3    H128128   3.056   3.887  18.263
 1311TIP3    H228129   3.050   3.765  18.365
 1312TIP3   OH228130   2.768   3.919  17.555
 1312TIP3    H128131   2.666   3.916  17.589
 1312TIP3    H228132   2.800   4.015  17.592
 1313TIP3   OH228133   3.324   3.377  18.216
 1313TIP3    H128134   3.287   3.354  18.307
 1313TIP3    H228135   3.377   3.287  18.194
 1314TIP3   OH228136   3.691   3.842  18.456
 1314TIP3    H128137   3.589   3.804  18.459
 1314TIP3    H228138   3.681   3.927  18.395
 1315TIP3   OH228139   4.090   4.012  17.181
 1315TIP3    H128140   4.182   4.063  17.161
 1315TIP3    H228141   4.023   4.081  17.143
 1316TIP3   OH228142   2.376   2.483  18.416
 1316TIP3    H128143   2.302   2.531  18.472
 1316TIP3    H228144   2.366   2.382  18.448
 1317TIP3   OH228145   3.704   3.279  17.299
 1317TIP3    H128146   3.694   3.220  17.381
 1317TIP3    H228147   3.757   3.364  17.332
 1318TIP3   OH228148   2.324   3.765  18.226
 1318TIP3    H128149   2.401   3.696  18.249
 1318TIP3    H228150   2.308   3.817  18.309
 1319TIP3   OH228151   2.830   3.571  17.253
 1319TIP3    H128152   2.917   3.512  17.270
 1319TIP3    H228153   2.858   3.674  17.270
 1320TIP3   OH228154   2.467   3.283  17.311
 1320TIP3    H128155   2.380   3.336  17.341
 1320TIP3    H228156   2.516   3.361  17.258
 1321TIP3   OH228157   3.336   2.472  18.293
 1321TIP3    H128158   3.402   2.511  18.361
 1321TIP3    H228159   3.304   2.379  18.332
 1322TIP3   OH228160   3.366   2.401  17.397
 1322TIP3    H128161   3.355   2.412  17.300
 1322TIP3    H228162   3.465   2.365  17.399
 1323TIP3   OH228163   3.078   2.635  17.507
 1323TIP3    H128164   3.171   2.683  17.525
 1323TIP3    H228165   3.053   2.589  17.594
 1324TIP3   OH228166   3.191   2.741  18.411
 1324TIP3    H128167   3.197   2.774  18.505
 1324TIP3    H228168   3.231   2.642  18.411
 1325TIP3   OH228169   3.201   2.288  17.642
 1325TIP3    H128170   3.132   2.369  17.637
 1325TIP3    H228171   3.265   2.305  17.565
 1326TIP3   OH228172   2.852   3.862  17.307
 1326TIP3    H128173   2.952   3.896  17.315
 1326TIP3    H228174   2.822   3.868  17.401
 1327TIP3   OH228175   3.799   2.501  18.509
 1327TIP3    H128176   3.697   2.512  18.481
 1327TIP3    H228177   3.854   2.503  18.425
 1328TIP3   OH228178   3.703   2.894  17.881
 1328TIP3    H128179   3.612   2.835  17.879
 1328TIP3    H228180   3.769   2.835  17.940
 1329TIP3   OH228181   2.544   3.536  17.178
 1329TIP3    H128182   2.650   3.545  17.202
 1329TIP3    H228183   2.542   3.566  17.085
 1330TIP3   OH228184   2.356   2.735  17.009
 1330TIP3    H128185   2.435   2.803  17.026
 1330TIP3    H228186   2.272   2.797  17.017
 1331TIP3   OH228187   3.793   3.922  18.052
 1331TIP3    H128188   3.792   3.996  17.981
 1331TIP3    H228189   3.898   3.914  18.067
 1332TIP3   OH228190   2.407   2.169  17.972
 1332TIP3    H128191   2.417   2.163  17.873
 1332TIP3    H228192   2.387   2.066  17.992
 1333TIP3   OH228193   2.266   3.671  17.553
 1333TIP3    H128194   2.196   3.750  17.562
 1333TIP3    H228195   2.332   3.716  17.488
 1334TIP3   OH228196   2.218   4.014  18.703
 1334TIP3    H128197   2.280   3.988  18.780
 1334TIP3    H228198   2.178   3.918  18.679
 1335TIP3   OH228199   2.727   3.853  18.833
 1335TIP3    H128200   2.825   3.824  18.864
 1335TIP3    H228201   2.738   3.841  18.737
 1336TIP3   OH228202   3.425   3.733  18.733
 1336TIP3    H128203   3.387   3.634  18.756
 1336TIP3    H228204   3.519   3.732  18.781
 1337TIP3   OH228205   2.169   3.308  18.807
 1337TIP3    H128206   2.127   3.209  18.807
 1337TIP3    H228207   2.135   3.345  18.720
 1338TIP3   OH228208   2.925   3.312  18.683
 1338TIP3    H128209   2.908   3.373  18.603
 1338TIP3    H228210   2.921   3.209  18.650
 1339TIP3   OH228211   3.567   3.289  18.486
 1339TIP3    H128212   3.666   3.329  18.487
 1339TIP3    H228213   3.514   3.383  18.497
 1340TIP3   OH228214   2.341   3.010  18.744
 1340TIP3    H128215   2.380   2.913  18.729
 1340TIP3    H228216   2.388   3.044  18.826
 1341TIP3   OH228217   2.806   3.135  17.256
 1341TIP3    H128218   2.740   3.071  17.306
 1341TIP3    H228219   2.862   3.066  17.200
 1342TIP3   OH228220   2.725   2.884  18.424
 1342TIP3    H128221   2.660   2.967  18.444
 1342TIP3    H228222   2.804   2.936  18.376
 1343TIP3   OH228223   2.974   2.955  17.079
 1343TIP3    H128224   2.914   2.908  17.013
 1343TIP3    H228225   3.070   2.906  17.067
 1344TIP3   OH228226   3.335   3.207  18.792
 1344TIP3    H128227   3.410   3.150  18.745
 1344TIP3    H228228   3.300   3.134  18.856
 1345TIP3   OH228229   2.822   2.624  18.530
 1345TIP3    H128230   2.825   2.553  18.456
 1345TIP3    H228231   2.803   2.717  18.484
 1346TIP3   OH228232   2.840   2.417  18.311
 1346TIP3    H128233   2.897   2.456  18.236
 1346TIP3    H228234   2.741   2.422  18.273
 1347TIP3   OH228235   2.981   3.036  18.329
 1347TIP3    H128236   3.081   3.060  18.305
 1347TIP3    H228237   2.928   3.121  18.293
 1348TIP3   OH228238   3.475   2.744  18.820
 1348TIP3    H128239   3.514   2.645  18.815
 1348TIP3    H228240   3.559   2.803  18.848
 1349TIP3   OH228241   3.643   3.114  18.684
 1349TIP3    H128242   3.597   3.169  18.611
 1349TIP3    H228243   3.741   3.098  18.646
 1350TIP3   OH228244   2.644   2.701  18.749
 1350TIP3    H128245   2.553   2.652  18.718
 1350TIP3    H228246   2.714   2.668  18.680
 1351TIP3   OH228247   2.937   2.138  18.344
 1351TIP3    H128248   2.902   2.240  18.336
 1351TIP3    H228249   2.856   2.086  18.305
 1352TIP3   OH228250   3.040   2.606  18.751
 1352TIP3    H128251   2.971   2.576  18.821
 1352TIP3    H228252   2.978   2.594  18.672
 1353TIP3   OH228253   3.323   2.523  18.663
 1353TIP3    H128254   3.227   2.542  18.705
 1353TIP3    H228255   3.374   2.463  18.730
 1354TIP3   OH228256   3.516   2.373  18.819
 1354TIP3    H128257   3.526   2.265  18.816
 1354TIP3    H228258   3.505   2.392  18.915
 1355TIP3   OH228259   2.404   2.511  18.744
 1355TIP3    H128260   2.389   2.423  18.689
 1355TIP3    H228261   2.379   2.474  18.834
 1356TIP3   OH228262   2.929   2.090  18.633
 1356TIP3    H128263   3.007   2.016  18.646
 1356TIP3    H228264   2.921   2.083  18.535
 1357TIP3   OH228265   2.943   2.240  18.871
 1357TIP3    H128266   2.925   2.193  18.784
 1357TIP3    H228267   2.900   2.339  18.861
 1358TIP3   OH228268   2.102   4.096  17.610
 1358TIP3    H128269   2.022   4.037  17.573
 1358TIP3    H228270   2.135   4.033  17.683
 1359TIP3   OH228271   2.167   3.904  17.803
 1359TIP3    H128272   2.126   3.808  17.823
 1359TIP3    H228273   2.168   3.942  17.895
 1360TIP3   OH228274   4.097   3.955  18.079
 1360TIP3    H128275   4.122   3.968  18.173
 1360TIP3    H228276   4.132   4.048  18.043
 1361TIP3   OH228277   4.018   3.950  18.355
 1361TIP3    H128278   3.990   3.862  18.306
 1361TIP3    H228279   4.071   3.911  18.430
 1362TIP3   OH228280   3.900   3.470  18.903
 1362TIP3    H128281   3.799   3.462  18.942
 1362TIP3    H228282   3.927   3.568  18.939
 1363TIP3   OH228283   4.036   3.290  17.403
 1363TIP3    H128284   4.137   3.322  17.421
 1363TIP3    H228285   4.027   3.199  17.453
 1364TIP3   OH228286   4.064   3.056  17.575
 1364TIP3    H128287   3.984   2.993  17.612
 1364TIP3    H228288   4.116   3.087  17.656
 1365TIP3   OH228289   4.021   3.366  18.033
 1365TIP3    H128290   4.100   3.293  18.022
 1365TIP3    H228291   4.077   3.457  18.031
 1366TIP3   OH228292   3.882   3.692  18.301
 1366TIP3    H128293   3.820   3.753  18.359
 1366TIP3    H228294   3.815   3.684  18.226
 1367TIP3   OH228295   3.833   2.897  17.647
 1367TIP3    H128296   3.814   2.797  17.616
 1367TIP3    H228297   3.787   2.900  17.736
 1368TIP3   OH228298   2.186   3.163  18.038
 1368TIP3    H128299   2.182   3.120  17.948
 1368TIP3    H228300   2.284   3.132  18.070
 1369TIP3   OH228301   3.942   3.133  18.604
 1369TIP3    H128302   3.995   3.039  18.623
 1369TIP3    H228303   4.026   3.197  18.582
 1370TIP3   OH228304   4.081   2.888  18.665
 1370TIP3    H128305   3.983   2.848  18.644
 1370TIP3    H228306   4.139   2.797  18.670
 1371TIP3   OH228307   3.810   2.663  17.461
 1371TIP3    H128308   3.825   2.565  17.425
 1371TIP3    H228309   3.887   2.713  17.409
 1372TIP3   OH228310   3.883   2.720  18.034
 1372TIP3    H128311   3.991   2.729  18.031
 1372TIP3    H228312   3.869   2.724  18.131
 1373TIP3   OH228313   3.890   2.794  18.302
 1373TIP3    H128314   3.793   2.825  18.335
 1373TIP3    H228315   3.935   2.888  18.274
 1374TIP3   OH228316   2.161   2.615  18.638
 1374TIP3    H128317   2.255   2.595  18.683
 1374TIP3    H228318   2.105   2.523  18.652
 1375TIP3   OH228319   4.140   2.158  18.832
 1375TIP3    H128320   4.179   2.075  18.784
 1375TIP3    H228321   4.128   2.231  18.760
 1376TIP3   OH228322   2.272   2.431  18.004
 1376TIP3    H128323   2.317   2.333  17.989
 1376TIP3    H228324   2.354   2.498  17.997
 1377TIP3   OH228325   2.103   2.760  18.066
 1377TIP3    H128326   2.166   2.728  17.992
 1377TIP3    H228327   2.154   2.848  18.095
 1378TIP3   OH228328   4.067   2.380  18.651
 1378TIP3    H128329   3.974   2.433  18.668
 1378TIP3    H228330   4.037   2.323  18.574
 1379TIP3   OH228331   2.102   2.343  17.434
 1379TIP3    H128332   1.998   2.354  17.450
 1379TIP3    H228333   2.118   2.411  17.359
 1380TIP3   OH228334   2.115   2.188  18.292
 1380TIP3    H128335   2.039   2.148  18.351
 1380TIP3    H228336   2.064   2.265  18.244
 1381TIP3   OH228337   2.334   3.659  18.723
 1381TIP3    H128338   2.261   3.663  18.651
 1381TIP3    H228339   2.292   3.731  18.783
 1382TIP3   OH228340   2.701   3.815  18.357
 1382TIP3    H128341   2.698   3.917  18.325
 1382TIP3    H228342   2.804   3.793  18.337
 1383TIP3   OH228343   3.135   3.938  18.607
 1383TIP3    H128344   3.150   3.908  18.700
 1383TIP3    H228345   3.233   3.979  18.586
 1384TIP3   OH228346   3.385   4.105  18.559
 1384TIP3    H128347   3.468   4.063  18.513
 1384TIP3    H228348   3.428   4.135  18.645
 1385TIP3   OH228349   3.959   2.119  18.464
 1385TIP3    H128350   3.879   2.163  18.414
 1385TIP3    H228351   3.969   2.023  18.419
 1386TIP3   OH228352   2.405   4.140  18.320
 1386TIP3    H128353   2.325   4.205  18.289
 1386TIP3    H228354   2.405   4.162  18.415
 1387TIP3   OH228355   2.682   4.094  18.228
 1387TIP3    H128356   2.576   4.106  18.250
 1387TIP3    H228357   2.694   4.168  18.158
 1388TIP3   OH228358   3.192   4.050  18.150
 1388TIP3    H128359   3.115   4.096  18.100
 1388TIP3    H228360   3.221   4.129  18.210
 1389TIP3   OH228361   3.412   3.911  18.288
 1389TIP3    H128362   3.340   3.956  18.228
 1389TIP3    H228363   3.498   3.970  18.268
 1390TIP3   OH228364   3.702   4.050  18.280
 1390TIP3    H128365   3.735   4.151  18.266
 1390TIP3    H228366   3.735   4.001  18.197
 1391TIP3   OH228367   2.373   3.971  18.026
 1391TIP3    H128368   2.343   3.898  18.092
 1391TIP3    H228369   2.463   3.927  17.990
 1392TIP3   OH228370   2.603   3.848  17.898
 1392TIP3    H128371   2.587   3.747  17.926
 1392TIP3    H228372   2.698   3.868  17.938
 1393TIP3   OH228373   2.861   3.843  18.029
 1393TIP3    H128374   2.884   3.741  18.006
 1393TIP3    H228375   2.883   3.845  18.124
 1394TIP3   OH228376   3.283   2.295  17.907
 1394TIP3    H128377   3.208   2.232  17.944
 1394TIP3    H228378   3.248   2.305  17.815
 1395TIP3   OH228379   3.775   2.064  17.873
 1395TIP3    H128380   3.851   2.128  17.837
 1395TIP3    H228381   3.721   2.043  17.791
 1396TIP3   OH228382   3.982   2.224  17.712
 1396TIP3    H128383   4.056   2.163  17.669
 1396TIP3    H228384   4.013   2.321  17.681
 1397TIP3   OH228385   2.386   2.140  17.701
 1397TIP3    H128386   2.302   2.123  17.643
 1397TIP3    H228387   2.445   2.052  17.679
 1398TIP3   OH228388   2.288   2.131  17.234
 1398TIP3    H128389   2.344   2.207  17.184
 1398TIP3    H228390   2.245   2.189  17.306
 1399TIP3   OH228391   2.923   2.002  17.649
 1399TIP3    H128392   3.025   2.031  17.641
 1399TIP3    H228393   2.877   2.098  17.667
 1400TIP3   OH228394   2.250   3.897  17.366
 1400TIP3    H128395   2.158   3.875  17.318
 1400TIP3    H228396   2.275   3.989  17.319
 1401TIP3   OH228397   2.442   2.339  17.115
 1401TIP3    H128398   2.529   2.290  17.083
 1401TIP3    H228399   2.486   2.409  17.175
 1402TIP3   OH228400   2.983   2.377  17.368
 1402TIP3    H128401   3.076   2.355  17.412
 1402TIP3    H228402   3.013   2.461  17.314
 1403TIP3   OH228403   3.243   4.049  17.162
 1403TIP3    H128404   3.309   4.107  17.108
 1403TIP3    H228405   3.307   3.979  17.207
 1404TIP3   OH228406   3.937   3.935  17.456
 1404TIP3    H128407   3.973   3.905  17.369
 1404TIP3    H228408   3.889   4.027  17.436
 1405TIP3   OH228409   2.353   2.212  18.624
 1405TIP3    H128410   2.301   2.119  18.625
 1405TIP3    H228411   2.431   2.194  18.691
 1406TIP3   OH228412   2.576   2.138  18.802
 1406TIP3    H128413   2.678   2.122  18.777
 1406TIP3    H228414   2.551   2.038  18.831
 1407TIP3   OH228415   3.527   2.064  18.803
 1407TIP3    H128416   3.536   1.995  18.879
 1407TIP3    H228417   3.627   2.060  18.767
 1408TIP3   OH228418   3.892   3.846  18.642
 1408TIP3    H128419   3.827   3.842  18.563
 1408TIP3    H228420   3.863   3.942  18.677
 1409TIP3   OH228421   5.475   3.178  17.650
 1409TIP3    H128422   5.464   3.285  17.647
 1409TIP3    H228423   5.391   3.147  17.596
 1410TIP3   OH228424   5.353   3.031  18.021
 1410TIP3    H128425   5.374   2.996  18.113
 1410TIP3    H228426   5.278   2.961  17.991
 1411TIP3   OH228427   4.486   3.033  18.151
 1411TIP3    H128428   4.476   2.955  18.217
 1411TIP3    H228429   4.562   3.090  18.196
 1412TIP3   OH228430   5.716   3.375  17.816
 1412TIP3    H128431   5.693   3.310  17.890
 1412TIP3    H228432   5.742   3.467  17.858
 1413TIP3   OH228433   4.610   3.559  17.961
 1413TIP3    H128434   4.569   3.460  17.950
 1413TIP3    H228435   4.715   3.533  17.961
 1414TIP3   OH228436   4.243   2.801  17.538
 1414TIP3    H128437   4.200   2.897  17.552
 1414TIP3    H228438   4.158   2.744  17.504
 1415TIP3   OH228439   4.260   3.064  17.793
 1415TIP3    H128440   4.304   2.964  17.800
 1415TIP3    H228441   4.348   3.126  17.792
 1416TIP3   OH228442   5.416   3.963  17.854
 1416TIP3    H128443   5.503   3.930  17.802
 1416TIP3    H228444   5.399   3.874  17.904
 1417TIP3   OH228445   5.135   3.351  18.114
 1417TIP3    H128446   5.174   3.312  18.032
 1417TIP3    H228447   5.229   3.372  18.159
 1418TIP3   OH228448   6.116   2.425  18.101
 1418TIP3    H128449   6.124   2.481  18.185
 1418TIP3    H228450   6.208   2.451  18.057
 1419TIP3   OH228451   5.559   2.734  18.113
 1419TIP3    H128452   5.577   2.629  18.122
 1419TIP3    H228453   5.518   2.740  18.023
 1420TIP3   OH228454   4.780   2.523  17.785
 1420TIP3    H128455   4.806   2.621  17.751
 1420TIP3    H228456   4.737   2.485  17.704
 1421TIP3   OH228457   5.553   2.514  17.685
 1421TIP3    H128458   5.645   2.462  17.695
 1421TIP3    H228459   5.561   2.552  17.594
 1422TIP3   OH228460   4.377   2.795  17.873
 1422TIP3    H128461   4.444   2.740  17.931
 1422TIP3    H228462   4.417   2.765  17.786
 1423TIP3   OH228463   4.935   2.979  17.830
 1423TIP3    H128464   5.015   2.926  17.874
 1423TIP3    H228465   4.904   2.903  17.767
 1424TIP3   OH228466   6.098   2.547  18.349
 1424TIP3    H128467   6.060   2.638  18.307
 1424TIP3    H228468   6.137   2.587  18.431
 1425TIP3   OH228469   4.652   2.397  18.209
 1425TIP3    H128470   4.616   2.460  18.137
 1425TIP3    H228471   4.582   2.425  18.278
 1426TIP3   OH228472   5.398   3.478  17.542
 1426TIP3    H128473   5.392   3.474  17.444
 1426TIP3    H228474   5.360   3.578  17.556
 1427TIP3   OH228475   4.883   3.243  18.195
 1427TIP3    H128476   4.821   3.322  18.231
 1427TIP3    H228477   4.968   3.299  18.158
 1428TIP3   OH228478   4.580   2.604  17.992
 1428TIP3    H128479   4.649   2.671  18.039
 1428TIP3    H228480   4.641   2.571  17.917
 1429TIP3   OH228481   4.739   3.476  18.309
 1429TIP3    H128482   4.734   3.572  18.265
 1429TIP3    H228483   4.639   3.472  18.346
 1430TIP3   OH228484   4.310   3.418  17.369
 1430TIP3    H128485   4.236   3.470  17.317
 1430TIP3    H228486   4.342   3.495  17.433
 1431TIP3   OH228487   5.796   3.663  17.944
 1431TIP3    H128488   5.817   3.589  18.013
 1431TIP3    H228489   5.732   3.726  17.996
 1432TIP3   OH228490   5.805   2.296  18.183
 1432TIP3    H128491   5.718   2.322  18.130
 1432TIP3    H228492   5.875   2.369  18.154
 1433TIP3   OH228493   5.029   2.133  17.943
 1433TIP3    H128494   4.997   2.032  17.942
 1433TIP3    H228495   4.959   2.177  18.004
 1434TIP3   OH228496   5.606   3.808  17.711
 1434TIP3    H128497   5.668   3.721  17.699
 1434TIP3    H228498   5.620   3.850  17.620
 1435TIP3   OH228499   5.746   3.564  17.596
 1435TIP3    H128500   5.739   3.505  17.516
 1435TIP3    H228501   5.738   3.494  17.669
 1436TIP3   OH228502   5.915   3.414  18.459
 1436TIP3    H128503   5.958   3.332  18.411
 1436TIP3    H228504   5.845   3.453  18.391
 1437TIP3   OH228505   5.329   3.062  17.422
 1437TIP3    H128506   5.270   3.145  17.392
 1437TIP3    H228507   5.387   3.034  17.343
 1438TIP3   OH228508   6.153   3.015  18.278
 1438TIP3    H128509   6.074   3.088  18.262
 1438TIP3    H228510   6.207   3.027  18.194
 1439TIP3   OH228511   5.716   3.060  17.520
 1439TIP3    H128512   5.638   3.106  17.573
 1439TIP3    H228513   5.786   3.035  17.590
 1440TIP3   OH228514   5.713   2.917  18.404
 1440TIP3    H128515   5.689   3.001  18.458
 1440TIP3    H228516   5.653   2.938  18.326
 1441TIP3   OH228517   4.767   3.176  17.701
 1441TIP3    H128518   4.730   3.137  17.616
 1441TIP3    H228519   4.838   3.100  17.729
 1442TIP3   OH228520   4.926   3.535  17.954
 1442TIP3    H128521   4.944   3.524  17.859
 1442TIP3    H228522   5.014   3.495  17.994
 1443TIP3   OH228523   4.788   3.017  18.062
 1443TIP3    H128524   4.820   3.035  17.970
 1443TIP3    H228525   4.836   3.100  18.110
 1444TIP3   OH228526   5.474   3.673  18.111
 1444TIP3    H128527   5.482   3.722  18.196
 1444TIP3    H228528   5.545   3.592  18.124
 1445TIP3   OH228529   4.934   3.512  18.500
 1445TIP3    H128530   4.852   3.560  18.547
 1445TIP3    H228531   4.883   3.484  18.417
 1446TIP3   OH228532   5.579   2.997  17.287
 1446TIP3    H128533   5.620   3.011  17.378
 1446TIP3    H228534   5.580   3.097  17.252
 1447TIP3   OH228535   4.540   3.148  18.402
 1447TIP3    H128536   4.590   3.199  18.473
 1447TIP3    H228537   4.490   3.071  18.454
 1448TIP3   OH228538   5.305   3.761  17.538
 1448TIP3    H128539   5.378   3.787  17.605
 1448TIP3    H228540   5.243   3.848  17.534
 1449TIP3   OH228541   4.734   3.702  18.604
 1449TIP3    H128542   4.722   3.757  18.521
 1449TIP3    H228543   4.632   3.686  18.628
 1450TIP3   OH228544   4.650   3.056  17.463
 1450TIP3    H128545   4.608   3.143  17.419
 1450TIP3    H228546   4.613   2.979  17.406
 1451TIP3   OH228547   6.124   3.655  17.113
 1451TIP3    H128548   6.135   3.760  17.124
 1451TIP3    H228549   6.221   3.615  17.131
 1452TIP3   OH228550   4.245   3.333  18.337
 1452TIP3    H128551   4.188   3.307  18.259
 1452TIP3    H228552   4.312   3.249  18.336
 1453TIP3   OH228553   4.198   3.629  18.028
 1453TIP3    H128554   4.303   3.619  18.034
 1453TIP3    H228555   4.183   3.729  18.058
 1454TIP3   OH228556   6.199   3.699  18.586
 1454TIP3    H128557   6.189   3.597  18.566
 1454TIP3    H228558   6.098   3.719  18.622
 1455TIP3   OH228559   5.193   3.654  18.492
 1455TIP3    H128560   5.196   3.728  18.562
 1455TIP3    H228561   5.094   3.612  18.499
 1456TIP3   OH228562   5.223   4.058  17.434
 1456TIP3    H128563   5.253   4.028  17.344
 1456TIP3    H228564   5.257   4.159  17.436
 1457TIP3   OH228565   4.561   3.944  17.652
 1457TIP3    H128566   4.572   3.895  17.740
 1457TIP3    H228567   4.475   3.895  17.613
 1458TIP3   OH228568   5.884   2.750  18.613
 1458TIP3    H128569   5.805   2.796  18.560
 1458TIP3    H228570   5.872   2.649  18.584
 1459TIP3   OH228571   4.473   3.494  18.431
 1459TIP3    H128572   4.488   3.441  18.515
 1459TIP3    H228573   4.387   3.440  18.396
 1460TIP3   OH228574   5.331   2.161  18.343
 1460TIP3    H128575   5.377   2.118  18.423
 1460TIP3    H228576   5.226   2.159  18.366
 1461TIP3   OH228577   5.598   2.632  18.479
 1461TIP3    H128578   5.546   2.586  18.555
 1461TIP3    H228579   5.547   2.726  18.473
 1462TIP3   OH228580   4.786   2.734  18.147
 1462TIP3    H128581   4.734   2.763  18.228
 1462TIP3    H228582   4.793   2.830  18.105
 1463TIP3   OH228583   4.795   2.775  17.658
 1463TIP3    H128584   4.692   2.771  17.631
 1463TIP3    H228585   4.840   2.780  17.568
 1464TIP3   OH228586   5.444   2.819  17.555
 1464TIP3    H128587   5.393   2.907  17.523
 1464TIP3    H228588   5.486   2.779  17.472
 1465TIP3   OH228589   5.310   2.840  18.660
 1465TIP3    H128590   5.243   2.775  18.708
 1465TIP3    H228591   5.366   2.879  18.734
 1466TIP3   OH228592   5.492   2.747  17.841
 1466TIP3    H128593   5.495   2.826  17.775
 1466TIP3    H228594   5.506   2.661  17.781
 1467TIP3   OH228595   4.484   2.767  18.295
 1467TIP3    H128596   4.572   2.811  18.334
 1467TIP3    H228597   4.484   2.669  18.336
 1468TIP3   OH228598   5.403   2.917  18.268
 1468TIP3    H128599   5.467   2.844  18.228
 1468TIP3    H228600   5.339   2.858  18.326
 1469TIP3   OH228601   5.106   2.479  17.742
 1469TIP3    H128602   5.000   2.461  17.740
 1469TIP3    H228603   5.119   2.518  17.831
 1470TIP3   OH228604   4.487   2.678  17.635
 1470TIP3    H128605   4.388   2.701  17.596
 1470TIP3    H228606   4.521   2.610  17.567
 1471TIP3   OH228607   4.883   2.738  17.401
 1471TIP3    H128608   4.975   2.686  17.424
 1471TIP3    H228609   4.903   2.758  17.308
 1472TIP3   OH228610   5.572   2.408  18.055
 1472TIP3    H128611   5.499   2.412  18.129
 1472TIP3    H228612   5.514   2.354  17.988
 1473TIP3   OH228613   4.732   2.820  17.132
 1473TIP3    H128614   4.694   2.734  17.172
 1473TIP3    H228615   4.836   2.789  17.120
 1474TIP3   OH228616   5.893   4.155  18.727
 1474TIP3    H128617   5.912   4.204  18.643
 1474TIP3    H228618   5.991   4.162  18.768
 1475TIP3   OH228619   4.523   3.323  18.662
 1475TIP3    H128620   4.621   3.332  18.701
 1475TIP3    H228621   4.469   3.282  18.738
 1476TIP3   OH228622   5.183   2.797  17.939
 1476TIP3    H128623   5.280   2.784  17.899
 1476TIP3    H228624   5.174   2.711  17.995
 1477TIP3   OH228625   5.062   2.609  18.187
 1477TIP3    H128626   4.975   2.670  18.166
 1477TIP3    H228627   5.121   2.673  18.242
 1478TIP3   OH228628   5.118   3.271  17.374
 1478TIP3    H128629   5.048   3.203  17.332
 1478TIP3    H228630   5.063   3.303  17.454
 1479TIP3   OH228631   5.946   3.212  18.231
 1479TIP3    H128632   5.987   3.290  18.173
 1479TIP3    H228633   5.842   3.234  18.212
 1480TIP3   OH228634   5.262   3.342  18.458
 1480TIP3    H128635   5.238   3.266  18.521
 1480TIP3    H228636   5.235   3.433  18.501
 1481TIP3   OH228637   5.585   2.695  17.342
 1481TIP3    H128638   5.672   2.749  17.366
 1481TIP3    H228639   5.557   2.744  17.259
 1482TIP3   OH228640   4.569   3.258  17.908
 1482TIP3    H128641   4.645   3.243  17.840
 1482TIP3    H228642   4.585   3.179  17.971
 1483TIP3   OH228643   5.346   3.431  17.284
 1483TIP3    H128644   5.304   3.526  17.255
 1483TIP3    H228645   5.256   3.378  17.308
 1484TIP3   OH228646   4.245   3.048  18.464
 1484TIP3    H128647   4.223   2.981  18.538
 1484TIP3    H228648   4.191   3.003  18.389
 1485TIP3   OH228649   4.986   2.858  18.563
 1485TIP3    H128650   4.953   2.959  18.555
 1485TIP3    H228651   5.061   2.881  18.630
 1486TIP3   OH228652   5.565   3.587  18.499
 1486TIP3    H128653   5.509   3.625  18.423
 1486TIP3    H228654   5.529   3.650  18.572
 1487TIP3   OH228655   6.178   3.373  18.609
 1487TIP3    H128656   6.076   3.398  18.581
 1487TIP3    H228657   6.228   3.365  18.521
 1488TIP3   OH228658   5.640   3.110  18.017
 1488TIP3    H128659   5.534   3.103  17.998
 1488TIP3    H228660   5.679   3.025  17.971
 1489TIP3   OH228661   4.850   3.617  17.678
 1489TIP3    H128662   4.907   3.702  17.650
 1489TIP3    H228663   4.752   3.644  17.648
 1490TIP3   OH228664   4.993   3.361  17.612
 1490TIP3    H128665   4.939   3.452  17.627
 1490TIP3    H228666   4.926   3.288  17.649
 1491TIP3   OH228667   5.062   3.830  18.276
 1491TIP3    H128668   5.134   3.900  18.239
 1491TIP3    H228669   5.123   3.781  18.343
 1492TIP3   OH228670   4.846   3.906  17.558
 1492TIP3    H128671   4.747   3.929  17.589
 1492TIP3    H228672   4.893   3.999  17.584
 1493TIP3   OH228673   5.403   3.368  18.222
 1493TIP3    H128674   5.363   3.348  18.312
 1493TIP3    H228675   5.509   3.365  18.237
 1494TIP3   OH228676   5.698   3.546  17.200
 1494TIP3    H128677   5.691   3.458  17.255
 1494TIP3    H228678   5.651   3.517  17.117
 1495TIP3   OH228679   5.763   3.847  18.471
 1495TIP3    H128680   5.667   3.802  18.465
 1495TIP3    H228681   5.763   3.918  18.398
 1496TIP3   OH228682   6.201   3.979  17.152
 1496TIP3    H128683   6.278   4.024  17.098
 1496TIP3    H228684   6.132   4.059  17.165
 1497TIP3   OH228685   4.466   2.489  18.410
 1497TIP3    H128686   4.392   2.532  18.469
 1497TIP3    H228687   4.490   2.400  18.460
 1498TIP3   OH228688   5.795   3.290  17.338
 1498TIP3    H128689   5.797   3.213  17.405
 1498TIP3    H228690   5.897   3.325  17.336
 1499TIP3   OH228691   4.402   3.780  18.243
 1499TIP3    H128692   4.468   3.697  18.251
 1499TIP3    H228693   4.417   3.825  18.330
 1500TIP3   OH228694   4.544   3.258  17.283
 1500TIP3    H128695   4.459   3.311  17.323
 1500TIP3    H228696   4.594   3.339  17.238
 1501TIP3   OH228697   5.420   2.449  18.287
 1501TIP3    H128698   5.491   2.481  18.353
 1501TIP3    H228699   5.377   2.362  18.330
 1502TIP3   OH228700   5.210   3.693  17.268
 1502TIP3    H128701   5.156   3.755  17.328
 1502TIP3    H228702   5.304   3.739  17.263
 1503TIP3   OH228703   5.143   2.633  17.503
 1503TIP3    H128704   5.245   2.654  17.482
 1503TIP3    H228705   5.147   2.575  17.584
 1504TIP3   OH228706   5.271   2.721  18.420
 1504TIP3    H128707   5.277   2.769  18.510
 1504TIP3    H228708   5.301   2.621  18.437
 1505TIP3   OH228709   5.265   2.262  17.608
 1505TIP3    H128710   5.222   2.359  17.625
 1505TIP3    H228711   5.343   2.281  17.544
 1506TIP3   OH228712   4.912   3.878  17.291
 1506TIP3    H128713   4.956   3.970  17.259
 1506TIP3    H228714   4.877   3.902  17.382
 1507TIP3   OH228715   5.870   2.474  18.504
 1507TIP3    H128716   5.775   2.512  18.471
 1507TIP3    H228717   5.935   2.484  18.426
 1508TIP3   OH228718   5.763   2.870  17.890
 1508TIP3    H128719   5.676   2.807  17.900
 1508TIP3    H228720   5.838   2.816  17.941
 1509TIP3   OH228721   5.866   3.957  18.074
 1509TIP3    H128722   5.870   3.911  17.987
 1509TIP3    H228723   5.969   3.945  18.101
 1510TIP3   OH228724   4.368   3.640  17.537
 1510TIP3    H128725   4.282   3.692  17.569
 1510TIP3    H228726   4.398   3.709  17.468
 1511TIP3   OH228727   4.279   3.994  18.697
 1511TIP3    H128728   4.360   3.993  18.761
 1511TIP3    H228729   4.254   3.891  18.698
 1512TIP3   OH228730   4.817   3.878  18.831
 1512TIP3    H128731   4.913   3.845  18.863
 1512TIP3    H228732   4.811   3.829  18.745
 1513TIP3   OH228733   5.507   3.729  18.723
 1513TIP3    H128734   5.458   3.640  18.758
 1513TIP3    H228735   5.592   3.729  18.781
 1514TIP3   OH228736   4.259   3.294  18.797
 1514TIP3    H128737   4.263   3.188  18.814
 1514TIP3    H228738   4.261   3.293  18.699
 1515TIP3   OH228739   5.041   3.398  18.721
 1515TIP3    H128740   5.018   3.416  18.626
 1515TIP3    H228741   5.066   3.292  18.722
 1516TIP3   OH228742   5.628   3.297  18.511
 1516TIP3    H128743   5.706   3.368  18.493
 1516TIP3    H228744   5.552   3.368  18.531
 1517TIP3   OH228745   4.406   3.008  18.754
 1517TIP3    H128746   4.406   2.903  18.754
 1517TIP3    H228747   4.468   3.034  18.831
 1518TIP3   OH228748   4.909   3.111  17.250
 1518TIP3    H128749   4.825   3.072  17.297
 1518TIP3    H228750   4.913   3.051  17.170
 1519TIP3   OH228751   4.744   2.895  18.384
 1519TIP3    H128752   4.760   2.882  18.480
 1519TIP3    H228753   4.838   2.943  18.357
 1520TIP3   OH228754   5.405   3.217  18.798
 1520TIP3    H128755   5.469   3.132  18.794
 1520TIP3    H228756   5.310   3.172  18.777
 1521TIP3   OH228757   4.860   2.599  18.520
 1521TIP3    H128758   4.900   2.527  18.458
 1521TIP3    H228759   4.924   2.687  18.511
 1522TIP3   OH228760   4.935   2.395  18.330
 1522TIP3    H128761   4.980   2.464  18.267
 1522TIP3    H228762   4.830   2.406  18.310
 1523TIP3   OH228763   5.056   3.040  18.326
 1523TIP3    H128764   5.154   3.078  18.341
 1523TIP3    H228765   5.007   3.122  18.282
 1524TIP3   OH228766   5.612   2.714  18.822
 1524TIP3    H128767   5.693   2.645  18.817
 1524TIP3    H228768   5.660   2.804  18.849
 1525TIP3   OH228769   5.734   3.099  18.679
 1525TIP3    H128770   5.680   3.156  18.612
 1525TIP3    H228771   5.833   3.106  18.643
 1526TIP3   OH228772   4.709   2.695  18.733
 1526TIP3    H128773   4.620   2.648  18.699
 1526TIP3    H228774   4.778   2.664  18.661
 1527TIP3   OH228775   5.029   2.121  18.343
 1527TIP3    H128776   5.000   2.225  18.343
 1527TIP3    H228777   4.941   2.073  18.311
 1528TIP3   OH228778   5.135   2.606  18.740
 1528TIP3    H128779   5.070   2.584  18.815
 1528TIP3    H228780   5.068   2.599  18.665
 1529TIP3   OH228781   5.451   2.481  18.658
 1529TIP3    H128782   5.371   2.525  18.712
 1529TIP3    H228783   5.516   2.443  18.727
 1530TIP3   OH228784   5.651   2.364  18.835
 1530TIP3    H128785   5.630   2.258  18.828
 1530TIP3    H228786   5.617   2.385  18.926
 1531TIP3   OH228787   4.466   2.503  18.743
 1531TIP3    H128788   4.456   2.402  18.708
 1531TIP3    H228789   4.460   2.482  18.840
 1532TIP3   OH228790   5.005   2.088  18.625
 1532TIP3    H128791   5.076   2.010  18.641
 1532TIP3    H228792   5.007   2.086  18.528
 1533TIP3   OH228793   5.038   2.217  18.870
 1533TIP3    H128794   5.018   2.170  18.782
 1533TIP3    H228795   4.976   2.306  18.861
 1534TIP3   OH228796   5.008   4.140  17.161
 1534TIP3    H128797   5.112   4.113  17.148
 1534TIP3    H228798   4.993   4.192  17.078
 1535TIP3   OH228799   4.129   4.066  17.647
 1535TIP3    H128800   4.052   4.026  17.589
 1535TIP3    H228801   4.155   3.985  17.707
 1536TIP3   OH228802   4.270   3.870  17.808
 1536TIP3    H128803   4.216   3.796  17.858
 1536TIP3    H228804   4.334   3.909  17.878
 1537TIP3   OH228805   6.210   4.011  18.055
 1537TIP3    H128806   6.224   3.968  18.143
 1537TIP3    H228807   6.310   4.043  18.035
 1538TIP3   OH228808   6.141   3.945  18.386
 1538TIP3    H128809   6.108   3.853  18.344
 1538TIP3    H228810   6.175   3.906  18.472
 1539TIP3   OH228811   5.969   3.461  18.852
 1539TIP3    H128812   5.871   3.457  18.893
 1539TIP3    H228813   6.014   3.542  18.902
 1540TIP3   OH228814   6.105   3.261  17.354
 1540TIP3    H128815   6.191   3.323  17.374
 1540TIP3    H228816   6.106   3.198  17.433
 1541TIP3   OH228817   6.146   3.075  17.574
 1541TIP3    H128818   6.057   3.036  17.618
 1541TIP3    H228819   6.218   3.073  17.647
 1542TIP3   OH228820   6.069   3.397  18.062
 1542TIP3    H128821   6.137   3.321  18.030
 1542TIP3    H228822   6.137   3.477  18.071
 1543TIP3   OH228823   5.980   3.702  18.285
 1543TIP3    H128824   5.894   3.727  18.337
 1543TIP3    H228825   5.948   3.607  18.248
 1544TIP3   OH228826   5.915   2.928  17.670
 1544TIP3    H128827   5.863   2.844  17.632
 1544TIP3    H228828   5.877   2.923  17.762
 1545TIP3   OH228829   4.243   3.147  18.058
 1545TIP3    H128830   4.238   3.102  17.969
 1545TIP3    H228831   4.339   3.111  18.089
 1546TIP3   OH228832   6.034   3.110  18.605
 1546TIP3    H128833   6.085   3.016  18.622
 1546TIP3    H228834   6.113   3.183  18.596
 1547TIP3   OH228835   6.145   2.846  18.669
 1547TIP3    H128836   6.043   2.818  18.641
 1547TIP3    H228837   6.199   2.752  18.666
 1548TIP3   OH228838   5.861   2.676  17.520
 1548TIP3    H128839   5.851   2.580  17.481
 1548TIP3    H228840   5.932   2.724  17.463
 1549TIP3   OH228841   5.961   2.693  18.018
 1549TIP3    H128842   6.068   2.707  18.028
 1549TIP3    H228843   5.936   2.702  18.113
 1550TIP3   OH228844   5.951   2.787  18.269
 1550TIP3    H128845   5.852   2.813  18.302
 1550TIP3    H228846   6.001   2.884  18.275
 1551TIP3   OH228847   4.226   2.628  18.636
 1551TIP3    H128848   4.321   2.603  18.677
 1551TIP3    H228849   4.171   2.537  18.651
 1552TIP3   OH228850   6.222   2.168  18.831
 1552TIP3    H128851   6.256   2.085  18.778
 1552TIP3    H228852   6.210   2.243  18.761
 1553TIP3   OH228853   4.183   2.748  18.057
 1553TIP3    H128854   4.245   2.735  17.978
 1553TIP3    H228855   4.237   2.826  18.100
 1554TIP3   OH228856   6.139   2.386  18.666
 1554TIP3    H128857   6.058   2.428  18.720
 1554TIP3    H228858   6.082   2.340  18.595
 1555TIP3   OH228859   4.177   2.192  18.285
 1555TIP3    H128860   4.113   2.164  18.359
 1555TIP3    H228861   4.120   2.267  18.238
 1556TIP3   OH228862   4.440   3.663  18.689
 1556TIP3    H128863   4.339   3.678  18.659
 1556TIP3    H228864   4.433   3.610  18.772
 1557TIP3   OH228865   4.763   3.816  18.344
 1557TIP3    H128866   4.761   3.917  18.310
 1557TIP3    H228867   4.869   3.795  18.344
 1558TIP3   OH228868   5.213   3.979  18.611
 1558TIP3    H128869   5.238   3.939  18.699
 1558TIP3    H228870   5.311   4.006  18.578
 1559TIP3   OH228871   5.480   4.115  18.558
 1559TIP3    H128872   5.559   4.061  18.518
 1559TIP3    H228873   5.519   4.139  18.648
 1560TIP3   OH228874   6.031   2.135  18.462
 1560TIP3    H128875   5.946   2.182  18.426
 1560TIP3    H228876   6.040   2.044  18.408
 1561TIP3   OH228877   4.470   4.144  18.326
 1561TIP3    H128878   4.389   4.206  18.297
 1561TIP3    H228879   4.458   4.148  18.422
 1562TIP3   OH228880   4.729   4.083  18.221
 1562TIP3    H128881   4.626   4.107  18.243
 1562TIP3    H228882   4.750   4.158  18.152
 1563TIP3   OH228883   5.267   4.039  18.167
 1563TIP3    H128884   5.247   4.091  18.085
 1563TIP3    H228885   5.291   4.122  18.227
 1564TIP3   OH228886   5.491   3.904  18.316
 1564TIP3    H128887   5.420   3.931  18.247
 1564TIP3    H228888   5.564   3.981  18.306
 1565TIP3   OH228889   5.749   4.078  18.291
 1565TIP3    H128890   5.756   4.182  18.269
 1565TIP3    H228891   5.781   4.034  18.205
 1566TIP3   OH228892   4.435   3.968  18.023
 1566TIP3    H128893   4.415   3.907  18.102
 1566TIP3    H228894   4.531   3.926  17.995
 1567TIP3   OH228895   4.663   3.847  17.893
 1567TIP3    H128896   4.646   3.744  17.922
 1567TIP3    H228897   4.763   3.861  17.928
 1568TIP3   OH228898   4.927   3.849  18.010
 1568TIP3    H128899   4.946   3.743  18.000
 1568TIP3    H228900   4.951   3.863  18.104
 1569TIP3   OH228901   5.353   2.283  17.904
 1569TIP3    H128902   5.250   2.277  17.929
 1569TIP3    H228903   5.346   2.270  17.808
 1570TIP3   OH228904   4.950   2.189  17.651
 1570TIP3    H128905   5.031   2.209  17.591
 1570TIP3    H228906   5.000   2.167  17.734
 1571TIP3   OH228907   4.298   3.862  17.368
 1571TIP3    H128908   4.231   3.848  17.293
 1571TIP3    H228909   4.323   3.963  17.350
 1572TIP3   OH228910   5.005   2.372  17.399
 1572TIP3    H128911   5.094   2.318  17.410
 1572TIP3    H228912   5.035   2.453  17.342
 1573TIP3   OH228913   5.303   3.994  17.178
 1573TIP3    H128914   5.393   4.040  17.149
 1573TIP3    H228915   5.293   3.915  17.113
 1574TIP3   OH228916   4.440   2.203  18.622
 1574TIP3    H128917   4.385   2.112  18.630
 1574TIP3    H228918   4.517   2.190  18.691
 1575TIP3   OH228919   4.651   2.142  18.805
 1575TIP3    H128920   4.756   2.126  18.790
 1575TIP3    H228921   4.623   2.042  18.832
 1576TIP3   OH228922   5.581   2.065  18.802
 1576TIP3    H128923   5.577   1.998  18.879
 1576TIP3    H228924   5.687   2.056  18.781
 1577TIP3   OH228925   5.958   3.853  18.661
 1577TIP3    H128926   5.885   3.830  18.590
 1577TIP3    H228927   5.921   3.949  18.691
 1578TIP3   OH228928   6.586   3.045  18.110
 1578TIP3    H128929   6.602   2.970  18.177
 1578TIP3    H228930   6.574   3.133  18.165
 1579TIP3   OH228931   7.843   3.402  17.869
 1579TIP3    H128932   7.824   3.331  17.938
 1579TIP3    H228933   7.841   3.496  17.919
 1580TIP3   OH228934   6.686   3.610  17.983
 1580TIP3    H128935   6.636   3.516  17.991
 1580TIP3    H228936   6.783   3.578  17.954
 1581TIP3   OH228937   6.292   2.758  17.530
 1581TIP3    H128938   6.325   2.857  17.549
 1581TIP3    H228939   6.216   2.749  17.597
 1582TIP3   OH228940   6.370   3.046  17.762
 1582TIP3    H128941   6.423   2.966  17.807
 1582TIP3    H228942   6.436   3.130  17.771
 1583TIP3   OH228943   7.515   3.971  17.828
 1583TIP3    H128944   7.581   3.918  17.769
 1583TIP3    H228945   7.501   3.892  17.890
 1584TIP3   OH228946   7.245   3.364  18.063
 1584TIP3    H128947   7.273   3.331  17.975
 1584TIP3    H228948   7.338   3.369  18.113
 1585TIP3   OH228949   8.187   2.444  18.080
 1585TIP3    H128950   8.182   2.499  18.164
 1585TIP3    H228951   8.253   2.506  18.029
 1586TIP3   OH228952   7.593   2.732  18.103
 1586TIP3    H128953   7.624   2.630  18.111
 1586TIP3    H228954   7.530   2.726  18.027
 1587TIP3   OH228955   6.840   2.479  17.778
 1587TIP3    H128956   6.863   2.569  17.727
 1587TIP3    H228957   6.786   2.422  17.711
 1588TIP3   OH228958   7.735   2.537  17.646
 1588TIP3    H128959   7.776   2.518  17.736
 1588TIP3    H228960   7.816   2.591  17.604
 1589TIP3   OH228961   6.444   2.761  17.869
 1589TIP3    H128962   6.516   2.721  17.932
 1589TIP3    H228963   6.494   2.739  17.784
 1590TIP3   OH228964   7.024   2.944  17.770
 1590TIP3    H128965   7.024   2.926  17.866
 1590TIP3    H228966   6.969   2.859  17.735
 1591TIP3   OH228967   8.203   2.534  18.362
 1591TIP3    H128968   8.140   2.618  18.335
 1591TIP3    H228969   8.275   2.587  18.415
 1592TIP3   OH228970   6.725   2.408  18.208
 1592TIP3    H128971   6.677   2.458  18.134
 1592TIP3    H228972   6.654   2.422  18.280
 1593TIP3   OH228973   6.988   3.243  18.195
 1593TIP3    H128974   6.915   3.315  18.224
 1593TIP3    H228975   7.056   3.310  18.151
 1594TIP3   OH228976   7.859   2.516  17.883
 1594TIP3    H128977   7.819   2.430  17.927
 1594TIP3    H228978   7.902   2.572  17.957
 1595TIP3   OH228979   6.664   2.606  17.992
 1595TIP3    H128980   6.738   2.665  18.041
 1595TIP3    H228981   6.724   2.563  17.922
 1596TIP3   OH228982   6.823   3.475  18.284
 1596TIP3    H128983   6.794   3.547  18.219
 1596TIP3    H228984   6.731   3.472  18.337
 1597TIP3   OH228985   6.359   3.407  17.392
 1597TIP3    H128986   6.349   3.452  17.302
 1597TIP3    H228987   6.373   3.494  17.449
 1598TIP3   OH228988   7.866   3.634  18.046
 1598TIP3    H128989   7.762   3.639  18.070
 1598TIP3    H228990   7.885   3.738  18.026
 1599TIP3   OH228991   7.908   2.395  18.193
 1599TIP3    H128992   7.817   2.391  18.141
 1599TIP3    H228993   7.984   2.412  18.126
 1600TIP3   OH228994   7.107   2.114  17.940
 1600TIP3    H128995   7.072   2.015  17.959
 1600TIP3    H228996   7.020   2.170  17.971
 1601TIP3   OH228997   7.714   3.746  17.751
 1601TIP3    H128998   7.693   3.688  17.672
 1601TIP3    H228999   7.780   3.822  17.717
 1602TIP3   OH229000   7.844   3.533  17.563
 1602TIP3    H129001   7.755   3.480  17.539
 1602TIP3    H229002   7.855   3.509  17.657
 1603TIP3   OH229003   7.976   3.414  18.447
 1603TIP3    H129004   7.972   3.347  18.370
 1603TIP3    H229005   7.984   3.509  18.400
 1604TIP3   OH229006   8.161   3.011  18.222
 1604TIP3    H129007   8.096   3.097  18.214
 1604TIP3    H229008   8.241   3.038  18.158
 1605TIP3   OH229009   7.802   3.042  17.474
 1605TIP3    H129010   7.755   3.127  17.511
 1605TIP3    H229011   7.868   3.011  17.546
 1606TIP3   OH229012   7.786   2.917  18.415
 1606TIP3    H129013   7.760   3.005  18.465
 1606TIP3    H229014   7.703   2.921  18.351
 1607TIP3   OH229015   6.811   3.125  17.673
 1607TIP3    H129016   6.795   3.088  17.582
 1607TIP3    H229017   6.901   3.072  17.698
 1608TIP3   OH229018   7.026   3.530  17.960
 1608TIP3    H129019   7.021   3.491  17.870
 1608TIP3    H229020   7.101   3.466  18.002
 1609TIP3   OH229021   6.932   3.010  18.042
 1609TIP3    H129022   6.877   3.065  17.975
 1609TIP3    H229023   6.943   3.086  18.112
 1610TIP3   OH229024   7.599   3.647  18.146
 1610TIP3    H129025   7.568   3.708  18.221
 1610TIP3    H229026   7.556   3.551  18.171
 1611TIP3   OH229027   7.008   3.528  18.503
 1611TIP3    H129028   6.929   3.575  18.556
 1611TIP3    H229029   6.959   3.513  18.416
 1612TIP3   OH229030   6.679   3.073  18.449
 1612TIP3    H129031   6.687   3.166  18.498
 1612TIP3    H229032   6.576   3.056  18.462
 1613TIP3   OH229033   7.446   3.827  17.583
 1613TIP3    H129034   7.421   3.733  17.623
 1613TIP3    H229035   7.350   3.865  17.560
 1614TIP3   OH229036   6.810   3.707  18.610
 1614TIP3    H129037   6.809   3.770  18.528
 1614TIP3    H229038   6.707   3.682  18.619
 1615TIP3   OH229039   8.007   2.133  17.270
 1615TIP3    H129040   7.929   2.109  17.208
 1615TIP3    H229041   8.076   2.178  17.209
 1616TIP3   OH229042   6.722   3.044  17.428
 1616TIP3    H129043   6.701   3.147  17.401
 1616TIP3    H229044   6.631   3.001  17.400
 1617TIP3   OH229045   6.326   3.322  18.395
 1617TIP3    H129046   6.335   3.336  18.297
 1617TIP3    H229047   6.344   3.216  18.405
 1618TIP3   OH229048   6.327   3.654  17.950
 1618TIP3    H129049   6.381   3.561  17.960
 1618TIP3    H229050   6.305   3.669  18.043
 1619TIP3   OH229051   8.288   3.710  18.582
 1619TIP3    H129052   8.281   3.607  18.562
 1619TIP3    H229053   8.195   3.722  18.630
 1620TIP3   OH229054   7.279   3.652  18.506
 1620TIP3    H129055   7.280   3.737  18.565
 1620TIP3    H229056   7.174   3.620  18.506
 1621TIP3   OH229057   7.311   4.091  17.425
 1621TIP3    H129058   7.313   4.128  17.336
 1621TIP3    H229059   7.346   4.172  17.478
 1622TIP3   OH229060   6.633   3.929  17.642
 1622TIP3    H129061   6.672   3.904  17.731
 1622TIP3    H229062   6.553   3.859  17.629
 1623TIP3   OH229063   7.621   3.978  17.386
 1623TIP3    H129064   7.527   3.969  17.435
 1623TIP3    H229065   7.681   3.914  17.439
 1624TIP3   OH229066   7.925   2.792  18.642
 1624TIP3    H129067   7.875   2.826  18.560
 1624TIP3    H229068   7.946   2.691  18.617
 1625TIP3   OH229069   6.580   3.479  18.433
 1625TIP3    H129070   6.587   3.444  18.526
 1625TIP3    H229071   6.487   3.439  18.405
 1626TIP3   OH229072   6.867   2.237  18.028
 1626TIP3    H129073   6.775   2.244  17.979
 1626TIP3    H229074   6.844   2.297  18.106
 1627TIP3   OH229075   7.395   2.165  18.353
 1627TIP3    H129076   7.431   2.108  18.429
 1627TIP3    H229077   7.286   2.161  18.361
 1628TIP3   OH229078   7.698   2.596  18.460
 1628TIP3    H129079   7.646   2.544  18.532
 1628TIP3    H229080   7.644   2.687  18.456
 1629TIP3   OH229081   6.868   2.742  18.155
 1629TIP3    H129082   6.784   2.750  18.215
 1629TIP3    H229083   6.888   2.846  18.135
 1630TIP3   OH229084   6.865   2.739  17.644
 1630TIP3    H129085   6.757   2.738  17.640
 1630TIP3    H229086   6.887   2.724  17.548
 1631TIP3   OH229087   7.328   2.856  18.673
 1631TIP3    H129088   7.288   2.761  18.702
 1631TIP3    H229089   7.409   2.867  18.736
 1632TIP3   OH229090   6.609   2.756  18.282
 1632TIP3    H129091   6.645   2.803  18.363
 1632TIP3    H229092   6.567   2.664  18.317
 1633TIP3   OH229093   6.384   2.572  17.243
 1633TIP3    H129094   6.461   2.583  17.176
 1633TIP3    H229095   6.358   2.674  17.255
 1634TIP3   OH229096   7.542   2.959  18.267
 1634TIP3    H129097   7.565   2.878  18.205
 1634TIP3    H229098   7.462   2.912  18.318
 1635TIP3   OH229099   7.151   2.477  17.750
 1635TIP3    H129100   7.048   2.474  17.773
 1635TIP3    H229101   7.197   2.445  17.833
 1636TIP3   OH229102   6.574   2.678  17.619
 1636TIP3    H129103   6.481   2.680  17.568
 1636TIP3    H229104   6.612   2.580  17.596
 1637TIP3   OH229105   6.940   2.686  17.391
 1637TIP3    H129106   7.046   2.681  17.409
 1637TIP3    H229107   6.937   2.771  17.333
 1638TIP3   OH229108   7.647   2.406  18.065
 1638TIP3    H129109   7.566   2.402  18.131
 1638TIP3    H229110   7.603   2.363  17.986
 1639TIP3   OH229111   7.970   4.101  18.727
 1639TIP3    H129112   8.015   4.144  18.648
 1639TIP3    H229113   8.050   4.114  18.792
 1640TIP3   OH229114   6.626   3.289  18.664
 1640TIP3    H129115   6.700   3.315  18.731
 1640TIP3    H229116   6.544   3.259  18.720
 1641TIP3   OH229117   6.672   2.399  17.572
 1641TIP3    H129118   6.629   2.311  17.614
 1641TIP3    H229119   6.717   2.354  17.495
 1642TIP3   OH229120   7.122   2.598  18.181
 1642TIP3    H129121   7.039   2.665  18.177
 1642TIP3    H229122   7.197   2.657  18.227
 1643TIP3   OH229123   7.981   3.267  18.226
 1643TIP3    H129124   8.039   3.298  18.149
 1643TIP3    H229125   7.895   3.224  18.182
 1644TIP3   OH229126   7.351   3.361  18.477
 1644TIP3    H129127   7.307   3.319  18.556
 1644TIP3    H229128   7.336   3.466  18.492
 1645TIP3   OH229129   7.739   2.716  17.314
 1645TIP3    H129130   7.819   2.703  17.377
 1645TIP3    H229131   7.723   2.820  17.324
 1646TIP3   OH229132   6.672   3.254  17.898
 1646TIP3    H129133   6.702   3.215  17.811
 1646TIP3    H229134   6.656   3.167  17.954
 1647TIP3   OH229135   6.360   3.040  18.461
 1647TIP3    H129136   6.318   2.985  18.534
 1647TIP3    H229137   6.289   3.017  18.389
 1648TIP3   OH229138   7.095   3.027  18.649
 1648TIP3    H129139   7.046   2.966  18.584
 1648TIP3    H229140   7.191   2.977  18.656
 1649TIP3   OH229141   7.638   3.594  18.495
 1649TIP3    H129142   7.547   3.619  18.451
 1649TIP3    H229143   7.623   3.638  18.583
 1650TIP3   OH229144   8.206   2.774  17.286
 1650TIP3    H129145   8.207   2.688  17.229
 1650TIP3    H229146   8.249   2.849  17.230
 1651TIP3   OH229147   8.225   3.375  18.574
 1651TIP3    H129148   8.129   3.406  18.537
 1651TIP3    H229149   8.283   3.359  18.492
 1652TIP3   OH229150   8.050   3.669  17.362
 1652TIP3    H129151   7.984   3.639  17.435
 1652TIP3    H229152   7.993   3.653  17.283
 1653TIP3   OH229153   7.773   3.133  18.064
 1653TIP3    H129154   7.669   3.118  18.080
 1653TIP3    H229155   7.796   3.058  17.998
 1654TIP3   OH229156   6.895   3.604  17.708
 1654TIP3    H129157   6.984   3.651  17.676
 1654TIP3    H229158   6.819   3.652  17.658
 1655TIP3   OH229159   6.455   3.077  17.129
 1655TIP3    H129160   6.544   3.088  17.181
 1655TIP3    H229161   6.404   3.168  17.148
 1656TIP3   OH229162   7.131   3.812  18.300
 1656TIP3    H129163   7.192   3.884  18.255
 1656TIP3    H229164   7.198   3.771  18.367
 1657TIP3   OH229165   6.910   3.974  17.548
 1657TIP3    H129166   6.812   3.973  17.590
 1657TIP3    H229167   6.955   4.059  17.591
 1658TIP3   OH229168   7.479   3.365  18.236
 1658TIP3    H129169   7.423   3.352  18.320
 1658TIP3    H229170   7.556   3.293  18.253
 1659TIP3   OH229171   7.808   3.873  18.475
 1659TIP3    H129172   7.709   3.830  18.468
 1659TIP3    H229173   7.814   3.933  18.393
 1660TIP3   OH229174   8.273   4.040  17.172
 1660TIP3    H129175   8.317   4.096  17.100
 1660TIP3    H229176   8.197   3.985  17.125
 1661TIP3   OH229177   6.520   2.487  18.411
 1661TIP3    H129178   6.460   2.531  18.482
 1661TIP3    H229179   6.515   2.385  18.440
 1662TIP3   OH229180   6.489   3.788  18.240
 1662TIP3    H129181   6.537   3.695  18.228
 1662TIP3    H229182   6.529   3.817  18.326
 1663TIP3   OH229183   6.981   3.544  17.235
 1663TIP3    H129184   7.065   3.498  17.278
 1663TIP3    H229185   6.986   3.644  17.273
 1664TIP3   OH229186   6.616   3.273  17.301
 1664TIP3    H129187   6.538   3.317  17.356
 1664TIP3    H229188   6.651   3.359  17.251
 1665TIP3   OH229189   7.465   2.457  18.319
 1665TIP3    H129190   7.559   2.468  18.363
 1665TIP3    H229191   7.434   2.361  18.351
 1666TIP3   OH229192   7.543   2.444  17.462
 1666TIP3    H129193   7.600   2.514  17.409
 1666TIP3    H229194   7.611   2.443  17.539
 1667TIP3   OH229195   7.245   2.649  17.482
 1667TIP3    H129196   7.322   2.593  17.440
 1667TIP3    H229197   7.204   2.582  17.547
 1668TIP3   OH229198   7.370   2.744  18.415
 1668TIP3    H129199   7.351   2.768  18.509
 1668TIP3    H229200   7.399   2.641  18.413
 1669TIP3   OH229201   7.332   2.276  17.591
 1669TIP3    H129202   7.288   2.334  17.663
 1669TIP3    H229203   7.399   2.346  17.549
 1670TIP3   OH229204   6.999   3.809  17.338
 1670TIP3    H129205   7.039   3.886  17.281
 1670TIP3    H229206   6.952   3.869  17.408
 1671TIP3   OH229207   6.876   2.365  17.256
 1671TIP3    H129208   6.822   2.454  17.271
 1671TIP3    H229209   6.971   2.394  17.290
 1672TIP3   OH229210   7.967   2.478  18.522
 1672TIP3    H129211   7.877   2.509  18.476
 1672TIP3    H229212   8.042   2.507  18.458
 1673TIP3   OH229213   7.786   2.855  17.869
 1673TIP3    H129214   7.743   2.758  17.871
 1673TIP3    H229215   7.857   2.839  17.943
 1674TIP3   OH229216   6.681   3.524  17.170
 1674TIP3    H129217   6.769   3.566  17.212
 1674TIP3    H229218   6.727   3.482  17.090
 1675TIP3   OH229219   7.978   3.911  18.053
 1675TIP3    H129220   7.957   3.986  17.986
 1675TIP3    H229221   8.085   3.923  18.064
 1676TIP3   OH229222   6.579   2.175  17.971
 1676TIP3    H129223   6.579   2.157  17.875
 1676TIP3    H229224   6.546   2.080  18.007
 1677TIP3   OH229225   6.427   3.706  17.560
 1677TIP3    H129226   6.336   3.751  17.590
 1677TIP3    H229227   6.436   3.753  17.472
 1678TIP3   OH229228   6.350   4.000  18.693
 1678TIP3    H129229   6.427   3.980  18.759
 1678TIP3    H229230   6.312   3.901  18.678
 1679TIP3   OH229231   6.879   3.879  18.826
 1679TIP3    H129232   6.972   3.837  18.857
 1679TIP3    H229233   6.867   3.829  18.740
 1680TIP3   OH229234   7.582   3.733  18.735
 1680TIP3    H129235   7.547   3.636  18.765
 1680TIP3    H229236   7.677   3.738  18.781
 1681TIP3   OH229237   6.350   3.289  18.816
 1681TIP3    H129238   6.322   3.187  18.802
 1681TIP3    H229239   6.290   3.335  18.746
 1682TIP3   OH229240   6.828   3.378  16.975
 1682TIP3    H129241   6.872   3.348  17.060
 1682TIP3    H229242   6.874   3.309  16.915
 1683TIP3   OH229243   7.077   3.318  18.688
 1683TIP3    H129244   7.061   3.370  18.603
 1683TIP3    H229245   7.082   3.212  18.663
 1684TIP3   OH229246   7.721   3.282  18.482
 1684TIP3    H129247   7.819   3.328  18.491
 1684TIP3    H229248   7.663   3.373  18.488
 1685TIP3   OH229249   6.477   2.987  18.775
 1685TIP3    H129250   6.535   2.900  18.765
 1685TIP3    H229251   6.523   3.040  18.850
 1686TIP3   OH229252   6.934   3.148  17.201
 1686TIP3    H129253   6.898   3.109  17.284
 1686TIP3    H229254   6.988   3.065  17.164
 1687TIP3   OH229255   6.897   2.888  18.433
 1687TIP3    H129256   6.817   2.959  18.438
 1687TIP3    H229257   6.975   2.944  18.389
 1688TIP3   OH229258   7.092   2.906  17.095
 1688TIP3    H129259   7.099   2.839  17.021
 1688TIP3    H229260   7.183   2.963  17.090
 1689TIP3   OH229261   7.442   3.194  18.822
 1689TIP3    H129262   7.524   3.164  18.767
 1689TIP3    H229263   7.417   3.101  18.867
 1690TIP3   OH229264   6.964   2.627  18.529
 1690TIP3    H129265   6.975   2.558  18.454
 1690TIP3    H229266   6.956   2.722  18.483
 1691TIP3   OH229267   6.983   2.400  18.330
 1691TIP3    H129268   7.038   2.461  18.265
 1691TIP3    H229269   6.884   2.405  18.290
 1692TIP3   OH229270   7.134   3.037  18.337
 1692TIP3    H129271   7.235   3.059  18.319
 1692TIP3    H229272   7.082   3.118  18.291
 1693TIP3   OH229273   7.699   2.736  18.818
 1693TIP3    H129274   7.752   2.643  18.814
 1693TIP3    H229275   7.762   2.791  18.756
 1694TIP3   OH229276   7.756   3.099  18.689
 1694TIP3    H129277   7.735   3.160  18.611
 1694TIP3    H229278   7.857   3.069  18.673
 1695TIP3   OH229279   6.793   2.702  18.750
 1695TIP3    H129280   6.699   2.657  18.726
 1695TIP3    H229281   6.851   2.677  18.671
 1696TIP3   OH229282   7.103   2.136  18.333
 1696TIP3    H129283   7.068   2.239  18.342
 1696TIP3    H229284   7.011   2.088  18.315
 1697TIP3   OH229285   7.197   2.599  18.750
 1697TIP3    H129286   7.131   2.566  18.821
 1697TIP3    H229287   7.136   2.587  18.671
 1698TIP3   OH229288   7.509   2.509  18.661
 1698TIP3    H129289   7.418   2.537  18.707
 1698TIP3    H229290   7.559   2.455  18.733
 1699TIP3   OH229291   7.696   2.376  18.830
 1699TIP3    H129292   7.682   2.268  18.831
 1699TIP3    H229293   7.663   2.404  18.921
 1700TIP3   OH229294   6.547   2.507  18.760
 1700TIP3    H129295   6.526   2.418  18.710
 1700TIP3    H229296   6.529   2.473  18.853
 1701TIP3   OH229297   7.056   2.095  18.627
 1701TIP3    H129298   7.135   2.025  18.644
 1701TIP3    H229299   7.064   2.102  18.529
 1702TIP3   OH229300   7.090   2.234  18.883
 1702TIP3    H129301   7.075   2.200  18.791
 1702TIP3    H229302   7.037   2.328  18.884
 1703TIP3   OH229303   7.041   4.078  17.162
 1703TIP3    H129304   7.131   4.066  17.111
 1703TIP3    H229305   7.018   4.180  17.141
 1704TIP3   OH229306   6.383   3.505  17.129
 1704TIP3    H129307   6.491   3.517  17.134
 1704TIP3    H229308   6.367   3.513  17.033
 1705TIP3   OH229309   6.307   3.894  17.794
 1705TIP3    H129310   6.328   3.792  17.820
 1705TIP3    H229311   6.261   3.927  17.877
 1706TIP3   OH229312   8.294   3.942  18.124
 1706TIP3    H129313   8.288   3.919  18.220
 1706TIP3    H229314   8.280   4.049  18.129
 1707TIP3   OH229315   8.207   3.905  18.385
 1707TIP3    H129316   8.153   3.824  18.342
 1707TIP3    H229317   8.248   3.851  18.461
 1708TIP3   OH229318   8.041   3.460  18.881
 1708TIP3    H129319   7.946   3.475  18.925
 1708TIP3    H229320   8.086   3.557  18.891
 1709TIP3   OH229321   8.215   3.288  17.376
 1709TIP3    H129322   8.232   3.375  17.430
 1709TIP3    H229323   8.199   3.217  17.447
 1710TIP3   OH229324   8.214   3.038  17.580
 1710TIP3    H129325   8.120   2.995  17.612
 1710TIP3    H229326   8.259   3.070  17.662
 1711TIP3   OH229327   8.228   3.334  18.074
 1711TIP3    H129328   8.332   3.335  18.054
 1711TIP3    H229329   8.204   3.436  18.049
 1712TIP3   OH229330   8.037   3.676  18.306
 1712TIP3    H129331   7.952   3.726  18.343
 1712TIP3    H229332   8.010   3.664  18.213
 1713TIP3   OH229333   8.274   3.077  17.191
 1713TIP3    H129334   8.170   3.075  17.205
 1713TIP3    H229335   8.303   3.123  17.274
 1714TIP3   OH229336   7.965   2.897  17.659
 1714TIP3    H129337   7.935   2.806  17.613
 1714TIP3    H229338   7.921   2.883  17.747
 1715TIP3   OH229339   6.296   3.068  18.046
 1715TIP3    H129340   6.300   3.089  17.950
 1715TIP3    H229341   6.394   3.109  18.069
 1716TIP3   OH229342   8.065   3.114  18.619
 1716TIP3    H129343   8.144   3.048  18.592
 1716TIP3    H229344   8.116   3.210  18.608
 1717TIP3   OH229345   8.230   2.877  18.628
 1717TIP3    H129346   8.125   2.879  18.649
 1717TIP3    H229347   8.253   2.773  18.651
 1718TIP3   OH229348   7.968   2.661  17.494
 1718TIP3    H129349   8.000   2.561  17.471
 1718TIP3    H229350   8.057   2.715  17.475
 1719TIP3   OH229351   7.959   2.734  18.045
 1719TIP3    H129352   8.065   2.722  18.031
 1719TIP3    H229353   7.955   2.727  18.143
 1720TIP3   OH229354   8.019   2.770  18.319
 1720TIP3    H129355   7.921   2.807  18.346
 1720TIP3    H229356   8.064   2.861  18.286
 1721TIP3   OH229357   6.316   2.612  18.645
 1721TIP3    H129358   6.407   2.602  18.697
 1721TIP3    H229359   6.270   2.516  18.660
 1722TIP3   OH229360   8.254   2.090  18.833
 1722TIP3    H129361   8.300   2.024  18.769
 1722TIP3    H229362   8.246   2.177  18.775
 1723TIP3   OH229363   8.039   2.390  17.435
 1723TIP3    H129364   8.069   2.331  17.512
 1723TIP3    H229365   7.945   2.347  17.411
 1724TIP3   OH229366   6.407   2.425  17.969
 1724TIP3    H129367   6.469   2.338  17.983
 1724TIP3    H229368   6.480   2.500  17.950
 1725TIP3   OH229369   6.243   2.776  18.068
 1725TIP3    H129370   6.306   2.739  17.997
 1725TIP3    H229371   6.270   2.882  18.063
 1726TIP3   OH229372   8.197   2.334  18.695
 1726TIP3    H129373   8.114   2.397  18.724
 1726TIP3    H229374   8.166   2.317  18.603
 1727TIP3   OH229375   6.312   2.335  17.427
 1727TIP3    H129376   6.207   2.322  17.421
 1727TIP3    H229377   6.327   2.430  17.385
 1728TIP3   OH229378   7.898   3.967  17.658
 1728TIP3    H129379   7.965   3.952  17.584
 1728TIP3    H229380   7.963   4.002  17.727
 1729TIP3   OH229381   6.277   2.190  18.291
 1729TIP3    H129382   6.211   2.159  18.361
 1729TIP3    H229383   6.222   2.268  18.247
 1730TIP3   OH229384   6.518   3.638  18.681
 1730TIP3    H129385   6.425   3.671  18.643
 1730TIP3    H229386   6.494   3.621  18.773
 1731TIP3   OH229387   6.845   3.832  18.374
 1731TIP3    H129388   6.843   3.926  18.325
 1731TIP3    H229389   6.949   3.805  18.362
 1732TIP3   OH229390   7.286   3.944  18.618
 1732TIP3    H129391   7.302   3.909  18.710
 1732TIP3    H229392   7.387   3.977  18.595
 1733TIP3   OH229393   7.544   4.095  18.573
 1733TIP3    H129394   7.633   4.054  18.535
 1733TIP3    H229395   7.579   4.134  18.658
 1734TIP3   OH229396   8.089   2.135  18.476
 1734TIP3    H129397   8.005   2.185  18.438
 1734TIP3    H229398   8.090   2.041  18.431
 1735TIP3   OH229399   6.550   4.134  18.318
 1735TIP3    H129400   6.455   4.179  18.293
 1735TIP3    H229401   6.540   4.129  18.414
 1736TIP3   OH229402   6.823   4.085  18.238
 1736TIP3    H129403   6.718   4.100  18.261
 1736TIP3    H229404   6.829   4.151  18.162
 1737TIP3   OH229405   7.339   4.033  18.156
 1737TIP3    H129406   7.280   4.069  18.083
 1737TIP3    H229407   7.352   4.121  18.211
 1738TIP3   OH229408   7.545   3.893  18.309
 1738TIP3    H129409   7.469   3.920  18.242
 1738TIP3    H229410   7.622   3.961  18.284
 1739TIP3   OH229411   7.841   4.045  18.261
 1739TIP3    H129412   7.838   4.145  18.228
 1739TIP3    H229413   7.884   3.993  18.184
 1740TIP3   OH229414   6.507   3.993  18.043
 1740TIP3    H129415   6.480   3.920  18.112
 1740TIP3    H229416   6.596   3.949  18.003
 1741TIP3   OH229417   6.745   3.909  17.900
 1741TIP3    H129418   6.703   3.812  17.917
 1741TIP3    H229419   6.846   3.891  17.930
 1742TIP3   OH229420   7.013   3.829  17.995
 1742TIP3    H129421   7.041   3.725  17.986
 1742TIP3    H229422   7.013   3.838  18.092
 1743TIP3   OH229423   7.347   2.273  17.887
 1743TIP3    H129424   7.259   2.221  17.921
 1743TIP3    H229425   7.394   2.193  17.839
 1744TIP3   OH229426   7.952   2.089  17.891
 1744TIP3    H129427   7.989   2.167  17.834
 1744TIP3    H229428   7.847   2.100  17.872
 1745TIP3   OH229429   8.106   2.231  17.661
 1745TIP3    H129430   8.183   2.155  17.646
 1745TIP3    H229431   8.160   2.289  17.728
 1746TIP3   OH229432   6.589   2.142  17.676
 1746TIP3    H129433   6.497   2.130  17.629
 1746TIP3    H229434   6.637   2.046  17.659
 1747TIP3   OH229435   6.479   2.186  17.245
 1747TIP3    H129436   6.483   2.291  17.262
 1747TIP3    H229437   6.401   2.163  17.308
 1748TIP3   OH229438   7.028   2.111  17.669
 1748TIP3    H129439   7.115   2.151  17.628
 1748TIP3    H229440   7.049   2.132  17.763
 1749TIP3   OH229441   7.680   2.175  17.797
 1749TIP3    H129442   7.670   2.143  17.705
 1749TIP3    H229443   7.601   2.115  17.838
 1750TIP3   OH229444   7.725   2.184  17.400
 1750TIP3    H129445   7.634   2.232  17.378
 1750TIP3    H229446   7.708   2.082  17.372
 1751TIP3   OH229447   6.394   3.891  17.353
 1751TIP3    H129448   6.307   3.881  17.295
 1751TIP3    H229449   6.425   3.989  17.326
 1752TIP3   OH229450   8.094   3.956  17.462
 1752TIP3    H129451   8.109   3.861  17.418
 1752TIP3    H229452   8.075   4.022  17.387
 1753TIP3   OH229453   6.509   2.222  18.632
 1753TIP3    H129454   6.457   2.128  18.634
 1753TIP3    H229455   6.596   2.206  18.689
 1754TIP3   OH229456   6.729   2.135  18.812
 1754TIP3    H129457   6.832   2.116  18.790
 1754TIP3    H229458   6.700   2.036  18.840
 1755TIP3   OH229459   6.557   4.025  17.051
 1755TIP3    H129460   6.521   4.090  17.122
 1755TIP3    H229461   6.637   3.974  17.093
 1756TIP3   OH229462   7.684   2.071  18.821
 1756TIP3    H129463   7.688   2.013  18.905
 1756TIP3    H229464   7.778   2.041  18.782
 1757TIP3   OH229465   8.015   3.772  18.642
 1757TIP3    H129466   7.940   3.785  18.572
 1757TIP3    H229467   8.017   3.872  18.677
 1758TIP3   OH229468   8.330   2.753  17.542
 1758TIP3    H129469   8.302   2.855  17.563
 1758TIP3    H229470   8.284   2.743  17.454
 1759TIP3   OH229471   8.338   3.298  18.335
 1759TIP3    H129472   8.276   3.289  18.255
 1759TIP3    H229473   8.351   3.196  18.363
 1760TIP3   OH229474   8.305   3.619  18.017
 1760TIP3    H129475   8.410   3.616  17.989
 1760TIP3    H229476   8.302   3.719  18.052
 1761TIP3   OH229477   8.293   2.449  17.762
 1761TIP3    H129478   8.291   2.555  17.773
 1761TIP3    H229479   8.307   2.439  17.665
 1762TIP3   OH229480   8.347   3.025  18.428
 1762TIP3    H129481   8.330   2.951  18.497
 1762TIP3    H229482   8.265   3.003  18.366
 1763TIP3   OH229483   8.397   3.237  18.747
 1763TIP3    H129484   8.352   3.143  18.765
 1763TIP3    H229485   8.327   3.288  18.689
 1764TIP3   OH229486   8.261   4.099  17.637
 1764TIP3    H129487   8.198   4.050  17.569
 1764TIP3    H229488   8.278   4.013  17.696
 1765TIP3   OH229489   8.319   3.863  17.792
 1765TIP3    H129490   8.294   3.761  17.807
 1765TIP3    H229491   8.400   3.875  17.853
 1766TIP3   OH229492   8.389   3.062  18.067
 1766TIP3    H129493   8.375   3.088  17.973
 1766TIP3    H229494   8.477   3.123  18.086
 1767TIP3   OH229495   8.295   2.608  18.688
 1767TIP3    H129496   8.402   2.614  18.685
 1767TIP3    H229497   8.275   2.507  18.716
 1768TIP3   OH229498   8.250   2.740  18.023
 1768TIP3    H129499   8.358   2.730  18.035
 1768TIP3    H229500   8.240   2.842  18.046
 1769TIP3   OH229501   8.346   2.387  17.492
 1769TIP3    H129502   8.246   2.383  17.457
 1769TIP3    H229503   8.403   2.383  17.411
 1770TIP3   OH229504   8.235   2.173  18.238
 1770TIP3    H129505   8.220   2.173  18.334
 1770TIP3    H229506   8.197   2.270  18.214
 1771TIP3   OH229507   1.341   5.241  17.655
 1771TIP3    H129508   1.327   5.346  17.636
 1771TIP3    H229509   1.266   5.203  17.595
 1772TIP3   OH229510   1.222   5.124  18.008
 1772TIP3    H129511   1.230   5.080  18.099
 1772TIP3    H229512   1.148   5.059  17.969
 1773TIP3   OH229513   0.371   5.122  18.179
 1773TIP3    H129514   0.349   5.022  18.206
 1773TIP3    H229515   0.431   5.152  18.256
 1774TIP3   OH229516   1.591   5.456  17.868
 1774TIP3    H129517   1.543   5.383  17.924
 1774TIP3    H229518   1.602   5.538  17.931
 1775TIP3   OH229519   0.387   5.611  18.013
 1775TIP3    H129520   0.356   5.512  17.989
 1775TIP3    H229521   0.493   5.603  18.005
 1776TIP3   OH229522   0.163   4.899  17.549
 1776TIP3    H129523   0.090   4.966  17.517
 1776TIP3    H229524   0.107   4.808  17.552
 1777TIP3   OH229525   0.162   5.114  17.817
 1777TIP3    H129526   0.197   5.023  17.778
 1777TIP3    H229527   0.165   5.182  17.743
 1778TIP3   OH229528   1.290   6.030  17.834
 1778TIP3    H129529   1.383   5.980  17.809
 1778TIP3    H229530   1.246   5.950  17.883
 1779TIP3   OH229531   1.011   5.397  18.083
 1779TIP3    H129532   1.057   5.346  18.010
 1779TIP3    H229533   1.100   5.432  18.129
 1780TIP3   OH229534   1.962   4.484  18.072
 1780TIP3    H129535   1.965   4.546  18.152
 1780TIP3    H229536   2.058   4.510  18.034
 1781TIP3   OH229537   1.413   4.807  18.103
 1781TIP3    H129538   1.434   4.703  18.118
 1781TIP3    H229539   1.372   4.804  18.013
 1782TIP3   OH229540   1.442   4.612  17.654
 1782TIP3    H129541   1.502   4.572  17.726
 1782TIP3    H229542   1.513   4.681  17.614
 1783TIP3   OH229543   1.977   4.629  18.324
 1783TIP3    H129544   1.940   4.726  18.294
 1783TIP3    H229545   2.005   4.654  18.415
 1784TIP3   OH229546   0.510   4.480  18.210
 1784TIP3    H129547   0.466   4.537  18.137
 1784TIP3    H229548   0.451   4.514  18.286
 1785TIP3   OH229549   1.269   5.530  17.574
 1785TIP3    H129550   1.241   5.542  17.479
 1785TIP3    H229551   1.260   5.632  17.605
 1786TIP3   OH229552   0.778   5.329  18.242
 1786TIP3    H129553   0.713   5.412  18.263
 1786TIP3    H229554   0.851   5.377  18.184
 1787TIP3   OH229555   1.660   4.572  17.845
 1787TIP3    H129556   1.647   4.477  17.887
 1787TIP3    H229557   1.756   4.601  17.878
 1788TIP3   OH229558   0.436   4.676  18.001
 1788TIP3    H129559   0.495   4.750  18.050
 1788TIP3    H229560   0.498   4.654  17.925
 1789TIP3   OH229561   0.608   5.577  18.303
 1789TIP3    H129562   0.587   5.675  18.266
 1789TIP3    H229563   0.509   5.551  18.332
 1790TIP3   OH229564   0.135   5.508  17.402
 1790TIP3    H129565   0.109   5.531  17.309
 1790TIP3    H229566   0.184   5.597  17.435
 1791TIP3   OH229567   1.658   5.684  18.057
 1791TIP3    H129568   1.553   5.699  18.076
 1791TIP3    H229569   1.676   5.781  18.017
 1792TIP3   OH229570   1.639   4.413  18.173
 1792TIP3    H129571   1.549   4.446  18.128
 1792TIP3    H229572   1.712   4.444  18.106
 1793TIP3   OH229573   0.900   4.170  17.999
 1793TIP3    H129574   0.871   4.116  17.920
 1793TIP3    H229575   0.816   4.238  18.005
 1794TIP3   OH229576   1.508   5.870  17.744
 1794TIP3    H129577   1.495   5.803  17.669
 1794TIP3    H229578   1.580   5.939  17.706
 1795TIP3   OH229579   1.616   5.653  17.572
 1795TIP3    H129580   1.586   5.582  17.504
 1795TIP3    H229581   1.591   5.597  17.652
 1796TIP3   OH229582   1.767   5.499  18.445
 1796TIP3    H129583   1.788   5.420  18.381
 1796TIP3    H229584   1.774   5.585  18.386
 1797TIP3   OH229585   1.199   5.175  17.404
 1797TIP3    H129586   1.142   5.263  17.384
 1797TIP3    H229587   1.224   5.143  17.313
 1798TIP3   OH229588   2.000   5.105  18.224
 1798TIP3    H129589   1.925   5.182  18.231
 1798TIP3    H229590   2.064   5.150  18.157
 1799TIP3   OH229591   1.571   5.129  17.496
 1799TIP3    H129592   1.497   5.173  17.555
 1799TIP3    H229593   1.645   5.099  17.562
 1800TIP3   OH229594   1.573   4.984  18.412
 1800TIP3    H129595   1.544   5.075  18.453
 1800TIP3    H229596   1.499   4.981  18.340
 1801TIP3   OH229597   0.768   5.587  17.948
 1801TIP3    H129598   0.802   5.591  17.857
 1801TIP3    H229599   0.857   5.563  17.999
 1802TIP3   OH229600   0.704   5.125  18.061
 1802TIP3    H129601   0.809   5.125  18.042
 1802TIP3    H229602   0.700   5.193  18.136
 1803TIP3   OH229603   1.378   5.743  18.131
 1803TIP3    H129604   1.351   5.827  18.185
 1803TIP3    H229605   1.327   5.664  18.177
 1804TIP3   OH229606   0.770   5.602  18.524
 1804TIP3    H129607   0.693   5.651  18.577
 1804TIP3    H229608   0.715   5.589  18.439
 1805TIP3   OH229609   0.488   5.181  18.412
 1805TIP3    H129610   0.487   5.273  18.463
 1805TIP3    H229611   0.385   5.152  18.426
 1806TIP3   OH229612   1.214   5.804  17.640
 1806TIP3    H129613   1.240   5.906  17.661
 1806TIP3    H229614   1.119   5.816  17.600
 1807TIP3   OH229615   0.571   5.799  18.609
 1807TIP3    H129616   0.559   5.815  18.513
 1807TIP3    H229617   0.470   5.782  18.638
 1808TIP3   OH229618   1.845   4.151  17.281
 1808TIP3    H129619   1.740   4.165  17.301
 1808TIP3    H229620   1.879   4.253  17.291
 1809TIP3   OH229621   0.184   5.382  18.360
 1809TIP3    H129622   0.084   5.392  18.326
 1809TIP3    H229623   0.205   5.279  18.341
 1810TIP3   OH229624   0.131   5.747  17.982
 1810TIP3    H129625   0.213   5.678  17.991
 1810TIP3    H229626   0.151   5.810  18.059
 1811TIP3   OH229627   2.059   5.746  18.617
 1811TIP3    H129628   2.047   5.640  18.608
 1811TIP3    H229629   1.964   5.767  18.659
 1812TIP3   OH229630   1.035   5.721  18.515
 1812TIP3    H129631   1.043   5.805  18.576
 1812TIP3    H229632   0.934   5.685  18.528
 1813TIP3   OH229633   1.131   6.146  17.384
 1813TIP3    H129634   1.058   6.180  17.320
 1813TIP3    H229635   1.123   6.219  17.455
 1814TIP3   OH229636   1.416   6.038  17.461
 1814TIP3    H129637   1.327   6.097  17.462
 1814TIP3    H229638   1.382   5.950  17.415
 1815TIP3   OH229639   1.726   4.826  18.631
 1815TIP3    H129640   1.662   4.866  18.561
 1815TIP3    H229641   1.722   4.721  18.611
 1816TIP3   OH229642   0.331   5.615  18.423
 1816TIP3    H129643   0.341   5.582  18.514
 1816TIP3    H229644   0.267   5.535  18.389
 1817TIP3   OH229645   0.643   4.321  18.011
 1817TIP3    H129646   0.546   4.306  17.973
 1817TIP3    H229647   0.617   4.369  18.094
 1818TIP3   OH229648   1.142   4.259  18.352
 1818TIP3    H129649   1.186   4.205  18.427
 1818TIP3    H229650   1.036   4.238  18.362
 1819TIP3   OH229651   1.452   4.700  18.484
 1819TIP3    H129652   1.388   4.653  18.553
 1819TIP3    H229653   1.401   4.793  18.469
 1820TIP3   OH229654   0.641   4.847  18.133
 1820TIP3    H129655   0.563   4.850  18.201
 1820TIP3    H229656   0.666   4.950  18.122
 1821TIP3   OH229657   1.240   4.899  17.465
 1821TIP3    H129658   1.238   5.008  17.457
 1821TIP3    H229659   1.334   4.878  17.422
 1822TIP3   OH229660   1.137   4.934  18.656
 1822TIP3    H129661   1.089   4.846  18.692
 1822TIP3    H229662   1.217   4.941  18.723
 1823TIP3   OH229663   1.335   4.855  17.828
 1823TIP3    H129664   1.356   4.940  17.770
 1823TIP3    H229665   1.341   4.773  17.765
 1824TIP3   OH229666   0.408   4.820  18.294
 1824TIP3    H129667   0.444   4.864  18.375
 1824TIP3    H229668   0.352   4.735  18.327
 1825TIP3   OH229669   0.103   4.601  17.744
 1825TIP3    H129670   0.138   4.530  17.809
 1825TIP3    H229671   0.127   4.551  17.659
 1826TIP3   OH229672   0.107   4.662  17.266
 1826TIP3    H129673   0.175   4.673  17.191
 1826TIP3    H229674   0.169   4.697  17.337
 1827TIP3   OH229675   1.263   5.000  18.248
 1827TIP3    H129676   1.323   4.924  18.204
 1827TIP3    H229677   1.198   4.938  18.303
 1828TIP3   OH229678   1.401   4.499  18.052
 1828TIP3    H129679   1.338   4.483  18.130
 1828TIP3    H229680   1.354   4.436  17.984
 1829TIP3   OH229681   1.723   6.204  18.735
 1829TIP3    H129682   1.740   6.260  18.654
 1829TIP3    H229683   1.808   6.233  18.787
 1830TIP3   OH229684   0.468   5.394  18.597
 1830TIP3    H129685   0.544   5.400  18.664
 1830TIP3    H229686   0.380   5.385  18.651
 1831TIP3   OH229687   1.032   4.906  17.930
 1831TIP3    H129688   1.120   4.873  17.884
 1831TIP3    H229689   0.995   4.814  17.966
 1832TIP3   OH229690   0.900   4.684  18.174
 1832TIP3    H129691   0.824   4.759  18.181
 1832TIP3    H229692   0.981   4.729  18.223
 1833TIP3   OH229693   0.974   5.375  17.350
 1833TIP3    H129694   0.899   5.305  17.317
 1833TIP3    H229695   0.927   5.401  17.434
 1834TIP3   OH229696   1.796   5.325  18.236
 1834TIP3    H129697   1.852   5.391  18.176
 1834TIP3    H229698   1.704   5.322  18.187
 1835TIP3   OH229699   1.393   4.607  17.147
 1835TIP3    H129700   1.297   4.576  17.177
 1835TIP3    H229701   1.405   4.703  17.190
 1836TIP3   OH229702   1.080   5.419  18.477
 1836TIP3    H129703   1.033   5.393  18.561
 1836TIP3    H229704   1.072   5.526  18.479
 1837TIP3   OH229705   1.481   4.835  17.322
 1837TIP3    H129706   1.563   4.826  17.383
 1837TIP3    H229707   1.497   4.929  17.279
 1838TIP3   OH229708   0.469   5.332  17.917
 1838TIP3    H129709   0.557   5.380  17.887
 1838TIP3    H229710   0.504   5.254  17.974
 1839TIP3   OH229711   1.202   5.567  17.304
 1839TIP3    H129712   1.144   5.653  17.280
 1839TIP3    H229713   1.128   5.489  17.302
 1840TIP3   OH229714   0.200   5.080  18.426
 1840TIP3    H129715   0.194   5.043  18.517
 1840TIP3    H229716   0.096   5.079  18.402
 1841TIP3   OH229717   0.865   5.100  18.644
 1841TIP3    H129718   0.805   5.035  18.588
 1841TIP3    H229719   0.959   5.047  18.646
 1842TIP3   OH229720   1.423   5.680  18.486
 1842TIP3    H129721   1.340   5.707  18.432
 1842TIP3    H229722   1.396   5.723  18.572
 1843TIP3   OH229723   1.966   4.818  17.373
 1843TIP3    H129724   1.991   4.767  17.290
 1843TIP3    H229725   1.981   4.919  17.340
 1844TIP3   OH229726   2.033   5.454  18.569
 1844TIP3    H129727   1.934   5.470  18.533
 1844TIP3    H229728   2.091   5.449  18.486
 1845TIP3   OH229729   1.816   5.730  17.358
 1845TIP3    H129730   1.768   5.723  17.447
 1845TIP3    H229731   1.757   5.663  17.306
 1846TIP3   OH229732   1.517   5.228  18.057
 1846TIP3    H129733   1.419   5.195  18.032
 1846TIP3    H229734   1.577   5.162  18.003
 1847TIP3   OH229735   0.698   5.718  17.666
 1847TIP3    H129736   0.718   5.820  17.690
 1847TIP3    H229737   0.603   5.723  17.625
 1848TIP3   OH229738   0.255   5.108  17.152
 1848TIP3    H129739   0.312   5.196  17.170
 1848TIP3    H229740   0.177   5.154  17.100
 1849TIP3   OH229741   0.818   5.429  17.614
 1849TIP3    H129742   0.780   5.530  17.613
 1849TIP3    H229743   0.844   5.413  17.706
 1850TIP3   OH229744   0.915   5.878  18.283
 1850TIP3    H129745   0.981   5.951  18.245
 1850TIP3    H229746   0.971   5.839  18.358
 1851TIP3   OH229747   1.251   5.448  18.220
 1851TIP3    H129748   1.202   5.403  18.297
 1851TIP3    H229749   1.332   5.381  18.204
 1852TIP3   OH229750   1.532   5.649  17.216
 1852TIP3    H129751   1.517   5.588  17.295
 1852TIP3    H229752   1.494   5.579  17.150
 1853TIP3   OH229753   1.627   5.962  18.447
 1853TIP3    H129754   1.531   5.918  18.427
 1853TIP3    H229755   1.639   6.028  18.371
 1854TIP3   OH229756   0.306   4.572  18.401
 1854TIP3    H129757   0.270   4.608  18.487
 1854TIP3    H229758   0.270   4.472  18.398
 1855TIP3   OH229759   1.647   5.398  17.379
 1855TIP3    H129760   1.619   5.295  17.394
 1855TIP3    H229761   1.753   5.387  17.373
 1856TIP3   OH229762   0.270   5.871  18.214
 1856TIP3    H129763   0.331   5.786  18.233
 1856TIP3    H229764   0.242   5.898  18.303
 1857TIP3   OH229765   0.767   5.614  17.225
 1857TIP3    H129766   0.851   5.549  17.229
 1857TIP3    H229767   0.807   5.708  17.256
 1858TIP3   OH229768   0.377   5.346  17.290
 1858TIP3    H129769   0.286   5.389  17.324
 1858TIP3    H229770   0.425   5.426  17.242
 1859TIP3   OH229771   1.263   4.524  18.303
 1859TIP3    H129772   1.349   4.540  18.359
 1859TIP3    H229773   1.221   4.433  18.339
 1860TIP3   OH229774   1.381   4.451  17.440
 1860TIP3    H129775   1.400   4.503  17.358
 1860TIP3    H229776   1.396   4.526  17.510
 1861TIP3   OH229777   1.079   5.837  17.269
 1861TIP3    H129778   0.986   5.887  17.286
 1861TIP3    H229779   1.148   5.917  17.258
 1862TIP3   OH229780   1.071   4.660  17.521
 1862TIP3    H129781   1.119   4.749  17.485
 1862TIP3    H229782   0.968   4.672  17.500
 1863TIP3   OH229783   1.137   4.803  18.403
 1863TIP3    H129784   1.143   4.853  18.490
 1863TIP3    H229785   1.169   4.703  18.421
 1864TIP3   OH229786   1.141   4.358  17.605
 1864TIP3    H129787   1.071   4.438  17.589
 1864TIP3    H229788   1.227   4.400  17.560
 1865TIP3   OH229789   0.805   5.941  17.295
 1865TIP3    H129790   0.752   5.993  17.224
 1865TIP3    H229791   0.743   5.966  17.369
 1866TIP3   OH229792   1.739   4.554  18.505
 1866TIP3    H129793   1.637   4.577  18.485
 1866TIP3    H229794   1.788   4.569  18.419
 1867TIP3   OH229795   1.623   4.962  17.897
 1867TIP3    H129796   1.541   4.893  17.894
 1867TIP3    H229797   1.696   4.909  17.950
 1868TIP3   OH229798   0.460   5.577  17.125
 1868TIP3    H129799   0.509   5.599  17.209
 1868TIP3    H229800   0.522   5.632  17.065
 1869TIP3   OH229801   1.699   5.981  18.040
 1869TIP3    H129802   1.696   6.051  17.965
 1869TIP3    H229803   1.805   5.984  18.057
 1870TIP3   OH229804   0.370   4.261  17.937
 1870TIP3    H129805   0.369   4.225  17.846
 1870TIP3    H229806   0.347   4.169  17.986
 1871TIP3   OH229807   0.254   5.762  17.548
 1871TIP3    H129808   0.154   5.789  17.521
 1871TIP3    H229809   0.308   5.843  17.508
 1872TIP3   OH229810   0.180   6.063  18.696
 1872TIP3    H129811   0.241   6.035  18.773
 1872TIP3    H229812   0.112   5.983  18.695
 1873TIP3   OH229813   0.686   5.938  18.835
 1873TIP3    H129814   0.783   5.894  18.843
 1873TIP3    H229815   0.663   5.917  18.741
 1874TIP3   OH229816   1.361   5.788  18.729
 1874TIP3    H129817   1.322   5.694  18.763
 1874TIP3    H229818   1.453   5.795  18.779
 1875TIP3   OH229819   0.220   5.420  18.803
 1875TIP3    H129820   0.228   5.313  18.803
 1875TIP3    H229821   0.119   5.418  18.770
 1876TIP3   OH229822   0.875   5.398  18.700
 1876TIP3    H129823   0.844   5.451  18.619
 1876TIP3    H229824   0.873   5.292  18.674
 1877TIP3   OH229825   1.494   5.371  18.492
 1877TIP3    H129826   1.584   5.430  18.492
 1877TIP3    H229827   1.424   5.453  18.491
 1878TIP3   OH229828   0.250   5.062  18.766
 1878TIP3    H129829   0.332   4.994  18.757
 1878TIP3    H229830   0.268   5.109  18.852
 1879TIP3   OH229831   0.778   5.170  17.253
 1879TIP3    H129832   0.696   5.105  17.269
 1879TIP3    H229833   0.820   5.132  17.171
 1880TIP3   OH229834   0.690   4.974  18.437
 1880TIP3    H129835   0.620   5.057  18.426
 1880TIP3    H229836   0.772   5.016  18.385
 1881TIP3   OH229837   1.261   5.266  18.796
 1881TIP3    H129838   1.322   5.211  18.735
 1881TIP3    H229839   1.219   5.188  18.851
 1882TIP3   OH229840   0.673   4.703  18.521
 1882TIP3    H129841   0.705   4.632  18.454
 1882TIP3    H229842   0.684   4.798  18.476
 1883TIP3   OH229843   0.770   4.479  18.323
 1883TIP3    H129844   0.823   4.531  18.252
 1883TIP3    H229845   0.671   4.473  18.284
 1884TIP3   OH229846   0.933   5.099  18.321
 1884TIP3    H129847   1.029   5.145  18.326
 1884TIP3    H229848   0.871   5.185  18.300
 1885TIP3   OH229849   1.395   4.826  18.823
 1885TIP3    H129850   1.437   4.728  18.813
 1885TIP3    H229851   1.477   4.885  18.851
 1886TIP3   OH229852   1.578   5.167  18.673
 1886TIP3    H129853   1.536   5.229  18.604
 1886TIP3    H229854   1.682   5.170  18.647
 1887TIP3   OH229855   0.494   4.831  18.719
 1887TIP3    H129856   0.439   4.742  18.744
 1887TIP3    H229857   0.560   4.792  18.650
 1888TIP3   OH229858   0.853   4.204  18.342
 1888TIP3    H129859   0.832   4.309  18.331
 1888TIP3    H229860   0.762   4.162  18.306
 1889TIP3   OH229861   0.984   4.687  18.741
 1889TIP3    H129862   0.941   4.657  18.825
 1889TIP3    H229863   0.909   4.659  18.678
 1890TIP3   OH229864   1.273   4.576  18.659
 1890TIP3    H129865   1.178   4.591  18.704
 1890TIP3    H229866   1.321   4.512  18.726
 1891TIP3   OH229867   1.460   4.435  18.827
 1891TIP3    H129868   1.450   4.327  18.823
 1891TIP3    H229869   1.445   4.456  18.922
 1892TIP3   OH229870   0.340   4.583  18.771
 1892TIP3    H129871   0.372   4.498  18.718
 1892TIP3    H229872   0.298   4.533  18.851
 1893TIP3   OH229873   0.860   4.151  18.644
 1893TIP3    H129874   0.944   4.084  18.649
 1893TIP3    H229875   0.848   4.155  18.547
 1894TIP3   OH229876   0.865   4.304  18.884
 1894TIP3    H129877   0.859   4.247  18.800
 1894TIP3    H229878   0.816   4.397  18.859
 1895TIP3   OH229879   0.112   5.568  17.136
 1895TIP3    H129880   0.216   5.591  17.120
 1895TIP3    H229881   0.107   5.476  17.085
 1896TIP3   OH229882   0.086   6.190  17.594
 1896TIP3    H129883  -0.020   6.200  17.604
 1896TIP3    H229884   0.105   6.125  17.670
 1897TIP3   OH229885   0.130   5.998  17.818
 1897TIP3    H129886   0.182   5.908  17.794
 1897TIP3    H229887   0.192   6.038  17.888
 1898TIP3   OH229888   2.001   6.059  18.084
 1898TIP3    H129889   2.075   6.062  18.153
 1898TIP3    H229890   2.047   6.106  18.009
 1899TIP3   OH229891   1.992   6.009  18.407
 1899TIP3    H129892   1.948   5.950  18.336
 1899TIP3    H229893   1.987   5.937  18.479
 1900TIP3   OH229894   1.823   5.525  18.859
 1900TIP3    H129895   1.722   5.526  18.894
 1900TIP3    H229896   1.868   5.602  18.914
 1901TIP3   OH229897   1.949   5.350  17.369
 1901TIP3    H129898   2.035   5.416  17.377
 1901TIP3    H229899   1.951   5.302  17.456
 1902TIP3   OH229900   1.995   5.159  17.582
 1902TIP3    H129901   1.906   5.108  17.614
 1902TIP3    H229902   2.053   5.159  17.663
 1903TIP3   OH229903   1.972   5.464  18.073
 1903TIP3    H129904   2.036   5.380  18.050
 1903TIP3    H229905   2.033   5.548  18.051
 1904TIP3   OH229906   1.819   5.763  18.297
 1904TIP3    H129907   1.731   5.792  18.345
 1904TIP3    H229908   1.777   5.738  18.209
 1905TIP3   OH229909   2.027   5.047  17.229
 1905TIP3    H129910   1.955   5.089  17.168
 1905TIP3    H229911   2.046   5.130  17.287
 1906TIP3   OH229912   1.819   4.844  17.079
 1906TIP3    H129913   1.830   4.928  17.020
 1906TIP3    H229914   1.916   4.837  17.121
 1907TIP3   OH229915   1.771   5.004  17.661
 1907TIP3    H129916   1.748   4.904  17.630
 1907TIP3    H229917   1.741   5.001  17.755
 1908TIP3   OH229918   0.168   5.297  18.043
 1908TIP3    H129919   0.183   5.244  17.960
 1908TIP3    H229920   0.256   5.266  18.091
 1909TIP3   OH229921   1.881   5.195  18.604
 1909TIP3    H129922   1.940   5.108  18.624
 1909TIP3    H229923   1.954   5.277  18.597
 1910TIP3   OH229924   2.000   4.923  18.651
 1910TIP3    H129925   1.896   4.890  18.638
 1910TIP3    H229926   2.055   4.829  18.658
 1911TIP3   OH229927   1.726   4.748  17.507
 1911TIP3    H129928   1.748   4.644  17.521
 1911TIP3    H229929   1.813   4.772  17.452
 1912TIP3   OH229930   1.822   4.791  18.034
 1912TIP3    H129931   1.931   4.797  18.041
 1912TIP3    H229932   1.794   4.795  18.128
 1913TIP3   OH229933   1.821   4.870  18.299
 1913TIP3    H129934   1.728   4.899  18.342
 1913TIP3    H229935   1.865   4.964  18.274
 1914TIP3   OH229936   0.129   4.666  18.597
 1914TIP3    H129937   0.211   4.690  18.656
 1914TIP3    H229938   0.122   4.560  18.605
 1915TIP3   OH229939   2.064   4.246  18.825
 1915TIP3    H129940   2.109   4.166  18.774
 1915TIP3    H229941   2.050   4.321  18.754
 1916TIP3   OH229942   1.799   4.352  17.484
 1916TIP3    H129943   1.824   4.360  17.579
 1916TIP3    H229944   1.704   4.302  17.483
 1917TIP3   OH229945   0.167   4.490  18.009
 1917TIP3    H129946   0.238   4.408  18.000
 1917TIP3    H229947   0.232   4.576  18.009
 1918TIP3   OH229948   0.111   4.854  18.020
 1918TIP3    H129949   0.164   4.837  17.938
 1918TIP3    H229950   0.092   4.959  18.019
 1919TIP3   OH229951   1.984   4.455  18.664
 1919TIP3    H129952   1.900   4.520  18.676
 1919TIP3    H229953   1.954   4.402  18.583
 1920TIP3   OH229954   0.102   4.489  17.503
 1920TIP3    H129955   0.001   4.469  17.472
 1920TIP3    H229956   0.158   4.497  17.421
 1921TIP3   OH229957   1.687   6.080  17.657
 1921TIP3    H129958   1.750   6.060  17.579
 1921TIP3    H229959   1.753   6.124  17.722
 1922TIP3   OH229960   0.067   4.243  18.293
 1922TIP3    H129961  -0.034   4.204  18.296
 1922TIP3    H229962   0.054   4.327  18.235
 1923TIP3   OH229963   0.303   5.716  18.714
 1923TIP3    H129964   0.232   5.750  18.650
 1923TIP3    H229965   0.248   5.645  18.767
 1924TIP3   OH229966   0.623   5.884  18.348
 1924TIP3    H129967   0.619   5.984  18.312
 1924TIP3    H229968   0.728   5.864  18.346
 1925TIP3   OH229969   1.067   6.036  18.599
 1925TIP3    H129970   1.079   6.001  18.691
 1925TIP3    H229971   1.168   6.059  18.577
 1926TIP3   OH229972   1.331   6.178  18.553
 1926TIP3    H129973   1.415   6.124  18.522
 1926TIP3    H229974   1.364   6.211  18.642
 1927TIP3   OH229975   1.907   4.195  18.477
 1927TIP3    H129976   1.830   4.245  18.428
 1927TIP3    H229977   1.913   4.100  18.433
 1928TIP3   OH229978   0.344   6.228  18.345
 1928TIP3    H129979   0.249   6.255  18.308
 1928TIP3    H229980   0.322   6.218  18.440
 1929TIP3   OH229981   0.593   6.173  18.214
 1929TIP3    H129982   0.493   6.169  18.253
 1929TIP3    H229983   0.575   6.260  18.160
 1930TIP3   OH229984   1.092   6.116  18.151
 1930TIP3    H129985   1.107   6.169  18.068
 1930TIP3    H229986   1.114   6.194  18.216
 1931TIP3   OH229987   1.334   5.975  18.298
 1931TIP3    H129988   1.258   6.021  18.243
 1931TIP3    H229989   1.416   6.040  18.274
 1932TIP3   OH229990   1.652   6.151  18.248
 1932TIP3    H129991   1.645   6.247  18.204
 1932TIP3    H229992   1.664   6.090  18.168
 1933TIP3   OH229993   0.342   6.108  18.027
 1933TIP3    H129994   0.311   6.029  18.085
 1933TIP3    H229995   0.413   6.057  17.968
 1934TIP3   OH229996   0.497   5.926  17.878
 1934TIP3    H129997   0.460   5.829  17.897
 1934TIP3    H229998   0.592   5.925  17.923
 1935TIP3   OH229999   0.765   5.910  18.010
 1935TIP3    H130000   0.806   5.813  17.999
 1935TIP3    H230001   0.794   5.932  18.101
 1936TIP3   OH230002   1.214   4.342  17.914
 1936TIP3    H130003   1.120   4.364  17.953
 1936TIP3    H230004   1.184   4.309  17.826
 1937TIP3   OH230005   1.744   4.155  17.892
 1937TIP3    H130006   1.811   4.219  17.839
 1937TIP3    H230007   1.646   4.179  17.855
 1938TIP3   OH230008   1.923   4.291  17.728
 1938TIP3    H130009   1.994   4.224  17.685
 1938TIP3    H230010   1.989   4.376  17.745
 1939TIP3   OH230011   0.264   4.221  17.216
 1939TIP3    H130012   0.189   4.254  17.156
 1939TIP3    H230013   0.208   4.210  17.298
 1940TIP3   OH230014   0.828   4.131  17.682
 1940TIP3    H130015   0.908   4.168  17.627
 1940TIP3    H230016   0.759   4.212  17.679
 1941TIP3   OH230017   1.474   4.217  17.765
 1941TIP3    H130018   1.410   4.254  17.696
 1941TIP3    H230019   1.411   4.137  17.799
 1942TIP3   OH230020   1.542   4.202  17.350
 1942TIP3    H130021   1.472   4.268  17.394
 1942TIP3    H230022   1.507   4.105  17.380
 1943TIP3   OH230023   0.158   5.963  17.375
 1943TIP3    H130024   0.087   6.029  17.335
 1943TIP3    H230025   0.241   6.031  17.387
 1944TIP3   OH230026   1.879   5.998  17.468
 1944TIP3    H130027   1.866   5.915  17.407
 1944TIP3    H230028   1.856   6.081  17.407
 1945TIP3   OH230029   0.272   4.282  18.634
 1945TIP3    H130030   0.219   4.187  18.638
 1945TIP3    H230031   0.367   4.254  18.671
 1946TIP3   OH230032   0.531   4.226  18.816
 1946TIP3    H130033   0.632   4.205  18.791
 1946TIP3    H230034   0.505   4.132  18.856
 1947TIP3   OH230035   1.448   4.140  18.803
 1947TIP3    H130036   1.456   4.074  18.880
 1947TIP3    H230037   1.551   4.140  18.772
 1948TIP3   OH230038   1.822   5.920  18.643
 1948TIP3    H130039   1.757   5.917  18.564
 1948TIP3    H230040   1.783   6.007  18.686
 1949TIP3   OH230041   3.406   5.218  17.634
 1949TIP3    H130042   3.400   5.323  17.652
 1949TIP3    H230043   3.328   5.207  17.567
 1950TIP3   OH230044   3.286   5.121  17.998
 1950TIP3    H130045   3.282   5.071  18.086
 1950TIP3    H230046   3.214   5.068  17.944
 1951TIP3   OH230047   2.405   5.099  18.155
 1951TIP3    H130048   2.412   5.025  18.226
 1951TIP3    H230049   2.496   5.151  18.165
 1952TIP3   OH230050   3.653   5.427  17.863
 1952TIP3    H130051   3.638   5.368  17.942
 1952TIP3    H230052   3.665   5.523  17.906
 1953TIP3   OH230053   2.523   5.624  17.977
 1953TIP3    H130054   2.482   5.529  17.953
 1953TIP3    H230055   2.626   5.603  17.956
 1954TIP3   OH230056   2.159   4.888  17.578
 1954TIP3    H130057   2.133   4.989  17.559
 1954TIP3    H230058   2.081   4.837  17.530
 1955TIP3   OH230059   2.225   5.143  17.804
 1955TIP3    H130060   2.277   5.050  17.829
 1955TIP3    H230061   2.290   5.187  17.739
 1956TIP3   OH230062   3.346   6.026  17.844
 1956TIP3    H130063   3.443   6.019  17.803
 1956TIP3    H230064   3.341   5.939  17.900
 1957TIP3   OH230065   3.059   5.437  18.104
 1957TIP3    H130066   3.080   5.393  18.018
 1957TIP3    H230067   3.158   5.457  18.138
 1958TIP3   OH230068   4.029   4.454  18.107
 1958TIP3    H130069   4.043   4.534  18.171
 1958TIP3    H230070   4.102   4.479  18.039
 1959TIP3   OH230071   3.478   4.816  18.102
 1959TIP3    H130072   3.513   4.715  18.112
 1959TIP3    H230073   3.389   4.798  18.051
 1960TIP3   OH230074   2.692   4.561  17.774
 1960TIP3    H130075   2.703   4.656  17.730
 1960TIP3    H230076   2.638   4.508  17.704
 1961TIP3   OH230077   2.319   4.871  17.879
 1961TIP3    H130078   2.385   4.809  17.932
 1961TIP3    H230079   2.334   4.827  17.791
 1962TIP3   OH230080   2.874   5.023  17.823
 1962TIP3    H130081   2.960   4.960  17.812
 1962TIP3    H230082   2.797   4.953  17.792
 1963TIP3   OH230083   4.041   4.622  18.330
 1963TIP3    H130084   4.006   4.718  18.295
 1963TIP3    H230085   4.067   4.650  18.420
 1964TIP3   OH230086   2.577   4.468  18.214
 1964TIP3    H130087   2.538   4.522  18.137
 1964TIP3    H230088   2.510   4.500  18.286
 1965TIP3   OH230089   3.352   5.530  17.577
 1965TIP3    H130090   3.301   5.509  17.494
 1965TIP3    H230091   3.324   5.632  17.595
 1966TIP3   OH230092   2.807   5.311  18.188
 1966TIP3    H130093   2.743   5.386  18.230
 1966TIP3    H230094   2.884   5.374  18.149
 1967TIP3   OH230095   2.532   4.683  17.995
 1967TIP3    H130096   2.606   4.745  18.042
 1967TIP3    H230097   2.588   4.652  17.914
 1968TIP3   OH230098   2.677   5.565  18.295
 1968TIP3    H130099   2.659   5.650  18.240
 1968TIP3    H230100   2.584   5.557  18.345
 1969TIP3   OH230101   2.213   5.520  17.379
 1969TIP3    H130102   2.276   5.582  17.325
 1969TIP3    H230103   2.244   5.553  17.468
 1970TIP3   OH230104   3.737   5.683  18.066
 1970TIP3    H130105   3.632   5.699  18.087
 1970TIP3    H230106   3.752   5.774  18.016
 1971TIP3   OH230107   3.792   4.330  18.256
 1971TIP3    H130108   3.699   4.372  18.228
 1971TIP3    H230109   3.859   4.360  18.184
 1972TIP3   OH230110   2.979   4.202  17.941
 1972TIP3    H130111   2.943   4.102  17.951
 1972TIP3    H230112   2.891   4.257  17.974
 1973TIP3   OH230113   3.598   5.910  17.718
 1973TIP3    H130114   3.595   5.806  17.694
 1973TIP3    H230115   3.596   5.952  17.629
 1974TIP3   OH230116   3.694   5.631  17.588
 1974TIP3    H130117   3.645   5.592  17.509
 1974TIP3    H230118   3.671   5.557  17.655
 1975TIP3   OH230119   3.841   5.503  18.448
 1975TIP3    H130120   3.867   5.424  18.384
 1975TIP3    H230121   3.853   5.590  18.389
 1976TIP3   OH230122   3.223   5.137  17.422
 1976TIP3    H130123   3.171   5.222  17.381
 1976TIP3    H230124   3.306   5.125  17.361
 1977TIP3   OH230125   4.072   5.105  18.225
 1977TIP3    H130126   4.011   5.191  18.240
 1977TIP3    H230127   4.132   5.143  18.151
 1978TIP3   OH230128   3.670   5.181  17.519
 1978TIP3    H130129   3.566   5.181  17.552
 1978TIP3    H230130   3.721   5.193  17.602
 1979TIP3   OH230131   3.636   4.962  18.422
 1979TIP3    H130132   3.659   5.059  18.456
 1979TIP3    H230133   3.555   4.987  18.360
 1980TIP3   OH230134   2.703   5.217  17.676
 1980TIP3    H130135   2.674   5.173  17.589
 1980TIP3    H230136   2.778   5.149  17.709
 1981TIP3   OH230137   2.856   5.608  17.957
 1981TIP3    H130138   2.874   5.591  17.862
 1981TIP3    H230139   2.944   5.567  17.999
 1982TIP3   OH230140   2.720   5.090  18.049
 1982TIP3    H130141   2.770   5.088  17.961
 1982TIP3    H230142   2.773   5.169  18.096
 1983TIP3   OH230143   3.463   5.735  18.142
 1983TIP3    H130144   3.418   5.816  18.192
 1983TIP3    H230145   3.416   5.651  18.184
 1984TIP3   OH230146   2.864   5.607  18.497
 1984TIP3    H130147   2.782   5.653  18.547
 1984TIP3    H230148   2.814   5.588  18.412
 1985TIP3   OH230149   3.487   5.114  17.275
 1985TIP3    H130150   3.576   5.145  17.320
 1985TIP3    H230151   3.491   5.171  17.193
 1986TIP3   OH230152   2.519   5.159  18.440
 1986TIP3    H130153   2.522   5.261  18.464
 1986TIP3    H230154   2.445   5.126  18.503
 1987TIP3   OH230155   3.290   5.823  17.645
 1987TIP3    H130156   3.301   5.909  17.703
 1987TIP3    H230157   3.217   5.858  17.581
 1988TIP3   OH230158   2.659   5.775  18.611
 1988TIP3    H130159   2.648   5.820  18.523
 1988TIP3    H230160   2.554   5.762  18.633
 1989TIP3   OH230161   2.550   5.114  17.465
 1989TIP3    H130162   2.527   5.211  17.425
 1989TIP3    H230163   2.509   5.049  17.398
 1990TIP3   OH230164   4.015   5.769  17.096
 1990TIP3    H130165   3.992   5.796  17.189
 1990TIP3    H230166   4.097   5.704  17.103
 1991TIP3   OH230167   2.181   5.421  18.345
 1991TIP3    H130168   2.138   5.414  18.256
 1991TIP3    H230169   2.225   5.323  18.354
 1992TIP3   OH230170   2.175   5.705  18.028
 1992TIP3    H130171   2.279   5.698  18.017
 1992TIP3    H230172   2.168   5.788  18.088
 1993TIP3   OH230173   4.137   5.783  18.626
 1993TIP3    H130174   4.123   5.680  18.605
 1993TIP3    H230175   4.036   5.810  18.651
 1994TIP3   OH230176   3.136   5.715  18.492
 1994TIP3    H130177   3.148   5.795  18.556
 1994TIP3    H230178   3.032   5.685  18.501
 1995TIP3   OH230179   2.481   6.013  17.659
 1995TIP3    H130180   2.523   5.982  17.744
 1995TIP3    H230181   2.392   5.950  17.656
 1996TIP3   OH230182   3.796   4.827  18.635
 1996TIP3    H130183   3.743   4.870  18.559
 1996TIP3    H230184   3.808   4.725  18.603
 1997TIP3   OH230185   2.425   5.552  18.435
 1997TIP3    H130186   2.423   5.518  18.528
 1997TIP3    H230187   2.328   5.521  18.403
 1998TIP3   OH230188   2.724   4.310  18.036
 1998TIP3    H130189   2.625   4.298  17.998
 1998TIP3    H230190   2.694   4.359  18.119
 1999TIP3   OH230191   3.255   4.252  18.355
 1999TIP3    H130192   3.289   4.202  18.437
 1999TIP3    H230193   3.146   4.245  18.363
 2000TIP3   OH230194   3.552   4.683  18.471
 2000TIP3    H130195   3.494   4.667  18.554
 2000TIP3    H230196   3.578   4.787  18.472
 2001TIP3   OH230197   3.203   4.512  17.127
 2001TIP3    H130198   3.139   4.465  17.191
 2001TIP3    H230199   3.135   4.556  17.063
 2002TIP3   OH230200   2.728   4.819  18.155
 2002TIP3    H130201   2.642   4.825  18.214
 2002TIP3    H230202   2.727   4.923  18.122
 2003TIP3   OH230203   2.707   4.828  17.670
 2003TIP3    H130204   2.602   4.828  17.648
 2003TIP3    H230205   2.750   4.799  17.583
 2004TIP3   OH230206   3.198   4.938  18.666
 2004TIP3    H130207   3.156   4.844  18.695
 2004TIP3    H230208   3.282   4.942  18.725
 2005TIP3   OH230209   2.469   4.828  18.285
 2005TIP3    H130210   2.488   4.870  18.372
 2005TIP3    H230211   2.422   4.735  18.311
 2006TIP3   OH230212   2.091   4.530  17.739
 2006TIP3    H130213   2.163   4.536  17.812
 2006TIP3    H230214   2.144   4.574  17.665
 2007TIP3   OH230215   3.340   5.024  18.247
 2007TIP3    H130216   3.402   4.951  18.200
 2007TIP3    H230217   3.283   4.961  18.309
 2008TIP3   OH230218   2.997   4.584  17.773
 2008TIP3    H130219   2.893   4.565  17.791
 2008TIP3    H230220   3.050   4.507  17.821
 2009TIP3   OH230221   2.410   4.733  17.636
 2009TIP3    H130222   2.344   4.791  17.578
 2009TIP3    H230223   2.452   4.661  17.574
 2010TIP3   OH230224   2.779   4.766  17.414
 2010TIP3    H130225   2.883   4.766  17.434
 2010TIP3    H230226   2.770   4.840  17.343
 2011TIP3   OH230227   3.480   4.502  18.078
 2011TIP3    H130228   3.411   4.509  18.152
 2011TIP3    H230229   3.440   4.425  18.022
 2012TIP3   OH230230   2.688   4.909  17.153
 2012TIP3    H130231   2.606   4.849  17.129
 2012TIP3    H230232   2.764   4.887  17.089
 2013TIP3   OH230233   3.797   6.240  18.703
 2013TIP3    H130234   3.828   6.285  18.620
 2013TIP3    H230235   3.889   6.246  18.754
 2014TIP3   OH230236   2.432   5.405  18.675
 2014TIP3    H130237   2.526   5.408  18.721
 2014TIP3    H230238   2.366   5.359  18.740
 2015TIP3   OH230239   3.178   4.801  17.952
 2015TIP3    H130240   3.127   4.716  17.916
 2015TIP3    H230241   3.113   4.820  18.027
 2016TIP3   OH230242   2.533   4.451  17.560
 2016TIP3    H130243   2.469   4.380  17.608
 2016TIP3    H230244   2.591   4.382  17.507
 2017TIP3   OH230245   2.985   4.676  18.176
 2017TIP3    H130246   2.897   4.740  18.176
 2017TIP3    H230247   3.053   4.729  18.232
 2018TIP3   OH230248   3.073   5.378  17.334
 2018TIP3    H130249   2.990   5.353  17.281
 2018TIP3    H230250   3.028   5.432  17.408
 2019TIP3   OH230251   3.862   5.325  18.246
 2019TIP3    H130252   3.918   5.376  18.176
 2019TIP3    H230253   3.765   5.324  18.205
 2020TIP3   OH230254   3.177   5.425  18.462
 2020TIP3    H130255   3.156   5.388  18.549
 2020TIP3    H230256   3.167   5.532  18.476
 2021TIP3   OH230257   2.510   5.329  17.893
 2021TIP3    H130258   2.552   5.302  17.806
 2021TIP3    H230259   2.550   5.255  17.953
 2022TIP3   OH230260   2.200   5.136  18.439
 2022TIP3    H130261   2.174   5.086  18.523
 2022TIP3    H230262   2.133   5.092  18.374
 2023TIP3   OH230263   2.941   5.101  18.644
 2023TIP3    H130264   2.888   5.030  18.589
 2023TIP3    H230265   3.039   5.053  18.648
 2024TIP3   OH230266   3.494   5.664  18.505
 2024TIP3    H130267   3.403   5.667  18.455
 2024TIP3    H230268   3.467   5.722  18.584
 2025TIP3   OH230269   4.107   5.458  18.576
 2025TIP3    H130270   4.007   5.479  18.542
 2025TIP3    H230271   4.165   5.456  18.492
 2026TIP3   OH230272   3.893   5.777  17.358
 2026TIP3    H130273   3.875   5.729  17.444
 2026TIP3    H230274   3.812   5.740  17.307
 2027TIP3   OH230275   3.589   5.222  18.062
 2027TIP3    H130276   3.487   5.201  18.041
 2027TIP3    H230277   3.637   5.136  18.024
 2028TIP3   OH230278   2.758   5.710  17.658
 2028TIP3    H130279   2.797   5.807  17.636
 2028TIP3    H230280   2.669   5.712  17.605
 2029TIP3   OH230281   2.344   5.143  17.155
 2029TIP3    H130282   2.322   5.225  17.094
 2029TIP3    H230283   2.251   5.093  17.148
 2030TIP3   OH230284   2.944   5.470  17.596
 2030TIP3    H130285   2.873   5.552  17.604
 2030TIP3    H230286   2.902   5.392  17.648
 2031TIP3   OH230287   2.978   5.886  18.295
 2031TIP3    H130288   3.053   5.954  18.263
 2031TIP3    H230289   3.033   5.834  18.365
 2032TIP3   OH230290   2.813   6.004  17.576
 2032TIP3    H130291   2.708   5.999  17.595
 2032TIP3    H230292   2.837   6.101  17.611
 2033TIP3   OH230293   3.324   5.455  18.225
 2033TIP3    H130294   3.275   5.426  18.309
 2033TIP3    H230295   3.390   5.372  18.214
 2034TIP3   OH230296   3.693   5.948  18.447
 2034TIP3    H130297   3.595   5.908  18.432
 2034TIP3    H230298   3.699   6.025  18.378
 2035TIP3   OH230299   2.392   4.554  18.413
 2035TIP3    H130300   2.321   4.606  18.468
 2035TIP3    H230301   2.384   4.455  18.450
 2036TIP3   OH230302   3.731   5.420  17.369
 2036TIP3    H130303   3.699   5.329  17.411
 2036TIP3    H230304   3.838   5.406  17.363
 2037TIP3   OH230305   2.322   5.852  18.232
 2037TIP3    H130306   2.390   5.771  18.239
 2037TIP3    H230307   2.332   5.894  18.320
 2038TIP3   OH230308   2.822   5.672  17.244
 2038TIP3    H130309   2.929   5.672  17.241
 2038TIP3    H230310   2.803   5.775  17.214
 2039TIP3   OH230311   2.500   5.367  17.307
 2039TIP3    H130312   2.397   5.361  17.285
 2039TIP3    H230313   2.528   5.456  17.258
 2040TIP3   OH230314   3.322   4.560  18.302
 2040TIP3    H130315   3.402   4.589  18.361
 2040TIP3    H230316   3.300   4.460  18.336
 2041TIP3   OH230317   3.116   5.858  17.314
 2041TIP3    H130318   3.034   5.919  17.290
 2041TIP3    H230319   3.174   5.856  17.233
 2042TIP3   OH230320   3.044   4.688  17.500
 2042TIP3    H130321   3.144   4.718  17.488
 2042TIP3    H230322   3.042   4.638  17.587
 2043TIP3   OH230323   3.190   4.825  18.401
 2043TIP3    H130324   3.207   4.852  18.495
 2043TIP3    H230325   3.232   4.726  18.394
 2044TIP3   OH230326   3.176   4.371  17.553
 2044TIP3    H130327   3.128   4.389  17.639
 2044TIP3    H230328   3.278   4.389  17.575
 2045TIP3   OH230329   2.705   4.489  17.270
 2045TIP3    H130330   2.693   4.579  17.320
 2045TIP3    H230331   2.809   4.469  17.288
 2046TIP3   OH230332   3.817   4.558  18.502
 2046TIP3    H130333   3.715   4.580  18.477
 2046TIP3    H230334   3.868   4.557  18.416
 2047TIP3   OH230335   2.516   5.639  17.167
 2047TIP3    H130336   2.607   5.674  17.210
 2047TIP3    H230337   2.553   5.611  17.080
 2048TIP3   OH230338   3.786   5.996  18.053
 2048TIP3    H130339   3.788   6.067  17.978
 2048TIP3    H230340   3.892   5.986  18.069
 2049TIP3   OH230341   2.430   4.254  17.976
 2049TIP3    H130342   2.430   4.243  17.879
 2049TIP3    H230343   2.406   4.151  18.003
 2050TIP3   OH230344   2.290   5.794  17.528
 2050TIP3    H130345   2.192   5.833  17.535
 2050TIP3    H230346   2.324   5.839  17.445
 2051TIP3   OH230347   2.209   6.075  18.695
 2051TIP3    H130348   2.286   6.060  18.764
 2051TIP3    H230349   2.186   5.971  18.679
 2052TIP3   OH230350   2.746   5.943  18.836
 2052TIP3    H130351   2.841   5.906  18.862
 2052TIP3    H230352   2.735   5.901  18.746
 2053TIP3   OH230353   3.443   5.800  18.736
 2053TIP3    H130354   3.402   5.705  18.765
 2053TIP3    H230355   3.536   5.801  18.786
 2054TIP3   OH230356   3.705   5.887  17.043
 2054TIP3    H130357   3.638   5.804  17.047
 2054TIP3    H230358   3.796   5.845  17.075
 2055TIP3   OH230359   2.170   5.393  18.816
 2055TIP3    H130360   2.127   5.295  18.809
 2055TIP3    H230361   2.152   5.430  18.725
 2056TIP3   OH230362   2.922   5.393  18.686
 2056TIP3    H130363   2.911   5.444  18.600
 2056TIP3    H230364   2.916   5.288  18.662
 2057TIP3   OH230365   3.565   5.363  18.487
 2057TIP3    H130366   3.665   5.403  18.496
 2057TIP3    H230367   3.513   5.456  18.490
 2058TIP3   OH230368   2.338   5.084  18.754
 2058TIP3    H130369   2.399   4.998  18.749
 2058TIP3    H230370   2.363   5.124  18.842
 2059TIP3   OH230371   2.724   4.961  18.431
 2059TIP3    H130372   2.655   5.046  18.433
 2059TIP3    H230373   2.806   5.004  18.382
 2060TIP3   OH230374   3.332   5.278  18.798
 2060TIP3    H130375   3.392   5.217  18.741
 2060TIP3    H230376   3.301   5.207  18.867
 2061TIP3   OH230377   3.959   5.267  17.000
 2061TIP3    H130378   3.900   5.214  16.935
 2061TIP3    H230379   3.885   5.291  17.066
 2062TIP3   OH230380   2.801   4.692  18.525
 2062TIP3    H130381   2.813   4.615  18.457
 2062TIP3    H230382   2.770   4.778  18.473
 2063TIP3   OH230383   2.841   4.475  18.330
 2063TIP3    H130384   2.891   4.531  18.258
 2063TIP3    H230385   2.740   4.468  18.297
 2064TIP3   OH230386   2.962   5.111  18.321
 2064TIP3    H130387   3.062   5.146  18.324
 2064TIP3    H230388   2.912   5.191  18.275
 2065TIP3   OH230389   3.473   4.828  18.834
 2065TIP3    H130390   3.506   4.728  18.813
 2065TIP3    H230391   3.562   4.881  18.856
 2066TIP3   OH230392   3.655   5.180  18.680
 2066TIP3    H130393   3.608   5.236  18.608
 2066TIP3    H230394   3.759   5.181  18.654
 2067TIP3   OH230395   2.638   4.783  18.739
 2067TIP3    H130396   2.545   4.732  18.719
 2067TIP3    H230397   2.701   4.742  18.668
 2068TIP3   OH230398   2.957   4.210  18.331
 2068TIP3    H130399   2.918   4.311  18.341
 2068TIP3    H230400   2.870   4.164  18.295
 2069TIP3   OH230401   3.046   4.683  18.744
 2069TIP3    H130402   2.982   4.657  18.820
 2069TIP3    H230403   2.978   4.667  18.671
 2070TIP3   OH230404   3.354   4.598  18.656
 2070TIP3    H130405   3.252   4.609  18.682
 2070TIP3    H230406   3.389   4.532  18.728
 2071TIP3   OH230407   3.513   4.436  18.820
 2071TIP3    H130408   3.520   4.330  18.818
 2071TIP3    H230409   3.507   4.456  18.916
 2072TIP3   OH230410   2.404   4.582  18.753
 2072TIP3    H130411   2.402   4.496  18.696
 2072TIP3    H230412   2.378   4.541  18.842
 2073TIP3   OH230413   2.915   4.170  18.617
 2073TIP3    H130414   2.994   4.104  18.644
 2073TIP3    H230415   2.927   4.166  18.520
 2074TIP3   OH230416   2.929   4.304  18.889
 2074TIP3    H130417   2.921   4.277  18.795
 2074TIP3    H230418   2.898   4.408  18.889
 2075TIP3   OH230419   2.076   6.169  17.612
 2075TIP3    H130420   1.999   6.104  17.576
 2075TIP3    H230421   2.116   6.107  17.684
 2076TIP3   OH230422   2.179   5.984  17.801
 2076TIP3    H130423   2.114   5.901  17.817
 2076TIP3    H230424   2.251   5.982  17.874
 2077TIP3   OH230425   4.095   6.063  18.085
 2077TIP3    H130426   4.117   6.057  18.180
 2077TIP3    H230427   4.171   6.132  18.058
 2078TIP3   OH230428   4.037   6.002  18.370
 2078TIP3    H130429   4.000   5.914  18.323
 2078TIP3    H230430   4.061   5.959  18.456
 2079TIP3   OH230431   3.908   5.532  18.859
 2079TIP3    H130432   3.804   5.536  18.881
 2079TIP3    H230433   3.944   5.620  18.905
 2080TIP3   OH230434   4.051   5.347  17.381
 2080TIP3    H130435   4.154   5.381  17.387
 2080TIP3    H230436   4.041   5.288  17.462
 2081TIP3   OH230437   4.060   5.151  17.589
 2081TIP3    H130438   3.990   5.106  17.649
 2081TIP3    H230439   4.143   5.171  17.650
 2082TIP3   OH230440   4.039   5.437  18.065
 2082TIP3    H130441   4.124   5.376  18.042
 2082TIP3    H230442   4.068   5.535  18.034
 2083TIP3   OH230443   3.889   5.756  18.296
 2083TIP3    H130444   3.809   5.806  18.344
 2083TIP3    H230445   3.840   5.731  18.210
 2084TIP3   OH230446   4.123   5.128  17.194
 2084TIP3    H130447   4.073   5.166  17.115
 2084TIP3    H230448   4.106   5.209  17.257
 2085TIP3   OH230449   2.179   5.238  18.056
 2085TIP3    H130450   2.181   5.211  17.961
 2085TIP3    H230451   2.275   5.200  18.085
 2086TIP3   OH230452   3.952   5.198  18.607
 2086TIP3    H130453   4.005   5.103  18.621
 2086TIP3    H230454   4.030   5.270  18.593
 2087TIP3   OH230455   4.066   4.925  18.645
 2087TIP3    H130456   3.962   4.895  18.634
 2087TIP3    H230457   4.118   4.831  18.659
 2088TIP3   OH230458   3.892   4.808  18.029
 2088TIP3    H130459   3.999   4.820  18.031
 2088TIP3    H230460   3.870   4.787  18.122
 2089TIP3   OH230461   3.898   4.869  18.304
 2089TIP3    H130462   3.800   4.905  18.324
 2089TIP3    H230463   3.948   4.960  18.273
 2090TIP3   OH230464   2.163   4.683  18.638
 2090TIP3    H130465   2.255   4.678  18.688
 2090TIP3    H230466   2.113   4.595  18.670
 2091TIP3   OH230467   4.139   4.243  18.834
 2091TIP3    H130468   4.177   4.156  18.789
 2091TIP3    H230469   4.127   4.312  18.758
 2092TIP3   OH230470   2.265   4.512  18.005
 2092TIP3    H130471   2.307   4.413  18.004
 2092TIP3    H230472   2.351   4.574  17.992
 2093TIP3   OH230473   2.112   4.839  18.067
 2093TIP3    H130474   2.179   4.817  17.993
 2093TIP3    H230475   2.159   4.929  18.099
 2094TIP3   OH230476   4.062   4.455  18.654
 2094TIP3    H130477   3.973   4.510  18.677
 2094TIP3    H230478   4.026   4.401  18.576
 2095TIP3   OH230479   2.145   4.441  17.455
 2095TIP3    H130480   2.047   4.406  17.475
 2095TIP3    H230481   2.136   4.486  17.368
 2096TIP3   OH230482   2.127   4.277  18.291
 2096TIP3    H130483   2.066   4.235  18.361
 2096TIP3    H230484   2.058   4.333  18.237
 2097TIP3   OH230485   2.364   5.737  18.682
 2097TIP3    H130486   2.267   5.744  18.641
 2097TIP3    H230487   2.347   5.668  18.754
 2098TIP3   OH230488   2.691   5.900  18.364
 2098TIP3    H130489   2.697   5.994  18.317
 2098TIP3    H230490   2.793   5.869  18.357
 2099TIP3   OH230491   3.137   6.009  18.604
 2099TIP3    H130492   3.149   5.980  18.698
 2099TIP3    H230493   3.238   6.042  18.585
 2100TIP3   OH230494   3.395   6.144  18.566
 2100TIP3    H130495   3.476   6.123  18.508
 2100TIP3    H230496   3.441   6.195  18.641
 2101TIP3   OH230497   3.961   4.216  18.462
 2101TIP3    H130498   3.890   4.267  18.405
 2101TIP3    H230499   3.967   4.122  18.415
 2102TIP3   OH230500   2.405   6.221  18.334
 2102TIP3    H130501   2.329   6.291  18.309
 2102TIP3    H230502   2.405   6.225  18.431
 2103TIP3   OH230503   2.660   6.153  18.217
 2103TIP3    H130504   2.560   6.181  18.246
 2103TIP3    H230505   2.682   6.225  18.148
 2104TIP3   OH230506   3.155   6.103  18.178
 2104TIP3    H130507   3.077   6.164  18.144
 2104TIP3    H230508   3.202   6.172  18.241
 2105TIP3   OH230509   3.412   5.983  18.285
 2105TIP3    H130510   3.341   6.030  18.227
 2105TIP3    H230511   3.501   6.035  18.263
 2106TIP3   OH230512   3.703   6.158  18.266
 2106TIP3    H130513   3.702   6.257  18.229
 2106TIP3    H230514   3.730   6.097  18.188
 2107TIP3   OH230515   2.353   6.027  18.013
 2107TIP3    H130516   2.340   5.963  18.091
 2107TIP3    H230517   2.454   6.001  17.985
 2108TIP3   OH230518   2.595   5.926  17.895
 2108TIP3    H130519   2.581   5.823  17.922
 2108TIP3    H230520   2.693   5.941  17.935
 2109TIP3   OH230521   2.846   5.917  18.028
 2109TIP3    H130522   2.874   5.816  18.006
 2109TIP3    H230523   2.879   5.925  18.119
 2110TIP3   OH230524   3.210   4.377  17.849
 2110TIP3    H130525   3.145   4.315  17.903
 2110TIP3    H230526   3.303   4.327  17.859
 2111TIP3   OH230527   3.822   4.145  17.870
 2111TIP3    H130528   3.882   4.217  17.820
 2111TIP3    H230529   3.728   4.155  17.826
 2112TIP3   OH230530   2.412   4.223  17.683
 2112TIP3    H130531   2.312   4.220  17.649
 2112TIP3    H230532   2.449   4.126  17.655
 2113TIP3   OH230533   2.229   4.190  17.239
 2113TIP3    H130534   2.276   4.252  17.171
 2113TIP3    H230535   2.235   4.254  17.317
 2114TIP3   OH230536   2.883   4.169  17.655
 2114TIP3    H130537   2.978   4.146  17.614
 2114TIP3    H230538   2.911   4.182  17.748
 2115TIP3   OH230539   3.497   4.243  17.803
 2115TIP3    H130540   3.524   4.242  17.708
 2115TIP3    H230541   3.442   4.150  17.812
 2116TIP3   OH230542   2.219   5.964  17.304
 2116TIP3    H130543   2.212   6.021  17.223
 2116TIP3    H230544   2.242   6.042  17.366
 2117TIP3   OH230545   2.992   4.455  17.327
 2117TIP3    H130546   3.032   4.396  17.400
 2117TIP3    H230547   3.020   4.553  17.358
 2118TIP3   OH230548   3.944   6.030  17.490
 2118TIP3    H130549   3.928   5.950  17.427
 2118TIP3    H230550   3.919   6.114  17.431
 2119TIP3   OH230551   2.368   4.289  18.613
 2119TIP3    H130552   2.311   4.199  18.622
 2119TIP3    H230553   2.438   4.277  18.688
 2120TIP3   OH230554   2.580   4.214  18.811
 2120TIP3    H130555   2.684   4.206  18.791
 2120TIP3    H230556   2.564   4.114  18.842
 2121TIP3   OH230557   3.520   4.136  18.806
 2121TIP3    H130558   3.536   4.073  18.885
 2121TIP3    H230559   3.620   4.140  18.769
 2122TIP3   OH230560   3.882   5.915  18.641
 2122TIP3    H130561   3.819   5.905  18.563
 2122TIP3    H230562   3.840   6.004  18.679
 2123TIP3   OH230563   4.478   5.113  18.148
 2123TIP3    H130564   4.470   5.023  18.202
 2123TIP3    H230565   4.554   5.165  18.198
 2124TIP3   OH230566   5.719   5.466  17.859
 2124TIP3    H130567   5.723   5.392  17.929
 2124TIP3    H230568   5.771   5.544  17.903
 2125TIP3   OH230569   4.616   5.622  17.987
 2125TIP3    H130570   4.560   5.534  17.961
 2125TIP3    H230571   4.712   5.580  17.977
 2126TIP3   OH230572   4.245   4.857  17.526
 2126TIP3    H130573   4.194   4.950  17.531
 2126TIP3    H230574   4.167   4.785  17.529
 2127TIP3   OH230575   4.283   5.154  17.777
 2127TIP3    H130576   4.337   5.064  17.804
 2127TIP3    H230577   4.363   5.220  17.754
 2128TIP3   OH230578   5.435   6.063  17.880
 2128TIP3    H130579   5.492   5.996  17.824
 2128TIP3    H230580   5.478   6.158  17.852
 2129TIP3   OH230581   6.093   4.481  18.040
 2129TIP3    H130582   6.103   4.525  18.127
 2129TIP3    H230583   6.191   4.501  18.004
 2130TIP3   OH230584   5.561   4.820  18.081
 2130TIP3    H130585   5.564   4.711  18.080
 2130TIP3    H230586   5.460   4.835  18.051
 2131TIP3   OH230587   4.761   4.574  17.770
 2131TIP3    H130588   4.762   4.669  17.724
 2131TIP3    H230589   4.705   4.516  17.705
 2132TIP3   OH230590   5.595   4.623  17.673
 2132TIP3    H130591   5.657   4.561  17.724
 2132TIP3    H230592   5.658   4.694  17.630
 2133TIP3   OH230593   4.413   4.894  17.893
 2133TIP3    H130594   4.475   4.832  17.951
 2133TIP3    H230595   4.425   4.844  17.806
 2134TIP3   OH230596   4.934   5.046  17.831
 2134TIP3    H130597   5.028   5.000  17.846
 2134TIP3    H230598   4.884   4.972  17.775
 2135TIP3   OH230599   6.123   4.621  18.312
 2135TIP3    H130600   6.078   4.718  18.290
 2135TIP3    H230601   6.148   4.641  18.404
 2136TIP3   OH230602   4.644   4.477  18.210
 2136TIP3    H130603   4.598   4.531  18.136
 2136TIP3    H230604   4.577   4.501  18.284
 2137TIP3   OH230605   4.887   5.310  18.219
 2137TIP3    H130606   4.799   5.352  18.261
 2137TIP3    H230607   4.949   5.397  18.218
 2138TIP3   OH230608   4.610   4.686  17.999
 2138TIP3    H130609   4.678   4.752  18.046
 2138TIP3    H230610   4.668   4.659  17.921
 2139TIP3   OH230611   4.748   5.562  18.300
 2139TIP3    H130612   4.728   5.649  18.248
 2139TIP3    H230613   4.654   5.554  18.350
 2140TIP3   OH230614   4.320   5.486  17.368
 2140TIP3    H130615   4.264   5.553  17.313
 2140TIP3    H230616   4.349   5.553  17.439
 2141TIP3   OH230617   5.805   5.687  18.064
 2141TIP3    H130618   5.699   5.689  18.078
 2141TIP3    H230619   5.818   5.779  18.017
 2142TIP3   OH230620   5.803   4.417  18.168
 2142TIP3    H130621   5.731   4.492  18.151
 2142TIP3    H230622   5.877   4.436  18.100
 2143TIP3   OH230623   5.045   4.194  17.924
 2143TIP3    H130624   5.022   4.092  17.941
 2143TIP3    H230625   4.954   4.242  17.959
 2144TIP3   OH230626   5.628   5.877  17.782
 2144TIP3    H130627   5.620   5.799  17.717
 2144TIP3    H230628   5.719   5.927  17.754
 2145TIP3   OH230629   5.774   5.617  17.569
 2145TIP3    H130630   5.776   5.541  17.500
 2145TIP3    H230631   5.740   5.559  17.645
 2146TIP3   OH230632   5.907   5.493  18.439
 2146TIP3    H130633   5.928   5.410  18.380
 2146TIP3    H230634   5.931   5.576  18.380
 2147TIP3   OH230635   5.355   5.156  17.392
 2147TIP3    H130636   5.261   5.207  17.378
 2147TIP3    H230637   5.420   5.234  17.363
 2148TIP3   OH230638   5.276   4.927  17.106
 2148TIP3    H130639   5.328   5.008  17.146
 2148TIP3    H230640   5.349   4.852  17.098
 2149TIP3   OH230641   6.147   5.099  18.242
 2149TIP3    H130642   6.064   5.168  18.238
 2149TIP3    H230643   6.210   5.141  18.172
 2150TIP3   OH230644   5.694   4.994  18.426
 2150TIP3    H130645   5.677   5.081  18.481
 2150TIP3    H230646   5.614   5.004  18.360
 2151TIP3   OH230647   4.756   5.228  17.689
 2151TIP3    H130648   4.755   5.202  17.594
 2151TIP3    H230649   4.828   5.160  17.726
 2152TIP3   OH230650   4.807   5.090  18.069
 2152TIP3    H130651   4.846   5.089  17.977
 2152TIP3    H230652   4.861   5.171  18.111
 2153TIP3   OH230653   5.518   5.706  18.135
 2153TIP3    H130654   5.542   5.734  18.227
 2153TIP3    H230655   5.496   5.601  18.151
 2154TIP3   OH230656   4.939   5.596  18.506
 2154TIP3    H130657   4.860   5.643  18.558
 2154TIP3    H230658   4.891   5.585  18.419
 2155TIP3   OH230659   4.599   5.171  18.425
 2155TIP3    H130660   4.622   5.248  18.489
 2155TIP3    H230661   4.514   5.129  18.471
 2156TIP3   OH230662   4.732   5.786  18.607
 2156TIP3    H130663   4.710   5.838  18.523
 2156TIP3    H230664   4.632   5.754  18.632
 2157TIP3   OH230665   4.697   5.129  17.437
 2157TIP3    H130666   4.646   5.217  17.401
 2157TIP3    H230667   4.623   5.055  17.426
 2158TIP3   OH230668   6.123   5.806  17.094
 2158TIP3    H130669   6.037   5.800  17.033
 2158TIP3    H230670   6.182   5.731  17.053
 2159TIP3   OH230671   4.260   5.420  18.354
 2159TIP3    H130672   4.217   5.408  18.267
 2159TIP3    H230673   4.309   5.323  18.364
 2160TIP3   OH230674   4.215   5.708  18.031
 2160TIP3    H130675   4.319   5.690  18.025
 2160TIP3    H230676   4.212   5.798  18.080
 2161TIP3   OH230677   6.205   5.775  18.619
 2161TIP3    H130678   6.199   5.671  18.604
 2161TIP3    H230679   6.104   5.795  18.651
 2162TIP3   OH230680   5.209   5.730  18.493
 2162TIP3    H130681   5.216   5.815  18.553
 2162TIP3    H230682   5.113   5.687  18.516
 2163TIP3   OH230683   5.295   6.151  17.393
 2163TIP3    H130684   5.200   6.114  17.364
 2163TIP3    H230685   5.272   6.227  17.460
 2164TIP3   OH230686   4.550   6.008  17.668
 2164TIP3    H130687   4.595   5.973  17.751
 2164TIP3    H230688   4.446   5.990  17.689
 2165TIP3   OH230689   5.595   6.046  17.158
 2165TIP3    H130690   5.591   5.944  17.132
 2165TIP3    H230691   5.579   6.042  17.254
 2166TIP3   OH230692   5.574   6.061  17.428
 2166TIP3    H130693   5.469   6.085  17.442
 2166TIP3    H230694   5.588   5.971  17.477
 2167TIP3   OH230695   5.864   4.811  18.643
 2167TIP3    H130696   5.826   4.861  18.563
 2167TIP3    H230697   5.871   4.709  18.612
 2168TIP3   OH230698   4.497   5.555  18.436
 2168TIP3    H130699   4.504   5.515  18.527
 2168TIP3    H230700   4.401   5.516  18.407
 2169TIP3   OH230701   4.801   4.312  18.026
 2169TIP3    H130702   4.706   4.290  17.986
 2169TIP3    H230703   4.772   4.372  18.102
 2170TIP3   OH230704   5.325   4.246  18.353
 2170TIP3    H130705   5.371   4.205  18.434
 2170TIP3    H230706   5.220   4.242  18.375
 2171TIP3   OH230707   5.624   4.693  18.465
 2171TIP3    H130708   5.565   4.661  18.543
 2171TIP3    H230709   5.649   4.793  18.489
 2172TIP3   OH230710   4.801   4.818  18.161
 2172TIP3    H130711   4.721   4.826  18.225
 2172TIP3    H230712   4.800   4.919  18.127
 2173TIP3   OH230713   4.794   4.848  17.667
 2173TIP3    H130714   4.693   4.861  17.635
 2173TIP3    H230715   4.840   4.820  17.581
 2174TIP3   OH230716   5.415   4.883  17.502
 2174TIP3    H130717   5.397   4.981  17.462
 2174TIP3    H230718   5.491   4.844  17.443
 2175TIP3   OH230719   5.271   4.934  18.673
 2175TIP3    H130720   5.231   4.838  18.701
 2175TIP3    H230721   5.355   4.941  18.734
 2176TIP3   OH230722   4.528   4.836  18.285
 2176TIP3    H130723   4.564   4.875  18.369
 2176TIP3    H230724   4.491   4.739  18.311
 2177TIP3   OH230725   4.176   4.521  17.752
 2177TIP3    H130726   4.244   4.460  17.801
 2177TIP3    H230727   4.174   4.477  17.664
 2178TIP3   OH230728   4.349   4.648  17.296
 2178TIP3    H130729   4.426   4.672  17.234
 2178TIP3    H230730   4.266   4.697  17.260
 2179TIP3   OH230731   5.467   5.039  18.235
 2179TIP3    H130732   5.503   4.947  18.196
 2179TIP3    H230733   5.392   5.001  18.295
 2180TIP3   OH230734   5.124   4.568  17.753
 2180TIP3    H130735   5.018   4.574  17.768
 2180TIP3    H230736   5.158   4.524  17.836
 2181TIP3   OH230737   4.514   4.759  17.623
 2181TIP3    H130738   4.421   4.772  17.575
 2181TIP3    H230739   4.540   4.659  17.600
 2182TIP3   OH230740   4.888   4.785  17.424
 2182TIP3    H130741   4.989   4.748  17.433
 2182TIP3    H230742   4.885   4.808  17.331
 2183TIP3   OH230743   5.538   4.517  18.055
 2183TIP3    H130744   5.481   4.492  18.137
 2183TIP3    H230745   5.499   4.448  17.990
 2184TIP3   OH230746   5.878   6.230  18.714
 2184TIP3    H130747   5.915   6.285  18.638
 2184TIP3    H230748   5.968   6.226  18.767
 2185TIP3   OH230749   4.541   5.382  18.663
 2185TIP3    H130750   4.617   5.382  18.733
 2185TIP3    H230751   4.455   5.354  18.717
 2186TIP3   OH230752   5.247   4.844  17.938
 2186TIP3    H130753   5.278   4.799  17.855
 2186TIP3    H230754   5.173   4.776  17.971
 2187TIP3   OH230755   4.609   4.438  17.570
 2187TIP3    H130756   4.534   4.368  17.600
 2187TIP3    H230757   4.682   4.371  17.536
 2188TIP3   OH230758   5.052   4.662  18.163
 2188TIP3    H130759   4.968   4.730  18.162
 2188TIP3    H230760   5.125   4.717  18.213
 2189TIP3   OH230761   5.936   5.304  18.241
 2189TIP3    H130762   5.990   5.356  18.169
 2189TIP3    H230763   5.834   5.328  18.215
 2190TIP3   OH230764   5.529   4.540  17.194
 2190TIP3    H130765   5.510   4.484  17.112
 2190TIP3    H230766   5.543   4.640  17.164
 2191TIP3   OH230767   5.251   5.422  18.464
 2191TIP3    H130768   5.245   5.380  18.552
 2191TIP3    H230769   5.236   5.526  18.483
 2192TIP3   OH230770   5.658   4.842  17.357
 2192TIP3    H130771   5.757   4.806  17.360
 2192TIP3    H230772   5.679   4.948  17.346
 2193TIP3   OH230773   4.587   5.338  17.904
 2193TIP3    H130774   4.644   5.311  17.824
 2193TIP3    H230775   4.590   5.249  17.959
 2194TIP3   OH230776   4.272   5.129  18.443
 2194TIP3    H130777   4.249   5.082  18.528
 2194TIP3    H230778   4.202   5.084  18.383
 2195TIP3   OH230779   5.018   5.096  18.645
 2195TIP3    H130780   4.980   5.032  18.576
 2195TIP3    H230781   5.117   5.053  18.657
 2196TIP3   OH230782   5.552   5.713  18.476
 2196TIP3    H130783   5.452   5.693  18.452
 2196TIP3    H230784   5.535   5.759  18.564
 2197TIP3   OH230785   6.157   4.824  17.262
 2197TIP3    H130786   6.059   4.794  17.237
 2197TIP3    H230787   6.136   4.915  17.310
 2198TIP3   OH230788   6.166   5.458  18.568
 2198TIP3    H130789   6.063   5.475  18.539
 2198TIP3    H230790   6.216   5.444  18.482
 2199TIP3   OH230791   5.932   5.833  17.319
 2199TIP3    H130792   5.883   5.765  17.379
 2199TIP3    H230793   5.975   5.764  17.254
 2200TIP3   OH230794   5.653   5.236  18.071
 2200TIP3    H130795   5.595   5.169  18.126
 2200TIP3    H230796   5.724   5.170  18.034
 2201TIP3   OH230797   5.057   5.855  18.291
 2201TIP3    H130798   5.103   5.950  18.279
 2201TIP3    H230799   5.114   5.811  18.365
 2202TIP3   OH230800   4.866   6.027  17.597
 2202TIP3    H130801   4.762   6.028  17.613
 2202TIP3    H230802   4.890   6.132  17.605
 2203TIP3   OH230803   5.412   5.442  18.225
 2203TIP3    H130804   5.355   5.419  18.305
 2203TIP3    H230805   5.451   5.346  18.201
 2204TIP3   OH230806   5.755   5.960  18.452
 2204TIP3    H130807   5.661   5.911  18.433
 2204TIP3    H230808   5.762   6.035  18.381
 2205TIP3   OH230809   4.467   4.552  18.424
 2205TIP3    H130810   4.397   4.603  18.480
 2205TIP3    H230811   4.459   4.453  18.461
 2206TIP3   OH230812   4.400   5.851  18.246
 2206TIP3    H130813   4.468   5.768  18.250
 2206TIP3    H230814   4.419   5.892  18.334
 2207TIP3   OH230815   4.595   5.357  17.297
 2207TIP3    H130816   4.491   5.389  17.294
 2207TIP3    H230817   4.648   5.433  17.248
 2208TIP3   OH230818   5.409   4.528  18.296
 2208TIP3    H130819   5.481   4.573  18.355
 2208TIP3    H230820   5.388   4.432  18.338
 2209TIP3   OH230821   5.466   4.473  17.471
 2209TIP3    H130822   5.496   4.480  17.377
 2209TIP3    H230823   5.520   4.551  17.516
 2210TIP3   OH230824   5.161   4.730  17.509
 2210TIP3    H130825   5.256   4.783  17.512
 2210TIP3    H230826   5.163   4.672  17.591
 2211TIP3   OH230827   5.291   4.817  18.397
 2211TIP3    H130828   5.300   4.847  18.490
 2211TIP3    H230829   5.328   4.716  18.396
 2212TIP3   OH230830   5.221   4.355  17.564
 2212TIP3    H130831   5.195   4.425  17.634
 2212TIP3    H230832   5.321   4.388  17.537
 2213TIP3   OH230833   4.848   5.954  17.332
 2213TIP3    H130834   4.919   6.012  17.281
 2213TIP3    H230835   4.884   5.964  17.424
 2214TIP3   OH230836   4.817   4.535  17.222
 2214TIP3    H130837   4.752   4.553  17.297
 2214TIP3    H230838   4.908   4.501  17.266
 2215TIP3   OH230839   5.886   4.547  18.509
 2215TIP3    H130840   5.784   4.568  18.484
 2215TIP3    H230841   5.936   4.556  18.423
 2216TIP3   OH230842   5.869   5.995  18.053
 2216TIP3    H130843   5.877   6.072  17.984
 2216TIP3    H230844   5.973   5.978  18.072
 2217TIP3   OH230845   4.520   4.249  17.968
 2217TIP3    H130846   4.509   4.231  17.872
 2217TIP3    H230847   4.486   4.156  18.005
 2218TIP3   OH230848   4.335   5.742  17.497
 2218TIP3    H130849   4.277   5.821  17.532
 2218TIP3    H230850   4.434   5.777  17.519
 2219TIP3   OH230851   4.285   6.084  18.686
 2219TIP3    H130852   4.355   6.061  18.756
 2219TIP3    H230853   4.239   5.986  18.672
 2220TIP3   OH230854   4.815   5.952  18.825
 2220TIP3    H130855   4.910   5.912  18.850
 2220TIP3    H230856   4.799   5.907  18.738
 2221TIP3   OH230857   5.223   5.928  17.040
 2221TIP3    H130858   5.162   5.867  17.099
 2221TIP3    H230859   5.300   5.862  17.012
 2222TIP3   OH230860   5.516   5.797  18.733
 2222TIP3    H130861   5.480   5.698  18.759
 2222TIP3    H230862   5.609   5.800  18.784
 2223TIP3   OH230863   4.263   5.382  18.795
 2223TIP3    H130864   4.228   5.281  18.797
 2223TIP3    H230865   4.213   5.418  18.713
 2224TIP3   OH230866   5.017   5.385  18.699
 2224TIP3    H130867   5.006   5.436  18.614
 2224TIP3    H230868   4.998   5.280  18.677
 2225TIP3   OH230869   5.632   5.372  18.491
 2225TIP3    H130870   5.723   5.430  18.489
 2225TIP3    H230871   5.561   5.452  18.483
 2226TIP3   OH230872   4.411   5.059  18.746
 2226TIP3    H130873   4.423   4.956  18.763
 2226TIP3    H230874   4.447   5.105  18.829
 2227TIP3   OH230875   4.906   5.168  17.216
 2227TIP3    H130876   4.840   5.171  17.292
 2227TIP3    H230877   4.938   5.067  17.216
 2228TIP3   OH230878   4.801   4.957  18.422
 2228TIP3    H130879   4.743   5.046  18.429
 2228TIP3    H230880   4.891   4.998  18.382
 2229TIP3   OH230881   5.418   5.270  18.793
 2229TIP3    H130882   5.493   5.209  18.754
 2229TIP3    H230883   5.365   5.199  18.848
 2230TIP3   OH230884   4.875   4.678  18.530
 2230TIP3    H130885   4.890   4.610  18.455
 2230TIP3    H230886   4.848   4.770  18.483
 2231TIP3   OH230887   4.910   4.469  18.320
 2231TIP3    H130888   4.958   4.525  18.248
 2231TIP3    H230889   4.806   4.472  18.294
 2232TIP3   OH230890   5.051   5.113  18.339
 2232TIP3    H130891   5.143   5.162  18.314
 2232TIP3    H230892   4.979   5.181  18.303
 2233TIP3   OH230893   5.579   4.814  18.814
 2233TIP3    H130894   5.589   4.708  18.807
 2233TIP3    H230895   5.677   4.851  18.799
 2234TIP3   OH230896   5.715   5.182  18.686
 2234TIP3    H130897   5.679   5.248  18.616
 2234TIP3    H230898   5.820   5.178  18.666
 2235TIP3   OH230899   4.703   4.766  18.750
 2235TIP3    H130900   4.609   4.726  18.723
 2235TIP3    H230901   4.766   4.738  18.676
 2236TIP3   OH230902   5.025   4.206  18.360
 2236TIP3    H130903   4.983   4.304  18.343
 2236TIP3    H230904   4.952   4.147  18.313
 2237TIP3   OH230905   5.119   4.679  18.752
 2237TIP3    H130906   5.051   4.656  18.825
 2237TIP3    H230907   5.057   4.659  18.676
 2238TIP3   OH230908   5.440   4.593  18.645
 2238TIP3    H130909   5.335   4.588  18.665
 2238TIP3    H230910   5.477   4.535  18.720
 2239TIP3   OH230911   5.615   4.450  18.833
 2239TIP3    H130912   5.612   4.342  18.822
 2239TIP3    H230913   5.595   4.459  18.929
 2240TIP3   OH230914   4.467   4.576  18.755
 2240TIP3    H130915   4.436   4.489  18.706
 2240TIP3    H230916   4.455   4.543  18.849
 2241TIP3   OH230917   4.971   4.170  18.639
 2241TIP3    H130918   5.049   4.095  18.651
 2241TIP3    H230919   4.985   4.187  18.543
 2242TIP3   OH230920   5.019   4.330  18.879
 2242TIP3    H130921   5.002   4.277  18.794
 2242TIP3    H230922   4.972   4.424  18.865
 2243TIP3   OH230923   5.012   6.175  17.203
 2243TIP3    H130924   5.078   6.190  17.127
 2243TIP3    H230925   4.936   6.247  17.181
 2244TIP3   OH230926   4.190   6.159  17.600
 2244TIP3    H130927   4.099   6.127  17.557
 2244TIP3    H230928   4.187   6.101  17.681
 2245TIP3   OH230929   4.267   5.954  17.809
 2245TIP3    H130930   4.186   5.895  17.843
 2245TIP3    H230931   4.316   5.983  17.892
 2246TIP3   OH230932   6.179   6.051  18.074
 2246TIP3    H130933   6.208   6.070  18.166
 2246TIP3    H230934   6.262   6.089  18.025
 2247TIP3   OH230935   6.137   5.993  18.377
 2247TIP3    H130936   6.094   5.910  18.327
 2247TIP3    H230937   6.157   5.944  18.462
 2248TIP3   OH230938   5.981   5.538  18.866
 2248TIP3    H130939   5.878   5.538  18.898
 2248TIP3    H230940   6.025   5.619  18.920
 2249TIP3   OH230941   6.100   5.432  18.057
 2249TIP3    H130942   6.178   5.365  18.029
 2249TIP3    H230943   6.134   5.526  18.020
 2250TIP3   OH230944   5.971   5.756  18.299
 2250TIP3    H130945   5.896   5.799  18.356
 2250TIP3    H230946   5.917   5.737  18.216
 2251TIP3   OH230947   5.926   4.821  17.086
 2251TIP3    H130948   6.009   4.887  17.080
 2251TIP3    H230949   5.965   4.729  17.053
 2252TIP3   OH230950   4.246   5.231  18.045
 2252TIP3    H130951   4.246   5.196  17.952
 2252TIP3    H230952   4.344   5.198  18.074
 2253TIP3   OH230953   6.032   5.185  18.610
 2253TIP3    H130954   6.082   5.093  18.634
 2253TIP3    H230955   6.110   5.259  18.596
 2254TIP3   OH230956   6.135   4.912  18.695
 2254TIP3    H130957   6.043   4.866  18.660
 2254TIP3    H230958   6.203   4.830  18.681
 2255TIP3   OH230959   5.972   4.872  18.330
 2255TIP3    H130960   5.870   4.904  18.324
 2255TIP3    H230961   6.027   4.953  18.290
 2256TIP3   OH230962   4.233   4.686  18.638
 2256TIP3    H130963   4.322   4.665  18.689
 2256TIP3    H230964   4.174   4.596  18.653
 2257TIP3   OH230965   6.182   4.216  18.811
 2257TIP3    H130966   6.234   4.141  18.758
 2257TIP3    H230967   6.190   4.303  18.752
 2258TIP3   OH230968   4.360   4.496  17.990
 2258TIP3    H130969   4.413   4.402  17.984
 2258TIP3    H230970   4.436   4.567  17.970
 2259TIP3   OH230971   4.186   4.847  18.061
 2259TIP3    H130972   4.258   4.817  17.995
 2259TIP3    H230973   4.237   4.930  18.099
 2260TIP3   OH230974   6.136   4.467  18.669
 2260TIP3    H130975   6.036   4.495  18.702
 2260TIP3    H230976   6.109   4.417  18.587
 2261TIP3   OH230977   4.210   4.463  17.479
 2261TIP3    H130978   4.128   4.404  17.444
 2261TIP3    H230979   4.261   4.492  17.398
 2262TIP3   OH230980   5.831   6.041  17.656
 2262TIP3    H130981   5.885   5.993  17.586
 2262TIP3    H230982   5.901   6.113  17.690
 2263TIP3   OH230983   4.210   4.265  18.286
 2263TIP3    H130984   4.139   4.239  18.356
 2263TIP3    H230985   4.161   4.346  18.241
 2264TIP3   OH230986   4.453   5.715  18.692
 2264TIP3    H130987   4.359   5.752  18.660
 2264TIP3    H230988   4.430   5.676  18.779
 2265TIP3   OH230989   4.745   5.899  18.355
 2265TIP3    H130990   4.767   5.999  18.325
 2265TIP3    H230991   4.842   5.855  18.359
 2266TIP3   OH230992   5.229   6.013  18.609
 2266TIP3    H130993   5.233   5.982  18.704
 2266TIP3    H230994   5.331   6.049  18.598
 2267TIP3   OH230995   5.480   6.159  18.547
 2267TIP3    H130996   5.569   6.104  18.534
 2267TIP3    H230997   5.507   6.214  18.629
 2268TIP3   OH230998   6.052   4.209  18.470
 2268TIP3    H130999   5.971   4.244  18.417
 2268TIP3    H231000   6.072   4.112  18.429
 2269TIP3   OH231001   4.491   6.208  18.324
 2269TIP3    H131002   4.402   6.262  18.298
 2269TIP3    H231003   4.480   6.201  18.420
 2270TIP3   OH231004   4.759   6.156  18.218
 2270TIP3    H131005   4.657   6.174  18.251
 2270TIP3    H231006   4.760   6.217  18.138
 2271TIP3   OH231007   5.247   6.114  18.101
 2271TIP3    H131008   5.184   6.173  18.044
 2271TIP3    H231009   5.272   6.183  18.172
 2272TIP3   OH231010   5.507   5.991  18.277
 2272TIP3    H131011   5.446   6.072  18.309
 2272TIP3    H231012   5.602   6.040  18.274
 2273TIP3   OH231013   5.759   6.166  18.255
 2273TIP3    H131014   5.774   6.269  18.233
 2273TIP3    H231015   5.813   6.116  18.183
 2274TIP3   OH231016   4.415   6.036  18.031
 2274TIP3    H131017   4.394   5.980  18.113
 2274TIP3    H231018   4.514   6.001  18.008
 2275TIP3   OH231019   4.657   5.936  17.917
 2275TIP3    H131020   4.646   5.829  17.929
 2275TIP3    H231021   4.764   5.948  17.932
 2276TIP3   OH231022   4.939   5.946  17.982
 2276TIP3    H131023   4.961   5.843  17.964
 2276TIP3    H231024   4.940   5.952  18.079
 2277TIP3   OH231025   5.343   4.327  17.884
 2277TIP3    H131026   5.250   4.309  17.930
 2277TIP3    H231027   5.336   4.255  17.813
 2278TIP3   OH231028   4.455   4.215  17.689
 2278TIP3    H131029   4.355   4.197  17.658
 2278TIP3    H231030   4.503   4.120  17.673
 2279TIP3   OH231031   4.907   4.182  17.651
 2279TIP3    H131032   4.976   4.219  17.587
 2279TIP3    H231033   4.965   4.184  17.732
 2280TIP3   OH231034   5.063   4.495  17.362
 2280TIP3    H131035   5.104   4.420  17.422
 2280TIP3    H231036   5.143   4.565  17.365
 2281TIP3   OH231037   4.435   4.290  18.620
 2281TIP3    H131038   4.387   4.195  18.626
 2281TIP3    H231039   4.514   4.280  18.687
 2282TIP3   OH231040   4.654   4.216  18.805
 2282TIP3    H131041   4.755   4.203  18.779
 2282TIP3    H231042   4.631   4.113  18.823
 2283TIP3   OH231043   5.599   4.146  18.815
 2283TIP3    H131044   5.590   4.063  18.878
 2283TIP3    H231045   5.699   4.128  18.782
 2284TIP3   OH231046   5.944   5.912  18.643
 2284TIP3    H131047   5.872   5.905  18.569
 2284TIP3    H231048   5.924   6.012  18.673
 2285TIP3   OH231049   7.564   5.232  17.629
 2285TIP3    H131050   7.601   5.321  17.671
 2285TIP3    H231051   7.464   5.263  17.613
 2286TIP3   OH231052   7.424   5.117  17.988
 2286TIP3    H131053   7.445   5.060  18.069
 2286TIP3    H231054   7.352   5.056  17.941
 2287TIP3   OH231055   6.555   5.119  18.152
 2287TIP3    H131056   6.554   5.028  18.202
 2287TIP3    H231057   6.623   5.177  18.206
 2288TIP3   OH231058   7.826   5.449  17.882
 2288TIP3    H131059   7.825   5.379  17.956
 2288TIP3    H231060   7.813   5.542  17.930
 2289TIP3   OH231061   6.667   5.619  17.978
 2289TIP3    H131062   6.640   5.515  17.962
 2289TIP3    H231063   6.773   5.603  17.981
 2290TIP3   OH231064   6.355   5.114  17.773
 2290TIP3    H131065   6.418   5.038  17.814
 2290TIP3    H231066   6.422   5.194  17.759
 2291TIP3   OH231067   7.237   5.364  18.078
 2291TIP3    H131068   7.290   5.292  18.023
 2291TIP3    H231069   7.322   5.413  18.120
 2292TIP3   OH231070   8.196   4.499  18.105
 2292TIP3    H131071   8.190   4.568  18.178
 2292TIP3    H231072   8.263   4.550  18.046
 2293TIP3   OH231073   7.612   4.794  18.090
 2293TIP3    H131074   7.657   4.703  18.120
 2293TIP3    H231075   7.592   4.769  17.996
 2294TIP3   OH231076   6.842   4.554  17.775
 2294TIP3    H131077   6.844   4.651  17.730
 2294TIP3    H231078   6.785   4.496  17.710
 2295TIP3   OH231079   7.698   4.596  17.644
 2295TIP3    H131080   7.735   4.555  17.729
 2295TIP3    H231081   7.788   4.644  17.614
 2296TIP3   OH231082   6.510   4.896  17.895
 2296TIP3    H131083   6.574   4.831  17.947
 2296TIP3    H231084   6.510   4.842  17.809
 2297TIP3   OH231085   7.003   5.017  17.830
 2297TIP3    H131086   7.086   4.973  17.877
 2297TIP3    H231087   6.981   4.941  17.764
 2298TIP3   OH231088   8.192   4.603  18.379
 2298TIP3    H131089   8.140   4.686  18.337
 2298TIP3    H231090   8.272   4.657  18.419
 2299TIP3   OH231091   6.725   4.486  18.216
 2299TIP3    H131092   6.681   4.535  18.139
 2299TIP3    H231093   6.655   4.511  18.287
 2300TIP3   OH231094   7.473   5.509  17.553
 2300TIP3    H131095   7.444   5.518  17.459
 2300TIP3    H231096   7.445   5.603  17.586
 2301TIP3   OH231097   6.966   5.310  18.174
 2301TIP3    H131098   6.921   5.398  18.213
 2301TIP3    H231099   7.051   5.355  18.128
 2302TIP3   OH231100   7.857   4.563  17.862
 2302TIP3    H131101   7.813   4.494  17.925
 2302TIP3    H231102   7.962   4.546  17.871
 2303TIP3   OH231103   6.677   4.672  17.991
 2303TIP3    H131104   6.747   4.737  18.039
 2303TIP3    H231105   6.741   4.633  17.920
 2304TIP3   OH231106   6.820   5.536  18.282
 2304TIP3    H131107   6.807   5.636  18.248
 2304TIP3    H231108   6.725   5.525  18.330
 2305TIP3   OH231109   7.869   5.693  18.062
 2305TIP3    H131110   7.766   5.715  18.080
 2305TIP3    H231111   7.898   5.785  18.022
 2306TIP3   OH231112   7.901   4.448  18.180
 2306TIP3    H131113   7.812   4.480  18.131
 2306TIP3    H231114   7.978   4.464  18.114
 2307TIP3   OH231115   7.106   4.187  17.947
 2307TIP3    H131116   7.080   4.084  17.936
 2307TIP3    H231117   7.009   4.228  17.973
 2308TIP3   OH231118   7.981   5.490  18.449
 2308TIP3    H131119   7.991   5.424  18.371
 2308TIP3    H231120   7.985   5.586  18.402
 2309TIP3   OH231121   8.144   5.096  18.235
 2309TIP3    H131122   8.087   5.187  18.223
 2309TIP3    H231123   8.227   5.115  18.173
 2310TIP3   OH231124   7.769   5.086  17.478
 2310TIP3    H131125   7.704   5.157  17.523
 2310TIP3    H231126   7.849   5.080  17.545
 2311TIP3   OH231127   7.767   4.991  18.418
 2311TIP3    H131128   7.731   5.081  18.458
 2311TIP3    H231129   7.702   4.986  18.341
 2312TIP3   OH231130   6.856   5.226  17.697
 2312TIP3    H131131   6.799   5.172  17.631
 2312TIP3    H231132   6.920   5.149  17.733
 2313TIP3   OH231133   6.996   5.594  17.961
 2313TIP3    H131134   7.006   5.562  17.869
 2313TIP3    H231135   7.079   5.543  18.004
 2314TIP3   OH231136   6.871   5.072  18.068
 2314TIP3    H131137   6.913   5.079  17.978
 2314TIP3    H231138   6.915   5.160  18.111
 2315TIP3   OH231139   7.590   5.722  18.128
 2315TIP3    H131140   7.574   5.788  18.204
 2315TIP3    H231141   7.571   5.625  18.167
 2316TIP3   OH231142   6.990   5.585  18.504
 2316TIP3    H131143   6.915   5.636  18.556
 2316TIP3    H231144   6.938   5.564  18.421
 2317TIP3   OH231145   6.664   5.173  18.419
 2317TIP3    H131146   6.694   5.256  18.473
 2317TIP3    H231147   6.585   5.136  18.474
 2318TIP3   OH231148   6.807   5.790  18.584
 2318TIP3    H131149   6.779   5.804  18.491
 2318TIP3    H231150   6.712   5.762  18.625
 2319TIP3   OH231151   8.009   4.216  17.278
 2319TIP3    H131152   7.923   4.181  17.232
 2319TIP3    H231153   8.082   4.214  17.206
 2320TIP3   OH231154   6.689   5.114  17.497
 2320TIP3    H131155   6.725   5.194  17.444
 2320TIP3    H231156   6.651   5.046  17.433
 2321TIP3   OH231157   8.205   5.765  17.177
 2321TIP3    H131158   8.176   5.803  17.265
 2321TIP3    H231159   8.308   5.741  17.184
 2322TIP3   OH231160   6.333   5.422  18.348
 2322TIP3    H131161   6.283   5.419  18.262
 2322TIP3    H231162   6.360   5.320  18.365
 2323TIP3   OH231163   6.269   5.702  18.022
 2323TIP3    H131164   6.369   5.669  18.014
 2323TIP3    H231165   6.281   5.789  18.075
 2324TIP3   OH231166   8.282   5.786  18.615
 2324TIP3    H131167   8.270   5.694  18.569
 2324TIP3    H231168   8.184   5.794  18.657
 2325TIP3   OH231169   7.275   5.720  18.504
 2325TIP3    H131170   7.281   5.808  18.559
 2325TIP3    H231171   7.173   5.686  18.512
 2326TIP3   OH231172   6.643   6.010  17.660
 2326TIP3    H131173   6.670   5.974  17.749
 2326TIP3    H231174   6.547   5.964  17.649
 2327TIP3   OH231175   7.941   4.861  18.636
 2327TIP3    H131176   7.888   4.896  18.558
 2327TIP3    H231177   7.967   4.760  18.612
 2328TIP3   OH231178   6.586   5.540  18.438
 2328TIP3    H131179   6.586   5.497  18.530
 2328TIP3    H231180   6.487   5.514  18.406
 2329TIP3   OH231181   6.870   4.314  18.045
 2329TIP3    H131182   6.773   4.322  18.002
 2329TIP3    H231183   6.846   4.360  18.131
 2330TIP3   OH231184   7.396   4.233  18.350
 2330TIP3    H131185   7.438   4.182  18.428
 2330TIP3    H231186   7.290   4.230  18.367
 2331TIP3   OH231187   7.703   4.659  18.448
 2331TIP3    H131188   7.653   4.610  18.524
 2331TIP3    H231189   7.709   4.759  18.479
 2332TIP3   OH231190   7.854   5.132  17.090
 2332TIP3    H131191   7.805   5.210  17.045
 2332TIP3    H231192   7.852   5.163  17.184
 2333TIP3   OH231193   7.380   4.603  17.127
 2333TIP3    H131194   7.324   4.563  17.201
 2333TIP3    H231195   7.305   4.590  17.058
 2334TIP3   OH231196   6.871   4.806  18.155
 2334TIP3    H131197   6.783   4.815  18.210
 2334TIP3    H231198   6.877   4.910  18.124
 2335TIP3   OH231199   6.827   4.810  17.650
 2335TIP3    H131200   6.722   4.822  17.631
 2335TIP3    H231201   6.870   4.812  17.559
 2336TIP3   OH231202   7.461   4.917  17.506
 2336TIP3    H131203   7.494   5.018  17.515
 2336TIP3    H231204   7.550   4.864  17.482
 2337TIP3   OH231205   7.340   4.920  18.655
 2337TIP3    H131206   7.296   4.830  18.692
 2337TIP3    H231207   7.426   4.931  18.712
 2338TIP3   OH231208   7.572   4.844  17.808
 2338TIP3    H131209   7.547   4.934  17.759
 2338TIP3    H231210   7.593   4.774  17.737
 2339TIP3   OH231211   6.595   4.826  18.271
 2339TIP3    H131212   6.634   4.874  18.350
 2339TIP3    H231213   6.559   4.732  18.307
 2340TIP3   OH231214   6.856   4.645  17.024
 2340TIP3    H131215   6.916   4.563  17.058
 2340TIP3    H231216   6.799   4.597  16.953
 2341TIP3   OH231217   6.247   4.520  17.740
 2341TIP3    H131218   6.325   4.525  17.807
 2341TIP3    H231219   6.296   4.533  17.654
 2342TIP3   OH231220   6.368   4.605  17.261
 2342TIP3    H131221   6.450   4.651  17.218
 2342TIP3    H231222   6.295   4.683  17.251
 2343TIP3   OH231223   7.498   5.007  18.238
 2343TIP3    H131224   7.549   4.928  18.188
 2343TIP3    H231225   7.431   4.949  18.294
 2344TIP3   OH231226   7.146   4.572  17.764
 2344TIP3    H131227   7.039   4.569  17.781
 2344TIP3    H231228   7.185   4.507  17.831
 2345TIP3   OH231229   6.523   4.749  17.652
 2345TIP3    H131230   6.465   4.774  17.576
 2345TIP3    H231231   6.575   4.662  17.619
 2346TIP3   OH231232   6.956   4.799  17.411
 2346TIP3    H131233   7.058   4.772  17.431
 2346TIP3    H231234   6.939   4.751  17.327
 2347TIP3   OH231235   7.646   4.481  18.062
 2347TIP3    H131236   7.571   4.472  18.132
 2347TIP3    H231237   7.586   4.443  17.988
 2348TIP3   OH231238   6.793   4.907  17.142
 2348TIP3    H131239   6.712   4.841  17.118
 2348TIP3    H231240   6.872   4.862  17.090
 2349TIP3   OH231241   7.977   6.162  18.724
 2349TIP3    H131242   8.026   6.203  18.645
 2349TIP3    H231243   8.050   6.185  18.792
 2350TIP3   OH231244   6.614   5.371  18.667
 2350TIP3    H131245   6.692   5.385  18.733
 2350TIP3    H231246   6.529   5.359  18.726
 2351TIP3   OH231247   7.250   4.871  17.924
 2351TIP3    H131248   7.324   4.819  17.871
 2351TIP3    H231249   7.217   4.794  17.985
 2352TIP3   OH231250   6.666   4.451  17.570
 2352TIP3    H131251   6.622   4.361  17.608
 2352TIP3    H231252   6.743   4.409  17.514
 2353TIP3   OH231253   7.118   4.663  18.176
 2353TIP3    H131254   7.028   4.723  18.180
 2353TIP3    H231255   7.191   4.726  18.219
 2354TIP3   OH231256   7.176   5.360  17.360
 2354TIP3    H131257   7.097   5.294  17.329
 2354TIP3    H231258   7.136   5.390  17.446
 2355TIP3   OH231259   7.987   5.352  18.220
 2355TIP3    H131260   8.041   5.394  18.146
 2355TIP3    H231261   7.901   5.309  18.175
 2356TIP3   OH231262   7.682   4.568  17.172
 2356TIP3    H131263   7.581   4.593  17.147
 2356TIP3    H231264   7.716   4.659  17.214
 2357TIP3   OH231265   7.324   5.430  18.462
 2357TIP3    H131266   7.313   5.382  18.548
 2357TIP3    H231267   7.316   5.533  18.486
 2358TIP3   OH231268   7.725   4.824  17.354
 2358TIP3    H131269   7.796   4.766  17.406
 2358TIP3    H231270   7.751   4.924  17.386
 2359TIP3   OH231271   6.678   5.314  17.943
 2359TIP3    H131272   6.740   5.286  17.868
 2359TIP3    H231273   6.664   5.221  17.991
 2360TIP3   OH231274   7.389   5.545  17.299
 2360TIP3    H131275   7.352   5.644  17.321
 2360TIP3    H231276   7.303   5.479  17.309
 2361TIP3   OH231277   6.331   5.143  18.469
 2361TIP3    H131278   6.321   5.071  18.541
 2361TIP3    H231279   6.271   5.099  18.398
 2362TIP3   OH231280   7.090   5.079  18.640
 2362TIP3    H131281   7.042   5.015  18.576
 2362TIP3    H231282   7.188   5.036  18.644
 2363TIP3   OH231283   7.633   5.666  18.483
 2363TIP3    H131284   7.539   5.686  18.441
 2363TIP3    H231285   7.618   5.717  18.568
 2364TIP3   OH231286   8.232   5.447  18.569
 2364TIP3    H131287   8.138   5.481  18.530
 2364TIP3    H231288   8.293   5.434  18.488
 2365TIP3   OH231289   7.774   5.222  18.058
 2365TIP3    H131290   7.673   5.236  18.031
 2365TIP3    H231291   7.799   5.140  17.999
 2366TIP3   OH231292   6.912   5.711  17.650
 2366TIP3    H131293   6.934   5.805  17.605
 2366TIP3    H231294   6.807   5.708  17.640
 2367TIP3   OH231295   7.049   5.437  17.602
 2367TIP3    H131296   7.004   5.530  17.631
 2367TIP3    H231297   6.990   5.363  17.651
 2368TIP3   OH231298   7.127   5.895  18.327
 2368TIP3    H131299   7.202   5.955  18.284
 2368TIP3    H231300   7.191   5.837  18.387
 2369TIP3   OH231301   6.926   5.990  17.560
 2369TIP3    H131302   6.827   5.992  17.598
 2369TIP3    H231303   6.961   6.086  17.588
 2370TIP3   OH231304   7.473   5.431  18.219
 2370TIP3    H131305   7.422   5.423  18.306
 2370TIP3    H231306   7.521   5.336  18.219
 2371TIP3   OH231307   7.814   5.930  18.456
 2371TIP3    H131308   7.724   5.877  18.435
 2371TIP3    H231309   7.824   6.001  18.381
 2372TIP3   OH231310   6.520   4.551  18.407
 2372TIP3    H131311   6.441   4.605  18.453
 2372TIP3    H231312   6.519   4.459  18.459
 2373TIP3   OH231313   7.875   5.335  17.289
 2373TIP3    H131314   7.810   5.360  17.362
 2373TIP3    H231315   7.960   5.398  17.305
 2374TIP3   OH231316   6.478   5.841  18.242
 2374TIP3    H131317   6.547   5.760  18.247
 2374TIP3    H231318   6.503   5.896  18.321
 2375TIP3   OH231319   7.101   5.705  16.978
 2375TIP3    H131320   7.050   5.645  16.911
 2375TIP3    H231321   7.108   5.639  17.052
 2376TIP3   OH231322   7.471   4.537  18.330
 2376TIP3    H131323   7.569   4.551  18.370
 2376TIP3    H231324   7.445   4.440  18.362
 2377TIP3   OH231325   7.546   4.472  17.442
 2377TIP3    H131326   7.593   4.514  17.366
 2377TIP3    H231327   7.611   4.504  17.514
 2378TIP3   OH231328   7.316   5.840  17.322
 2378TIP3    H131329   7.210   5.859  17.329
 2378TIP3    H231330   7.344   5.900  17.247
 2379TIP3   OH231331   7.234   4.725  17.511
 2379TIP3    H131332   7.303   4.805  17.526
 2379TIP3    H231333   7.235   4.672  17.596
 2380TIP3   OH231334   7.346   4.814  18.394
 2380TIP3    H131335   7.344   4.842  18.489
 2380TIP3    H231336   7.399   4.720  18.392
 2381TIP3   OH231337   7.382   4.357  17.637
 2381TIP3    H131338   7.288   4.381  17.595
 2381TIP3    H231339   7.451   4.394  17.569
 2382TIP3   OH231340   7.021   5.889  17.326
 2382TIP3    H131341   7.043   5.981  17.276
 2382TIP3    H231342   6.985   5.932  17.410
 2383TIP3   OH231343   7.957   4.557  18.537
 2383TIP3    H131344   7.868   4.577  18.485
 2383TIP3    H231345   8.035   4.571  18.470
 2384TIP3   OH231346   7.821   4.990  17.895
 2384TIP3    H131347   7.740   4.921  17.881
 2384TIP3    H231348   7.877   4.934  17.963
 2385TIP3   OH231349   6.469   4.832  17.051
 2385TIP3    H131350   6.405   4.920  17.048
 2385TIP3    H231351   6.415   4.762  16.999
 2386TIP3   OH231352   7.971   5.991  18.060
 2386TIP3    H131353   7.952   6.073  17.999
 2386TIP3    H231354   8.078   5.988  18.061
 2387TIP3   OH231355   6.591   4.257  17.968
 2387TIP3    H131356   6.585   4.216  17.876
 2387TIP3    H231357   6.558   4.170  18.018
 2388TIP3   OH231358   6.441   5.782  17.588
 2388TIP3    H131359   6.350   5.833  17.602
 2388TIP3    H231360   6.468   5.812  17.499
 2389TIP3   OH231361   6.355   6.067  18.685
 2389TIP3    H131362   6.423   6.050  18.760
 2389TIP3    H231363   6.307   5.971  18.677
 2390TIP3   OH231364   6.847   5.907  18.837
 2390TIP3    H131365   6.948   5.931  18.856
 2390TIP3    H231366   6.846   5.904  18.739
 2391TIP3   OH231367   7.351   5.870  17.023
 2391TIP3    H131368   7.271   5.807  16.991
 2391TIP3    H231369   7.432   5.801  17.044
 2392TIP3   OH231370   7.572   5.788  18.725
 2392TIP3    H131371   7.541   5.690  18.757
 2392TIP3    H231372   7.662   5.798  18.780
 2393TIP3   OH231373   6.338   5.383  18.776
 2393TIP3    H131374   6.294   5.286  18.782
 2393TIP3    H231375   6.283   5.425  18.701
 2394TIP3   OH231376   7.082   5.371  18.676
 2394TIP3    H131377   7.058   5.435  18.600
 2394TIP3    H231378   7.069   5.271  18.641
 2395TIP3   OH231379   7.724   5.347  18.486
 2395TIP3    H131380   7.822   5.393  18.491
 2395TIP3    H231381   7.666   5.436  18.498
 2396TIP3   OH231382   6.499   5.056  18.760
 2396TIP3    H131383   6.589   5.001  18.769
 2396TIP3    H231384   6.504   5.121  18.838
 2397TIP3   OH231385   6.955   5.199  17.256
 2397TIP3    H131386   6.921   5.109  17.299
 2397TIP3    H231387   6.996   5.155  17.175
 2398TIP3   OH231388   6.865   4.957  18.410
 2398TIP3    H131389   6.801   5.042  18.412
 2398TIP3    H231390   6.952   5.006  18.372
 2399TIP3   OH231391   7.120   4.992  17.030
 2399TIP3    H131392   7.049   5.003  16.959
 2399TIP3    H231393   7.201   4.951  16.977
 2400TIP3   OH231394   7.466   5.255  18.794
 2400TIP3    H131395   7.532   5.211  18.729
 2400TIP3    H231396   7.444   5.170  18.853
 2401TIP3   OH231397   6.962   4.692  18.530
 2401TIP3    H131398   6.969   4.612  18.462
 2401TIP3    H231399   6.921   4.774  18.478
 2402TIP3   OH231400   6.988   4.477  18.339
 2402TIP3    H131401   7.046   4.531  18.270
 2402TIP3    H231402   6.888   4.478  18.301
 2403TIP3   OH231403   7.125   5.123  18.336
 2403TIP3    H131404   7.217   5.155  18.299
 2403TIP3    H231405   7.058   5.189  18.288
 2404TIP3   OH231406   7.682   4.814  18.828
 2404TIP3    H131407   7.743   4.733  18.796
 2404TIP3    H231408   7.753   4.892  18.814
 2405TIP3   OH231409   7.765   5.174  18.703
 2405TIP3    H131410   7.736   5.231  18.623
 2405TIP3    H231411   7.865   5.147  18.676
 2406TIP3   OH231412   6.780   4.778  18.749
 2406TIP3    H131413   6.687   4.729  18.729
 2406TIP3    H231414   6.843   4.741  18.676
 2407TIP3   OH231415   7.096   4.204  18.346
 2407TIP3    H131416   7.068   4.308  18.352
 2407TIP3    H231417   7.006   4.160  18.314
 2408TIP3   OH231418   7.197   4.672  18.747
 2408TIP3    H131419   7.130   4.642  18.818
 2408TIP3    H231420   7.134   4.662  18.670
 2409TIP3   OH231421   7.514   4.573  18.649
 2409TIP3    H131422   7.413   4.590  18.676
 2409TIP3    H231423   7.554   4.528  18.731
 2410TIP3   OH231424   7.697   4.454  18.831
 2410TIP3    H131425   7.681   4.347  18.838
 2410TIP3    H231426   7.668   4.491  18.919
 2411TIP3   OH231427   6.549   4.579  18.747
 2411TIP3    H131428   6.546   4.487  18.697
 2411TIP3    H231429   6.525   4.546  18.839
 2412TIP3   OH231430   7.054   4.171  18.628
 2412TIP3    H131431   7.131   4.099  18.641
 2412TIP3    H231432   7.058   4.177  18.530
 2413TIP3   OH231433   7.098   4.306  18.878
 2413TIP3    H131434   7.080   4.266  18.789
 2413TIP3    H231435   7.046   4.401  18.870
 2414TIP3   OH231436   7.093   6.142  17.217
 2414TIP3    H131437   7.201   6.149  17.203
 2414TIP3    H231438   7.063   6.238  17.184
 2415TIP3   OH231439   6.200   6.151  17.600
 2415TIP3    H131440   6.157   6.062  17.565
 2415TIP3    H231441   6.257   6.109  17.673
 2416TIP3   OH231442   6.318   5.974  17.792
 2416TIP3    H131443   6.241   5.918  17.836
 2416TIP3    H231444   6.392   5.980  17.863
 2417TIP3   OH231445   8.276   6.016  18.117
 2417TIP3    H131446   8.271   6.059  18.206
 2417TIP3    H231447   8.295   6.103  18.064
 2418TIP3   OH231448   8.204   5.983  18.398
 2418TIP3    H131449   8.159   5.911  18.338
 2418TIP3    H231450   8.237   5.918  18.469
 2419TIP3   OH231451   8.033   5.522  18.875
 2419TIP3    H131452   7.934   5.536  18.912
 2419TIP3    H231453   8.071   5.622  18.871
 2420TIP3   OH231454   8.184   5.336  17.373
 2420TIP3    H131455   8.270   5.399  17.388
 2420TIP3    H231456   8.186   5.279  17.455
 2421TIP3   OH231457   8.238   5.143  17.577
 2421TIP3    H131458   8.133   5.117  17.573
 2421TIP3    H231459   8.250   5.143  17.672
 2422TIP3   OH231460   8.241   5.422  18.084
 2422TIP3    H131461   8.337   5.409  18.044
 2422TIP3    H231462   8.236   5.531  18.073
 2423TIP3   OH231463   8.032   5.760  18.311
 2423TIP3    H131464   7.946   5.808  18.348
 2423TIP3    H231465   8.001   5.743  18.218
 2424TIP3   OH231466   8.231   5.071  17.215
 2424TIP3    H131467   8.306   5.112  17.155
 2424TIP3    H231468   8.194   5.159  17.259
 2425TIP3   OH231469   7.985   4.996  17.665
 2425TIP3    H131470   7.989   4.890  17.673
 2425TIP3    H231471   7.933   5.020  17.748
 2426TIP3   OH231472   6.309   5.216  18.033
 2426TIP3    H131473   6.312   5.184  17.940
 2426TIP3    H231474   6.409   5.185  18.062
 2427TIP3   OH231475   8.073   5.192  18.610
 2427TIP3    H131476   8.158   5.129  18.592
 2427TIP3    H231477   8.116   5.289  18.599
 2428TIP3   OH231478   8.235   4.948  18.630
 2428TIP3    H131479   8.127   4.947  18.643
 2428TIP3    H231480   8.257   4.844  18.652
 2429TIP3   OH231481   7.941   4.707  17.517
 2429TIP3    H131482   7.957   4.600  17.508
 2429TIP3    H231483   8.041   4.743  17.523
 2430TIP3   OH231484   7.983   4.808  18.040
 2430TIP3    H131485   8.087   4.791  18.021
 2430TIP3    H231486   7.982   4.788  18.135
 2431TIP3   OH231487   8.018   4.851  18.333
 2431TIP3    H131488   7.920   4.891  18.351
 2431TIP3    H231489   8.066   4.941  18.302
 2432TIP3   OH231490   6.312   4.689  18.630
 2432TIP3    H131491   6.404   4.675  18.677
 2432TIP3    H231492   6.256   4.603  18.662
 2433TIP3   OH231493   8.252   4.155  18.825
 2433TIP3    H131494   8.295   4.099  18.753
 2433TIP3    H231495   8.242   4.250  18.781
 2434TIP3   OH231496   7.984   4.420  17.481
 2434TIP3    H131497   8.005   4.361  17.562
 2434TIP3    H231498   7.977   4.341  17.414
 2435TIP3   OH231499   6.432   4.499  17.979
 2435TIP3    H131500   6.489   4.407  17.970
 2435TIP3    H231501   6.513   4.567  17.993
 2436TIP3   OH231502   6.257   4.847  18.050
 2436TIP3    H131503   6.343   4.817  17.999
 2436TIP3    H231504   6.296   4.930  18.097
 2437TIP3   OH231505   8.186   4.406  18.707
 2437TIP3    H131506   8.100   4.466  18.734
 2437TIP3    H231507   8.162   4.384  18.615
 2438TIP3   OH231508   6.279   4.462  17.474
 2438TIP3    H131509   6.179   4.458  17.443
 2438TIP3    H231510   6.327   4.499  17.394
 2439TIP3   OH231511   6.287   4.250  18.285
 2439TIP3    H131512   6.215   4.242  18.358
 2439TIP3    H231513   6.243   4.315  18.221
 2440TIP3   OH231514   6.527   5.721  18.688
 2440TIP3    H131515   6.436   5.740  18.641
 2440TIP3    H231516   6.493   5.693  18.775
 2441TIP3   OH231517   6.830   5.851  18.306
 2441TIP3    H131518   6.830   5.959  18.302
 2441TIP3    H231519   6.936   5.837  18.320
 2442TIP3   OH231520   7.290   6.024  18.624
 2442TIP3    H131521   7.304   5.996  18.717
 2442TIP3    H231522   7.391   6.054  18.598
 2443TIP3   OH231523   7.539   6.170  18.572
 2443TIP3    H131524   7.626   6.123  18.536
 2443TIP3    H231525   7.575   6.207  18.659
 2444TIP3   OH231526   8.086   4.214  18.484
 2444TIP3    H131527   8.003   4.259  18.440
 2444TIP3    H231528   8.090   4.117  18.444
 2445TIP3   OH231529   6.545   6.204  18.318
 2445TIP3    H131530   6.455   6.253  18.286
 2445TIP3    H231531   6.533   6.223  18.413
 2446TIP3   OH231532   6.810   6.147  18.229
 2446TIP3    H131533   6.707   6.168  18.257
 2446TIP3    H231534   6.823   6.221  18.160
 2447TIP3   OH231535   7.329   6.116  18.149
 2447TIP3    H131536   7.245   6.163  18.110
 2447TIP3    H231537   7.350   6.184  18.223
 2448TIP3   OH231538   7.551   5.962  18.297
 2448TIP3    H131539   7.476   6.001  18.238
 2448TIP3    H231540   7.624   6.039  18.292
 2449TIP3   OH231541   7.847   6.129  18.266
 2449TIP3    H131542   7.846   6.232  18.243
 2449TIP3    H231543   7.896   6.085  18.187
 2450TIP3   OH231544   6.502   6.027  18.018
 2450TIP3    H131545   6.493   5.964  18.098
 2450TIP3    H231546   6.599   5.994  17.984
 2451TIP3   OH231547   6.735   5.920  17.893
 2451TIP3    H131548   6.720   5.816  17.916
 2451TIP3    H231549   6.840   5.935  17.916
 2452TIP3   OH231550   7.003   5.937  17.999
 2452TIP3    H131551   7.018   5.831  18.012
 2452TIP3    H231552   7.000   5.973  18.091
 2453TIP3   OH231553   7.436   4.389  17.910
 2453TIP3    H131554   7.356   4.324  17.931
 2453TIP3    H231555   7.429   4.391  17.812
 2454TIP3   OH231556   7.932   4.144  17.895
 2454TIP3    H131557   7.970   4.216  17.831
 2454TIP3    H231558   7.828   4.150  17.868
 2455TIP3   OH231559   8.070   4.303  17.709
 2455TIP3    H131560   8.150   4.232  17.697
 2455TIP3    H231561   8.128   4.385  17.748
 2456TIP3   OH231562   6.548   4.198  17.707
 2456TIP3    H131563   6.447   4.182  17.679
 2456TIP3    H231564   6.595   4.104  17.680
 2457TIP3   OH231565   6.432   4.224  17.231
 2457TIP3    H131566   6.511   4.290  17.199
 2457TIP3    H231567   6.367   4.297  17.270
 2458TIP3   OH231568   7.006   4.209  17.690
 2458TIP3    H131569   7.061   4.261  17.621
 2458TIP3    H231570   7.056   4.244  17.770
 2459TIP3   OH231571   7.670   4.215  17.799
 2459TIP3    H131572   7.641   4.217  17.707
 2459TIP3    H231573   7.591   4.155  17.836
 2460TIP3   OH231574   6.403   5.997  17.343
 2460TIP3    H131575   6.381   5.948  17.260
 2460TIP3    H231576   6.422   6.100  17.314
 2461TIP3   OH231577   7.132   4.388  17.485
 2461TIP3    H131578   7.118   4.358  17.392
 2461TIP3    H231579   7.124   4.494  17.475
 2462TIP3   OH231580   7.376   6.140  17.143
 2462TIP3    H131581   7.477   6.129  17.170
 2462TIP3    H231582   7.365   6.058  17.080
 2463TIP3   OH231583   6.512   4.296  18.629
 2463TIP3    H131584   6.453   4.207  18.636
 2463TIP3    H231585   6.598   4.270  18.684
 2464TIP3   OH231586   6.724   4.217  18.813
 2464TIP3    H131587   6.827   4.194  18.789
 2464TIP3    H231588   6.692   4.118  18.840
 2465TIP3   OH231589   7.685   4.148  18.828
 2465TIP3    H131590   7.680   4.089  18.910
 2465TIP3    H231591   7.777   4.110  18.790
 2466TIP3   OH231592   8.007   5.850  18.647
 2466TIP3    H131593   7.944   5.869  18.568
 2466TIP3    H231594   8.022   5.950  18.679
 2467TIP3   OH231595   8.292   4.862  17.492
 2467TIP3    H131596   8.282   4.951  17.545
 2467TIP3    H231597   8.286   4.905  17.403
 2468TIP3   OH231598   8.342   5.372  18.334
 2468TIP3    H131599   8.288   5.363  18.249
 2468TIP3    H231600   8.350   5.271  18.367
 2469TIP3   OH231601   8.298   5.698  18.019
 2469TIP3    H131602   8.404   5.705  17.994
 2469TIP3    H231603   8.284   5.796  18.057
 2470TIP3   OH231604   8.264   4.529  17.735
 2470TIP3    H131605   8.370   4.555  17.743
 2470TIP3    H231606   8.250   4.543  17.641
 2471TIP3   OH231607   8.351   5.101  18.437
 2471TIP3    H131608   8.334   5.035  18.514
 2471TIP3    H231609   8.263   5.080  18.385
 2472TIP3   OH231610   8.407   5.307  18.740
 2472TIP3    H131611   8.346   5.229  18.778
 2472TIP3    H231612   8.336   5.363  18.686
 2473TIP3   OH231613   8.237   6.170  17.646
 2473TIP3    H131614   8.148   6.147  17.591
 2473TIP3    H231615   8.249   6.074  17.693
 2474TIP3   OH231616   8.292   5.929  17.791
 2474TIP3    H131617   8.297   5.825  17.809
 2474TIP3    H231618   8.391   5.961  17.819
 2475TIP3   OH231619   8.385   5.123  18.068
 2475TIP3    H131620   8.358   5.160  17.982
 2475TIP3    H231621   8.470   5.187  18.087
 2476TIP3   OH231622   8.298   4.671  18.677
 2476TIP3    H131623   8.405   4.674  18.661
 2476TIP3    H231624   8.283   4.566  18.696
 2477TIP3   OH231625   8.269   4.801  18.044
 2477TIP3    H131626   8.374   4.788  18.026
 2477TIP3    H231627   8.271   4.907  18.063
 2478TIP3   OH231628   8.264   4.448  17.407
 2478TIP3    H131629   8.161   4.451  17.435
 2478TIP3    H231630   8.274   4.351  17.369
 2479TIP3   OH231631   8.224   4.233  18.241
 2479TIP3    H131632   8.209   4.246  18.337
 2479TIP3    H231633   8.191   4.328  18.206
 2480TIP3   OH231634   1.334   7.334  17.637
 2480TIP3    H131635   1.329   7.422  17.581
 2480TIP3    H231636   1.250   7.281  17.605
 2481TIP3   OH231637   1.200   7.185  17.985
 2481TIP3    H131638   1.211   7.141  18.076
 2481TIP3    H231639   1.126   7.120  17.946
 2482TIP3   OH231640   0.360   7.165  18.146
 2482TIP3    H131641   0.347   7.082  18.206
 2482TIP3    H231642   0.442   7.213  18.189
 2483TIP3   OH231643   0.388   7.678  17.962
 2483TIP3    H131644   0.374   7.574  17.940
 2483TIP3    H231645   0.493   7.671  17.978
 2484TIP3   OH231646   0.174   6.992  17.537
 2484TIP3    H131647   0.087   7.048  17.557
 2484TIP3    H231648   0.141   6.895  17.565
 2485TIP3   OH231649   0.124   7.194  17.820
 2485TIP3    H131650   0.188   7.107  17.805
 2485TIP3    H231651   0.176   7.271  17.773
 2486TIP3   OH231652   0.999   7.469  18.087
 2486TIP3    H131653   1.048   7.412  18.018
 2486TIP3    H231654   1.087   7.506  18.134
 2487TIP3   OH231655   1.962   6.534  18.100
 2487TIP3    H131656   1.970   6.611  18.168
 2487TIP3    H231657   2.039   6.565  18.038
 2488TIP3   OH231658   1.418   6.878  18.098
 2488TIP3    H131659   1.422   6.774  18.120
 2488TIP3    H231660   1.412   6.871  18.000
 2489TIP3   OH231661   1.464   6.675  17.657
 2489TIP3    H131662   1.521   6.652  17.737
 2489TIP3    H231663   1.536   6.733  17.608
 2490TIP3   OH231664   0.276   6.944  17.830
 2490TIP3    H131665   0.324   6.886  17.898
 2490TIP3    H231666   0.213   6.866  17.790
 2491TIP3   OH231667   0.740   7.124  17.813
 2491TIP3    H131668   0.827   7.090  17.859
 2491TIP3    H231669   0.736   7.058  17.736
 2492TIP3   OH231670   1.967   6.711  18.336
 2492TIP3    H131671   1.914   6.795  18.292
 2492TIP3    H231672   1.991   6.757  18.420
 2493TIP3   OH231673   0.497   6.530  18.199
 2493TIP3    H131674   0.475   6.606  18.134
 2493TIP3    H231675   0.444   6.569  18.276
 2494TIP3   OH231676   0.771   7.399  18.237
 2494TIP3    H131677   0.708   7.484  18.253
 2494TIP3    H231678   0.848   7.442  18.179
 2495TIP3   OH231679   1.653   6.662  17.863
 2495TIP3    H131680   1.651   6.560  17.893
 2495TIP3    H231681   1.749   6.698  17.894
 2496TIP3   OH231682   0.449   6.762  18.008
 2496TIP3    H131683   0.502   6.834  18.064
 2496TIP3    H231684   0.524   6.742  17.942
 2497TIP3   OH231685   0.618   7.641  18.300
 2497TIP3    H131686   0.604   7.743  18.274
 2497TIP3    H231687   0.521   7.620  18.337
 2498TIP3   OH231688   0.092   7.568  17.355
 2498TIP3    H131689   0.115   7.592  17.261
 2498TIP3    H231690   0.145   7.644  17.403
 2499TIP3   OH231691   1.657   7.781  18.110
 2499TIP3    H131692   1.553   7.798  18.127
 2499TIP3    H231693   1.683   7.863  18.052
 2500TIP3   OH231694   1.652   6.464  18.189
 2500TIP3    H131695   1.576   6.530  18.154
 2500TIP3    H231696   1.734   6.478  18.127
 2501TIP3   OH231697   0.875   6.268  17.934
 2501TIP3    H131698   0.853   6.170  17.901
 2501TIP3    H231699   0.834   6.263  18.023
 2502TIP3   OH231700   1.775   7.566  18.442
 2502TIP3    H131701   1.786   7.482  18.381
 2502TIP3    H231702   1.799   7.646  18.381
 2503TIP3   OH231703   1.190   7.240  17.388
 2503TIP3    H131704   1.125   7.321  17.357
 2503TIP3    H231705   1.273   7.240  17.324
 2504TIP3   OH231706   1.997   7.181  18.232
 2504TIP3    H131707   1.929   7.264  18.236
 2504TIP3    H231708   2.065   7.217  18.163
 2505TIP3   OH231709   1.576   7.235  17.501
 2505TIP3    H131710   1.496   7.284  17.550
 2505TIP3    H231711   1.641   7.202  17.572
 2506TIP3   OH231712   1.565   7.072  18.410
 2506TIP3    H131713   1.527   7.165  18.438
 2506TIP3    H231714   1.504   7.054  18.332
 2507TIP3   OH231715   0.649   7.365  17.679
 2507TIP3    H131716   0.589   7.314  17.611
 2507TIP3    H231717   0.688   7.279  17.727
 2508TIP3   OH231718   0.786   7.668  17.967
 2508TIP3    H131719   0.809   7.670  17.872
 2508TIP3    H231720   0.868   7.612  18.005
 2509TIP3   OH231721   0.686   7.174  18.081
 2509TIP3    H131722   0.713   7.204  17.991
 2509TIP3    H231723   0.716   7.260  18.134
 2510TIP3   OH231724   0.770   7.648  18.536
 2510TIP3    H131725   0.689   7.704  18.576
 2510TIP3    H231726   0.737   7.644  18.441
 2511TIP3   OH231727   1.445   7.176  17.272
 2511TIP3    H131728   1.474   7.148  17.363
 2511TIP3    H231729   1.508   7.261  17.264
 2512TIP3   OH231730   0.475   7.250  18.426
 2512TIP3    H131731   0.463   7.329  18.490
 2512TIP3    H231732   0.377   7.204  18.430
 2513TIP3   OH231733   0.570   7.868  18.614
 2513TIP3    H131734   0.560   7.877  18.517
 2513TIP3    H231735   0.466   7.856  18.639
 2514TIP3   OH231736   1.826   6.252  17.326
 2514TIP3    H131737   1.724   6.275  17.348
 2514TIP3    H231738   1.857   6.334  17.268
 2515TIP3   OH231739   0.501   7.198  17.493
 2515TIP3    H131740   0.443   7.271  17.442
 2515TIP3    H231741   0.460   7.108  17.459
 2516TIP3   OH231742   0.166   7.454  18.371
 2516TIP3    H131743   0.060   7.444  18.353
 2516TIP3    H231744   0.201   7.352  18.361
 2517TIP3   OH231745   0.135   7.812  17.967
 2517TIP3    H131746   0.223   7.747  17.968
 2517TIP3    H231747   0.146   7.858  18.054
 2518TIP3   OH231748   2.042   7.855  18.604
 2518TIP3    H131749   2.030   7.748  18.615
 2518TIP3    H231750   1.942   7.886  18.631
 2519TIP3   OH231751   1.045   7.785  18.456
 2519TIP3    H131752   1.058   7.869  18.514
 2519TIP3    H231753   0.955   7.740  18.489
 2520TIP3   OH231754   1.091   8.315  17.437
 2520TIP3    H131755   1.120   8.251  17.366
 2520TIP3    H231756   1.152   8.402  17.421
 2521TIP3   OH231757   0.428   8.057  17.639
 2521TIP3    H131758   0.447   8.050  17.736
 2521TIP3    H231759   0.332   8.008  17.633
 2522TIP3   OH231760   1.727   6.908  18.620
 2522TIP3    H131761   1.663   6.949  18.550
 2522TIP3    H231762   1.722   6.805  18.598
 2523TIP3   OH231763   0.341   7.670  18.421
 2523TIP3    H131764   0.332   7.645  18.515
 2523TIP3    H231765   0.267   7.600  18.388
 2524TIP3   OH231766   1.160   6.307  18.345
 2524TIP3    H131767   1.201   6.253  18.422
 2524TIP3    H231768   1.055   6.304  18.362
 2525TIP3   OH231769   1.473   6.763  18.488
 2525TIP3    H131770   1.411   6.700  18.549
 2525TIP3    H231771   1.416   6.853  18.491
 2526TIP3   OH231772   0.645   6.899  18.152
 2526TIP3    H131773   0.564   6.911  18.216
 2526TIP3    H231774   0.666   7.003  18.130
 2527TIP3   OH231775   1.214   6.998  17.539
 2527TIP3    H131776   1.210   7.088  17.485
 2527TIP3    H231777   1.306   6.954  17.503
 2528TIP3   OH231778   1.125   6.987  18.673
 2528TIP3    H131779   1.081   6.895  18.706
 2528TIP3    H231780   1.211   6.996  18.729
 2529TIP3   OH231781   1.378   6.922  17.822
 2529TIP3    H131782   1.352   7.013  17.776
 2529TIP3    H231783   1.397   6.856  17.747
 2530TIP3   OH231784   0.393   6.901  18.289
 2530TIP3    H131785   0.432   6.956  18.363
 2530TIP3    H231786   0.347   6.817  18.333
 2531TIP3   OH231787   0.130   6.718  17.756
 2531TIP3    H131788   0.164   6.633  17.809
 2531TIP3    H231789   0.134   6.679  17.664
 2532TIP3   OH231790   0.102   6.798  17.241
 2532TIP3    H131791   0.195   6.829  17.203
 2532TIP3    H231792   0.130   6.765  17.330
 2533TIP3   OH231793   1.254   7.072  18.234
 2533TIP3    H131794   1.326   7.004  18.194
 2533TIP3    H231795   1.202   7.010  18.300
 2534TIP3   OH231796   0.711   6.843  17.442
 2534TIP3    H131797   0.809   6.813  17.415
 2534TIP3    H231798   0.669   6.871  17.355
 2535TIP3   OH231799   1.398   6.568  18.059
 2535TIP3    H131800   1.322   6.537  18.121
 2535TIP3    H231801   1.374   6.510  17.980
 2536TIP3   OH231802   0.660   6.901  17.171
 2536TIP3    H131803   0.567   6.921  17.129
 2536TIP3    H231804   0.727   6.959  17.116
 2537TIP3   OH231805   1.694   8.285  18.702
 2537TIP3    H131806   1.717   8.312  18.611
 2537TIP3    H231807   1.794   8.297  18.742
 2538TIP3   OH231808   0.415   7.445  18.651
 2538TIP3    H131809   0.506   7.460  18.700
 2538TIP3    H231810   0.343   7.477  18.719
 2539TIP3   OH231811   1.053   6.940  17.899
 2539TIP3    H131812   1.151   6.913  17.868
 2539TIP3    H231813   1.048   6.887  17.983
 2540TIP3   OH231814   0.903   6.755  18.185
 2540TIP3    H131815   0.825   6.824  18.203
 2540TIP3    H231816   0.987   6.800  18.230
 2541TIP3   OH231817   0.965   7.437  17.351
 2541TIP3    H131818   0.868   7.400  17.331
 2541TIP3    H231819   0.949   7.494  17.433
 2542TIP3   OH231820   1.788   7.405  18.226
 2542TIP3    H131821   1.834   7.449  18.146
 2542TIP3    H231822   1.690   7.383  18.190
 2543TIP3   OH231823   1.122   7.498  18.465
 2543TIP3    H131824   1.113   7.450  18.551
 2543TIP3    H231825   1.113   7.602  18.486
 2544TIP3   OH231826   1.448   6.915  17.391
 2544TIP3    H131827   1.544   6.870  17.400
 2544TIP3    H231828   1.450   6.953  17.300
 2545TIP3   OH231829   0.477   7.407  17.908
 2545TIP3    H131830   0.538   7.411  17.826
 2545TIP3    H231831   0.494   7.310  17.942
 2546TIP3   OH231832   0.194   7.153  18.422
 2546TIP3    H131833   0.190   7.134  18.518
 2546TIP3    H231834   0.088   7.160  18.400
 2547TIP3   OH231835   0.888   7.165  18.648
 2547TIP3    H131836   0.836   7.098  18.590
 2547TIP3    H231837   0.984   7.116  18.652
 2548TIP3   OH231838   1.410   7.743  18.478
 2548TIP3    H131839   1.338   7.775  18.414
 2548TIP3    H231840   1.377   7.791  18.560
 2549TIP3   OH231841   1.959   6.899  17.367
 2549TIP3    H131842   1.936   6.878  17.274
 2549TIP3    H231843   1.983   7.004  17.363
 2550TIP3   OH231844   2.024   7.546  18.579
 2550TIP3    H131845   1.918   7.558  18.558
 2550TIP3    H231846   2.064   7.543  18.488
 2551TIP3   OH231847   1.871   7.820  17.316
 2551TIP3    H131848   1.803   7.746  17.349
 2551TIP3    H231849   1.824   7.845  17.231
 2552TIP3   OH231850   1.553   7.261  18.088
 2552TIP3    H131851   1.451   7.246  18.064
 2552TIP3    H231852   1.601   7.190  18.029
 2553TIP3   OH231853   0.698   7.768  17.652
 2553TIP3    H131854   0.714   7.861  17.602
 2553TIP3    H231855   0.593   7.758  17.648
 2554TIP3   OH231856   0.198   7.180  17.095
 2554TIP3    H131857   0.290   7.234  17.105
 2554TIP3    H231858   0.166   7.165  17.186
 2555TIP3   OH231859   0.889   7.527  17.614
 2555TIP3    H131860   0.815   7.605  17.621
 2555TIP3    H231861   0.828   7.440  17.623
 2556TIP3   OH231862   0.911   7.964  18.281
 2556TIP3    H131863   0.955   8.062  18.286
 2556TIP3    H231864   0.980   7.904  18.333
 2557TIP3   OH231865   0.696   8.042  17.542
 2557TIP3    H131866   0.596   8.061  17.576
 2557TIP3    H231867   0.750   8.108  17.601
 2558TIP3   OH231868   1.255   7.523  18.219
 2558TIP3    H131869   1.221   7.513  18.313
 2558TIP3    H231870   1.318   7.437  18.209
 2559TIP3   OH231871   1.588   8.028  18.465
 2559TIP3    H131872   1.503   7.971  18.436
 2559TIP3    H231873   1.602   8.103  18.395
 2560TIP3   OH231874   0.299   6.642  18.397
 2560TIP3    H131875   0.256   6.685  18.478
 2560TIP3    H231876   0.270   6.540  18.405
 2561TIP3   OH231877   0.259   7.908  18.245
 2561TIP3    H131878   0.324   7.831  18.277
 2561TIP3    H231879   0.260   7.973  18.320
 2562TIP3   OH231880   0.815   7.765  17.234
 2562TIP3    H131881   0.864   7.673  17.210
 2562TIP3    H231882   0.859   7.782  17.321
 2563TIP3   OH231883   0.344   7.371  17.305
 2563TIP3    H131884   0.262   7.440  17.307
 2563TIP3    H231885   0.414   7.422  17.247
 2564TIP3   OH231886   1.242   6.598  18.329
 2564TIP3    H131887   1.343   6.613  18.358
 2564TIP3    H231888   1.222   6.493  18.348
 2565TIP3   OH231889   1.290   6.559  17.457
 2565TIP3    H131890   1.315   6.588  17.367
 2565TIP3    H231891   1.366   6.603  17.514
 2566TIP3   OH231892   1.059   6.749  17.574
 2566TIP3    H131893   1.112   6.829  17.530
 2566TIP3    H231894   1.009   6.800  17.643
 2567TIP3   OH231895   1.148   6.867  18.409
 2567TIP3    H131896   1.160   6.889  18.504
 2567TIP3    H231897   1.168   6.760  18.405
 2568TIP3   OH231898   1.132   6.392  17.614
 2568TIP3    H131899   1.076   6.470  17.656
 2568TIP3    H231900   1.205   6.456  17.566
 2569TIP3   OH231901   1.742   6.611  18.503
 2569TIP3    H131902   1.640   6.640  18.486
 2569TIP3    H231903   1.793   6.647  18.423
 2570TIP3   OH231904   1.646   7.040  17.901
 2570TIP3    H131905   1.562   6.974  17.892
 2570TIP3    H231906   1.717   6.981  17.949
 2571TIP3   OH231907   0.270   6.903  16.999
 2571TIP3    H131908   0.279   7.007  17.021
 2571TIP3    H231909   0.164   6.896  16.995
 2572TIP3   OH231910   1.731   8.086  18.076
 2572TIP3    H131911   1.739   8.151  17.997
 2572TIP3    H231912   1.830   8.049  18.077
 2573TIP3   OH231913   0.227   7.788  17.510
 2573TIP3    H131914   0.134   7.826  17.540
 2573TIP3    H231915   0.253   7.866  17.446
 2574TIP3   OH231916   0.131   8.151  18.664
 2574TIP3    H131917   0.230   8.173  18.694
 2574TIP3    H231918   0.118   8.056  18.705
 2575TIP3   OH231919   0.717   7.982  18.848
 2575TIP3    H131920   0.807   7.931  18.825
 2575TIP3    H231921   0.661   7.966  18.767
 2576TIP3   OH231922   1.359   7.855  18.731
 2576TIP3    H131923   1.315   7.758  18.750
 2576TIP3    H231924   1.445   7.850  18.787
 2577TIP3   OH231925   0.198   7.500  18.828
 2577TIP3    H131926   0.200   7.396  18.805
 2577TIP3    H231927   0.098   7.517  18.796
 2578TIP3   OH231928   0.875   7.449  18.705
 2578TIP3    H131929   0.846   7.504  18.624
 2578TIP3    H231930   0.870   7.345  18.677
 2579TIP3   OH231931   1.189   7.643  16.983
 2579TIP3    H131932   1.213   7.673  17.074
 2579TIP3    H231933   1.122   7.564  17.002
 2580TIP3   OH231934   1.491   7.426  18.477
 2580TIP3    H131935   1.587   7.473  18.474
 2580TIP3    H231936   1.430   7.515  18.481
 2581TIP3   OH231937   0.245   7.130  18.756
 2581TIP3    H131938   0.321   7.054  18.748
 2581TIP3    H231939   0.259   7.164  18.848
 2582TIP3   OH231940   0.679   7.022  18.426
 2582TIP3    H131941   0.618   7.109  18.446
 2582TIP3    H231942   0.762   7.069  18.380
 2583TIP3   OH231943   0.857   7.072  17.041
 2583TIP3    H131944   0.871   7.175  17.021
 2583TIP3    H231945   0.932   7.051  17.107
 2584TIP3   OH231946   1.266   7.316  18.799
 2584TIP3    H131947   1.352   7.262  18.769
 2584TIP3    H231948   1.222   7.242  18.860
 2585TIP3   OH231949   0.730   6.761  18.545
 2585TIP3    H131950   0.737   6.689  18.473
 2585TIP3    H231951   0.726   6.854  18.496
 2586TIP3   OH231952   0.758   6.544  18.319
 2586TIP3    H131953   0.812   6.607  18.255
 2586TIP3    H231954   0.663   6.529  18.273
 2587TIP3   OH231955   0.917   7.178  18.328
 2587TIP3    H131956   1.004   7.229  18.296
 2587TIP3    H231957   0.846   7.254  18.306
 2588TIP3   OH231958   1.391   6.913  18.837
 2588TIP3    H131959   1.423   6.815  18.818
 2588TIP3    H231960   1.482   6.964  18.859
 2589TIP3   OH231961   1.574   7.261  18.688
 2589TIP3    H131962   1.526   7.317  18.616
 2589TIP3    H231963   1.673   7.253  18.651
 2590TIP3   OH231964   0.473   6.916  18.710
 2590TIP3    H131965   0.424   6.824  18.736
 2590TIP3    H231966   0.554   6.876  18.659
 2591TIP3   OH231967   0.862   6.274  18.345
 2591TIP3    H131968   0.834   6.379  18.340
 2591TIP3    H231969   0.780   6.229  18.300
 2592TIP3   OH231970   0.980   6.735  18.740
 2592TIP3    H131971   0.922   6.710  18.819
 2592TIP3    H231972   0.904   6.733  18.671
 2593TIP3   OH231973   1.280   6.653  18.656
 2593TIP3    H131974   1.175   6.654  18.673
 2593TIP3    H231975   1.315   6.596  18.733
 2594TIP3   OH231976   1.452   6.508  18.835
 2594TIP3    H131977   1.450   6.400  18.830
 2594TIP3    H231978   1.437   6.524  18.931
 2595TIP3   OH231979   0.338   6.643  18.771
 2595TIP3    H131980   0.362   6.552  18.727
 2595TIP3    H231981   0.295   6.603  18.855
 2596TIP3   OH231982   0.851   6.248  18.630
 2596TIP3    H131983   0.939   6.185  18.638
 2596TIP3    H231984   0.844   6.248  18.532
 2597TIP3   OH231985   0.857   6.378  18.875
 2597TIP3    H131986   0.857   6.328  18.787
 2597TIP3    H231987   0.806   6.470  18.858
 2598TIP3   OH231988   0.179   7.640  17.096
 2598TIP3    H131989   0.251   7.711  17.060
 2598TIP3    H231990   0.161   7.575  17.021
 2599TIP3   OH231991   0.045   8.222  17.527
 2599TIP3    H131992  -0.054   8.254  17.553
 2599TIP3    H231993   0.051   8.133  17.580
 2600TIP3   OH231994   0.174   8.021  17.781
 2600TIP3    H131995   0.153   7.919  17.806
 2600TIP3    H231996   0.199   8.062  17.868
 2601TIP3   OH231997   2.057   8.143  18.050
 2601TIP3    H131998   2.080   8.180  18.141
 2601TIP3    H231999   2.080   8.228  17.995
 2602TIP3   OH232000   1.981   8.063  18.407
 2602TIP3    H132001   1.957   7.988  18.340
 2602TIP3    H232002   2.025   7.998  18.474
 2603TIP3   OH232003   1.824   7.632  18.841
 2603TIP3    H132004   1.730   7.623  18.888
 2603TIP3    H232005   1.861   7.724  18.876
 2604TIP3   OH232006   1.970   7.421  17.383
 2604TIP3    H132007   2.065   7.470  17.399
 2604TIP3    H232008   1.971   7.346  17.452
 2605TIP3   OH232009   1.992   7.227  17.590
 2605TIP3    H132010   1.910   7.159  17.606
 2605TIP3    H232011   2.027   7.245  17.680
 2606TIP3   OH232012   1.948   7.512  18.035
 2606TIP3    H132013   2.027   7.439  18.028
 2606TIP3    H232014   2.004   7.602  18.024
 2607TIP3   OH232015   1.830   7.825  18.312
 2607TIP3    H132016   1.758   7.874  18.369
 2607TIP3    H232017   1.771   7.792  18.236
 2608TIP3   OH232018   1.888   6.901  17.077
 2608TIP3    H132019   1.871   6.966  17.002
 2608TIP3    H232020   1.800   6.840  17.075
 2609TIP3   OH232021   1.773   7.051  17.651
 2609TIP3    H132022   1.752   6.949  17.624
 2609TIP3    H232023   1.737   7.055  17.743
 2610TIP3   OH232024   0.176   7.370  18.030
 2610TIP3    H132025   0.168   7.296  17.959
 2610TIP3    H232026   0.268   7.340  18.072
 2611TIP3   OH232027   1.887   7.270  18.605
 2611TIP3    H132028   1.934   7.174  18.620
 2611TIP3    H232029   1.967   7.334  18.577
 2612TIP3   OH232030   2.001   6.993  18.631
 2612TIP3    H132031   1.896   6.963  18.628
 2612TIP3    H232032   2.050   6.899  18.646
 2613TIP3   OH232033   1.713   6.802  17.512
 2613TIP3    H132034   1.730   6.695  17.514
 2613TIP3    H232035   1.799   6.830  17.460
 2614TIP3   OH232036   1.840   6.854  18.035
 2614TIP3    H132037   1.949   6.870  18.041
 2614TIP3    H232038   1.815   6.878  18.127
 2615TIP3   OH232039   1.809   6.949  18.284
 2615TIP3    H132040   1.716   6.992  18.312
 2615TIP3    H232041   1.867   7.039  18.268
 2616TIP3   OH232042   0.131   6.723  18.604
 2616TIP3    H132043   0.209   6.733  18.672
 2616TIP3    H232044   0.121   6.618  18.602
 2617TIP3   OH232045   2.077   6.307  18.852
 2617TIP3    H132046   2.123   6.225  18.808
 2617TIP3    H232047   2.061   6.381  18.781
 2618TIP3   OH232048   1.799   6.524  17.527
 2618TIP3    H132049   1.828   6.461  17.602
 2618TIP3    H232050   1.733   6.460  17.478
 2619TIP3   OH232051   0.221   6.553  17.969
 2619TIP3    H132052   0.244   6.475  18.031
 2619TIP3    H232053   0.224   6.643  18.022
 2620TIP3   OH232054   0.089   6.916  18.035
 2620TIP3    H132055   0.139   6.950  17.954
 2620TIP3    H232056   0.115   6.992  18.097
 2621TIP3   OH232057   1.993   6.490  18.658
 2621TIP3    H132058   1.918   6.534  18.718
 2621TIP3    H232059   1.944   6.516  18.575
 2622TIP3   OH232060   1.988   6.483  17.199
 2622TIP3    H132061   1.978   6.421  17.120
 2622TIP3    H232062   2.076   6.538  17.176
 2623TIP3   OH232063   0.139   6.584  17.519
 2623TIP3    H132064   0.043   6.536  17.525
 2623TIP3    H232065   0.199   6.502  17.488
 2624TIP3   OH232066   1.678   8.126  17.653
 2624TIP3    H132067   1.763   8.100  17.597
 2624TIP3    H232068   1.720   8.180  17.726
 2625TIP3   OH232069   0.069   6.327  18.305
 2625TIP3    H132070  -0.028   6.306  18.342
 2625TIP3    H232071   0.042   6.384  18.227
 2626TIP3   OH232072   0.287   7.810  18.693
 2626TIP3    H132073   0.190   7.816  18.655
 2626TIP3    H232074   0.268   7.798  18.788
 2627TIP3   OH232075   0.628   7.928  18.358
 2627TIP3    H132076   0.614   8.028  18.324
 2627TIP3    H232077   0.735   7.923  18.352
 2628TIP3   OH232078   1.091   8.028  18.618
 2628TIP3    H132079   1.092   8.019  18.716
 2628TIP3    H232080   1.176   8.093  18.602
 2629TIP3   OH232081   1.362   8.238  18.555
 2629TIP3    H132082   1.452   8.182  18.538
 2629TIP3    H232083   1.368   8.242  18.653
 2630TIP3   OH232084   1.852   6.283  18.476
 2630TIP3    H132085   1.792   6.351  18.425
 2630TIP3    H232086   1.815   6.190  18.443
 2631TIP3   OH232087   0.337   8.316  18.339
 2631TIP3    H132088   0.259   8.329  18.273
 2631TIP3    H232089   0.280   8.286  18.416
 2632TIP3   OH232090   0.580   8.193  18.248
 2632TIP3    H132091   0.490   8.229  18.290
 2632TIP3    H232092   0.579   8.252  18.167
 2633TIP3   OH232093   1.122   8.213  18.131
 2633TIP3    H132094   1.024   8.224  18.092
 2633TIP3    H232095   1.125   8.297  18.192
 2634TIP3   OH232096   1.345   8.056  18.238
 2634TIP3    H132097   1.264   8.116  18.202
 2634TIP3    H232098   1.418   8.131  18.258
 2635TIP3   OH232099   1.596   8.260  18.275
 2635TIP3    H132100   1.583   8.367  18.273
 2635TIP3    H232101   1.643   8.238  18.189
 2636TIP3   OH232102   0.287   8.076  18.032
 2636TIP3    H132103   0.286   8.021  18.116
 2636TIP3    H232104   0.372   8.033  17.985
 2637TIP3   OH232105   0.522   7.990  17.885
 2637TIP3    H132106   0.520   7.884  17.888
 2637TIP3    H232107   0.619   8.006  17.928
 2638TIP3   OH232108   0.772   7.972  18.029
 2638TIP3    H132109   0.798   7.867  18.019
 2638TIP3    H232110   0.809   7.993  18.119
 2639TIP3   OH232111   1.179   6.411  17.911
 2639TIP3    H132112   1.075   6.424  17.898
 2639TIP3    H232113   1.205   6.360  17.829
 2640TIP3   OH232114   1.744   6.225  17.888
 2640TIP3    H132115   1.809   6.295  17.843
 2640TIP3    H232116   1.647   6.251  17.850
 2641TIP3   OH232117   1.925   6.381  17.737
 2641TIP3    H132118   1.994   6.316  17.689
 2641TIP3    H232119   1.985   6.471  17.745
 2642TIP3   OH232120   1.463   6.287  17.807
 2642TIP3    H132121   1.439   6.292  17.713
 2642TIP3    H232122   1.407   6.200  17.834
 2643TIP3   OH232123   1.528   6.302  17.371
 2643TIP3    H132124   1.481   6.311  17.282
 2643TIP3    H232125   1.499   6.203  17.400
 2644TIP3   OH232126   0.219   8.018  17.350
 2644TIP3    H132127   0.119   8.019  17.319
 2644TIP3    H232128   0.256   8.106  17.306
 2645TIP3   OH232129   0.974   6.521  17.353
 2645TIP3    H132130   1.035   6.465  17.412
 2645TIP3    H232131   1.024   6.613  17.347
 2646TIP3   OH232132   1.885   8.069  17.473
 2646TIP3    H132133   1.884   7.972  17.428
 2646TIP3    H232134   1.885   8.135  17.395
 2647TIP3   OH232135   0.279   6.341  18.636
 2647TIP3    H132136   0.231   6.245  18.645
 2647TIP3    H232137   0.375   6.321  18.676
 2648TIP3   OH232138   0.532   6.278  18.819
 2648TIP3    H132139   0.636   6.272  18.793
 2648TIP3    H232140   0.516   6.175  18.839
 2649TIP3   OH232141   1.443   6.212  18.812
 2649TIP3    H132142   1.448   6.144  18.888
 2649TIP3    H232143   1.543   6.201  18.779
 2650TIP3   OH232144   1.777   7.960  18.675
 2650TIP3    H132145   1.693   7.966  18.614
 2650TIP3    H232146   1.804   8.062  18.684
 2651TIP3   OH232147   3.413   7.302  17.657
 2651TIP3    H132148   3.398   7.402  17.687
 2651TIP3    H232149   3.330   7.291  17.598
 2652TIP3   OH232150   3.287   7.197  18.009
 2652TIP3    H132151   3.285   7.131  18.087
 2652TIP3    H232152   3.210   7.153  17.954
 2653TIP3   OH232153   2.399   7.181  18.161
 2653TIP3    H132154   2.424   7.096  18.214
 2653TIP3    H232155   2.484   7.245  18.173
 2654TIP3   OH232156   3.647   7.514  17.854
 2654TIP3    H132157   3.630   7.434  17.918
 2654TIP3    H232158   3.647   7.600  17.911
 2655TIP3   OH232159   2.531   7.681  17.988
 2655TIP3    H132160   2.499   7.586  17.951
 2655TIP3    H232161   2.637   7.664  17.982
 2656TIP3   OH232162   2.171   6.953  17.544
 2656TIP3    H132163   2.132   7.052  17.553
 2656TIP3    H232164   2.082   6.899  17.522
 2657TIP3   OH232165   2.236   7.212  17.817
 2657TIP3    H132166   2.281   7.114  17.834
 2657TIP3    H232167   2.296   7.251  17.746
 2658TIP3   OH232168   3.336   8.089  17.833
 2658TIP3    H132169   3.424   8.043  17.792
 2658TIP3    H232170   3.306   8.009  17.890
 2659TIP3   OH232171   3.080   7.501  18.065
 2659TIP3    H132172   3.113   7.428  18.002
 2659TIP3    H232173   3.170   7.513  18.118
 2660TIP3   OH232174   4.023   6.547  18.140
 2660TIP3    H132175   4.040   6.616  18.213
 2660TIP3    H232176   4.100   6.581  18.080
 2661TIP3   OH232177   3.488   6.872  18.108
 2661TIP3    H132178   3.432   6.805  18.165
 2661TIP3    H232179   3.441   6.854  18.021
 2662TIP3   OH232180   2.703   6.632  17.776
 2662TIP3    H132181   2.713   6.727  17.730
 2662TIP3    H232182   2.641   6.577  17.714
 2663TIP3   OH232183   2.321   6.947  17.883
 2663TIP3    H132184   2.386   6.891  17.942
 2663TIP3    H232185   2.346   6.899  17.797
 2664TIP3   OH232186   2.853   7.109  17.831
 2664TIP3    H132187   2.949   7.065  17.846
 2664TIP3    H232188   2.796   7.021  17.806
 2665TIP3   OH232189   4.057   6.723  18.346
 2665TIP3    H132190   4.014   6.813  18.309
 2665TIP3    H232191   4.082   6.756  18.435
 2666TIP3   OH232192   2.588   6.550  18.202
 2666TIP3    H132193   2.539   6.598  18.127
 2666TIP3    H232194   2.519   6.569  18.275
 2667TIP3   OH232195   3.333   7.597  17.566
 2667TIP3    H132196   3.390   7.592  17.485
 2667TIP3    H232197   3.296   7.697  17.566
 2668TIP3   OH232198   2.831   7.391  18.179
 2668TIP3    H132199   2.775   7.472  18.219
 2668TIP3    H232200   2.910   7.444  18.131
 2669TIP3   OH232201   2.521   6.760  17.997
 2669TIP3    H132202   2.593   6.823  18.045
 2669TIP3    H232203   2.582   6.733  17.919
 2670TIP3   OH232204   2.680   7.627  18.296
 2670TIP3    H132205   2.663   7.729  18.270
 2670TIP3    H232206   2.585   7.603  18.339
 2671TIP3   OH232207   2.217   7.579  17.383
 2671TIP3    H132208   2.160   7.655  17.339
 2671TIP3    H232209   2.247   7.632  17.464
 2672TIP3   OH232210   3.739   7.796  18.093
 2672TIP3    H132211   3.633   7.784  18.105
 2672TIP3    H232212   3.739   7.878  18.033
 2673TIP3   OH232213   3.728   6.472  18.184
 2673TIP3    H132214   3.697   6.574  18.199
 2673TIP3    H232215   3.829   6.484  18.152
 2674TIP3   OH232216   2.949   6.272  17.919
 2674TIP3    H132217   2.931   6.172  17.944
 2674TIP3    H232218   2.860   6.321  17.955
 2675TIP3   OH232219   3.550   7.950  17.712
 2675TIP3    H132220   3.581   7.861  17.664
 2675TIP3    H232221   3.627   8.017  17.678
 2676TIP3   OH232222   3.667   7.712  17.569
 2676TIP3    H132223   3.660   7.643  17.494
 2676TIP3    H232224   3.673   7.643  17.642
 2677TIP3   OH232225   3.837   7.566  18.437
 2677TIP3    H132226   3.865   7.487  18.376
 2677TIP3    H232227   3.863   7.651  18.381
 2678TIP3   OH232228   3.250   7.244  17.416
 2678TIP3    H132229   3.181   7.314  17.376
 2678TIP3    H232230   3.330   7.241  17.350
 2679TIP3   OH232231   4.068   7.169  18.221
 2679TIP3    H132232   4.002   7.253  18.230
 2679TIP3    H232233   4.133   7.209  18.151
 2680TIP3   OH232234   3.641   7.231  17.507
 2680TIP3    H132235   3.562   7.260  17.570
 2680TIP3    H232236   3.707   7.176  17.567
 2681TIP3   OH232237   3.638   7.065  18.411
 2681TIP3    H132238   3.620   7.163  18.446
 2681TIP3    H232239   3.571   7.065  18.335
 2682TIP3   OH232240   2.699   7.300  17.683
 2682TIP3    H132241   2.666   7.254  17.598
 2682TIP3    H232242   2.767   7.224  17.719
 2683TIP3   OH232243   2.848   7.673  17.954
 2683TIP3    H132244   2.867   7.684  17.858
 2683TIP3    H232245   2.940   7.633  17.989
 2684TIP3   OH232246   2.717   7.164  18.061
 2684TIP3    H132247   2.761   7.165  17.971
 2684TIP3    H232248   2.772   7.245  18.106
 2685TIP3   OH232249   3.444   7.797  18.128
 2685TIP3    H132250   3.400   7.875  18.183
 2685TIP3    H232251   3.402   7.710  18.172
 2686TIP3   OH232252   2.842   7.659  18.537
 2686TIP3    H132253   2.772   7.731  18.574
 2686TIP3    H232254   2.804   7.646  18.447
 2687TIP3   OH232255   3.507   7.172  17.281
 2687TIP3    H132256   3.543   7.181  17.373
 2687TIP3    H232257   3.569   7.245  17.240
 2688TIP3   OH232258   2.522   7.242  18.436
 2688TIP3    H132259   2.519   7.339  18.475
 2688TIP3    H232260   2.463   7.191  18.502
 2689TIP3   OH232261   3.225   7.887  17.561
 2689TIP3    H132262   3.271   7.883  17.648
 2689TIP3    H232263   3.178   7.982  17.566
 2690TIP3   OH232264   2.643   7.873  18.599
 2690TIP3    H132265   2.630   7.882  18.503
 2690TIP3    H232266   2.550   7.826  18.625
 2691TIP3   OH232267   3.934   6.233  17.288
 2691TIP3    H132268   3.828   6.233  17.315
 2691TIP3    H232269   3.938   6.322  17.233
 2692TIP3   OH232270   2.583   7.188  17.456
 2692TIP3    H132271   2.548   7.275  17.407
 2692TIP3    H232272   2.531   7.110  17.410
 2693TIP3   OH232273   2.187   7.485  18.355
 2693TIP3    H132274   2.136   7.477  18.271
 2693TIP3    H232275   2.228   7.385  18.366
 2694TIP3   OH232276   2.165   7.755  17.985
 2694TIP3    H132277   2.269   7.737  17.990
 2694TIP3    H232278   2.155   7.842  18.042
 2695TIP3   OH232279   4.112   7.858  18.611
 2695TIP3    H132280   4.094   7.753  18.609
 2695TIP3    H232281   4.016   7.890  18.649
 2696TIP3   OH232282   3.126   7.784  18.473
 2696TIP3    H132283   3.143   7.882  18.513
 2696TIP3    H232284   3.028   7.758  18.504
 2697TIP3   OH232285   3.226   8.250  17.454
 2697TIP3    H132286   3.228   8.273  17.359
 2697TIP3    H232287   3.176   8.332  17.492
 2698TIP3   OH232288   2.515   8.032  17.659
 2698TIP3    H132289   2.553   8.027  17.751
 2698TIP3    H232290   2.432   7.966  17.668
 2699TIP3   OH232291   3.470   8.088  17.432
 2699TIP3    H132292   3.380   8.133  17.467
 2699TIP3    H232293   3.484   7.999  17.483
 2700TIP3   OH232294   3.809   6.899  18.626
 2700TIP3    H132295   3.751   6.949  18.557
 2700TIP3    H232296   3.800   6.797  18.598
 2701TIP3   OH232297   2.437   7.605  18.439
 2701TIP3    H132298   2.433   7.566  18.530
 2701TIP3    H232299   2.338   7.585  18.406
 2702TIP3   OH232300   2.715   6.372  18.036
 2702TIP3    H132301   2.621   6.368  17.989
 2702TIP3    H232302   2.685   6.430  18.115
 2703TIP3   OH232303   3.252   6.310  18.366
 2703TIP3    H132304   3.285   6.262  18.448
 2703TIP3    H232305   3.145   6.316  18.377
 2704TIP3   OH232306   3.524   6.765  18.438
 2704TIP3    H132307   3.479   6.729  18.522
 2704TIP3    H232308   3.502   6.868  18.441
 2705TIP3   OH232309   2.725   6.889  18.150
 2705TIP3    H132310   2.641   6.890  18.212
 2705TIP3    H232311   2.728   6.994  18.123
 2706TIP3   OH232312   2.691   6.907  17.686
 2706TIP3    H132313   2.587   6.896  17.658
 2706TIP3    H232314   2.742   6.915  17.600
 2707TIP3   OH232315   3.330   6.957  17.524
 2707TIP3    H132316   3.301   7.054  17.492
 2707TIP3    H232317   3.407   6.931  17.460
 2708TIP3   OH232318   3.201   6.997  18.652
 2708TIP3    H132319   3.145   6.917  18.695
 2708TIP3    H232320   3.288   6.997  18.709
 2709TIP3   OH232321   3.428   6.901  17.821
 2709TIP3    H132322   3.434   7.003  17.791
 2709TIP3    H232323   3.413   6.854  17.734
 2710TIP3   OH232324   2.467   6.894  18.283
 2710TIP3    H132325   2.492   6.943  18.367
 2710TIP3    H232326   2.430   6.799  18.315
 2711TIP3   OH232327   2.114   6.607  17.760
 2711TIP3    H132328   2.197   6.611  17.821
 2711TIP3    H232329   2.161   6.615  17.672
 2712TIP3   OH232330   2.186   6.722  17.259
 2712TIP3    H132331   2.279   6.692  17.298
 2712TIP3    H232332   2.140   6.779  17.329
 2713TIP3   OH232333   3.340   7.068  18.243
 2713TIP3    H132334   3.403   6.994  18.203
 2713TIP3    H232335   3.273   7.009  18.300
 2714TIP3   OH232336   3.034   6.664  17.770
 2714TIP3    H132337   2.938   6.624  17.793
 2714TIP3    H232338   3.100   6.582  17.799
 2715TIP3   OH232339   2.399   6.806  17.666
 2715TIP3    H132340   2.338   6.850  17.595
 2715TIP3    H232341   2.434   6.716  17.622
 2716TIP3   OH232342   2.805   6.851  17.432
 2716TIP3    H132343   2.911   6.835  17.436
 2716TIP3    H232344   2.793   6.884  17.339
 2717TIP3   OH232345   2.756   6.890  17.173
 2717TIP3    H132346   2.650   6.907  17.168
 2717TIP3    H232347   2.792   6.977  17.126
 2718TIP3   OH232348   3.774   8.271  18.707
 2718TIP3    H132349   3.788   8.305  18.615
 2718TIP3    H232350   3.875   8.284  18.746
 2719TIP3   OH232351   2.469   7.433  18.671
 2719TIP3    H132352   2.541   7.458  18.741
 2719TIP3    H232353   2.380   7.413  18.724
 2720TIP3   OH232354   3.111   6.945  17.946
 2720TIP3    H132355   3.181   6.903  17.885
 2720TIP3    H232356   3.037   6.867  17.955
 2721TIP3   OH232357   2.515   6.544  17.566
 2721TIP3    H132358   2.467   6.461  17.613
 2721TIP3    H232359   2.582   6.492  17.508
 2722TIP3   OH232360   2.967   6.738  18.200
 2722TIP3    H132361   2.884   6.804  18.181
 2722TIP3    H232362   3.045   6.806  18.220
 2723TIP3   OH232363   3.045   7.456  17.341
 2723TIP3    H132364   2.972   7.383  17.315
 2723TIP3    H232365   3.002   7.489  17.427
 2724TIP3   OH232366   3.874   7.391  18.225
 2724TIP3    H132367   3.925   7.444  18.151
 2724TIP3    H232368   3.776   7.385  18.185
 2725TIP3   OH232369   3.156   7.483  18.464
 2725TIP3    H132370   3.161   7.449  18.556
 2725TIP3    H232371   3.153   7.589  18.476
 2726TIP3   OH232372   3.583   6.851  17.376
 2726TIP3    H132373   3.638   6.771  17.336
 2726TIP3    H232374   3.609   6.939  17.328
 2727TIP3   OH232375   2.520   7.406  17.893
 2727TIP3    H132376   2.581   7.380  17.815
 2727TIP3    H232377   2.534   7.322  17.951
 2728TIP3   OH232378   3.219   7.670  17.259
 2728TIP3    H132379   3.200   7.710  17.347
 2728TIP3    H232380   3.164   7.577  17.267
 2729TIP3   OH232381   2.182   7.203  18.463
 2729TIP3    H132382   2.160   7.139  18.540
 2729TIP3    H232383   2.125   7.159  18.392
 2730TIP3   OH232384   2.935   7.154  18.645
 2730TIP3    H132385   2.883   7.081  18.593
 2730TIP3    H232386   3.036   7.118  18.641
 2731TIP3   OH232387   3.486   7.728  18.492
 2731TIP3    H132388   3.397   7.748  18.441
 2731TIP3    H232389   3.468   7.786  18.572
 2732TIP3   OH232390   4.081   6.939  17.304
 2732TIP3    H132391   4.012   6.913  17.233
 2732TIP3    H232392   4.095   7.043  17.280
 2733TIP3   OH232393   4.095   7.549  18.575
 2733TIP3    H132394   3.994   7.561  18.543
 2733TIP3    H232395   4.150   7.539  18.491
 2734TIP3   OH232396   3.905   7.832  17.364
 2734TIP3    H132397   3.819   7.768  17.362
 2734TIP3    H232398   3.925   7.844  17.269
 2735TIP3   OH232399   3.606   7.304  18.048
 2735TIP3    H132400   3.506   7.272  18.037
 2735TIP3    H232401   3.660   7.226  18.001
 2736TIP3   OH232402   2.763   7.764  17.673
 2736TIP3    H132403   2.806   7.856  17.640
 2736TIP3    H232404   2.663   7.770  17.638
 2737TIP3   OH232405   2.923   7.517  17.594
 2737TIP3    H132406   2.873   7.608  17.621
 2737TIP3    H232407   2.871   7.443  17.647
 2738TIP3   OH232408   2.980   7.959  18.300
 2738TIP3    H132409   3.038   8.045  18.278
 2738TIP3    H232410   3.053   7.899  18.349
 2739TIP3   OH232411   2.809   8.035  17.561
 2739TIP3    H132412   2.707   8.055  17.585
 2739TIP3    H232413   2.860   8.118  17.603
 2740TIP3   OH232414   3.319   7.525  18.224
 2740TIP3    H132415   3.267   7.493  18.306
 2740TIP3    H232416   3.368   7.435  18.197
 2741TIP3   OH232417   3.633   7.702  17.164
 2741TIP3    H132418   3.644   7.611  17.214
 2741TIP3    H232419   3.550   7.677  17.107
 2742TIP3   OH232420   3.653   8.034  18.478
 2742TIP3    H132421   3.567   7.978  18.448
 2742TIP3    H232422   3.676   8.101  18.403
 2743TIP3   OH232423   2.377   6.626  18.404
 2743TIP3    H132424   2.297   6.687  18.439
 2743TIP3    H232425   2.366   6.540  18.459
 2744TIP3   OH232426   3.706   7.477  17.353
 2744TIP3    H132427   3.707   7.382  17.403
 2744TIP3    H232428   3.812   7.488  17.334
 2745TIP3   OH232429   2.330   7.891  18.263
 2745TIP3    H132430   2.382   7.801  18.246
 2745TIP3    H232431   2.396   7.937  18.328
 2746TIP3   OH232432   2.421   7.394  17.289
 2746TIP3    H132433   2.349   7.459  17.332
 2746TIP3    H232434   2.487   7.465  17.248
 2747TIP3   OH232435   3.356   6.611  18.275
 2747TIP3    H132436   3.442   6.630  18.329
 2747TIP3    H232437   3.309   6.530  18.322
 2748TIP3   OH232438   3.091   6.750  17.506
 2748TIP3    H132439   3.180   6.810  17.509
 2748TIP3    H232440   3.080   6.718  17.599
 2749TIP3   OH232441   3.201   6.879  18.401
 2749TIP3    H132442   3.211   6.908  18.495
 2749TIP3    H232443   3.257   6.788  18.396
 2750TIP3   OH232444   2.720   6.574  17.279
 2750TIP3    H132445   2.742   6.672  17.312
 2750TIP3    H232446   2.820   6.537  17.263
 2751TIP3   OH232447   3.798   6.641  18.492
 2751TIP3    H132448   3.705   6.681  18.458
 2751TIP3    H232449   3.863   6.643  18.416
 2752TIP3   OH232450   3.703   7.048  17.918
 2752TIP3    H132451   3.625   6.984  17.948
 2752TIP3    H232452   3.791   6.993  17.945
 2753TIP3   OH232453   2.494   7.033  17.123
 2753TIP3    H132454   2.463   7.126  17.082
 2753TIP3    H232455   2.402   6.983  17.139
 2754TIP3   OH232456   3.816   8.115  18.089
 2754TIP3    H132457   3.810   8.156  17.999
 2754TIP3    H232458   3.924   8.111  18.095
 2755TIP3   OH232459   2.434   6.314  17.963
 2755TIP3    H132460   2.431   6.298  17.866
 2755TIP3    H232461   2.399   6.218  17.996
 2756TIP3   OH232462   2.285   7.828  17.516
 2756TIP3    H132463   2.210   7.872  17.572
 2756TIP3    H232464   2.283   7.895  17.439
 2757TIP3   OH232465   2.221   8.147  18.689
 2757TIP3    H132466   2.320   8.146  18.723
 2757TIP3    H232467   2.188   8.045  18.702
 2758TIP3   OH232468   2.765   7.960  18.846
 2758TIP3    H132469   2.869   7.976  18.838
 2758TIP3    H232470   2.730   7.940  18.755
 2759TIP3   OH232471   3.435   7.861  18.733
 2759TIP3    H132472   3.400   7.762  18.759
 2759TIP3    H232473   3.518   7.871  18.794
 2760TIP3   OH232474   3.760   7.918  16.998
 2760TIP3    H132475   3.724   7.839  17.055
 2760TIP3    H232476   3.867   7.897  17.003
 2761TIP3   OH232477   2.182   7.444  18.783
 2761TIP3    H132478   2.152   7.341  18.784
 2761TIP3    H232479   2.123   7.481  18.708
 2762TIP3   OH232480   2.943   7.442  18.698
 2762TIP3    H132481   2.914   7.505  18.622
 2762TIP3    H232482   2.919   7.343  18.666
 2763TIP3   OH232483   3.385   7.604  17.044
 2763TIP3    H132484   3.319   7.652  17.109
 2763TIP3    H232485   3.347   7.640  16.960
 2764TIP3   OH232486   3.568   7.424  18.469
 2764TIP3    H132487   3.662   7.478  18.463
 2764TIP3    H232488   3.505   7.510  18.482
 2765TIP3   OH232489   2.331   7.140  18.762
 2765TIP3    H132490   2.391   7.054  18.762
 2765TIP3    H232491   2.367   7.197  18.839
 2766TIP3   OH232492   2.719   7.030  18.417
 2766TIP3    H132493   2.664   7.121  18.426
 2766TIP3    H232494   2.807   7.069  18.373
 2767TIP3   OH232495   3.342   7.328  18.794
 2767TIP3    H132496   3.398   7.275  18.727
 2767TIP3    H232497   3.308   7.251  18.854
 2768TIP3   OH232498   2.815   6.773  18.527
 2768TIP3    H132499   2.818   6.697  18.456
 2768TIP3    H232500   2.803   6.863  18.473
 2769TIP3   OH232501   2.837   6.544  18.347
 2769TIP3    H132502   2.896   6.607  18.285
 2769TIP3    H232503   2.746   6.536  18.296
 2770TIP3   OH232504   2.985   7.164  18.313
 2770TIP3    H132505   3.086   7.196  18.326
 2770TIP3    H232506   2.938   7.256  18.282
 2771TIP3   OH232507   3.486   6.891  18.809
 2771TIP3    H132508   3.521   6.791  18.805
 2771TIP3    H232509   3.566   6.945  18.849
 2772TIP3   OH232510   3.649   7.253  18.680
 2772TIP3    H132511   3.614   7.316  18.607
 2772TIP3    H232512   3.751   7.244  18.655
 2773TIP3   OH232513   2.649   6.852  18.745
 2773TIP3    H132514   2.550   6.811  18.728
 2773TIP3    H232515   2.704   6.817  18.665
 2774TIP3   OH232516   2.945   6.274  18.350
 2774TIP3    H132517   2.906   6.376  18.356
 2774TIP3    H232518   2.865   6.228  18.302
 2775TIP3   OH232519   3.042   6.755  18.754
 2775TIP3    H132520   2.973   6.722  18.824
 2775TIP3    H232521   2.980   6.738  18.676
 2776TIP3   OH232522   3.353   6.672  18.642
 2776TIP3    H132523   3.252   6.668  18.670
 2776TIP3    H232524   3.400   6.618  18.716
 2777TIP3   OH232525   3.510   6.514  18.816
 2777TIP3    H132526   3.518   6.407  18.816
 2777TIP3    H232527   3.503   6.536  18.912
 2778TIP3   OH232528   2.408   6.675  18.761
 2778TIP3    H132529   2.452   6.588  18.724
 2778TIP3    H232530   2.385   6.644  18.853
 2779TIP3   OH232531   2.944   6.252  18.622
 2779TIP3    H132532   3.018   6.176  18.635
 2779TIP3    H232533   2.944   6.250  18.524
 2780TIP3   OH232534   2.913   6.361  18.878
 2780TIP3    H132535   2.925   6.332  18.784
 2780TIP3    H232536   2.883   6.465  18.869
 2781TIP3   OH232537   2.927   8.213  17.160
 2781TIP3    H132538   3.024   8.258  17.148
 2781TIP3    H232539   2.865   8.278  17.108
 2782TIP3   OH232540   2.091   8.242  17.596
 2782TIP3    H132541   1.994   8.212  17.565
 2782TIP3    H232542   2.092   8.192  17.682
 2783TIP3   OH232543   2.184   8.031  17.814
 2783TIP3    H132544   2.112   7.960  17.848
 2783TIP3    H232545   2.239   8.050  17.896
 2784TIP3   OH232546   4.114   8.150  18.056
 2784TIP3    H132547   4.133   8.216  18.132
 2784TIP3    H232548   4.209   8.146  18.012
 2785TIP3   OH232549   4.047   8.061  18.410
 2785TIP3    H132550   4.023   7.989  18.340
 2785TIP3    H232551   4.080   7.991  18.478
 2786TIP3   OH232552   3.897   7.637  18.843
 2786TIP3    H132553   3.805   7.624  18.893
 2786TIP3    H232554   3.934   7.729  18.882
 2787TIP3   OH232555   4.008   7.453  17.366
 2787TIP3    H132556   4.099   7.503  17.392
 2787TIP3    H232557   4.000   7.384  17.441
 2788TIP3   OH232558   4.073   7.230  17.574
 2788TIP3    H132559   3.981   7.182  17.599
 2788TIP3    H232560   4.122   7.242  17.659
 2789TIP3   OH232561   4.046   7.509  18.045
 2789TIP3    H132562   4.121   7.434  18.028
 2789TIP3    H232563   4.097   7.600  18.023
 2790TIP3   OH232564   3.897   7.828  18.307
 2790TIP3    H132565   3.816   7.876  18.349
 2790TIP3    H232566   3.857   7.816  18.215
 2791TIP3   OH232567   4.094   7.231  17.188
 2791TIP3    H132568   4.052   7.274  17.106
 2791TIP3    H232569   4.071   7.313  17.249
 2792TIP3   OH232570   3.926   6.873  17.087
 2792TIP3    H132571   3.939   6.939  17.012
 2792TIP3    H232572   3.920   6.776  17.050
 2793TIP3   OH232573   3.836   7.068  17.651
 2793TIP3    H132574   3.843   6.966  17.622
 2793TIP3    H232575   3.817   7.061  17.747
 2794TIP3   OH232576   2.171   7.314  18.058
 2794TIP3    H132577   2.180   7.275  17.966
 2794TIP3    H232578   2.268   7.284  18.093
 2795TIP3   OH232579   3.958   7.269  18.607
 2795TIP3    H132580   4.017   7.179  18.620
 2795TIP3    H232581   4.030   7.345  18.590
 2796TIP3   OH232582   4.079   7.002  18.645
 2796TIP3    H132583   3.977   6.964  18.642
 2796TIP3    H232584   4.139   6.915  18.666
 2797TIP3   OH232585   3.913   6.856  18.018
 2797TIP3    H132586   4.019   6.870  18.035
 2797TIP3    H232587   3.878   6.853  18.110
 2798TIP3   OH232588   3.871   6.936  18.274
 2798TIP3    H132589   3.788   6.977  18.326
 2798TIP3    H232590   3.933   7.024  18.259
 2799TIP3   OH232591   2.157   6.739  18.639
 2799TIP3    H132592   2.246   6.753  18.692
 2799TIP3    H232593   2.127   6.640  18.664
 2800TIP3   OH232594   4.136   6.332  18.820
 2800TIP3    H132595   4.178   6.248  18.773
 2800TIP3    H232596   4.124   6.403  18.747
 2801TIP3   OH232597   2.285   6.567  18.017
 2801TIP3    H132598   2.340   6.476  17.999
 2801TIP3    H232599   2.359   6.642  18.003
 2802TIP3   OH232600   2.119   6.911  18.064
 2802TIP3    H132601   2.186   6.889  17.990
 2802TIP3    H232602   2.165   6.998  18.099
 2803TIP3   OH232603   4.070   6.548  18.646
 2803TIP3    H132604   3.985   6.579  18.701
 2803TIP3    H232605   4.021   6.489  18.579
 2804TIP3   OH232606   4.120   6.470  17.134
 2804TIP3    H132607   4.194   6.438  17.072
 2804TIP3    H232608   4.162   6.560  17.168
 2805TIP3   OH232609   2.123   6.536  17.475
 2805TIP3    H132610   2.017   6.524  17.485
 2805TIP3    H232611   2.127   6.529  17.378
 2806TIP3   OH232612   3.738   8.155  17.631
 2806TIP3    H132613   3.832   8.122  17.595
 2806TIP3    H232614   3.769   8.203  17.714
 2807TIP3   OH232615   2.137   6.338  18.306
 2807TIP3    H132616   2.054   6.275  18.285
 2807TIP3    H232617   2.135   6.405  18.230
 2808TIP3   OH232618   2.377   7.784  18.682
 2808TIP3    H132619   2.284   7.774  18.636
 2808TIP3    H232620   2.350   7.782  18.775
 2809TIP3   OH232621   2.680   7.923  18.340
 2809TIP3    H132622   2.674   8.031  18.331
 2809TIP3    H232623   2.786   7.916  18.333
 2810TIP3   OH232624   3.170   8.035  18.602
 2810TIP3    H132625   3.159   8.019  18.699
 2810TIP3    H232626   3.258   8.096  18.602
 2811TIP3   OH232627   3.433   8.231  18.568
 2811TIP3    H132628   3.522   8.175  18.551
 2811TIP3    H232629   3.441   8.239  18.665
 2812TIP3   OH232630   3.967   6.279  18.476
 2812TIP3    H132631   3.894   6.321  18.416
 2812TIP3    H232632   3.977   6.178  18.441
 2813TIP3   OH232633   2.404   8.308  18.321
 2813TIP3    H132634   2.310   8.300  18.273
 2813TIP3    H232635   2.371   8.298  18.412
 2814TIP3   OH232636   2.666   8.205  18.274
 2814TIP3    H132637   2.567   8.241  18.301
 2814TIP3    H232638   2.668   8.239  18.181
 2815TIP3   OH232639   3.215   8.191  18.141
 2815TIP3    H132640   3.134   8.202  18.077
 2815TIP3    H232641   3.219   8.287  18.181
 2816TIP3   OH232642   3.398   8.024  18.295
 2816TIP3    H132643   3.326   8.090  18.252
 2816TIP3    H232644   3.490   8.074  18.273
 2817TIP3   OH232645   3.678   8.265  18.277
 2817TIP3    H132646   3.643   8.363  18.256
 2817TIP3    H232647   3.719   8.231  18.190
 2818TIP3   OH232648   2.365   8.055  18.039
 2818TIP3    H132649   2.339   8.011  18.126
 2818TIP3    H232650   2.452   8.000  18.011
 2819TIP3   OH232651   2.602   7.978  17.904
 2819TIP3    H132652   2.596   7.871  17.916
 2819TIP3    H232653   2.699   7.994  17.944
 2820TIP3   OH232654   2.850   7.970  18.032
 2820TIP3    H132655   2.873   7.865  18.023
 2820TIP3    H232656   2.880   7.993  18.123
 2821TIP3   OH232657   3.183   6.425  17.852
 2821TIP3    H132658   3.105   6.375  17.903
 2821TIP3    H232659   3.233   6.341  17.814
 2822TIP3   OH232660   3.808   6.203  17.850
 2822TIP3    H132661   3.900   6.250  17.824
 2822TIP3    H232662   3.782   6.142  17.773
 2823TIP3   OH232663   2.411   6.300  17.676
 2823TIP3    H132664   2.321   6.293  17.624
 2823TIP3    H232665   2.453   6.202  17.661
 2824TIP3   OH232666   2.797   6.277  17.675
 2824TIP3    H132667   2.868   6.296  17.604
 2824TIP3    H232668   2.853   6.301  17.755
 2825TIP3   OH232669   2.222   8.030  17.325
 2825TIP3    H132670   2.118   8.031  17.309
 2825TIP3    H232671   2.237   8.129  17.358
 2826TIP3   OH232672   2.476   6.558  17.119
 2826TIP3    H132673   2.462   6.460  17.084
 2826TIP3    H232674   2.571   6.548  17.163
 2827TIP3   OH232675   3.018   6.549  17.283
 2827TIP3    H132676   3.010   6.455  17.326
 2827TIP3    H232677   3.033   6.619  17.357
 2828TIP3   OH232678   3.969   8.094  17.492
 2828TIP3    H132679   3.948   7.993  17.460
 2828TIP3    H232680   3.946   8.146  17.408
 2829TIP3   OH232681   2.343   6.340  18.612
 2829TIP3    H132682   2.333   6.237  18.639
 2829TIP3    H232683   2.421   6.367  18.675
 2830TIP3   OH232684   2.584   6.285  18.805
 2830TIP3    H132685   2.690   6.277  18.792
 2830TIP3    H232686   2.567   6.189  18.846
 2831TIP3   OH232687   3.520   6.223  18.801
 2831TIP3    H132688   3.518   6.142  18.866
 2831TIP3    H232689   3.622   6.216  18.769
 2832TIP3   OH232690   3.851   7.965  18.672
 2832TIP3    H132691   3.759   7.967  18.621
 2832TIP3    H232692   3.869   8.069  18.683
 2833TIP3   OH232693   4.516   7.194  18.147
 2833TIP3    H132694   4.509   7.102  18.198
 2833TIP3    H232695   4.553   7.259  18.218
 2834TIP3   OH232696   5.728   7.521  17.863
 2834TIP3    H132697   5.705   7.434  17.918
 2834TIP3    H232698   5.731   7.594  17.932
 2835TIP3   OH232699   4.580   7.701  17.963
 2835TIP3    H132700   4.555   7.598  17.949
 2835TIP3    H232701   4.685   7.688  17.977
 2836TIP3   OH232702   4.212   6.933  17.550
 2836TIP3    H132703   4.183   7.037  17.550
 2836TIP3    H232704   4.148   6.896  17.481
 2837TIP3   OH232705   4.325   7.225  17.797
 2837TIP3    H132706   4.364   7.124  17.809
 2837TIP3    H232707   4.368   7.260  17.715
 2838TIP3   OH232708   5.406   8.095  17.841
 2838TIP3    H132709   5.503   8.049  17.824
 2838TIP3    H232710   5.355   8.017  17.886
 2839TIP3   OH232711   5.138   7.467  18.091
 2839TIP3    H132712   5.178   7.491  18.005
 2839TIP3    H232713   5.225   7.489  18.146
 2840TIP3   OH232714   6.101   6.537  18.124
 2840TIP3    H132715   6.109   6.608  18.198
 2840TIP3    H232716   6.192   6.559  18.077
 2841TIP3   OH232717   5.548   6.884  18.095
 2841TIP3    H132718   5.567   6.779  18.115
 2841TIP3    H232719   5.541   6.877  17.997
 2842TIP3   OH232720   4.753   6.652  17.780
 2842TIP3    H132721   4.705   6.724  17.724
 2842TIP3    H232722   4.749   6.566  17.721
 2843TIP3   OH232723   5.620   6.672  17.649
 2843TIP3    H132724   5.673   6.637  17.729
 2843TIP3    H232725   5.695   6.732  17.609
 2844TIP3   OH232726   4.413   6.955  17.881
 2844TIP3    H132727   4.468   6.882  17.932
 2844TIP3    H232728   4.417   6.912  17.792
 2845TIP3   OH232729   6.126   6.709  18.341
 2845TIP3    H132730   6.090   6.800  18.299
 2845TIP3    H232731   6.129   6.741  18.433
 2846TIP3   OH232732   4.640   6.548  18.218
 2846TIP3    H132733   4.606   6.606  18.141
 2846TIP3    H232734   4.567   6.578  18.287
 2847TIP3   OH232735   4.878   7.379  18.206
 2847TIP3    H132736   4.827   7.461  18.250
 2847TIP3    H232737   4.963   7.431  18.167
 2848TIP3   OH232738   5.790   6.613  17.856
 2848TIP3    H132739   5.797   6.531  17.916
 2848TIP3    H232740   5.878   6.667  17.878
 2849TIP3   OH232741   4.600   6.758  18.008
 2849TIP3    H132742   4.673   6.813  18.061
 2849TIP3    H232743   4.661   6.727  17.931
 2850TIP3   OH232744   4.753   7.632  18.303
 2850TIP3    H132745   4.740   7.729  18.266
 2850TIP3    H232746   4.656   7.611  18.342
 2851TIP3   OH232747   4.319   7.542  17.427
 2851TIP3    H132748   4.303   7.609  17.354
 2851TIP3    H232749   4.327   7.610  17.501
 2852TIP3   OH232750   5.799   7.798  18.108
 2852TIP3    H132751   5.693   7.791  18.109
 2852TIP3    H232752   5.812   7.858  18.030
 2853TIP3   OH232753   5.795   6.481  18.196
 2853TIP3    H132754   5.720   6.532  18.142
 2853TIP3    H232755   5.886   6.503  18.149
 2854TIP3   OH232756   5.031   6.273  17.932
 2854TIP3    H132757   4.990   6.178  17.941
 2854TIP3    H232758   4.944   6.332  17.962
 2855TIP3   OH232759   5.651   7.957  17.753
 2855TIP3    H132760   5.635   7.864  17.708
 2855TIP3    H232761   5.732   7.998  17.699
 2856TIP3   OH232762   5.766   7.716  17.574
 2856TIP3    H132763   5.717   7.660  17.505
 2856TIP3    H232764   5.746   7.649  17.648
 2857TIP3   OH232765   5.907   7.566  18.439
 2857TIP3    H132766   5.917   7.483  18.377
 2857TIP3    H232767   5.939   7.647  18.380
 2858TIP3   OH232768   6.149   7.180  18.231
 2858TIP3    H132769   6.079   7.261  18.238
 2858TIP3    H232770   6.212   7.219  18.159
 2859TIP3   OH232771   5.694   7.162  17.523
 2859TIP3    H132772   5.653   7.259  17.531
 2859TIP3    H232773   5.782   7.163  17.580
 2860TIP3   OH232774   5.710   7.058  18.415
 2860TIP3    H132775   5.694   7.146  18.466
 2860TIP3    H232776   5.631   7.065  18.350
 2861TIP3   OH232777   4.914   7.681  17.975
 2861TIP3    H132778   4.913   7.690  17.876
 2861TIP3    H232779   5.008   7.635  17.995
 2862TIP3   OH232780   4.841   7.150  18.052
 2862TIP3    H132781   4.841   7.197  17.966
 2862TIP3    H232782   4.852   7.234  18.113
 2863TIP3   OH232783   5.508   7.794  18.124
 2863TIP3    H132784   5.462   7.875  18.172
 2863TIP3    H232785   5.469   7.709  18.172
 2864TIP3   OH232786   4.927   7.647  18.522
 2864TIP3    H132787   4.857   7.714  18.565
 2864TIP3    H232788   4.881   7.638  18.434
 2865TIP3   OH232789   4.595   7.267  18.415
 2865TIP3    H132790   4.605   7.349  18.477
 2865TIP3    H232791   4.524   7.208  18.467
 2866TIP3   OH232792   4.732   7.861  18.601
 2866TIP3    H132793   4.726   7.869  18.503
 2866TIP3    H232794   4.631   7.830  18.623
 2867TIP3   OH232795   4.601   7.192  17.501
 2867TIP3    H132796   4.596   7.264  17.431
 2867TIP3    H232797   4.593   7.101  17.452
 2868TIP3   OH232798   4.250   7.490  18.353
 2868TIP3    H132799   4.199   7.467  18.271
 2868TIP3    H232800   4.291   7.393  18.375
 2869TIP3   OH232801   4.239   7.765  18.011
 2869TIP3    H132802   4.343   7.743  17.995
 2869TIP3    H232803   4.244   7.857  18.058
 2870TIP3   OH232804   6.185   7.854  18.629
 2870TIP3    H132805   6.161   7.750  18.632
 2870TIP3    H232806   6.089   7.894  18.658
 2871TIP3   OH232807   5.196   7.786  18.465
 2871TIP3    H132808   5.210   7.882  18.509
 2871TIP3    H232809   5.101   7.753  18.499
 2872TIP3   OH232810   5.240   8.181  17.423
 2872TIP3    H132811   5.346   8.171  17.410
 2872TIP3    H232812   5.235   8.202  17.517
 2873TIP3   OH232813   4.586   8.016  17.666
 2873TIP3    H132814   4.619   8.029  17.759
 2873TIP3    H232815   4.506   7.948  17.680
 2874TIP3   OH232816   5.588   8.128  17.184
 2874TIP3    H132817   5.651   8.085  17.117
 2874TIP3    H232818   5.608   8.067  17.262
 2875TIP3   OH232819   5.533   8.071  17.463
 2875TIP3    H132820   5.492   8.057  17.551
 2875TIP3    H232821   5.598   7.987  17.460
 2876TIP3   OH232822   5.875   6.899  18.636
 2876TIP3    H132823   5.815   6.942  18.566
 2876TIP3    H232824   5.874   6.795  18.611
 2877TIP3   OH232825   4.500   7.609  18.436
 2877TIP3    H132826   4.503   7.565  18.526
 2877TIP3    H232827   4.400   7.583  18.409
 2878TIP3   OH232828   4.770   6.377  18.026
 2878TIP3    H132829   4.672   6.358  17.992
 2878TIP3    H232830   4.745   6.436  18.105
 2879TIP3   OH232831   5.306   6.262  18.339
 2879TIP3    H132832   5.338   6.257  18.431
 2879TIP3    H232833   5.201   6.284  18.346
 2880TIP3   OH232834   5.601   6.775  18.491
 2880TIP3    H132835   5.535   6.733  18.561
 2880TIP3    H232836   5.570   6.877  18.488
 2881TIP3   OH232837   4.795   6.891  18.168
 2881TIP3    H132838   4.719   6.916  18.234
 2881TIP3    H232839   4.801   6.985  18.118
 2882TIP3   OH232840   5.398   6.995  17.519
 2882TIP3    H132841   5.420   7.092  17.486
 2882TIP3    H232842   5.463   6.933  17.466
 2883TIP3   OH232843   5.277   6.997  18.666
 2883TIP3    H132844   5.240   6.903  18.697
 2883TIP3    H232845   5.359   7.014  18.727
 2884TIP3   OH232846   5.524   6.912  17.819
 2884TIP3    H132847   5.506   7.000  17.767
 2884TIP3    H232848   5.516   6.835  17.751
 2885TIP3   OH232849   4.519   6.915  18.289
 2885TIP3    H132850   4.571   6.942  18.370
 2885TIP3    H232851   4.488   6.813  18.311
 2886TIP3   OH232852   4.864   6.698  17.010
 2886TIP3    H132853   4.847   6.635  17.087
 2886TIP3    H232854   4.928   6.634  16.956
 2887TIP3   OH232855   4.135   6.597  17.739
 2887TIP3    H132856   4.213   6.580  17.803
 2887TIP3    H232857   4.176   6.566  17.653
 2888TIP3   OH232858   4.261   6.704  17.248
 2888TIP3    H132859   4.351   6.754  17.219
 2888TIP3    H232860   4.199   6.788  17.270
 2889TIP3   OH232861   5.466   7.119  18.246
 2889TIP3    H132862   5.487   7.032  18.191
 2889TIP3    H232863   5.388   7.080  18.303
 2890TIP3   OH232864   5.060   6.643  17.756
 2890TIP3    H132865   4.953   6.657  17.770
 2890TIP3    H232866   5.097   6.678  17.841
 2891TIP3   OH232867   4.503   6.816  17.637
 2891TIP3    H132868   4.418   6.852  17.588
 2891TIP3    H232869   4.503   6.712  17.609
 2892TIP3   OH232870   4.910   6.823  17.375
 2892TIP3    H132871   4.996   6.882  17.395
 2892TIP3    H232872   4.843   6.893  17.335
 2893TIP3   OH232873   5.554   6.588  18.066
 2893TIP3    H132874   5.474   6.577  18.131
 2893TIP3    H232875   5.504   6.566  17.982
 2894TIP3   OH232876   4.754   6.959  17.156
 2894TIP3    H132877   4.717   6.871  17.114
 2894TIP3    H232878   4.843   6.966  17.104
 2895TIP3   OH232879   5.843   8.284  18.702
 2895TIP3    H132880   5.864   8.311  18.610
 2895TIP3    H232881   5.942   8.293  18.741
 2896TIP3   OH232882   4.541   7.428  18.667
 2896TIP3    H132883   4.616   7.464  18.729
 2896TIP3    H232884   4.455   7.412  18.726
 2897TIP3   OH232885   5.204   6.910  17.904
 2897TIP3    H132886   5.309   6.891  17.905
 2897TIP3    H232887   5.173   6.863  17.986
 2898TIP3   OH232888   4.613   6.515  17.567
 2898TIP3    H132889   4.540   6.458  17.616
 2898TIP3    H232890   4.657   6.443  17.511
 2899TIP3   OH232891   5.042   6.742  18.155
 2899TIP3    H132892   4.962   6.813  18.167
 2899TIP3    H232893   5.119   6.783  18.210
 2900TIP3   OH232894   5.941   7.391  18.234
 2900TIP3    H132895   6.001   7.446  18.169
 2900TIP3    H232896   5.852   7.382  18.182
 2901TIP3   OH232897   5.480   6.676  17.149
 2901TIP3    H132898   5.425   6.752  17.105
 2901TIP3    H232899   5.553   6.733  17.198
 2902TIP3   OH232900   5.240   7.487  18.463
 2902TIP3    H132901   5.239   7.458  18.556
 2902TIP3    H232902   5.217   7.591  18.470
 2903TIP3   OH232903   5.622   6.868  17.336
 2903TIP3    H132904   5.694   6.846  17.407
 2903TIP3    H232905   5.680   6.936  17.284
 2904TIP3   OH232906   4.616   7.409  17.919
 2904TIP3    H132907   4.600   7.373  17.829
 2904TIP3    H232908   4.597   7.322  17.974
 2905TIP3   OH232909   4.260   7.205  18.461
 2905TIP3    H132910   4.249   7.137  18.537
 2905TIP3    H232911   4.201   7.158  18.392
 2906TIP3   OH232912   5.023   7.150  18.633
 2906TIP3    H132913   4.971   7.081  18.578
 2906TIP3    H232914   5.123   7.107  18.637
 2907TIP3   OH232915   5.555   7.730  18.485
 2907TIP3    H132916   5.466   7.757  18.441
 2907TIP3    H232917   5.544   7.784  18.569
 2908TIP3   OH232918   6.132   6.899  17.346
 2908TIP3    H132919   6.135   6.838  17.267
 2908TIP3    H232920   6.144   6.999  17.308
 2909TIP3   OH232921   6.169   7.541  18.579
 2909TIP3    H132922   6.067   7.554  18.549
 2909TIP3    H232923   6.219   7.542  18.493
 2910TIP3   OH232924   5.996   7.807  17.319
 2910TIP3    H132925   5.930   7.739  17.365
 2910TIP3    H232926   5.988   7.775  17.227
 2911TIP3   OH232927   5.678   7.296  18.049
 2911TIP3    H132928   5.611   7.236  18.102
 2911TIP3    H232929   5.735   7.223  18.001
 2912TIP3   OH232930   4.863   7.744  17.717
 2912TIP3    H132931   4.950   7.759  17.661
 2912TIP3    H232932   4.783   7.780  17.662
 2913TIP3   OH232933   4.456   7.216  17.060
 2913TIP3    H132934   4.480   7.288  17.128
 2913TIP3    H232935   4.353   7.198  17.078
 2914TIP3   OH232936   5.061   7.967  18.296
 2914TIP3    H132937   5.119   8.056  18.279
 2914TIP3    H232938   5.136   7.905  18.340
 2915TIP3   OH232939   4.851   8.051  17.534
 2915TIP3    H132940   4.759   8.042  17.585
 2915TIP3    H232941   4.910   8.108  17.597
 2916TIP3   OH232942   5.391   7.528  18.230
 2916TIP3    H132943   5.344   7.504  18.317
 2916TIP3    H232944   5.469   7.456  18.230
 2917TIP3   OH232945   5.730   8.028  18.474
 2917TIP3    H132946   5.644   7.972  18.442
 2917TIP3    H232947   5.747   8.099  18.402
 2918TIP3   OH232948   6.246   8.120  17.149
 2918TIP3    H132949   6.294   8.210  17.125
 2918TIP3    H232950   6.153   8.161  17.185
 2919TIP3   OH232951   4.454   6.644  18.409
 2919TIP3    H132952   4.365   6.689  18.443
 2919TIP3    H232953   4.455   6.554  18.463
 2920TIP3   OH232954   5.813   7.476  17.364
 2920TIP3    H132955   5.796   7.377  17.390
 2920TIP3    H232956   5.922   7.478  17.353
 2921TIP3   OH232957   4.411   7.895  18.268
 2921TIP3    H132958   4.446   7.796  18.265
 2921TIP3    H232959   4.483   7.939  18.328
 2922TIP3   OH232960   4.989   7.812  16.980
 2922TIP3    H132961   5.082   7.769  16.960
 2922TIP3    H232962   4.974   7.787  17.073
 2923TIP3   OH232963   4.884   7.703  17.223
 2923TIP3    H132964   4.970   7.674  17.274
 2923TIP3    H232965   4.877   7.808  17.249
 2924TIP3   OH232966   4.556   7.410  17.278
 2924TIP3    H132967   4.466   7.443  17.322
 2924TIP3    H232968   4.607   7.500  17.256
 2925TIP3   OH232969   5.387   6.604  18.330
 2925TIP3    H132970   5.478   6.637  18.371
 2925TIP3    H232971   5.369   6.509  18.370
 2926TIP3   OH232972   5.511   6.543  17.438
 2926TIP3    H132973   5.501   6.635  17.391
 2926TIP3    H232974   5.551   6.581  17.524
 2927TIP3   OH232975   5.216   6.728  17.524
 2927TIP3    H132976   5.253   6.828  17.536
 2927TIP3    H232977   5.150   6.714  17.600
 2928TIP3   OH232978   5.295   6.884  18.404
 2928TIP3    H132979   5.298   6.905  18.500
 2928TIP3    H232980   5.322   6.779  18.397
 2929TIP3   OH232981   5.271   6.388  17.556
 2929TIP3    H132982   5.233   6.461  17.617
 2929TIP3    H232983   5.363   6.437  17.530
 2930TIP3   OH232984   4.893   7.997  17.280
 2930TIP3    H132985   4.815   8.065  17.262
 2930TIP3    H232986   4.890   8.006  17.379
 2931TIP3   OH232987   4.803   6.557  17.247
 2931TIP3    H132988   4.788   6.639  17.308
 2931TIP3    H232989   4.902   6.526  17.273
 2932TIP3   OH232990   5.877   6.636  18.506
 2932TIP3    H132991   5.775   6.665  18.486
 2932TIP3    H232992   5.927   6.643  18.420
 2933TIP3   OH232993   5.781   7.042  17.893
 2933TIP3    H132994   5.699   6.973  17.885
 2933TIP3    H232995   5.856   6.983  17.938
 2934TIP3   OH232996   5.891   8.115  18.093
 2934TIP3    H132997   5.892   8.163  18.005
 2934TIP3    H232998   5.995   8.087  18.097
 2935TIP3   OH232999   4.480   6.317  17.976
 2935TIP3    H133000   4.475   6.307  17.878
 2935TIP3    H233001   4.456   6.216  18.004
 2936TIP3   OH233002   4.345   7.831  17.555
 2936TIP3    H133003   4.259   7.884  17.583
 2936TIP3    H233004   4.366   7.885  17.472
 2937TIP3   OH233005   4.296   8.149  18.693
 2937TIP3    H133006   4.394   8.141  18.730
 2937TIP3    H233007   4.261   8.048  18.699
 2938TIP3   OH233008   4.832   7.966  18.848
 2938TIP3    H133009   4.937   7.986  18.853
 2938TIP3    H233010   4.817   7.943  18.753
 2939TIP3   OH233011   5.511   7.859  18.734
 2939TIP3    H133012   5.470   7.764  18.761
 2939TIP3    H233013   5.598   7.863  18.789
 2940TIP3   OH233014   4.260   7.446  18.782
 2940TIP3    H133015   4.220   7.348  18.790
 2940TIP3    H233016   4.202   7.484  18.707
 2941TIP3   OH233017   5.010   7.437  18.691
 2941TIP3    H133018   4.983   7.503  18.616
 2941TIP3    H233019   4.990   7.338  18.655
 2942TIP3   OH233020   5.632   7.431  18.479
 2942TIP3    H133021   5.721   7.492  18.473
 2942TIP3    H233022   5.561   7.511  18.488
 2943TIP3   OH233023   4.415   7.119  18.729
 2943TIP3    H133024   4.397   7.021  18.760
 2943TIP3    H233025   4.453   7.173  18.807
 2944TIP3   OH233026   4.785   7.037  18.410
 2944TIP3    H133027   4.742   7.137  18.408
 2944TIP3    H233028   4.883   7.061  18.375
 2945TIP3   OH233029   5.416   7.334  18.806
 2945TIP3    H133030   5.507   7.281  18.786
 2945TIP3    H233031   5.370   7.267  18.869
 2946TIP3   OH233032   4.897   6.761  18.528
 2946TIP3    H133033   4.892   6.680  18.462
 2946TIP3    H233034   4.862   6.843  18.475
 2947TIP3   OH233035   4.908   6.546  18.326
 2947TIP3    H133036   4.960   6.595  18.252
 2947TIP3    H233037   4.806   6.548  18.295
 2948TIP3   OH233038   5.047   7.180  18.324
 2948TIP3    H133039   5.135   7.237  18.314
 2948TIP3    H233040   4.980   7.244  18.274
 2949TIP3   OH233041   5.567   6.898  18.830
 2949TIP3    H133042   5.597   6.797  18.816
 2949TIP3    H233043   5.660   6.950  18.836
 2950TIP3   OH233044   5.723   7.251  18.681
 2950TIP3    H133045   5.681   7.312  18.609
 2950TIP3    H233046   5.828   7.251  18.658
 2951TIP3   OH233047   4.712   6.854  18.761
 2951TIP3    H133048   4.620   6.805  18.738
 2951TIP3    H233049   4.772   6.833  18.682
 2952TIP3   OH233050   5.009   6.273  18.332
 2952TIP3    H133051   4.978   6.377  18.341
 2952TIP3    H233052   4.917   6.230  18.304
 2953TIP3   OH233053   5.133   6.730  18.732
 2953TIP3    H133054   5.064   6.709  18.805
 2953TIP3    H233055   5.064   6.732  18.657
 2954TIP3   OH233056   5.412   6.658  18.655
 2954TIP3    H133057   5.314   6.673  18.694
 2954TIP3    H233058   5.459   6.598  18.724
 2955TIP3   OH233059   5.597   6.512  18.828
 2955TIP3    H133060   5.601   6.404  18.822
 2955TIP3    H233061   5.585   6.530  18.924
 2956TIP3   OH233062   4.480   6.639  18.761
 2956TIP3    H133063   4.453   6.550  18.711
 2956TIP3    H233064   4.457   6.608  18.854
 2957TIP3   OH233065   5.012   6.237  18.634
 2957TIP3    H133066   5.099   6.175  18.641
 2957TIP3    H233067   4.997   6.224  18.538
 2958TIP3   OH233068   5.036   6.384  18.872
 2958TIP3    H133069   5.013   6.344  18.783
 2958TIP3    H233070   4.976   6.475  18.875
 2959TIP3   OH233071   4.167   8.268  17.619
 2959TIP3    H133072   4.084   8.214  17.577
 2959TIP3    H233073   4.177   8.207  17.699
 2960TIP3   OH233074   4.270   8.033  17.816
 2960TIP3    H133075   4.194   7.966  17.849
 2960TIP3    H233076   4.342   8.035  17.889
 2961TIP3   OH233077   6.192   8.121  18.063
 2961TIP3    H133078   6.216   8.191  18.135
 2961TIP3    H233079   6.256   8.152  17.990
 2962TIP3   OH233080   6.118   8.062  18.402
 2962TIP3    H133081   6.087   7.985  18.339
 2962TIP3    H233082   6.175   8.000  18.462
 2963TIP3   OH233083   5.976   7.608  18.848
 2963TIP3    H133084   5.878   7.605  18.890
 2963TIP3    H233085   6.013   7.703  18.878
 2964TIP3   OH233086   6.103   7.436  17.371
 2964TIP3    H133087   6.192   7.498  17.382
 2964TIP3    H233088   6.110   7.378  17.452
 2965TIP3   OH233089   6.148   7.224  17.564
 2965TIP3    H133090   6.064   7.168  17.599
 2965TIP3    H233091   6.199   7.252  17.645
 2966TIP3   OH233092   6.110   7.513  18.052
 2966TIP3    H133093   6.186   7.438  18.038
 2966TIP3    H233094   6.156   7.601  18.013
 2967TIP3   OH233095   5.976   7.820  18.311
 2967TIP3    H133096   5.908   7.876  18.366
 2967TIP3    H233097   5.920   7.811  18.227
 2968TIP3   OH233098   6.152   7.168  17.254
 2968TIP3    H133099   6.105   7.240  17.199
 2968TIP3    H233100   6.195   7.235  17.320
 2969TIP3   OH233101   5.932   7.066  17.659
 2969TIP3    H133102   5.896   6.969  17.638
 2969TIP3    H233103   5.899   7.076  17.752
 2970TIP3   OH233104   4.263   7.294  18.050
 2970TIP3    H133105   4.278   7.272  17.954
 2970TIP3    H233106   4.360   7.269  18.084
 2971TIP3   OH233107   6.031   7.269  18.605
 2971TIP3    H133108   6.087   7.175  18.618
 2971TIP3    H233109   6.106   7.345  18.590
 2972TIP3   OH233110   6.147   6.998  18.622
 2972TIP3    H133111   6.046   6.961  18.629
 2972TIP3    H233112   6.206   6.912  18.647
 2973TIP3   OH233113   5.872   6.795  17.500
 2973TIP3    H133114   5.898   6.690  17.510
 2973TIP3    H233115   5.963   6.828  17.459
 2974TIP3   OH233116   5.982   6.853  18.033
 2974TIP3    H133117   6.089   6.867  18.047
 2974TIP3    H233118   5.947   6.867  18.124
 2975TIP3   OH233119   5.959   6.942  18.293
 2975TIP3    H133120   5.865   6.979  18.329
 2975TIP3    H233121   6.016   7.035  18.283
 2976TIP3   OH233122   4.249   6.772  18.664
 2976TIP3    H133123   4.341   6.727  18.698
 2976TIP3    H233124   4.184   6.686  18.660
 2977TIP3   OH233125   6.227   6.325  18.823
 2977TIP3    H133126   6.273   6.240  18.781
 2977TIP3    H233127   6.200   6.387  18.747
 2978TIP3   OH233128   5.946   6.504  17.499
 2978TIP3    H133129   5.984   6.464  17.584
 2978TIP3    H233130   5.888   6.421  17.463
 2979TIP3   OH233131   4.343   6.584  17.979
 2979TIP3    H133132   4.389   6.487  17.985
 2979TIP3    H233133   4.428   6.648  17.981
 2980TIP3   OH233134   4.202   6.915  18.062
 2980TIP3    H133135   4.270   6.898  17.987
 2980TIP3    H233136   4.246   7.004  18.094
 2981TIP3   OH233137   6.123   6.530  18.638
 2981TIP3    H133138   6.023   6.569  18.635
 2981TIP3    H233139   6.118   6.460  18.565
 2982TIP3   OH233140   6.114   6.489  17.144
 2982TIP3    H133141   6.100   6.522  17.052
 2982TIP3    H233142   6.172   6.567  17.182
 2983TIP3   OH233143   4.210   6.526  17.469
 2983TIP3    H133144   4.107   6.545  17.456
 2983TIP3    H233145   4.246   6.536  17.378
 2984TIP3   OH233146   5.839   8.127  17.621
 2984TIP3    H133147   5.929   8.097  17.575
 2984TIP3    H233148   5.877   8.181  17.698
 2985TIP3   OH233149   4.199   6.339  18.291
 2985TIP3    H133150   4.132   6.304  18.360
 2985TIP3    H233151   4.137   6.406  18.238
 2986TIP3   OH233152   4.452   7.786  18.682
 2986TIP3    H133153   4.356   7.786  18.639
 2986TIP3    H233154   4.428   7.801  18.774
 2987TIP3   OH233155   4.767   7.930  18.347
 2987TIP3    H133156   4.751   8.038  18.342
 2987TIP3    H233157   4.873   7.929  18.332
 2988TIP3   OH233158   5.241   8.034  18.604
 2988TIP3    H133159   5.234   8.017  18.701
 2988TIP3    H233160   5.331   8.095  18.599
 2989TIP3   OH233161   5.499   8.239  18.561
 2989TIP3    H133162   5.580   8.170  18.549
 2989TIP3    H233163   5.509   8.255  18.659
 2990TIP3   OH233164   6.058   6.288  18.468
 2990TIP3    H133165   5.977   6.333  18.420
 2990TIP3    H233166   6.067   6.191  18.425
 2991TIP3   OH233167   4.457   8.316  18.323
 2991TIP3    H133168   4.360   8.324  18.279
 2991TIP3    H233169   4.431   8.283  18.412
 2992TIP3   OH233170   4.721   8.212  18.278
 2992TIP3    H133171   4.629   8.264  18.302
 2992TIP3    H233172   4.732   8.240  18.185
 2993TIP3   OH233173   5.272   8.199  18.154
 2993TIP3    H133174   5.194   8.219  18.090
 2993TIP3    H233175   5.278   8.294  18.201
 2994TIP3   OH233176   5.474   8.038  18.292
 2994TIP3    H133177   5.396   8.096  18.248
 2994TIP3    H233178   5.556   8.105  18.278
 2995TIP3   OH233179   5.739   8.261  18.276
 2995TIP3    H133180   5.719   8.362  18.252
 2995TIP3    H233181   5.790   8.225  18.195
 2996TIP3   OH233182   4.432   8.044  18.043
 2996TIP3    H133183   4.420   7.986  18.127
 2996TIP3    H233184   4.525   8.007  18.008
 2997TIP3   OH233185   4.676   7.993  17.909
 2997TIP3    H133186   4.655   7.889  17.929
 2997TIP3    H233187   4.778   7.997  17.943
 2998TIP3   OH233188   4.930   7.979  18.037
 2998TIP3    H133189   4.959   7.879  18.014
 2998TIP3    H233190   4.959   7.987  18.131
 2999TIP3   OH233191   5.309   6.472  17.886
 2999TIP3    H133192   5.206   6.439  17.890
 2999TIP3    H233193   5.355   6.385  17.851
 3000TIP3   OH233194   5.892   6.222  17.879
 3000TIP3    H133195   5.968   6.287  17.839
 3000TIP3    H233196   5.804   6.272  17.850
 3001TIP3   OH233197   6.069   6.380  17.726
 3001TIP3    H133198   6.128   6.317  17.667
 3001TIP3    H233199   6.138   6.460  17.746
 3002TIP3   OH233200   4.456   6.298  17.694
 3002TIP3    H133201   4.366   6.283  17.643
 3002TIP3    H233202   4.508   6.205  17.673
 3003TIP3   OH233203   4.953   6.296  17.657
 3003TIP3    H133204   5.041   6.280  17.605
 3003TIP3    H233205   4.990   6.289  17.748
 3004TIP3   OH233206   5.602   6.271  17.788
 3004TIP3    H133207   5.604   6.356  17.731
 3004TIP3    H233208   5.652   6.193  17.737
 3005TIP3   OH233209   5.764   6.287  17.409
 3005TIP3    H133210   5.674   6.343  17.413
 3005TIP3    H233211   5.723   6.188  17.414
 3006TIP3   OH233212   4.323   8.021  17.352
 3006TIP3    H133213   4.222   8.020  17.319
 3006TIP3    H233214   4.354   8.117  17.317
 3007TIP3   OH233215   4.508   6.459  17.111
 3007TIP3    H133216   4.591   6.420  17.063
 3007TIP3    H233217   4.556   6.532  17.164
 3008TIP3   OH233218   5.102   6.508  17.318
 3008TIP3    H133219   5.137   6.476  17.404
 3008TIP3    H233220   5.096   6.613  17.334
 3009TIP3   OH233221   6.050   8.076  17.442
 3009TIP3    H133222   6.031   7.987  17.388
 3009TIP3    H233223   6.025   8.153  17.377
 3010TIP3   OH233224   4.437   6.370  18.620
 3010TIP3    H133225   4.381   6.280  18.628
 3010TIP3    H233226   4.520   6.351  18.683
 3011TIP3   OH233227   4.656   6.278  18.800
 3011TIP3    H133228   4.761   6.258  18.784
 3011TIP3    H233229   4.626   6.181  18.833
 3012TIP3   OH233230   5.588   6.210  18.793
 3012TIP3    H133231   5.570   6.142  18.867
 3012TIP3    H233232   5.695   6.194  18.777
 3013TIP3   OH233233   5.922   7.963  18.677
 3013TIP3    H133234   5.839   7.970  18.614
 3013TIP3    H233235   5.950   8.066  18.682
 3014TIP3   OH233236   7.550   7.288  17.646
 3014TIP3    H133237   7.553   7.395  17.654
 3014TIP3    H233238   7.457   7.280  17.602
 3015TIP3   OH233239   7.419   7.165  17.982
 3015TIP3    H133240   7.432   7.131  18.075
 3015TIP3    H233241   7.324   7.130  17.952
 3016TIP3   OH233242   6.557   7.169  18.157
 3016TIP3    H133243   6.573   7.092  18.223
 3016TIP3    H233244   6.636   7.237  18.176
 3017TIP3   OH233245   7.844   7.561  17.878
 3017TIP3    H133246   7.822   7.477  17.933
 3017TIP3    H233247   7.819   7.644  17.935
 3018TIP3   OH233248   6.678   7.679  18.000
 3018TIP3    H133249   6.641   7.583  17.970
 3018TIP3    H233250   6.783   7.660  17.985
 3019TIP3   OH233251   6.321   6.953  17.538
 3019TIP3    H133252   6.281   7.042  17.577
 3019TIP3    H233253   6.256   6.941  17.462
 3020TIP3   OH233254   6.391   7.213  17.811
 3020TIP3    H133255   6.435   7.114  17.821
 3020TIP3    H233256   6.446   7.258  17.739
 3021TIP3   OH233257   7.475   8.107  17.846
 3021TIP3    H133258   7.565   8.052  17.824
 3021TIP3    H233259   7.438   8.049  17.920
 3022TIP3   OH233260   7.228   7.480  18.084
 3022TIP3    H133261   7.262   7.461  17.994
 3022TIP3    H233262   7.321   7.503  18.129
 3023TIP3   OH233263   8.204   6.575  18.086
 3023TIP3    H133264   8.201   6.656  18.149
 3023TIP3    H233265   8.264   6.618  18.016
 3024TIP3   OH233266   7.614   6.859  18.103
 3024TIP3    H133267   7.655   6.758  18.115
 3024TIP3    H233268   7.613   6.862  18.006
 3025TIP3   OH233269   6.844   6.636  17.764
 3025TIP3    H133270   6.852   6.739  17.733
 3025TIP3    H233271   6.780   6.597  17.694
 3026TIP3   OH233272   7.668   6.648  17.663
 3026TIP3    H133273   7.726   6.624  17.743
 3026TIP3    H233274   7.737   6.710  17.615
 3027TIP3   OH233275   6.450   6.922  17.873
 3027TIP3    H133276   6.520   6.875  17.934
 3027TIP3    H233277   6.491   6.889  17.787
 3028TIP3   OH233278   6.995   7.117  17.833
 3028TIP3    H133279   7.086   7.068  17.857
 3028TIP3    H233280   6.956   7.040  17.773
 3029TIP3   OH233281   8.204   6.677  18.376
 3029TIP3    H133282   8.143   6.757  18.341
 3029TIP3    H233283   8.265   6.731  18.438
 3030TIP3   OH233284   6.743   6.535  18.193
 3030TIP3    H133285   6.696   6.595  18.124
 3030TIP3    H233286   6.679   6.556  18.269
 3031TIP3   OH233287   7.493   7.564  17.566
 3031TIP3    H133288   7.475   7.553  17.470
 3031TIP3    H233289   7.464   7.667  17.580
 3032TIP3   OH233290   6.972   7.393  18.188
 3032TIP3    H133291   6.922   7.476  18.231
 3032TIP3    H233292   7.053   7.440  18.139
 3033TIP3   OH233293   7.868   6.636  17.871
 3033TIP3    H133294   7.867   6.534  17.890
 3033TIP3    H233295   7.970   6.664  17.895
 3034TIP3   OH233296   6.681   6.746  17.999
 3034TIP3    H133297   6.752   6.816  18.040
 3034TIP3    H233298   6.735   6.712  17.919
 3035TIP3   OH233299   6.830   7.626  18.300
 3035TIP3    H133300   6.815   7.728  18.271
 3035TIP3    H233301   6.733   7.607  18.342
 3036TIP3   OH233302   6.371   7.556  17.382
 3036TIP3    H133303   6.398   7.613  17.304
 3036TIP3    H233304   6.377   7.630  17.453
 3037TIP3   OH233305   7.857   7.814  18.093
 3037TIP3    H133306   7.751   7.802  18.091
 3037TIP3    H233307   7.864   7.906  18.043
 3038TIP3   OH233308   7.909   6.532  18.206
 3038TIP3    H133309   7.810   6.552  18.170
 3038TIP3    H233310   7.968   6.532  18.125
 3039TIP3   OH233311   7.113   6.253  17.936
 3039TIP3    H133312   7.091   6.149  17.936
 3039TIP3    H233313   7.014   6.291  17.961
 3040TIP3   OH233314   7.692   7.939  17.752
 3040TIP3    H133315   7.715   7.852  17.701
 3040TIP3    H233316   7.757   8.009  17.706
 3041TIP3   OH233317   7.826   7.701  17.578
 3041TIP3    H133318   7.794   7.621  17.522
 3041TIP3    H233319   7.857   7.648  17.658
 3042TIP3   OH233320   7.967   7.560  18.444
 3042TIP3    H133321   7.964   7.483  18.373
 3042TIP3    H233322   8.004   7.641  18.389
 3043TIP3   OH233323   7.381   7.224  17.386
 3043TIP3    H133324   7.326   7.315  17.373
 3043TIP3    H233325   7.473   7.241  17.339
 3044TIP3   OH233326   8.135   7.152  18.214
 3044TIP3    H133327   8.075   7.242  18.221
 3044TIP3    H233328   8.221   7.191  18.166
 3045TIP3   OH233329   7.797   7.247  17.496
 3045TIP3    H133330   7.711   7.266  17.553
 3045TIP3    H233331   7.855   7.184  17.556
 3046TIP3   OH233332   7.774   7.064  18.419
 3046TIP3    H133333   7.729   7.147  18.465
 3046TIP3    H233334   7.713   7.062  18.339
 3047TIP3   OH233335   6.844   7.314  17.680
 3047TIP3    H133336   6.815   7.260  17.599
 3047TIP3    H233337   6.908   7.244  17.725
 3048TIP3   OH233338   6.992   7.681  17.941
 3048TIP3    H133339   7.015   7.711  17.849
 3048TIP3    H233340   7.082   7.642  17.978
 3049TIP3   OH233341   6.860   7.171  18.070
 3049TIP3    H133342   6.896   7.170  17.977
 3049TIP3    H233343   6.920   7.249  18.110
 3050TIP3   OH233344   7.558   7.799  18.104
 3050TIP3    H133345   7.542   7.879  18.168
 3050TIP3    H233346   7.535   7.711  18.158
 3051TIP3   OH233347   6.992   7.667  18.528
 3051TIP3    H133348   6.922   7.737  18.567
 3051TIP3    H233349   6.948   7.651  18.439
 3052TIP3   OH233350   7.649   7.164  17.284
 3052TIP3    H133351   7.718   7.185  17.359
 3052TIP3    H233352   7.703   7.208  17.209
 3053TIP3   OH233353   6.676   7.235  18.440
 3053TIP3    H133354   6.670   7.334  18.476
 3053TIP3    H233355   6.593   7.191  18.487
 3054TIP3   OH233356   7.426   7.863  17.640
 3054TIP3    H133357   7.477   7.900  17.718
 3054TIP3    H233358   7.357   7.941  17.621
 3055TIP3   OH233359   6.785   7.871  18.605
 3055TIP3    H133360   6.776   7.886  18.508
 3055TIP3    H233361   6.695   7.816  18.626
 3056TIP3   OH233362   6.727   7.187  17.453
 3056TIP3    H133363   6.679   7.278  17.425
 3056TIP3    H233364   6.666   7.114  17.409
 3057TIP3   OH233365   6.335   7.485  18.357
 3057TIP3    H133366   6.293   7.476  18.268
 3057TIP3    H233367   6.368   7.384  18.373
 3058TIP3   OH233368   6.327   7.762  17.997
 3058TIP3    H133369   6.432   7.741  18.001
 3058TIP3    H233370   6.318   7.845  18.057
 3059TIP3   OH233371   8.276   7.861  18.613
 3059TIP3    H133372   8.259   7.765  18.573
 3059TIP3    H233373   8.186   7.876  18.665
 3060TIP3   OH233374   7.281   7.769  18.471
 3060TIP3    H133375   7.300   7.865  18.512
 3060TIP3    H233376   7.179   7.748  18.496
 3061TIP3   OH233377   7.366   8.202  17.461
 3061TIP3    H133378   7.318   8.182  17.375
 3061TIP3    H233379   7.325   8.296  17.481
 3062TIP3   OH233380   6.647   8.035  17.652
 3062TIP3    H133381   6.675   8.024  17.746
 3062TIP3    H233382   6.578   7.954  17.641
 3063TIP3   OH233383   7.745   8.126  17.175
 3063TIP3    H133384   7.696   8.064  17.110
 3063TIP3    H233385   7.697   8.089  17.256
 3064TIP3   OH233386   7.619   8.065  17.420
 3064TIP3    H133387   7.528   8.116  17.449
 3064TIP3    H233388   7.622   7.982  17.481
 3065TIP3   OH233389   7.953   6.922  18.636
 3065TIP3    H133390   7.880   6.950  18.569
 3065TIP3    H233391   7.971   6.818  18.616
 3066TIP3   OH233392   6.585   7.607  18.445
 3066TIP3    H133393   6.581   7.568  18.537
 3066TIP3    H233394   6.486   7.583  18.410
 3067TIP3   OH233395   6.849   6.343  18.021
 3067TIP3    H133396   6.749   6.349  17.985
 3067TIP3    H233397   6.835   6.410  18.097
 3068TIP3   OH233398   7.391   6.301  18.353
 3068TIP3    H133399   7.422   6.261  18.440
 3068TIP3    H233400   7.283   6.309  18.363
 3069TIP3   OH233401   7.690   6.756  18.467
 3069TIP3    H133402   7.636   6.713  18.543
 3069TIP3    H233403   7.693   6.860  18.490
 3070TIP3   OH233404   7.782   7.279  17.054
 3070TIP3    H133405   7.786   7.228  16.969
 3070TIP3    H233406   7.869   7.339  17.043
 3071TIP3   OH233407   6.875   6.907  18.165
 3071TIP3    H133408   6.786   6.896  18.220
 3071TIP3    H233409   6.863   7.013  18.141
 3072TIP3   OH233410   6.867   6.907  17.659
 3072TIP3    H133411   6.762   6.904  17.640
 3072TIP3    H233412   6.907   6.887  17.569
 3073TIP3   OH233413   7.501   6.955  17.480
 3073TIP3    H133414   7.455   7.044  17.443
 3073TIP3    H233415   7.594   6.999  17.506
 3074TIP3   OH233416   7.341   6.999  18.675
 3074TIP3    H133417   7.303   6.905  18.706
 3074TIP3    H233418   7.423   7.011  18.737
 3075TIP3   OH233419   7.583   6.926  17.823
 3075TIP3    H133420   7.566   7.020  17.780
 3075TIP3    H233421   7.585   6.859  17.747
 3076TIP3   OH233422   6.615   6.898  18.283
 3076TIP3    H133423   6.640   6.940  18.369
 3076TIP3    H233424   6.571   6.805  18.309
 3077TIP3   OH233425   6.267   6.602  17.750
 3077TIP3    H133426   6.332   6.615  17.827
 3077TIP3    H233427   6.321   6.650  17.678
 3078TIP3   OH233428   6.343   6.691  17.261
 3078TIP3    H133429   6.417   6.717  17.194
 3078TIP3    H233430   6.325   6.793  17.290
 3079TIP3   OH233431   7.502   7.092  18.238
 3079TIP3    H133432   7.553   7.008  18.194
 3079TIP3    H233433   7.439   7.039  18.300
 3080TIP3   OH233434   7.175   6.584  17.742
 3080TIP3    H133435   7.069   6.584  17.732
 3080TIP3    H233436   7.186   6.634  17.827
 3081TIP3   OH233437   6.563   6.819  17.646
 3081TIP3    H133438   6.487   6.855  17.584
 3081TIP3    H233439   6.591   6.723  17.608
 3082TIP3   OH233440   6.932   6.842  17.403
 3082TIP3    H133441   7.039   6.840  17.412
 3082TIP3    H233442   6.915   6.907  17.328
 3083TIP3   OH233443   7.640   6.553  18.091
 3083TIP3    H133444   7.554   6.553  18.150
 3083TIP3    H233445   7.598   6.520  18.005
 3084TIP3   OH233446   6.835   6.970  17.117
 3084TIP3    H133447   6.786   6.938  17.035
 3084TIP3    H233448   6.933   6.987  17.079
 3085TIP3   OH233449   7.944   8.265  18.723
 3085TIP3    H133450   7.976   8.296  18.634
 3085TIP3    H233451   8.035   8.270  18.774
 3086TIP3   OH233452   6.623   7.423  18.667
 3086TIP3    H133453   6.692   7.466  18.730
 3086TIP3    H233454   6.534   7.410  18.722
 3087TIP3   OH233455   7.257   6.928  17.897
 3087TIP3    H133456   7.361   6.921  17.876
 3087TIP3    H233457   7.257   6.904  17.991
 3088TIP3   OH233458   6.654   6.547  17.570
 3088TIP3    H133459   6.603   6.463  17.610
 3088TIP3    H233460   6.699   6.504  17.491
 3089TIP3   OH233461   7.116   6.744  18.183
 3089TIP3    H133462   7.030   6.812  18.180
 3089TIP3    H233463   7.187   6.802  18.231
 3090TIP3   OH233464   7.183   7.447  17.342
 3090TIP3    H133465   7.106   7.374  17.324
 3090TIP3    H233466   7.154   7.479  17.433
 3091TIP3   OH233467   7.973   7.402  18.228
 3091TIP3    H133468   8.030   7.439  18.153
 3091TIP3    H233469   7.882   7.372  18.182
 3092TIP3   OH233470   7.348   7.482  18.483
 3092TIP3    H133471   7.319   7.453  18.572
 3092TIP3    H233472   7.334   7.589  18.487
 3093TIP3   OH233473   6.663   7.409  17.899
 3093TIP3    H133474   6.724   7.393  17.819
 3093TIP3    H233475   6.692   7.329  17.958
 3094TIP3   OH233476   7.448   7.576  17.298
 3094TIP3    H133477   7.423   7.673  17.264
 3094TIP3    H233478   7.349   7.528  17.297
 3095TIP3   OH233479   6.347   7.191  18.453
 3095TIP3    H133480   6.319   7.132  18.532
 3095TIP3    H233481   6.280   7.154  18.384
 3096TIP3   OH233482   7.083   7.154  18.650
 3096TIP3    H133483   7.040   7.088  18.584
 3096TIP3    H233484   7.186   7.122  18.649
 3097TIP3   OH233485   7.642   7.739  18.488
 3097TIP3    H133486   7.542   7.745  18.456
 3097TIP3    H233487   7.628   7.781  18.577
 3098TIP3   OH233488   8.152   6.929  17.343
 3098TIP3    H133489   8.148   6.893  17.250
 3098TIP3    H233490   8.193   7.026  17.328
 3099TIP3   OH233491   8.214   7.536  18.572
 3099TIP3    H133492   8.109   7.560  18.551
 3099TIP3    H233493   8.254   7.533  18.481
 3100TIP3   OH233494   8.010   7.812  17.320
 3100TIP3    H133495   7.971   7.803  17.411
 3100TIP3    H233496   7.925   7.774  17.270
 3101TIP3   OH233497   7.766   7.300  18.054
 3101TIP3    H133498   7.662   7.289  18.037
 3101TIP3    H233499   7.806   7.224  17.995
 3102TIP3   OH233500   6.913   7.756  17.673
 3102TIP3    H133501   6.938   7.851  17.629
 3102TIP3    H233502   6.810   7.751  17.649
 3103TIP3   OH233503   6.457   7.225  17.181
 3103TIP3    H133504   6.513   7.192  17.102
 3103TIP3    H233505   6.360   7.200  17.151
 3104TIP3   OH233506   7.075   7.516  17.599
 3104TIP3    H133507   7.027   7.611  17.613
 3104TIP3    H233508   7.010   7.450  17.647
 3105TIP3   OH233509   7.128   7.964  18.305
 3105TIP3    H133510   7.184   8.051  18.282
 3105TIP3    H233511   7.206   7.898  18.335
 3106TIP3   OH233512   6.932   8.018  17.563
 3106TIP3    H133513   6.839   8.059  17.592
 3106TIP3    H233514   6.994   8.106  17.570
 3107TIP3   OH233515   7.475   7.522  18.226
 3107TIP3    H133516   7.426   7.505  18.314
 3107TIP3    H233517   7.543   7.440  18.228
 3108TIP3   OH233518   7.773   7.666  17.170
 3108TIP3    H133519   7.792   7.594  17.242
 3108TIP3    H233520   7.668   7.652  17.170
 3109TIP3   OH233521   7.794   8.032  18.474
 3109TIP3    H133522   7.712   7.968  18.444
 3109TIP3    H233523   7.812   8.100  18.401
 3110TIP3   OH233524   8.260   8.071  17.137
 3110TIP3    H133525   8.316   8.158  17.118
 3110TIP3    H233526   8.169   8.115  17.168
 3111TIP3   OH233527   6.527   6.623  18.403
 3111TIP3    H133528   6.438   6.675  18.428
 3111TIP3    H233529   6.514   6.530  18.450
 3112TIP3   OH233530   7.855   7.494  17.361
 3112TIP3    H133531   7.823   7.398  17.392
 3112TIP3    H233532   7.960   7.488  17.383
 3113TIP3   OH233533   6.484   7.899  18.265
 3113TIP3    H133534   6.541   7.809  18.255
 3113TIP3    H233535   6.546   7.951  18.329
 3114TIP3   OH233536   7.470   6.599  18.337
 3114TIP3    H133537   7.565   6.620  18.380
 3114TIP3    H233538   7.447   6.499  18.363
 3115TIP3   OH233539   7.524   6.564  17.449
 3115TIP3    H133540   7.603   6.514  17.403
 3115TIP3    H233541   7.574   6.580  17.535
 3116TIP3   OH233542   7.219   6.744  17.486
 3116TIP3    H133543   7.314   6.791  17.501
 3116TIP3    H233544   7.202   6.697  17.571
 3117TIP3   OH233545   7.352   6.887  18.397
 3117TIP3    H133546   7.344   6.912  18.492
 3117TIP3    H233547   7.405   6.794  18.398
 3118TIP3   OH233548   7.321   6.392  17.603
 3118TIP3    H133549   7.260   6.464  17.653
 3118TIP3    H233550   7.396   6.455  17.564
 3119TIP3   OH233551   6.859   6.532  17.301
 3119TIP3    H133552   6.846   6.637  17.310
 3119TIP3    H233553   6.964   6.521  17.307
 3120TIP3   OH233554   7.951   6.635  18.528
 3120TIP3    H133555   7.857   6.654  18.482
 3120TIP3    H233556   8.021   6.647  18.455
 3121TIP3   OH233557   7.830   7.080  17.872
 3121TIP3    H133558   7.742   7.019  17.872
 3121TIP3    H233559   7.886   7.024  17.938
 3122TIP3   OH233560   6.438   6.911  17.059
 3122TIP3    H133561   6.532   6.963  17.047
 3122TIP3    H233562   6.423   6.884  16.965
 3123TIP3   OH233563   7.986   8.108  18.085
 3123TIP3    H133564   7.961   8.155  17.999
 3123TIP3    H233565   8.090   8.088  18.071
 3124TIP3   OH233566   6.564   6.319  17.962
 3124TIP3    H133567   6.568   6.306  17.864
 3124TIP3    H233568   6.543   6.218  17.991
 3125TIP3   OH233569   6.418   7.823  17.569
 3125TIP3    H133570   6.349   7.893  17.607
 3125TIP3    H233571   6.435   7.871  17.482
 3126TIP3   OH233572   6.368   8.151  18.691
 3126TIP3    H133573   6.466   8.144  18.730
 3126TIP3    H233574   6.337   8.048  18.691
 3127TIP3   OH233575   6.895   7.990  18.841
 3127TIP3    H133576   7.002   7.991  18.846
 3127TIP3    H233577   6.875   7.953  18.751
 3128TIP3   OH233578   7.583   7.861  18.733
 3128TIP3    H133579   7.544   7.765  18.759
 3128TIP3    H233580   7.671   7.865  18.789
 3129TIP3   OH233581   6.340   7.448  18.779
 3129TIP3    H133582   6.296   7.351  18.786
 3129TIP3    H233583   6.281   7.490  18.707
 3130TIP3   OH233584   7.091   7.447  18.706
 3130TIP3    H133585   7.062   7.503  18.627
 3130TIP3    H233586   7.065   7.345  18.682
 3131TIP3   OH233587   7.721   7.415  18.477
 3131TIP3    H133588   7.819   7.460  18.486
 3131TIP3    H233589   7.663   7.505  18.489
 3132TIP3   OH233590   6.490   7.128  18.769
 3132TIP3    H133591   6.587   7.084  18.761
 3132TIP3    H233592   6.509   7.193  18.846
 3133TIP3   OH233593   6.965   7.240  17.247
 3133TIP3    H133594   6.895   7.210  17.314
 3133TIP3    H233595   6.939   7.171  17.176
 3134TIP3   OH233596   6.885   7.024  18.443
 3134TIP3    H133597   6.822   7.110  18.453
 3134TIP3    H233598   6.960   7.062  18.383
 3135TIP3   OH233599   7.077   7.069  17.008
 3135TIP3    H133600   7.072   7.070  16.911
 3135TIP3    H233601   7.160   7.131  17.027
 3136TIP3   OH233602   7.468   7.333  18.799
 3136TIP3    H133603   7.539   7.293  18.735
 3136TIP3    H233604   7.450   7.246  18.854
 3137TIP3   OH233605   6.930   6.732  18.530
 3137TIP3    H133606   6.966   6.665  18.460
 3137TIP3    H233607   6.920   6.826  18.485
 3138TIP3   OH233608   6.997   6.542  18.326
 3138TIP3    H133609   7.048   6.596  18.252
 3138TIP3    H233610   6.897   6.538  18.291
 3139TIP3   OH233611   7.121   7.191  18.328
 3139TIP3    H133612   7.215   7.240  18.321
 3139TIP3    H233613   7.058   7.261  18.282
 3140TIP3   OH233614   7.666   6.884  18.826
 3140TIP3    H133615   7.729   6.799  18.819
 3140TIP3    H233616   7.731   6.956  18.863
 3141TIP3   OH233617   7.762   7.248  18.694
 3141TIP3    H133618   7.744   7.306  18.613
 3141TIP3    H233619   7.865   7.222  18.681
 3142TIP3   OH233620   6.777   6.855  18.749
 3142TIP3    H133621   6.682   6.802  18.746
 3142TIP3    H233622   6.824   6.820  18.667
 3143TIP3   OH233623   7.093   6.271  18.332
 3143TIP3    H133624   7.060   6.375  18.336
 3143TIP3    H233625   7.000   6.224  18.305
 3144TIP3   OH233626   7.203   6.732  18.750
 3144TIP3    H133627   7.143   6.711  18.830
 3144TIP3    H233628   7.137   6.704  18.680
 3145TIP3   OH233629   7.500   6.647  18.663
 3145TIP3    H133630   7.396   6.647  18.691
 3145TIP3    H233631   7.548   6.604  18.741
 3146TIP3   OH233632   7.703   6.521  18.828
 3146TIP3    H133633   7.697   6.413  18.822
 3146TIP3    H233634   7.682   6.541  18.922
 3147TIP3   OH233635   6.549   6.643  18.758
 3147TIP3    H133636   6.538   6.557  18.700
 3147TIP3    H233637   6.535   6.601  18.848
 3148TIP3   OH233638   7.048   6.232  18.598
 3148TIP3    H133639   7.137   6.180  18.625
 3148TIP3    H233640   7.061   6.234  18.501
 3149TIP3   OH233641   7.124   6.421  18.858
 3149TIP3    H133642   7.065   6.348  18.810
 3149TIP3    H233643   7.047   6.490  18.885
 3150TIP3   OH233644   6.230   8.232  17.603
 3150TIP3    H133645   6.158   8.188  17.543
 3150TIP3    H233646   6.219   8.168  17.679
 3151TIP3   OH233647   6.324   8.018  17.803
 3151TIP3    H133648   6.256   7.952  17.849
 3151TIP3    H233649   6.406   8.020  17.867
 3152TIP3   OH233650   8.296   8.087  18.084
 3152TIP3    H133651   8.321   8.114  18.175
 3152TIP3    H233652   8.283   8.186  18.049
 3153TIP3   OH233653   8.206   8.060  18.386
 3153TIP3    H133654   8.149   7.986  18.336
 3153TIP3    H233655   8.272   7.995  18.434
 3154TIP3   OH233656   8.008   7.630  18.849
 3154TIP3    H133657   7.928   7.644  18.914
 3154TIP3    H233658   8.067   7.716  18.864
 3155TIP3   OH233659   8.140   7.419  17.412
 3155TIP3    H133660   8.235   7.465  17.430
 3155TIP3    H233661   8.144   7.333  17.471
 3156TIP3   OH233662   8.218   7.208  17.583
 3156TIP3    H133663   8.116   7.179  17.596
 3156TIP3    H233664   8.252   7.215  17.675
 3157TIP3   OH233665   8.218   7.490  18.079
 3157TIP3    H133666   8.315   7.471  18.040
 3157TIP3    H233667   8.213   7.593  18.050
 3158TIP3   OH233668   8.043   7.830  18.306
 3158TIP3    H133669   7.959   7.866  18.356
 3158TIP3    H233670   8.001   7.823  18.216
 3159TIP3   OH233671   8.087   6.877  17.075
 3159TIP3    H133672   8.031   6.954  17.032
 3159TIP3    H233673   8.028   6.789  17.057
 3160TIP3   OH233674   7.964   7.059  17.635
 3160TIP3    H133675   7.949   6.956  17.605
 3160TIP3    H233676   7.931   7.054  17.729
 3161TIP3   OH233677   6.328   7.302  18.054
 3161TIP3    H133678   6.338   7.275  17.958
 3161TIP3    H233679   6.425   7.262  18.084
 3162TIP3   OH233680   8.074   7.269  18.617
 3162TIP3    H133681   8.144   7.191  18.594
 3162TIP3    H233682   8.129   7.358  18.594
 3163TIP3   OH233683   8.235   7.030  18.632
 3163TIP3    H133684   8.128   7.017  18.648
 3163TIP3    H233685   8.264   6.927  18.651
 3164TIP3   OH233686   7.908   6.636  17.033
 3164TIP3    H133687   7.972   6.556  17.062
 3164TIP3    H233688   7.899   6.608  16.940
 3165TIP3   OH233689   7.959   6.794  17.504
 3165TIP3    H133690   7.961   6.687  17.489
 3165TIP3    H233691   8.028   6.830  17.435
 3166TIP3   OH233692   7.954   6.890  18.041
 3166TIP3    H133693   8.060   6.875  18.027
 3166TIP3    H233694   7.948   6.874  18.137
 3167TIP3   OH233695   8.014   6.916  18.326
 3167TIP3    H133696   7.918   6.960  18.349
 3167TIP3    H233697   8.057   6.999  18.279
 3168TIP3   OH233698   6.300   6.758  18.657
 3168TIP3    H133699   6.390   6.743  18.707
 3168TIP3    H233700   6.247   6.665  18.670
 3169TIP3   OH233701   8.247   6.251  18.832
 3169TIP3    H133702   8.306   6.190  18.775
 3169TIP3    H233703   8.236   6.339  18.775
 3170TIP3   OH233704   7.964   6.497  17.486
 3170TIP3    H133705   7.987   6.446  17.570
 3170TIP3    H233706   7.997   6.424  17.420
 3171TIP3   OH233707   6.423   6.578  18.009
 3171TIP3    H133708   6.464   6.478  18.005
 3171TIP3    H233709   6.512   6.639  18.010
 3172TIP3   OH233710   6.261   6.916  18.075
 3172TIP3    H133711   6.313   6.896  17.992
 3172TIP3    H233712   6.313   7.005  18.102
 3173TIP3   OH233713   8.188   6.489  18.693
 3173TIP3    H133714   8.103   6.552  18.719
 3173TIP3    H233715   8.160   6.459  18.604
 3174TIP3   OH233716   6.246   6.481  17.436
 3174TIP3    H133717   6.146   6.515  17.455
 3174TIP3    H233718   6.280   6.553  17.371
 3175TIP3   OH233719   7.867   8.124  17.627
 3175TIP3    H133720   7.941   8.126  17.555
 3175TIP3    H233721   7.918   8.173  17.700
 3176TIP3   OH233722   6.278   6.334  18.289
 3176TIP3    H133723   6.215   6.307  18.364
 3176TIP3    H233724   6.223   6.411  18.243
 3177TIP3   OH233725   6.518   7.766  18.689
 3177TIP3    H133726   6.423   7.762  18.645
 3177TIP3    H233727   6.492   7.789  18.780
 3178TIP3   OH233728   6.837   7.925  18.349
 3178TIP3    H133729   6.831   8.031  18.327
 3178TIP3    H233730   6.944   7.921  18.360
 3179TIP3   OH233731   7.334   8.033  18.597
 3179TIP3    H133732   7.315   8.016  18.692
 3179TIP3    H233733   7.418   8.099  18.601
 3180TIP3   OH233734   7.576   8.237  18.556
 3180TIP3    H133735   7.657   8.176  18.525
 3180TIP3    H233736   7.601   8.241  18.652
 3181TIP3   OH233737   8.088   6.284  18.487
 3181TIP3    H133738   8.001   6.325  18.443
 3181TIP3    H233739   8.098   6.189  18.443
 3182TIP3   OH233740   6.529   8.283  18.318
 3182TIP3    H133741   6.430   8.283  18.279
 3182TIP3    H233742   6.503   8.275  18.412
 3183TIP3   OH233743   6.806   8.202  18.271
 3183TIP3    H133744   6.709   8.246  18.294
 3183TIP3    H233745   6.822   8.247  18.184
 3184TIP3   OH233746   7.340   8.193  18.150
 3184TIP3    H133747   7.266   8.219  18.082
 3184TIP3    H233748   7.347   8.285  18.200
 3185TIP3   OH233749   7.557   8.035  18.276
 3185TIP3    H133750   7.478   8.097  18.242
 3185TIP3    H233751   7.641   8.099  18.258
 3186TIP3   OH233752   7.839   8.283  18.262
 3186TIP3    H133753   7.828   8.377  18.214
 3186TIP3    H233754   7.894   8.222  18.196
 3187TIP3   OH233755   6.504   8.048  18.018
 3187TIP3    H133756   6.488   7.993  18.101
 3187TIP3    H233757   6.601   8.009  17.989
 3188TIP3   OH233758   6.752   7.981  17.894
 3188TIP3    H133759   6.746   7.874  17.907
 3188TIP3    H233760   6.851   7.998  17.931
 3189TIP3   OH233761   6.999   7.976  18.031
 3189TIP3    H133762   7.027   7.873  18.020
 3189TIP3    H233763   7.010   7.991  18.127
 3190TIP3   OH233764   7.485   6.436  17.870
 3190TIP3    H133765   7.409   6.413  17.933
 3190TIP3    H233766   7.429   6.449  17.788
 3191TIP3   OH233767   7.920   6.232  17.906
 3191TIP3    H133768   7.987   6.288  17.847
 3191TIP3    H233769   7.851   6.197  17.841
 3192TIP3   OH233770   8.082   6.402  17.732
 3192TIP3    H133771   8.150   6.328  17.695
 3192TIP3    H233772   8.154   6.476  17.761
 3193TIP3   OH233773   6.554   6.292  17.684
 3193TIP3    H133774   6.459   6.291  17.640
 3193TIP3    H233775   6.590   6.192  17.664
 3194TIP3   OH233776   6.397   6.282  17.238
 3194TIP3    H133777   6.350   6.353  17.177
 3194TIP3    H233778   6.344   6.307  17.319
 3195TIP3   OH233779   6.992   6.258  17.663
 3195TIP3    H133780   7.066   6.304  17.607
 3195TIP3    H233781   7.028   6.273  17.753
 3196TIP3   OH233782   6.426   8.023  17.366
 3196TIP3    H133783   6.336   8.012  17.315
 3196TIP3    H233784   6.474   8.103  17.317
 3197TIP3   OH233785   7.175   6.479  17.338
 3197TIP3    H133786   7.234   6.425  17.403
 3197TIP3    H233787   7.186   6.580  17.369
 3198TIP3   OH233788   8.097   8.095  17.464
 3198TIP3    H133789   8.084   7.995  17.429
 3198TIP3    H233790   8.094   8.150  17.380
 3199TIP3   OH233791   6.489   6.370  18.584
 3199TIP3    H133792   6.441   6.277  18.603
 3199TIP3    H233793   6.569   6.358  18.651
 3200TIP3   OH233794   6.697   6.281  18.745
 3200TIP3    H133795   6.791   6.268  18.703
 3200TIP3    H233796   6.724   6.249  18.836
 3201TIP3   OH233797   7.682   6.218  18.810
 3201TIP3    H133798   7.675   6.174  18.899
 3201TIP3    H233799   7.775   6.173  18.779
 3202TIP3   OH233800   8.005   7.959  18.671
 3202TIP3    H133801   7.930   7.983  18.604
 3202TIP3    H233802   8.031   8.055  18.703
 3203TIP3   OH233803   8.340   6.922  17.556
 3203TIP3    H133804   8.304   7.024  17.560
 3203TIP3    H233805   8.288   6.890  17.476
 3204TIP3   OH233806   8.325   7.444  18.339
 3204TIP3    H133807   8.275   7.433  18.252
 3204TIP3    H233808   8.335   7.341  18.371
 3205TIP3   OH233809   8.308   7.746  18.009
 3205TIP3    H133810   8.410   7.747  17.975
 3205TIP3    H233811   8.308   7.835  18.063
 3206TIP3   OH233812   8.305   6.603  17.743
 3206TIP3    H133813   8.382   6.679  17.735
 3206TIP3    H233814   8.284   6.585  17.648
 3207TIP3   OH233815   8.342   7.169  18.419
 3207TIP3    H133816   8.335   7.108  18.500
 3207TIP3    H233817   8.255   7.138  18.370
 3208TIP3   OH233818   8.382   7.407  18.752
 3208TIP3    H133819   8.367   7.303  18.742
 3208TIP3    H233820   8.307   7.450  18.691
 3209TIP3   OH233821   8.239   8.263  17.659
 3209TIP3    H133822   8.169   8.225  17.593
 3209TIP3    H233823   8.251   8.175  17.715
 3210TIP3   OH233824   8.307   8.018  17.795
 3210TIP3    H133825   8.260   7.932  17.834
 3210TIP3    H233826   8.399   8.019  17.847
 3211TIP3   OH233827   8.382   7.219  18.085
 3211TIP3    H133828   8.373   7.231  17.989
 3211TIP3    H233829   8.471   7.278  18.099
 3212TIP3   OH233830   8.295   6.754  18.658
 3212TIP3    H133831   8.402   6.747  18.646
 3212TIP3    H233832   8.271   6.651  18.671
 3213TIP3   OH233833   8.249   6.875  18.039
 3213TIP3    H133834   8.357   6.868  18.033
 3213TIP3    H233835   8.238   6.976  18.066
 3214TIP3   OH233836   8.283   6.504  17.488
 3214TIP3    H133837   8.188   6.550  17.471
 3214TIP3    H233838   8.302   6.457  17.402
 3215TIP3   OH233839   8.227   6.305  18.247
 3215TIP3    H133840   8.204   6.331  18.340
 3215TIP3    H233841   8.196   6.393  18.197
 3216TIP3   OH233842   0.879   8.270  18.003
 3216TIP3    H133843   0.875   8.212  17.920
 3216TIP3    H233844   0.774   8.301  18.014
 3217TIP3   OH233845   1.885   8.232  17.258
 3217TIP3    H133846   1.781   8.243  17.243
 3217TIP3    H233847   1.915   8.335  17.247
 3218TIP3   OH233848   0.630  -0.042  18.040
 3218TIP3    H133849   0.527  -0.056  18.011
 3218TIP3    H233850   0.645   0.065  18.037
 3219TIP3   OH233851   1.179   8.340  18.364
 3219TIP3    H133852   1.264   8.311  18.419
 3219TIP3    H233853   1.104   8.273  18.398
 3220TIP3   OH233854   0.351   8.347  17.968
 3220TIP3    H133855   0.334   8.337  17.870
 3220TIP3    H233856   0.310   8.251  17.997
 3221TIP3   OH233857   0.868   8.250  18.338
 3221TIP3    H133858   0.857   8.356  18.323
 3221TIP3    H233859   0.798   8.209  18.275
 3222TIP3   OH233860   0.822   8.229  18.605
 3222TIP3    H133861   0.890   8.165  18.650
 3222TIP3    H233862   0.847   8.215  18.510
 3223TIP3   OH233863   1.974   8.283  18.769
 3223TIP3    H133864   2.067   8.249  18.727
 3223TIP3    H233865   2.017   8.354  18.831
 3224TIP3   OH233866   0.054   8.359  18.277
 3224TIP3    H133867  -0.016   8.410  18.332
 3224TIP3    H233868   0.076   8.435  18.212
 3225TIP3   OH233869   1.828   8.315  18.443
 3225TIP3    H133870   1.759   8.288  18.372
 3225TIP3    H233871   1.890   8.226  18.446
 3226TIP3   OH233872   1.739   8.278  17.879
 3226TIP3    H133873   1.753   8.382  17.899
 3226TIP3    H233874   1.639   8.284  17.846
 3227TIP3   OH233875   0.296   8.303  17.706
 3227TIP3    H133876   0.207   8.281  17.654
 3227TIP3    H233877   0.363   8.231  17.665
 3228TIP3   OH233878   0.224   8.281  17.228
 3228TIP3    H133879   0.251   8.386  17.225
 3228TIP3    H233880   0.150   8.288  17.296
 3229TIP3   OH233881   0.803   8.262  17.708
 3229TIP3    H133882   0.867   8.318  17.651
 3229TIP3    H233883   0.722   8.330  17.720
 3230TIP3   OH233884   1.417   8.281  17.810
 3230TIP3    H133885   1.346   8.281  17.737
 3230TIP3    H233886   1.375   8.209  17.869
 3231TIP3   OH233887   1.531   8.298  17.363
 3231TIP3    H133888   1.487   8.312  17.276
 3231TIP3    H233889   1.494   8.204  17.392
 3232TIP3   OH233890   0.481   8.265  18.727
 3232TIP3    H133891   0.571   8.232  18.685
 3232TIP3    H233892   0.466   8.191  18.797
 3233TIP3   OH233893   1.452   8.183  18.807
 3233TIP3    H133894   1.473   8.155  18.900
 3233TIP3    H233895   1.553   8.198  18.775
 3234TIP3   OH233896   2.980   8.267  18.004
 3234TIP3    H133897   2.969   8.194  17.933
 3234TIP3    H233898   2.875   8.286  18.024
 3235TIP3   OH233899   3.892   8.232  17.268
 3235TIP3    H133900   3.792   8.242  17.301
 3235TIP3    H233901   3.919   8.335  17.255
 3236TIP3   OH233902   2.706   8.377  18.050
 3236TIP3    H133903   2.602   8.362  18.025
 3236TIP3    H233904   2.716   8.484  18.041
 3237TIP3   OH233905   3.244   8.351  18.377
 3237TIP3    H133906   3.322   8.304  18.431
 3237TIP3    H233907   3.160   8.290  18.401
 3238TIP3   OH233908   2.416   8.330  17.956
 3238TIP3    H133909   2.407   8.323  17.859
 3238TIP3    H233910   2.387   8.229  17.983
 3239TIP3   OH233911   2.952   8.250  18.354
 3239TIP3    H133912   2.954   8.358  18.342
 3239TIP3    H233913   2.860   8.226  18.308
 3240TIP3   OH233914   2.882   8.219  18.612
 3240TIP3    H133915   2.969   8.184  18.659
 3240TIP3    H233916   2.915   8.210  18.519
 3241TIP3   OH233917   4.049   8.282  18.783
 3241TIP3    H133918   4.143   8.239  18.755
 3241TIP3    H233919   4.081   8.378  18.817
 3242TIP3   OH233920   2.106   8.327  18.275
 3242TIP3    H133921   2.023   8.334  18.335
 3242TIP3    H233922   2.125   8.430  18.252
 3243TIP3   OH233923   3.901   8.321  18.459
 3243TIP3    H133924   3.840   8.297  18.381
 3243TIP3    H233925   3.946   8.226  18.477
 3244TIP3   OH233926   3.820   8.271  17.870
 3244TIP3    H133927   3.864   8.368  17.882
 3244TIP3    H233928   3.717   8.301  17.872
 3245TIP3   OH233929   2.367   8.293  17.689
 3245TIP3    H133930   2.270   8.278  17.648
 3245TIP3    H233931   2.421   8.208  17.651
 3246TIP3   OH233932   2.913   8.267  17.708
 3246TIP3    H133933   2.967   8.351  17.677
 3246TIP3    H233934   2.815   8.307  17.712
 3247TIP3   OH233935   3.531   8.318  17.778
 3247TIP3    H133936   3.470   8.332  17.700
 3247TIP3    H233937   3.478   8.235  17.820
 3248TIP3   OH233938   3.623   8.330  17.348
 3248TIP3    H133939   3.556   8.288  17.282
 3248TIP3    H233940   3.605   8.261  17.421
 3249TIP3   OH233941   2.584   8.262  18.704
 3249TIP3    H133942   2.676   8.207  18.694
 3249TIP3    H233943   2.543   8.217  18.785
 3250TIP3   OH233944   3.528   8.190  18.815
 3250TIP3    H133945   3.544   8.165  18.909
 3250TIP3    H233946   3.630   8.198  18.784
 3251TIP3   OH233947   5.042   8.288  18.013
 3251TIP3    H133948   5.031   8.213  17.945
 3251TIP3    H233949   4.940   8.297  18.042
 3252TIP3   OH233950   5.992   8.271  17.255
 3252TIP3    H133951   5.889   8.298  17.272
 3252TIP3    H233952   6.036   8.369  17.268
 3253TIP3   OH233953   4.770   8.384  18.047
 3253TIP3    H133954   4.664   8.380  18.023
 3253TIP3    H233955   4.786   8.491  18.049
 3254TIP3   OH233956   5.317   8.358  18.382
 3254TIP3    H133957   5.398   8.317  18.438
 3254TIP3    H233958   5.239   8.288  18.407
 3255TIP3   OH233959   4.484   8.332  17.973
 3255TIP3    H133960   4.484   8.315  17.876
 3255TIP3    H233961   4.464   8.232  18.005
 3256TIP3   OH233962   5.025   8.262  18.353
 3256TIP3    H133963   5.018   8.367  18.329
 3256TIP3    H233964   4.928   8.227  18.325
 3257TIP3   OH233965   4.956   8.227  18.605
 3257TIP3    H133966   5.026   8.163  18.649
 3257TIP3    H233967   4.995   8.230  18.514
 3258TIP3   OH233968   6.115   8.280  18.774
 3258TIP3    H133969   6.207   8.250  18.729
 3258TIP3    H233970   6.156   8.352  18.835
 3259TIP3   OH233971   4.164   8.340  18.262
 3259TIP3    H133972   4.095   8.347  18.337
 3259TIP3    H233973   4.186   8.445  18.243
 3260TIP3   OH233974   5.978   8.320  18.448
 3260TIP3    H133975   5.907   8.305  18.376
 3260TIP3    H233976   6.031   8.226  18.444
 3261TIP3   OH233977   5.904   8.259  17.862
 3261TIP3    H133978   5.922   8.364  17.866
 3261TIP3    H233979   5.797   8.265  17.850
 3262TIP3   OH233980   4.455   8.274  17.701
 3262TIP3    H133981   4.359   8.272  17.654
 3262TIP3    H233982   4.497   8.180  17.671
 3263TIP3   OH233983   4.318   8.301  17.263
 3263TIP3    H133984   4.364   8.387  17.228
 3263TIP3    H233985   4.249   8.330  17.331
 3264TIP3   OH233986   4.959   8.251  17.712
 3264TIP3    H133987   5.005   8.326  17.654
 3264TIP3    H233988   4.884   8.313  17.750
 3265TIP3   OH233989   5.601   8.308  17.774
 3265TIP3    H133990   5.551   8.331  17.691
 3265TIP3    H233991   5.535   8.232  17.812
 3266TIP3   OH233992   5.701   8.332  17.345
 3266TIP3    H133993   5.647   8.281  17.273
 3266TIP3    H233994   5.680   8.271  17.421
 3267TIP3   OH233995   4.653   8.264  18.701
 3267TIP3    H133996   4.740   8.205  18.682
 3267TIP3    H233997   4.609   8.212  18.776
 3268TIP3   OH233998   5.592   8.212  18.810
 3268TIP3    H133999   5.611   8.179  18.902
 3268TIP3    H234000   5.694   8.208  18.775
 3269TIP3   OH234001   7.112   8.274  18.011
 3269TIP3    H134002   7.102   8.188  17.953
 3269TIP3    H234003   7.008   8.296  18.034
 3270TIP3   OH234004   8.053   8.241  17.241
 3270TIP3    H134005   7.948   8.230  17.247
 3270TIP3    H234006   8.064   8.349  17.248
 3271TIP3   OH234007   6.837   8.380  18.057
 3271TIP3    H134008   6.743   8.362  18.010
 3271TIP3    H234009   6.844   8.488  18.048
 3272TIP3   OH234010   7.399   8.346  18.376
 3272TIP3    H134011   7.473   8.309  18.440
 3272TIP3    H234012   7.323   8.273  18.391
 3273TIP3   OH234013   6.569   8.325  17.938
 3273TIP3    H134014   6.544   8.316  17.843
 3273TIP3    H234015   6.538   8.229  17.973
 3274TIP3   OH234016   7.115   8.267  18.352
 3274TIP3    H134017   7.105   8.373  18.334
 3274TIP3    H234018   7.016   8.232  18.331
 3275TIP3   OH234019   7.052   8.234  18.610
 3275TIP3    H134020   7.125   8.182  18.662
 3275TIP3    H234021   7.093   8.227  18.519
 3276TIP3   OH234022   8.261   8.255  18.800
 3276TIP3    H134023   8.352   8.241  18.751
 3276TIP3    H234024   8.286   8.336  18.860
 3277TIP3   OH234025   6.236   8.327  18.264
 3277TIP3    H134026   6.168   8.331  18.339
 3277TIP3    H234027   6.252   8.433  18.246
 3278TIP3   OH234028   8.049   8.306  18.454
 3278TIP3    H134029   7.984   8.308  18.376
 3278TIP3    H234030   8.093   8.207  18.444
 3279TIP3   OH234031   7.943   8.265  17.865
 3279TIP3    H134032   7.999   8.358  17.864
 3279TIP3    H234033   7.846   8.301  17.836
 3280TIP3   OH234034   6.515   8.296  17.667
 3280TIP3    H134035   6.416   8.273  17.633
 3280TIP3    H234036   6.567   8.206  17.641
 3281TIP3   OH234037   7.017   8.271  17.676
 3281TIP3    H134038   7.054   8.363  17.640
 3281TIP3    H234039   6.955   8.307  17.746
 3282TIP3   OH234040   7.673   8.317  17.744
 3282TIP3    H134041   7.688   8.279  17.654
 3282TIP3    H234042   7.603   8.246  17.782
 3283TIP3   OH234043   7.778   8.341  17.378
 3283TIP3    H134044   7.782   8.320  17.283
 3283TIP3    H234045   7.740   8.248  17.410
 3284TIP3   OH234046   6.728   8.271  18.698
 3284TIP3    H134047   6.808   8.204  18.677
 3284TIP3    H234048   6.685   8.221  18.776
 3285TIP3   OH234049   7.680   8.193  18.801
 3285TIP3    H134050   7.691   8.175  18.898
 3285TIP3    H234051   7.784   8.191  18.776
 3286TIP3   OH234052   8.191   8.340  18.200
 3286TIP3    H134053   8.194   8.350  18.296
 3286TIP3    H234054   8.219   8.438  18.173
 3287TIP3   OH234055   1.354   1.097  19.532
 3287TIP3    H134056   1.339   1.202  19.537
 3287TIP3    H234057   1.254   1.058  19.533
 3288TIP3   OH234058   1.140   1.060  19.944
 3288TIP3    H134059   1.167   0.975  19.999
 3288TIP3    H234060   1.152   1.019  19.855
 3289TIP3   OH234061   1.539   1.306  19.704
 3289TIP3    H134062   1.502   1.224  19.759
 3289TIP3    H234063   1.578   1.375  19.770
 3290TIP3   OH234064   0.429   1.448  19.840
 3290TIP3    H134065   0.417   1.344  19.814
 3290TIP3    H234066   0.534   1.447  19.862
 3291TIP3   OH234067   0.138   0.714  19.366
 3291TIP3    H134068   0.120   0.804  19.415
 3291TIP3    H234069   0.047   0.664  19.392
 3292TIP3   OH234070   0.118   0.989  19.664
 3292TIP3    H134071   0.179   0.905  19.692
 3292TIP3    H234072   0.187   1.039  19.605
 3293TIP3   OH234073   1.283   1.927  19.775
 3293TIP3    H134074   1.354   1.877  19.717
 3293TIP3    H234075   1.239   1.841  19.815
 3294TIP3   OH234076   1.035   1.350  19.964
 3294TIP3    H134077   1.049   1.255  19.918
 3294TIP3    H234078   1.110   1.338  20.033
 3295TIP3   OH234079   1.300   0.606  19.943
 3295TIP3    H134080   1.399   0.648  19.953
 3295TIP3    H234081   1.263   0.663  19.868
 3296TIP3   OH234082   0.646   0.439  19.677
 3296TIP3    H134083   0.671   0.524  19.620
 3296TIP3    H234084   0.587   0.380  19.613
 3297TIP3   OH234085   1.485   0.425  19.486
 3297TIP3    H134086   1.553   0.392  19.555
 3297TIP3    H234087   1.482   0.529  19.510
 3298TIP3   OH234088   0.263   0.733  19.714
 3298TIP3    H134089   0.316   0.663  19.769
 3298TIP3    H234090   0.262   0.678  19.630
 3299TIP3   OH234091   0.746   0.871  19.710
 3299TIP3    H134092   0.838   0.823  19.732
 3299TIP3    H234093   0.714   0.809  19.635
 3300TIP3   OH234094   1.264   1.377  19.423
 3300TIP3    H134095   1.241   1.348  19.332
 3300TIP3    H234096   1.236   1.482  19.422
 3301TIP3   OH234097   1.658   0.360  19.696
 3301TIP3    H134098   1.663   0.354  19.794
 3301TIP3    H234099   1.715   0.450  19.690
 3302TIP3   OH234100   0.444   0.531  19.871
 3302TIP3    H134101   0.484   0.629  19.882
 3302TIP3    H234102   0.503   0.492  19.797
 3303TIP3   OH234103   0.131   1.330  19.257
 3303TIP3    H134104   0.123   1.393  19.177
 3303TIP3    H234105   0.160   1.403  19.325
 3304TIP3   OH234106   1.666   1.488  19.876
 3304TIP3    H134107   1.597   1.437  19.934
 3304TIP3    H234108   1.714   1.552  19.941
 3305TIP3   OH234109   0.917   0.087  19.788
 3305TIP3    H134110   0.938  -0.016  19.807
 3305TIP3    H234111   0.832   0.102  19.846
 3306TIP3   OH234112   1.439   1.749  19.615
 3306TIP3    H134113   1.476   1.654  19.584
 3306TIP3    H234114   1.530   1.807  19.607
 3307TIP3   OH234115   1.601   1.521  19.496
 3307TIP3    H134116   1.564   1.458  19.425
 3307TIP3    H234117   1.603   1.453  19.571
 3308TIP3   OH234118   1.162   0.998  19.304
 3308TIP3    H134119   1.105   1.089  19.291
 3308TIP3    H234120   1.258   1.026  19.272
 3309TIP3   OH234121   1.178   0.908  18.976
 3309TIP3    H134122   1.243   0.952  19.044
 3309TIP3    H234123   1.196   0.804  18.992
 3310TIP3   OH234124   1.587   0.981  19.379
 3310TIP3    H134125   1.513   1.022  19.440
 3310TIP3    H234126   1.653   0.933  19.442
 3311TIP3   OH234127   0.628   1.098  19.565
 3311TIP3    H134128   0.576   1.048  19.492
 3311TIP3    H234129   0.679   1.020  19.613
 3312TIP3   OH234130   0.805   1.510  19.837
 3312TIP3    H134131   0.794   1.469  19.749
 3312TIP3    H234132   0.884   1.452  19.877
 3313TIP3   OH234133   0.600   0.958  19.927
 3313TIP3    H134134   0.642   0.925  19.843
 3313TIP3    H234135   0.685   0.963  19.984
 3314TIP3   OH234136   1.417   0.968  19.149
 3314TIP3    H134137   1.477   0.970  19.231
 3314TIP3    H234138   1.485   1.008  19.081
 3315TIP3   OH234139   1.187   1.662  19.452
 3315TIP3    H134140   1.248   1.699  19.524
 3315TIP3    H234141   1.131   1.748  19.425
 3316TIP3   OH234142   1.849   0.085  19.154
 3316TIP3    H134143   1.752   0.121  19.180
 3316TIP3    H234144   1.891   0.176  19.119
 3317TIP3   OH234145   0.465   0.977  19.341
 3317TIP3    H134146   0.455   1.070  19.291
 3317TIP3    H234147   0.456   0.906  19.270
 3318TIP3   OH234148   1.960   1.587  18.994
 3318TIP3    H134149   1.992   1.689  19.007
 3318TIP3    H234150   2.055   1.537  19.006
 3319TIP3   OH234151   0.149   1.597  19.875
 3319TIP3    H134152   0.229   1.526  19.879
 3319TIP3    H234153   0.173   1.658  19.951
 3320TIP3   OH234154   1.143   1.962  19.336
 3320TIP3    H134155   1.140   1.972  19.238
 3320TIP3    H234156   1.115   2.064  19.363
 3321TIP3   OH234157   0.443   1.846  19.515
 3321TIP3    H134158   0.468   1.808  19.605
 3321TIP3    H234159   0.340   1.821  19.510
 3322TIP3   OH234160   1.463   1.900  19.032
 3322TIP3    H134161   1.518   1.815  18.996
 3322TIP3    H234162   1.466   1.881  19.129
 3323TIP3   OH234163   1.429   1.895  19.302
 3323TIP3    H134164   1.324   1.915  19.321
 3323TIP3    H234165   1.447   1.815  19.362
 3324TIP3   OH234166   0.672   0.183  19.927
 3324TIP3    H134167   0.579   0.228  19.903
 3324TIP3    H234168   0.730   0.272  19.943
 3325TIP3   OH234169   1.604   1.092  18.967
 3325TIP3    H134170   1.584   1.108  18.872
 3325TIP3    H234171   1.711   1.103  18.968
 3326TIP3   OH234172   1.103   0.378  18.999
 3326TIP3    H134173   1.051   0.331  19.073
 3326TIP3    H234174   1.068   0.321  18.925
 3327TIP3   OH234175   0.642   0.682  19.536
 3327TIP3    H134176   0.539   0.656  19.521
 3327TIP3    H234177   0.690   0.653  19.451
 3328TIP3   OH234178   1.280   0.735  19.366
 3328TIP3    H134179   1.240   0.828  19.337
 3328TIP3    H234180   1.350   0.710  19.295
 3329TIP3   OH234181   1.473   0.650  19.653
 3329TIP3    H134182   1.394   0.723  19.637
 3329TIP3    H234183   1.416   0.570  19.691
 3330TIP3   OH234184   0.730   0.406  18.874
 3330TIP3    H134185   0.697   0.371  18.962
 3330TIP3    H234186   0.641   0.452  18.842
 3331TIP3   OH234187   0.080   0.473  19.633
 3331TIP3    H134188   0.127   0.441  19.717
 3331TIP3    H234189   0.124   0.404  19.571
 3332TIP3   OH234190   0.149   0.465  19.153
 3332TIP3    H134191   0.196   0.519  19.078
 3332TIP3    H234192   0.097   0.546  19.196
 3333TIP3   OH234193   0.964   0.428  19.624
 3333TIP3    H134194   0.875   0.415  19.676
 3333TIP3    H234195   1.034   0.398  19.694
 3334TIP3   OH234196   0.361   0.569  19.506
 3334TIP3    H134197   0.292   0.598  19.437
 3334TIP3    H234198   0.385   0.470  19.475
 3335TIP3   OH234199   0.766   0.607  19.302
 3335TIP3    H134200   0.872   0.615  19.311
 3335TIP3    H234201   0.739   0.675  19.233
 3336TIP3   OH234202   1.388   0.286  19.938
 3336TIP3    H134203   1.377   0.386  19.973
 3336TIP3    H234204   1.289   0.274  19.903
 3337TIP3   OH234205   0.622   0.785  19.016
 3337TIP3    H134206   0.576   0.704  18.969
 3337TIP3    H234207   0.716   0.798  18.972
 3338TIP3   OH234208   0.991   0.663  19.873
 3338TIP3    H134209   1.053   0.712  19.805
 3338TIP3    H234210   1.063   0.596  19.912
 3339TIP3   OH234211   0.504   0.328  19.435
 3339TIP3    H134212   0.455   0.239  19.468
 3339TIP3    H234213   0.590   0.292  19.389
 3340TIP3   OH234214   0.993   1.238  19.266
 3340TIP3    H134215   0.911   1.188  19.221
 3340TIP3    H234216   0.942   1.276  19.345
 3341TIP3   OH234217   1.371   0.438  19.093
 3341TIP3    H134218   1.268   0.450  19.060
 3341TIP3    H234219   1.404   0.538  19.115
 3342TIP3   OH234220   1.492   0.672  19.190
 3342TIP3    H134221   1.562   0.653  19.261
 3342TIP3    H234222   1.532   0.760  19.149
 3343TIP3   OH234223   0.441   1.165  19.768
 3343TIP3    H134224   0.501   1.162  19.686
 3343TIP3    H234225   0.509   1.124  19.834
 3344TIP3   OH234226   1.192   1.384  19.136
 3344TIP3    H134227   1.143   1.481  19.147
 3344TIP3    H234228   1.119   1.318  19.176
 3345TIP3   OH234229   1.983   0.694  19.184
 3345TIP3    H134230   1.936   0.655  19.103
 3345TIP3    H234231   2.008   0.795  19.158
 3346TIP3   OH234232   1.782   1.632  19.211
 3346TIP3    H134233   1.758   1.564  19.282
 3346TIP3    H234234   1.845   1.576  19.150
 3347TIP3   OH234235   1.485   1.067  19.883
 3347TIP3    H134236   1.388   1.039  19.850
 3347TIP3    H234237   1.550   1.007  19.826
 3348TIP3   OH234238   0.681   1.554  19.546
 3348TIP3    H134239   0.711   1.642  19.496
 3348TIP3    H234240   0.583   1.542  19.512
 3349TIP3   OH234241   0.272   0.998  19.056
 3349TIP3    H134242   0.331   1.078  19.093
 3349TIP3    H234243   0.175   1.020  19.088
 3350TIP3   OH234244   0.834   1.316  19.471
 3350TIP3    H134245   0.771   1.396  19.504
 3350TIP3    H234246   0.802   1.233  19.525
 3351TIP3   OH234247   0.724   1.816  19.426
 3351TIP3    H134248   0.619   1.836  19.447
 3351TIP3    H234249   0.765   1.910  19.458
 3352TIP3   OH234250   1.565   1.421  19.015
 3352TIP3    H134251   1.583   1.375  19.103
 3352TIP3    H234252   1.462   1.399  19.005
 3353TIP3   OH234253   2.033   1.892  19.057
 3353TIP3    H134254   2.104   1.964  19.026
 3353TIP3    H234255   1.954   1.960  19.087
 3354TIP3   OH234256   1.651   1.263  19.243
 3354TIP3    H134257   1.628   1.163  19.273
 3354TIP3    H234258   1.758   1.255  19.234
 3355TIP3   OH234259   0.896   1.570  18.868
 3355TIP3    H134260   0.890   1.511  18.788
 3355TIP3    H234261   0.837   1.510  18.930
 3356TIP3   OH234262   0.757   1.474  19.111
 3356TIP3    H134263   0.831   1.440  19.174
 3356TIP3    H234264   0.761   1.580  19.134
 3357TIP3   OH234265   0.407   1.217  19.178
 3357TIP3    H134266   0.310   1.247  19.212
 3357TIP3    H234267   0.430   1.293  19.113
 3358TIP3   OH234268   1.310   0.290  19.319
 3358TIP3    H134269   1.309   0.365  19.249
 3358TIP3    H234270   1.376   0.337  19.385
 3359TIP3   OH234271   1.080   1.664  19.152
 3359TIP3    H134272   0.984   1.711  19.168
 3359TIP3    H234273   1.145   1.749  19.157
 3360TIP3   OH234274   1.058   0.547  19.379
 3360TIP3    H134275   1.147   0.607  19.396
 3360TIP3    H234276   1.030   0.524  19.471
 3361TIP3   OH234277   1.107   0.213  19.486
 3361TIP3    H134278   1.091   0.310  19.524
 3361TIP3    H234279   1.192   0.230  19.427
 3362TIP3   OH234280   0.796   1.752  19.171
 3362TIP3    H134281   0.815   1.836  19.110
 3362TIP3    H234282   0.760   1.807  19.248
 3363TIP3   OH234283   0.624   0.372  19.118
 3363TIP3    H134284   0.603   0.459  19.172
 3363TIP3    H234285   0.715   0.342  19.161
 3364TIP3   OH234286   1.636   0.870  19.747
 3364TIP3    H134287   1.554   0.803  19.729
 3364TIP3    H234288   1.679   0.816  19.821
 3365TIP3   OH234289   0.466   1.473  19.020
 3365TIP3    H134290   0.564   1.486  19.062
 3365TIP3    H234291   0.492   1.408  18.946
 3366TIP3   OH234292   0.249   0.693  18.979
 3366TIP3    H134293   0.296   0.788  18.996
 3366TIP3    H234294   0.186   0.715  18.903
 3367TIP3   OH234295   1.747   1.881  19.946
 3367TIP3    H134296   1.761   1.966  19.888
 3367TIP3    H234297   1.841   1.870  19.989
 3368TIP3   OH234298   0.383   0.165  19.833
 3368TIP3    H134299   0.350   0.171  19.740
 3368TIP3    H234300   0.375   0.058  19.843
 3369TIP3   OH234301   0.214   1.584  19.397
 3369TIP3    H134302   0.130   1.641  19.424
 3369TIP3    H234303   0.268   1.661  19.350
 3370TIP3   OH234304   1.126   1.785  18.856
 3370TIP3    H134305   1.071   1.697  18.882
 3370TIP3    H234306   1.212   1.740  18.813
 3371TIP3   OH234307   1.626   1.701  18.876
 3371TIP3    H134308   1.640   1.625  18.945
 3371TIP3    H234309   1.718   1.699  18.827
 3372TIP3   OH234310   0.622   1.241  18.865
 3372TIP3    H134311   0.660   1.223  18.954
 3372TIP3    H234312   0.714   1.239  18.812
 3373TIP3   OH234313   1.240   1.413  18.857
 3373TIP3    H134314   1.202   1.399  18.947
 3373TIP3    H234315   1.234   1.311  18.826
 3374TIP3   OH234316   0.765   1.068  19.134
 3374TIP3    H134317   0.690   1.000  19.165
 3374TIP3    H234318   0.818   1.007  19.072
 3375TIP3   OH234319   0.896   0.871  18.904
 3375TIP3    H134320   0.895   0.932  18.823
 3375TIP3    H234321   1.002   0.879  18.928
 3376TIP3   OH234322   1.896   1.098  18.857
 3376TIP3    H134323   1.876   1.069  18.765
 3376TIP3    H234324   1.888   1.207  18.853
 3377TIP3   OH234325   0.858   2.003  19.058
 3377TIP3    H134326   0.965   2.012  19.063
 3377TIP3    H234327   0.839   2.072  18.986
 3378TIP3   OH234328   0.171   1.473  19.025
 3378TIP3    H134329   0.277   1.487  19.027
 3378TIP3    H234330   0.160   1.420  18.940
 3379TIP3   OH234331   0.096   2.015  19.480
 3379TIP3    H134332  -0.010   2.033  19.485
 3379TIP3    H234333   0.111   1.946  19.553
 3380TIP3   OH234334   0.143   1.811  19.687
 3380TIP3    H134335   0.154   1.719  19.740
 3380TIP3    H234336   0.197   1.877  19.748
 3381TIP3   OH234337   1.954   1.218  19.244
 3381TIP3    H134338   2.045   1.270  19.263
 3381TIP3    H234339   1.947   1.153  19.324
 3382TIP3   OH234340   1.964   1.044  19.459
 3382TIP3    H134341   1.901   0.965  19.493
 3382TIP3    H234342   2.049   1.032  19.518
 3383TIP3   OH234343   2.073   1.324  19.928
 3383TIP3    H134344   2.105   1.255  19.860
 3383TIP3    H234345   2.000   1.382  19.882
 3384TIP3   OH234346   2.046   0.980  19.087
 3384TIP3    H134347   1.981   0.986  19.010
 3384TIP3    H234348   2.005   1.058  19.143
 3385TIP3   OH234349   1.815   0.702  18.929
 3385TIP3    H134350   1.849   0.752  18.851
 3385TIP3    H234351   1.796   0.600  18.899
 3386TIP3   OH234352   1.785   0.802  19.517
 3386TIP3    H134353   1.748   0.725  19.457
 3386TIP3    H234354   1.734   0.783  19.602
 3387TIP3   OH234355   0.177   1.191  19.911
 3387TIP3    H134356   0.192   1.170  19.817
 3387TIP3    H234357   0.242   1.115  19.948
 3388TIP3   OH234358   1.784   0.418  18.888
 3388TIP3    H134359   1.852   0.345  18.924
 3388TIP3    H234360   1.687   0.371  18.891
 3389TIP3   OH234361   1.735   0.596  19.348
 3389TIP3    H134362   1.748   0.490  19.356
 3389TIP3    H234363   1.833   0.623  19.315
 3390TIP3   OH234364   1.813   0.612  19.832
 3390TIP3    H134365   1.913   0.642  19.857
 3390TIP3    H234366   1.756   0.618  19.915
 3391TIP3   OH234367   1.818   0.298  19.376
 3391TIP3    H134368   1.809   0.261  19.467
 3391TIP3    H234369   1.726   0.265  19.334
 3392TIP3   OH234370   0.174   0.377  19.878
 3392TIP3    H134371   0.243   0.297  19.895
 3392TIP3    H234372   0.238   0.461  19.899
 3393TIP3   OH234373   0.119   0.679  19.965
 3393TIP3    H134374   0.134   0.673  19.870
 3393TIP3    H234375   0.067   0.773  19.970
 3394TIP3   OH234376   2.019   0.279  19.033
 3394TIP3    H134377   2.057   0.206  18.969
 3394TIP3    H234378   2.104   0.334  19.065
 3395TIP3   OH234379   0.150   0.297  19.380
 3395TIP3    H134380   0.042   0.294  19.371
 3395TIP3    H234381   0.172   0.370  19.312
 3396TIP3   OH234382   1.659   1.931  19.556
 3396TIP3    H134383   1.740   1.905  19.496
 3396TIP3    H234384   1.705   1.995  19.621
 3397TIP3   OH234385   0.293   1.922  19.907
 3397TIP3    H134386   0.316   1.948  19.998
 3397TIP3    H234387   0.381   1.866  19.883
 3398TIP3   OH234388   0.482   1.755  19.766
 3398TIP3    H134389   0.454   1.651  19.778
 3398TIP3    H234390   0.584   1.757  19.798
 3399TIP3   OH234391   0.771   1.809  19.868
 3399TIP3    H134392   0.795   1.707  19.844
 3399TIP3    H234393   0.812   1.819  19.957
 3400TIP3   OH234394   1.137   0.299  19.798
 3400TIP3    H134395   1.079   0.209  19.801
 3400TIP3    H234396   1.208   0.272  19.728
 3401TIP3   OH234397   1.717   0.099  19.817
 3401TIP3    H134398   1.800   0.151  19.773
 3401TIP3    H234399   1.637   0.154  19.779
 3402TIP3   OH234400   1.924   0.175  19.612
 3402TIP3    H134401   1.988   0.108  19.565
 3402TIP3    H234402   1.974   0.270  19.596
 3403TIP3   OH234403   0.319   0.149  19.568
 3403TIP3    H134404   0.250   0.182  19.500
 3403TIP3    H234405   0.311   0.041  19.558
 3404TIP3   OH234406   0.105   0.128  19.131
 3404TIP3    H134407   0.169   0.158  19.059
 3404TIP3    H234408   0.142   0.187  19.206
 3405TIP3   OH234409   0.835   0.113  19.488
 3405TIP3    H134410   0.939   0.143  19.488
 3405TIP3    H234411   0.798   0.164  19.566
 3406TIP3   OH234412   1.365   0.166  19.660
 3406TIP3    H134413   1.444   0.175  19.597
 3406TIP3    H234414   1.404   0.097  19.723
 3407TIP3   OH234415   1.582   0.188  19.233
 3407TIP3    H134416   1.478   0.219  19.226
 3407TIP3    H234417   1.571   0.085  19.253
 3408TIP3   OH234418   0.209   1.847  19.236
 3408TIP3    H134419   0.103   1.855  19.220
 3408TIP3    H234420   0.238   1.947  19.207
 3409TIP3   OH234421   0.345   0.205  18.976
 3409TIP3    H134422   0.426   0.176  18.914
 3409TIP3    H234423   0.402   0.254  19.046
 3410TIP3   OH234424   0.934   0.321  19.227
 3410TIP3    H134425   0.964   0.242  19.287
 3410TIP3    H234426   0.979   0.407  19.273
 3411TIP3   OH234427   1.170   1.955  19.066
 3411TIP3    H134428   1.275   1.958  19.044
 3411TIP3    H234429   1.138   1.896  18.988
 3412TIP3   OH234430   1.868   1.859  19.362
 3412TIP3    H134431   1.845   1.774  19.303
 3412TIP3    H234432   1.869   1.939  19.297
 3413TIP3   OH234433   0.341   1.894  18.925
 3413TIP3    H134434   0.328   1.921  19.017
 3413TIP3    H234435   0.419   1.823  18.934
 3414TIP3   OH234436   3.387   1.087  19.551
 3414TIP3    H134437   3.390   1.194  19.559
 3414TIP3    H234438   3.308   1.075  19.488
 3415TIP3   OH234439   3.270   0.981  19.870
 3415TIP3    H134440   3.261   0.934  19.957
 3415TIP3    H234441   3.208   0.923  19.812
 3416TIP3   OH234442   3.608   1.301  19.701
 3416TIP3    H134443   3.579   1.222  19.762
 3416TIP3    H234444   3.645   1.373  19.765
 3417TIP3   OH234445   2.550   1.469  19.887
 3417TIP3    H134446   2.525   1.368  19.859
 3417TIP3    H234447   2.657   1.471  19.873
 3418TIP3   OH234448   2.198   0.710  19.417
 3418TIP3    H134449   2.163   0.810  19.420
 3418TIP3    H234450   2.106   0.656  19.417
 3419TIP3   OH234451   2.208   0.981  19.603
 3419TIP3    H134452   2.251   0.899  19.653
 3419TIP3    H234453   2.291   1.023  19.557
 3420TIP3   OH234454   3.348   1.921  19.735
 3420TIP3    H134455   3.412   1.862  19.676
 3420TIP3    H234456   3.323   1.842  19.796
 3421TIP3   OH234457   3.132   1.279  19.980
 3421TIP3    H134458   3.175   1.234  19.902
 3421TIP3    H234459   3.204   1.254  20.046
 3422TIP3   OH234460   3.465   0.631  19.980
 3422TIP3    H134461   3.486   0.528  19.983
 3422TIP3    H234462   3.460   0.648  19.884
 3423TIP3   OH234463   2.708   0.422  19.670
 3423TIP3    H134464   2.721   0.518  19.626
 3423TIP3    H234465   2.651   0.369  19.602
 3424TIP3   OH234466   3.517   0.465  19.524
 3424TIP3    H134467   3.581   0.411  19.587
 3424TIP3    H234468   3.586   0.535  19.487
 3425TIP3   OH234469   2.338   0.754  19.732
 3425TIP3    H134470   2.400   0.693  19.788
 3425TIP3    H234471   2.339   0.691  19.652
 3426TIP3   OH234472   2.849   0.880  19.699
 3426TIP3    H134473   2.921   0.813  19.739
 3426TIP3    H234474   2.796   0.811  19.642
 3427TIP3   OH234475   3.318   1.351  19.425
 3427TIP3    H134476   3.299   1.350  19.329
 3427TIP3    H234477   3.296   1.454  19.447
 3428TIP3   OH234478   3.697   0.394  19.717
 3428TIP3    H134479   3.656   0.367  19.803
 3428TIP3    H234480   3.802   0.396  19.738
 3429TIP3   OH234481   2.538   0.539  19.868
 3429TIP3    H134482   2.561   0.640  19.850
 3429TIP3    H234483   2.576   0.491  19.787
 3430TIP3   OH234484   2.235   1.331  19.256
 3430TIP3    H134485   2.228   1.391  19.175
 3430TIP3    H234486   2.244   1.406  19.325
 3431TIP3   OH234487   3.733   1.480  19.876
 3431TIP3    H134488   3.677   1.423  19.943
 3431TIP3    H234489   3.781   1.550  19.933
 3432TIP3   OH234490   2.999   0.081  19.801
 3432TIP3    H134491   3.010  -0.025  19.813
 3432TIP3    H234492   2.918   0.098  19.864
 3433TIP3   OH234493   3.514   1.734  19.595
 3433TIP3    H134494   3.565   1.641  19.574
 3433TIP3    H234495   3.597   1.802  19.580
 3434TIP3   OH234496   3.689   1.502  19.486
 3434TIP3    H134497   3.675   1.428  19.416
 3434TIP3    H234498   3.681   1.438  19.564
 3435TIP3   OH234499   3.235   0.994  19.283
 3435TIP3    H134500   3.187   1.089  19.270
 3435TIP3    H234501   3.320   1.001  19.224
 3436TIP3   OH234502   3.253   0.886  18.984
 3436TIP3    H134503   3.337   0.932  19.026
 3436TIP3    H234504   3.287   0.785  18.972
 3437TIP3   OH234505   3.652   0.989  19.388
 3437TIP3    H134506   3.577   1.031  19.448
 3437TIP3    H234507   3.729   0.961  19.450
 3438TIP3   OH234508   2.699   1.085  19.565
 3438TIP3    H134509   2.662   1.029  19.488
 3438TIP3    H234510   2.758   1.010  19.612
 3439TIP3   OH234511   2.858   1.494  19.842
 3439TIP3    H134512   2.838   1.469  19.749
 3439TIP3    H234513   2.926   1.419  19.869
 3440TIP3   OH234514   2.685   0.933  19.918
 3440TIP3    H134515   2.749   0.923  19.839
 3440TIP3    H234516   2.731   1.010  19.972
 3441TIP3   OH234517   3.500   0.954  19.152
 3441TIP3    H134518   3.557   0.975  19.233
 3441TIP3    H234519   3.559   1.005  19.082
 3442TIP3   OH234520   3.247   1.634  19.455
 3442TIP3    H134521   3.328   1.671  19.511
 3442TIP3    H234522   3.204   1.724  19.423
 3443TIP3   OH234523   3.914   0.096  19.180
 3443TIP3    H134524   3.818   0.143  19.189
 3443TIP3    H234525   3.966   0.174  19.131
 3444TIP3   OH234526   2.555   0.976  19.339
 3444TIP3    H134527   2.539   1.072  19.298
 3444TIP3    H234528   2.518   0.911  19.270
 3445TIP3   OH234529   4.038   1.601  18.985
 3445TIP3    H134530   4.068   1.703  19.003
 3445TIP3    H234531   4.133   1.552  19.003
 3446TIP3   OH234532   2.159   1.605  19.832
 3446TIP3    H134533   2.235   1.536  19.860
 3446TIP3    H234534   2.133   1.654  19.913
 3447TIP3   OH234535   3.217   1.960  19.334
 3447TIP3    H134536   3.212   1.980  19.238
 3447TIP3    H234537   3.207   2.061  19.368
 3448TIP3   OH234538   2.503   1.849  19.505
 3448TIP3    H134539   2.525   1.830  19.600
 3448TIP3    H234540   2.407   1.802  19.495
 3449TIP3   OH234541   3.550   1.906  19.026
 3449TIP3    H134542   3.600   1.817  18.992
 3449TIP3    H234543   3.553   1.893  19.122
 3450TIP3   OH234544   3.506   1.884  19.301
 3450TIP3    H134545   3.402   1.912  19.312
 3450TIP3    H234546   3.514   1.802  19.362
 3451TIP3   OH234547   2.718   0.168  19.933
 3451TIP3    H134548   2.631   0.196  19.880
 3451TIP3    H234549   2.761   0.265  19.946
 3452TIP3   OH234550   3.669   1.090  18.972
 3452TIP3    H134551   3.650   1.105  18.877
 3452TIP3    H234552   3.775   1.104  18.971
 3453TIP3   OH234553   3.159   0.376  19.026
 3453TIP3    H134554   3.123   0.305  19.090
 3453TIP3    H234555   3.103   0.351  18.947
 3454TIP3   OH234556   2.713   0.681  19.559
 3454TIP3    H134557   2.609   0.655  19.540
 3454TIP3    H234558   2.758   0.673  19.469
 3455TIP3   OH234559   3.342   0.751  19.394
 3455TIP3    H134560   3.297   0.841  19.356
 3455TIP3    H234561   3.403   0.720  19.319
 3456TIP3   OH234562   3.434   0.675  19.699
 3456TIP3    H134563   3.416   0.747  19.628
 3456TIP3    H234564   3.450   0.587  19.643
 3457TIP3   OH234565   2.781   0.404  18.876
 3457TIP3    H134566   2.743   0.378  18.964
 3457TIP3    H234567   2.703   0.466  18.842
 3458TIP3   OH234568   2.105   0.432  19.609
 3458TIP3    H134569   2.173   0.409  19.681
 3458TIP3    H234570   2.153   0.385  19.533
 3459TIP3   OH234571   2.198   0.468  19.157
 3459TIP3    H134572   2.267   0.513  19.094
 3459TIP3    H234573   2.138   0.553  19.180
 3460TIP3   OH234574   3.028   0.414  19.612
 3460TIP3    H134575   2.929   0.381  19.638
 3460TIP3    H234576   3.086   0.381  19.689
 3461TIP3   OH234577   2.410   0.558  19.537
 3461TIP3    H134578   2.336   0.611  19.483
 3461TIP3    H234579   2.434   0.473  19.480
 3462TIP3   OH234580   2.811   0.646  19.307
 3462TIP3    H134581   2.907   0.624  19.269
 3462TIP3    H234582   2.758   0.682  19.229
 3463TIP3   OH234583   3.463   0.293  19.942
 3463TIP3    H134584   3.446   0.284  20.037
 3463TIP3    H234585   3.361   0.292  19.908
 3464TIP3   OH234586   2.692   0.757  19.016
 3464TIP3    H134587   2.664   0.706  18.933
 3464TIP3    H234588   2.789   0.792  18.986
 3465TIP3   OH234589   3.126   0.695  19.844
 3465TIP3    H134590   3.204   0.679  19.778
 3465TIP3    H234591   3.144   0.611  19.901
 3466TIP3   OH234592   2.570   0.326  19.431
 3466TIP3    H134593   2.528   0.235  19.472
 3466TIP3    H234594   2.642   0.283  19.371
 3467TIP3   OH234595   3.058   1.250  19.244
 3467TIP3    H134596   2.979   1.192  19.202
 3467TIP3    H234597   3.008   1.273  19.330
 3468TIP3   OH234598   3.447   0.435  19.030
 3468TIP3    H134599   3.339   0.435  19.034
 3468TIP3    H234600   3.473   0.526  19.077
 3469TIP3   OH234601   3.531   0.653  19.187
 3469TIP3    H134602   3.619   0.642  19.242
 3469TIP3    H234603   3.545   0.751  19.148
 3470TIP3   OH234604   2.490   1.197  19.794
 3470TIP3    H134605   2.543   1.196  19.710
 3470TIP3    H234606   2.554   1.137  19.852
 3471TIP3   OH234607   3.273   1.394  19.130
 3471TIP3    H134608   3.230   1.492  19.145
 3471TIP3    H234609   3.194   1.331  19.166
 3472TIP3   OH234610   4.068   0.684  19.194
 3472TIP3    H134611   4.019   0.649  19.113
 3472TIP3    H234612   4.084   0.788  19.173
 3473TIP3   OH234613   3.840   1.646  19.196
 3473TIP3    H134614   3.824   1.575  19.268
 3473TIP3    H234615   3.908   1.597  19.136
 3474TIP3   OH234616   3.561   1.070  19.880
 3474TIP3    H134617   3.460   1.034  19.866
 3474TIP3    H234618   3.617   1.000  19.826
 3475TIP3   OH234619   2.746   1.549  19.581
 3475TIP3    H134620   2.801   1.640  19.572
 3475TIP3    H234621   2.669   1.566  19.517
 3476TIP3   OH234622   2.350   1.015  19.015
 3476TIP3    H134623   2.392   1.075  19.087
 3476TIP3    H234624   2.244   1.019  19.030
 3477TIP3   OH234625   2.896   1.293  19.470
 3477TIP3    H134626   2.852   1.381  19.508
 3477TIP3    H234627   2.845   1.214  19.519
 3478TIP3   OH234628   2.791   1.818  19.427
 3478TIP3    H134629   2.684   1.830  19.439
 3478TIP3    H234630   2.825   1.911  19.469
 3479TIP3   OH234631   3.638   1.423  19.011
 3479TIP3    H134632   3.653   1.394  19.103
 3479TIP3    H234633   3.536   1.390  18.999
 3480TIP3   OH234634   4.102   1.891  19.050
 3480TIP3    H134635   4.170   1.959  19.009
 3480TIP3    H234636   4.026   1.959  19.082
 3481TIP3   OH234637   3.722   1.252  19.251
 3481TIP3    H134638   3.703   1.147  19.264
 3481TIP3    H234639   3.828   1.252  19.234
 3482TIP3   OH234640   2.970   1.594  18.862
 3482TIP3    H134641   2.959   1.528  18.787
 3482TIP3    H234642   2.902   1.553  18.927
 3483TIP3   OH234643   2.835   1.477  19.110
 3483TIP3    H134644   2.921   1.433  19.151
 3483TIP3    H234645   2.847   1.581  19.140
 3484TIP3   OH234646   2.495   1.206  19.172
 3484TIP3    H134647   2.398   1.248  19.193
 3484TIP3    H234648   2.542   1.285  19.122
 3485TIP3   OH234649   3.384   0.326  19.329
 3485TIP3    H134650   3.378   0.403  19.263
 3485TIP3    H234651   3.445   0.370  19.399
 3486TIP3   OH234652   3.167   1.674  19.160
 3486TIP3    H134653   3.070   1.716  19.181
 3486TIP3    H234654   3.225   1.763  19.145
 3487TIP3   OH234655   3.099   0.536  19.362
 3487TIP3    H134656   3.183   0.597  19.384
 3487TIP3    H234657   3.066   0.502  19.450
 3488TIP3   OH234658   3.169   0.201  19.469
 3488TIP3    H134659   3.145   0.289  19.520
 3488TIP3    H234660   3.261   0.233  19.427
 3489TIP3   OH234661   2.878   1.755  19.166
 3489TIP3    H134662   2.891   1.844  19.110
 3489TIP3    H234663   2.835   1.800  19.246
 3490TIP3   OH234664   2.677   0.349  19.135
 3490TIP3    H134665   2.661   0.433  19.191
 3490TIP3    H234666   2.778   0.324  19.165
 3491TIP3   OH234667   3.676   0.843  19.741
 3491TIP3    H134668   3.594   0.773  19.748
 3491TIP3    H234669   3.748   0.796  19.801
 3492TIP3   OH234670   2.526   1.469  19.019
 3492TIP3    H134671   2.604   1.507  19.076
 3492TIP3    H234672   2.584   1.417  18.952
 3493TIP3   OH234673   2.324   0.691  18.985
 3493TIP3    H134674   2.374   0.783  19.003
 3493TIP3    H234675   2.248   0.722  18.924
 3494TIP3   OH234676   3.824   1.868  19.945
 3494TIP3    H134677   3.835   1.951  19.884
 3494TIP3    H234678   3.915   1.868  19.994
 3495TIP3   OH234679   2.447   0.161  19.782
 3495TIP3    H134680   2.457   0.158  19.684
 3495TIP3    H234681   2.418   0.057  19.796
 3496TIP3   OH234682   2.292   1.615  19.432
 3496TIP3    H134683   2.208   1.678  19.446
 3496TIP3    H234684   2.330   1.658  19.350
 3497TIP3   OH234685   3.214   1.789  18.862
 3497TIP3    H134686   3.156   1.699  18.876
 3497TIP3    H234687   3.302   1.747  18.820
 3498TIP3   OH234688   3.694   1.696  18.879
 3498TIP3    H134689   3.711   1.626  18.950
 3498TIP3    H234690   3.788   1.701  18.833
 3499TIP3   OH234691   2.697   1.267  18.864
 3499TIP3    H134692   2.732   1.236  18.952
 3499TIP3    H234693   2.786   1.253  18.810
 3500TIP3   OH234694   3.315   1.413  18.845
 3500TIP3    H134695   3.280   1.398  18.936
 3500TIP3    H234696   3.310   1.311  18.813
 3501TIP3   OH234697   2.838   1.077  19.125
 3501TIP3    H134698   2.762   1.019  19.167
 3501TIP3    H234699   2.882   1.005  19.064
 3502TIP3   OH234700   2.962   0.860  18.929
 3502TIP3    H134701   2.971   0.881  18.834
 3502TIP3    H234702   3.065   0.873  18.959
 3503TIP3   OH234703   3.956   1.093  18.863
 3503TIP3    H134704   3.939   1.068  18.769
 3503TIP3    H234705   3.952   1.202  18.860
 3504TIP3   OH234706   2.938   2.022  19.069
 3504TIP3    H134707   3.046   2.020  19.069
 3504TIP3    H234708   2.921   2.077  18.987
 3505TIP3   OH234709   2.214   1.441  19.003
 3505TIP3    H134710   2.322   1.444  18.994
 3505TIP3    H234711   2.184   1.377  18.928
 3506TIP3   OH234712   2.106   1.994  19.456
 3506TIP3    H134713   2.014   1.944  19.432
 3506TIP3    H234714   2.128   1.943  19.540
 3507TIP3   OH234715   2.182   1.824  19.658
 3507TIP3    H134716   2.156   1.729  19.699
 3507TIP3    H234717   2.239   1.870  19.731
 3508TIP3   OH234718   4.028   1.225  19.242
 3508TIP3    H134719   4.121   1.279  19.256
 3508TIP3    H234720   4.026   1.160  19.321
 3509TIP3   OH234721   4.040   1.054  19.467
 3509TIP3    H134722   3.971   0.987  19.511
 3509TIP3    H234723   4.126   1.049  19.526
 3510TIP3   OH234724   4.143   1.322  19.944
 3510TIP3    H134725   4.195   1.260  19.883
 3510TIP3    H234726   4.077   1.378  19.887
 3511TIP3   OH234727   4.116   0.978  19.089
 3511TIP3    H134728   4.039   0.978  19.021
 3511TIP3    H234729   4.089   1.067  19.138
 3512TIP3   OH234730   3.924   0.705  18.949
 3512TIP3    H134731   3.950   0.757  18.867
 3512TIP3    H234732   3.896   0.607  18.915
 3513TIP3   OH234733   3.854   0.821  19.532
 3513TIP3    H134734   3.805   0.739  19.488
 3513TIP3    H234735   3.799   0.825  19.616
 3514TIP3   OH234736   2.142   1.026  19.870
 3514TIP3    H134737   2.193   1.005  19.787
 3514TIP3    H234738   2.222   1.048  19.932
 3515TIP3   OH234739   3.874   0.437  18.870
 3515TIP3    H134740   3.934   0.355  18.901
 3515TIP3    H234741   3.774   0.392  18.872
 3516TIP3   OH234742   3.773   0.595  19.369
 3516TIP3    H134743   3.809   0.493  19.372
 3516TIP3    H234744   3.864   0.643  19.340
 3517TIP3   OH234745   3.871   0.669  19.872
 3517TIP3    H134746   3.978   0.660  19.872
 3517TIP3    H234747   3.841   0.575  19.915
 3518TIP3   OH234748   3.869   0.306  19.397
 3518TIP3    H134749   3.894   0.252  19.478
 3518TIP3    H234750   3.798   0.241  19.353
 3519TIP3   OH234751   2.246   0.376  19.883
 3519TIP3    H134752   2.311   0.289  19.886
 3519TIP3    H234753   2.318   0.452  19.897
 3520TIP3   OH234754   2.098   0.728  19.885
 3520TIP3    H134755   2.175   0.714  19.820
 3520TIP3    H234756   2.105   0.834  19.901
 3521TIP3   OH234757   4.087   0.273  19.030
 3521TIP3    H134758   4.126   0.200  18.966
 3521TIP3    H234759   4.148   0.357  19.015
 3522TIP3   OH234760   2.135   0.261  19.378
 3522TIP3    H134761   2.030   0.253  19.358
 3522TIP3    H234762   2.170   0.314  19.300
 3523TIP3   OH234763   3.739   1.928  19.550
 3523TIP3    H134764   3.816   1.907  19.485
 3523TIP3    H234765   3.789   1.991  19.615
 3524TIP3   OH234766   2.361   1.928  19.867
 3524TIP3    H134767   2.385   1.936  19.963
 3524TIP3    H234768   2.446   1.874  19.832
 3525TIP3   OH234769   2.575   1.763  19.758
 3525TIP3    H134770   2.564   1.658  19.769
 3525TIP3    H234771   2.670   1.780  19.802
 3526TIP3   OH234772   2.846   1.812  19.857
 3526TIP3    H134773   2.872   1.708  19.844
 3526TIP3    H234774   2.841   1.815  19.953
 3527TIP3   OH234775   3.208   0.295  19.794
 3527TIP3    H134776   3.155   0.200  19.800
 3527TIP3    H234777   3.287   0.265  19.733
 3528TIP3   OH234778   3.786   0.100  19.802
 3528TIP3    H134779   3.852   0.122  19.728
 3528TIP3    H234780   3.693   0.142  19.772
 3529TIP3   OH234781   3.994   0.171  19.605
 3529TIP3    H134782   4.048   0.094  19.558
 3529TIP3    H234783   4.059   0.257  19.595
 3530TIP3   OH234784   2.421   0.113  19.526
 3530TIP3    H134785   2.340   0.130  19.464
 3530TIP3    H234786   2.411   0.008  19.542
 3531TIP3   OH234787   2.281   0.107  19.161
 3531TIP3    H134788   2.297   0.144  19.070
 3531TIP3    H234789   2.182   0.140  19.180
 3532TIP3   OH234790   2.912   0.110  19.548
 3532TIP3    H134791   2.999   0.142  19.497
 3532TIP3    H234792   2.950   0.115  19.640
 3533TIP3   OH234793   3.457   0.166  19.663
 3533TIP3    H134794   3.517   0.138  19.587
 3533TIP3    H234795   3.463   0.077  19.717
 3534TIP3   OH234796   3.640   0.194  19.238
 3534TIP3    H134797   3.536   0.217  19.227
 3534TIP3    H234798   3.633   0.091  19.265
 3535TIP3   OH234799   2.272   1.809  19.230
 3535TIP3    H134800   2.173   1.807  19.194
 3535TIP3    H234801   2.299   1.910  19.207
 3536TIP3   OH234802   2.416   0.253  18.962
 3536TIP3    H134803   2.486   0.196  18.908
 3536TIP3    H234804   2.478   0.280  19.036
 3537TIP3   OH234805   2.973   0.306  19.237
 3537TIP3    H134806   3.036   0.241  19.290
 3537TIP3    H234807   3.022   0.400  19.258
 3538TIP3   OH234808   3.258   1.960  19.068
 3538TIP3    H134809   3.363   1.959  19.045
 3538TIP3    H234810   3.225   1.904  18.989
 3539TIP3   OH234811   3.940   1.866  19.352
 3539TIP3    H134812   3.912   1.785  19.290
 3539TIP3    H234813   3.938   1.950  19.291
 3540TIP3   OH234814   2.383   1.895  18.917
 3540TIP3    H134815   2.358   1.948  18.999
 3540TIP3    H234816   2.473   1.845  18.943
 3541TIP3   OH234817   5.454   1.091  19.545
 3541TIP3    H134818   5.455   1.198  19.553
 3541TIP3    H234819   5.375   1.079  19.481
 3542TIP3   OH234820   5.344   0.977  19.872
 3542TIP3    H134821   5.338   0.932  19.961
 3542TIP3    H234822   5.271   0.924  19.820
 3543TIP3   OH234823   5.679   1.303  19.696
 3543TIP3    H134824   5.650   1.219  19.750
 3543TIP3    H234825   5.727   1.366  19.764
 3544TIP3   OH234826   4.626   1.464  19.880
 3544TIP3    H134827   4.603   1.364  19.849
 3544TIP3    H234828   4.732   1.467  19.869
 3545TIP3   OH234829   4.257   0.712  19.453
 3545TIP3    H134830   4.213   0.807  19.463
 3545TIP3    H234831   4.171   0.655  19.427
 3546TIP3   OH234832   4.294   0.983  19.608
 3546TIP3    H134833   4.339   0.902  19.656
 3546TIP3    H234834   4.374   1.025  19.556
 3547TIP3   OH234835   5.433   1.916  19.745
 3547TIP3    H134836   5.498   1.851  19.694
 3547TIP3    H234837   5.386   1.842  19.800
 3548TIP3   OH234838   5.215   1.291  19.990
 3548TIP3    H134839   5.251   1.248  19.908
 3548TIP3    H234840   5.282   1.248  20.054
 3549TIP3   OH234841   5.526   0.630  19.970
 3549TIP3    H134842   5.553   0.528  19.979
 3549TIP3    H234843   5.514   0.639  19.873
 3550TIP3   OH234844   4.774   0.433  19.668
 3550TIP3    H134845   4.785   0.521  19.611
 3550TIP3    H234846   4.722   0.370  19.605
 3551TIP3   OH234847   5.592   0.472  19.514
 3551TIP3    H134848   5.655   0.419  19.579
 3551TIP3    H234849   5.662   0.544  19.482
 3552TIP3   OH234850   4.360   0.724  19.753
 3552TIP3    H134851   4.435   0.671  19.802
 3552TIP3    H234852   4.377   0.684  19.663
 3553TIP3   OH234853   4.934   0.879  19.699
 3553TIP3    H134854   5.008   0.814  19.736
 3553TIP3    H234855   4.888   0.812  19.634
 3554TIP3   OH234856   5.390   1.359  19.415
 3554TIP3    H134857   5.366   1.359  19.320
 3554TIP3    H234858   5.369   1.462  19.436
 3555TIP3   OH234859   5.763   0.392  19.713
 3555TIP3    H134860   5.730   0.373  19.804
 3555TIP3    H234861   5.869   0.397  19.726
 3556TIP3   OH234862   4.609   0.539  19.874
 3556TIP3    H134863   4.632   0.639  19.846
 3556TIP3    H234864   4.648   0.484  19.796
 3557TIP3   OH234865   4.315   1.332  19.257
 3557TIP3    H134866   4.306   1.395  19.179
 3557TIP3    H234867   4.327   1.405  19.328
 3558TIP3   OH234868   5.818   1.472  19.874
 3558TIP3    H134869   5.774   1.430  19.956
 3558TIP3    H234870   5.850   1.566  19.905
 3559TIP3   OH234871   5.069   0.084  19.807
 3559TIP3    H134872   5.076  -0.024  19.816
 3559TIP3    H234873   4.985   0.103  19.866
 3560TIP3   OH234874   5.586   1.734  19.601
 3560TIP3    H134875   5.640   1.646  19.571
 3560TIP3    H234876   5.661   1.809  19.582
 3561TIP3   OH234877   5.760   1.510  19.495
 3561TIP3    H134878   5.744   1.437  19.426
 3561TIP3    H234879   5.750   1.448  19.574
 3562TIP3   OH234880   5.305   0.999  19.287
 3562TIP3    H134881   5.257   1.091  19.261
 3562TIP3    H234882   5.402   1.008  19.246
 3563TIP3   OH234883   5.335   0.884  18.989
 3563TIP3    H134884   5.401   0.928  19.054
 3563TIP3    H234885   5.358   0.781  18.995
 3564TIP3   OH234886   5.733   1.009  19.391
 3564TIP3    H134887   5.649   1.035  19.447
 3564TIP3    H234888   5.801   0.972  19.457
 3565TIP3   OH234889   4.782   1.087  19.562
 3565TIP3    H134890   4.741   1.034  19.485
 3565TIP3    H234891   4.839   1.012  19.608
 3566TIP3   OH234892   4.935   1.495  19.839
 3566TIP3    H134893   4.914   1.471  19.745
 3566TIP3    H234894   4.998   1.417  19.866
 3567TIP3   OH234895   4.748   0.912  19.915
 3567TIP3    H134896   4.817   0.920  19.840
 3567TIP3    H234897   4.797   0.967  19.985
 3568TIP3   OH234898   5.575   0.957  19.157
 3568TIP3    H134899   5.642   0.983  19.230
 3568TIP3    H234900   5.630   1.001  19.080
 3569TIP3   OH234901   5.332   1.637  19.448
 3569TIP3    H134902   5.405   1.673  19.510
 3569TIP3    H234903   5.277   1.725  19.426
 3570TIP3   OH234904   5.992   0.095  19.181
 3570TIP3    H134905   5.893   0.135  19.185
 3570TIP3    H234906   6.042   0.175  19.134
 3571TIP3   OH234907   4.629   0.981  19.344
 3571TIP3    H134908   4.618   1.077  19.300
 3571TIP3    H234909   4.599   0.915  19.273
 3572TIP3   OH234910   6.116   1.582  19.004
 3572TIP3    H134911   6.142   1.686  19.012
 3572TIP3    H234912   6.215   1.539  19.009
 3573TIP3   OH234913   4.217   1.599  19.835
 3573TIP3    H134914   4.301   1.554  19.878
 3573TIP3    H234915   4.164   1.641  19.910
 3574TIP3   OH234916   5.291   1.964  19.351
 3574TIP3    H134917   5.290   1.984  19.255
 3574TIP3    H234918   5.276   2.064  19.386
 3575TIP3   OH234919   4.569   1.850  19.508
 3575TIP3    H134920   4.591   1.824  19.601
 3575TIP3    H234921   4.472   1.807  19.496
 3576TIP3   OH234922   5.626   1.903  19.026
 3576TIP3    H134923   5.675   1.816  18.987
 3576TIP3    H234924   5.630   1.880  19.121
 3577TIP3   OH234925   5.576   1.890  19.307
 3577TIP3    H134926   5.471   1.916  19.321
 3577TIP3    H234927   5.587   1.809  19.371
 3578TIP3   OH234928   4.798   0.173  19.927
 3578TIP3    H134929   4.709   0.187  19.874
 3578TIP3    H234930   4.830   0.275  19.939
 3579TIP3   OH234931   5.739   1.092  18.966
 3579TIP3    H134932   5.715   1.111  18.873
 3579TIP3    H234933   5.844   1.105  18.963
 3580TIP3   OH234934   5.228   0.375  19.016
 3580TIP3    H134935   5.207   0.315  19.093
 3580TIP3    H234936   5.182   0.319  18.945
 3581TIP3   OH234937   4.789   0.686  19.544
 3581TIP3    H134938   4.684   0.668  19.532
 3581TIP3    H234939   4.827   0.668  19.453
 3582TIP3   OH234940   5.418   0.752  19.390
 3582TIP3    H134941   5.365   0.834  19.348
 3582TIP3    H234942   5.481   0.720  19.317
 3583TIP3   OH234943   5.508   0.679  19.697
 3583TIP3    H134944   5.493   0.755  19.630
 3583TIP3    H234945   5.520   0.594  19.637
 3584TIP3   OH234946   4.868   0.410  18.874
 3584TIP3    H134947   4.831   0.374  18.961
 3584TIP3    H234948   4.787   0.477  18.851
 3585TIP3   OH234949   4.170   0.430  19.609
 3585TIP3    H134950   4.231   0.413  19.687
 3585TIP3    H234951   4.233   0.393  19.538
 3586TIP3   OH234952   4.294   0.469  19.166
 3586TIP3    H134953   4.359   0.505  19.096
 3586TIP3    H234954   4.233   0.554  19.183
 3587TIP3   OH234955   5.101   0.418  19.624
 3587TIP3    H134956   5.000   0.396  19.652
 3587TIP3    H234957   5.151   0.386  19.706
 3588TIP3   OH234958   4.507   0.584  19.539
 3588TIP3    H134959   4.423   0.635  19.497
 3588TIP3    H234960   4.529   0.506  19.474
 3589TIP3   OH234961   4.888   0.640  19.298
 3589TIP3    H134962   4.987   0.626  19.264
 3589TIP3    H234963   4.838   0.688  19.224
 3590TIP3   OH234964   5.543   0.297  19.948
 3590TIP3    H134965   5.530   0.289  20.045
 3590TIP3    H234966   5.441   0.294  19.918
 3591TIP3   OH234967   4.756   0.752  19.033
 3591TIP3    H134968   4.705   0.679  18.981
 3591TIP3    H234969   4.844   0.767  18.980
 3592TIP3   OH234970   5.198   0.696  19.840
 3592TIP3    H134971   5.271   0.686  19.770
 3592TIP3    H234972   5.224   0.613  19.896
 3593TIP3   OH234973   4.634   0.330  19.430
 3593TIP3    H134974   4.585   0.244  19.470
 3593TIP3    H234975   4.718   0.280  19.392
 3594TIP3   OH234976   5.129   1.246  19.242
 3594TIP3    H134977   5.051   1.184  19.205
 3594TIP3    H234978   5.084   1.275  19.328
 3595TIP3   OH234979   5.507   0.433  19.047
 3595TIP3    H134980   5.398   0.436  19.043
 3595TIP3    H234981   5.532   0.531  19.080
 3596TIP3   OH234982   5.608   0.659  19.184
 3596TIP3    H134983   5.696   0.642  19.238
 3596TIP3    H234984   5.626   0.757  19.149
 3597TIP3   OH234985   4.551   1.185  19.784
 3597TIP3    H134986   4.567   1.154  19.693
 3597TIP3    H234987   4.633   1.142  19.832
 3598TIP3   OH234988   5.343   1.397  19.130
 3598TIP3    H134989   5.302   1.495  19.151
 3598TIP3    H234990   5.266   1.331  19.164
 3599TIP3   OH234991   6.136   0.693  19.188
 3599TIP3    H134992   6.087   0.655  19.108
 3599TIP3    H234993   6.152   0.796  19.160
 3600TIP3   OH234994   5.918   1.646  19.211
 3600TIP3    H134995   5.894   1.574  19.279
 3600TIP3    H234996   5.977   1.590  19.148
 3601TIP3   OH234997   5.632   1.064  19.882
 3601TIP3    H134998   5.530   1.032  19.866
 3601TIP3    H234999   5.690   0.994  19.828
 3602TIP3   OH235000   4.829   1.555  19.573
 3602TIP3    H135001   4.878   1.651  19.568
 3602TIP3    H235002   4.744   1.573  19.517
 3603TIP3   OH235003   4.413   1.012  19.024
 3603TIP3    H135004   4.459   1.078  19.089
 3603TIP3    H235005   4.308   1.013  19.046
 3604TIP3   OH235006   4.980   1.300  19.467
 3604TIP3    H135007   4.931   1.386  19.505
 3604TIP3    H235008   4.926   1.220  19.509
 3605TIP3   OH235009   4.857   1.828  19.427
 3605TIP3    H135010   4.752   1.836  19.448
 3605TIP3    H235011   4.894   1.916  19.473
 3606TIP3   OH235012   5.715   1.421  19.014
 3606TIP3    H135013   5.717   1.375  19.103
 3606TIP3    H235014   5.617   1.389  18.985
 3607TIP3   OH235015   6.179   1.887  19.054
 3607TIP3    H135016   6.241   1.952  19.005
 3607TIP3    H235017   6.103   1.955  19.088
 3608TIP3   OH235018   5.792   1.270  19.242
 3608TIP3    H135019   5.768   1.178  19.288
 3608TIP3    H235020   5.897   1.263  19.227
 3609TIP3   OH235021   5.051   1.570  18.867
 3609TIP3    H135022   5.035   1.508  18.790
 3609TIP3    H235023   4.989   1.520  18.933
 3610TIP3   OH235024   4.913   1.486  19.105
 3610TIP3    H135025   4.995   1.440  19.150
 3610TIP3    H235026   4.927   1.588  19.135
 3611TIP3   OH235027   4.569   1.201  19.171
 3611TIP3    H135028   4.477   1.245  19.201
 3611TIP3    H235029   4.612   1.283  19.119
 3612TIP3   OH235030   5.460   0.320  19.329
 3612TIP3    H135031   5.446   0.400  19.268
 3612TIP3    H235032   5.516   0.367  19.402
 3613TIP3   OH235033   5.234   1.671  19.164
 3613TIP3    H135034   5.140   1.719  19.185
 3613TIP3    H235035   5.295   1.756  19.149
 3614TIP3   OH235036   5.173   0.530  19.378
 3614TIP3    H135037   5.262   0.585  19.400
 3614TIP3    H235038   5.129   0.510  19.466
 3615TIP3   OH235039   5.233   0.207  19.457
 3615TIP3    H135040   5.223   0.297  19.509
 3615TIP3    H235041   5.326   0.230  19.411
 3616TIP3   OH235042   4.943   1.760  19.168
 3616TIP3    H135043   4.949   1.847  19.108
 3616TIP3    H235044   4.891   1.805  19.243
 3617TIP3   OH235045   4.776   0.366  19.128
 3617TIP3    H135046   4.748   0.440  19.194
 3617TIP3    H235047   4.877   0.349  19.160
 3618TIP3   OH235048   5.757   0.843  19.736
 3618TIP3    H135049   5.678   0.772  19.756
 3618TIP3    H235050   5.834   0.806  19.798
 3619TIP3   OH235051   4.591   1.476  19.016
 3619TIP3    H135052   4.671   1.521  19.067
 3619TIP3    H235053   4.649   1.426  18.946
 3620TIP3   OH235054   4.409   0.691  18.959
 3620TIP3    H135055   4.451   0.786  18.982
 3620TIP3    H235056   4.333   0.723  18.898
 3621TIP3   OH235057   5.891   1.877  19.947
 3621TIP3    H135058   5.904   1.960  19.886
 3621TIP3    H235059   5.985   1.872  19.989
 3622TIP3   OH235060   4.543   0.157  19.779
 3622TIP3    H135061   4.540   0.157  19.681
 3622TIP3    H235062   4.504   0.056  19.792
 3623TIP3   OH235063   4.367   1.605  19.423
 3623TIP3    H135064   4.285   1.669  19.445
 3623TIP3    H235065   4.406   1.660  19.346
 3624TIP3   OH235066   5.284   1.796  18.866
 3624TIP3    H135067   5.229   1.705  18.881
 3624TIP3    H235068   5.369   1.756  18.817
 3625TIP3   OH235069   5.775   1.690  18.876
 3625TIP3    H135070   5.794   1.621  18.949
 3625TIP3    H235071   5.872   1.704  18.839
 3626TIP3   OH235072   4.775   1.258  18.853
 3626TIP3    H135073   4.825   1.240  18.937
 3626TIP3    H235074   4.857   1.235  18.791
 3627TIP3   OH235075   5.391   1.410  18.844
 3627TIP3    H135076   5.353   1.401  18.934
 3627TIP3    H235077   5.379   1.307  18.815
 3628TIP3   OH235078   4.918   1.068  19.122
 3628TIP3    H135079   4.841   1.008  19.161
 3628TIP3    H235080   4.961   0.999  19.057
 3629TIP3   OH235081   5.049   0.872  18.923
 3629TIP3    H135082   5.043   0.904  18.830
 3629TIP3    H235083   5.156   0.881  18.939
 3630TIP3   OH235084   6.047   1.089  18.870
 3630TIP3    H135085   6.023   1.067  18.777
 3630TIP3    H235086   6.048   1.198  18.869
 3631TIP3   OH235087   4.998   2.021  19.070
 3631TIP3    H135088   5.101   2.019  19.100
 3631TIP3    H235089   5.008   2.082  18.990
 3632TIP3   OH235090   4.287   1.441  19.002
 3632TIP3    H135091   4.394   1.453  18.997
 3632TIP3    H235092   4.268   1.381  18.921
 3633TIP3   OH235093   4.180   1.990  19.453
 3633TIP3    H135094   4.084   1.945  19.432
 3633TIP3    H235095   4.202   1.935  19.535
 3634TIP3   OH235096   4.249   1.817  19.658
 3634TIP3    H135097   4.222   1.726  19.705
 3634TIP3    H235098   4.309   1.863  19.728
 3635TIP3   OH235099   6.101   1.229  19.237
 3635TIP3    H135100   6.193   1.280  19.252
 3635TIP3    H235101   6.098   1.162  19.315
 3636TIP3   OH235102   6.105   1.057  19.462
 3636TIP3    H135103   6.038   0.986  19.502
 3636TIP3    H235104   6.191   1.046  19.521
 3637TIP3   OH235105   6.203   1.319  19.934
 3637TIP3    H135106   6.270   1.274  19.871
 3637TIP3    H235107   6.142   1.383  19.879
 3638TIP3   OH235108   6.193   0.971  19.087
 3638TIP3    H135109   6.124   0.977  19.012
 3638TIP3    H235110   6.162   1.058  19.137
 3639TIP3   OH235111   5.990   0.694  18.929
 3639TIP3    H135112   5.998   0.745  18.845
 3639TIP3    H235113   5.950   0.595  18.908
 3640TIP3   OH235114   5.936   0.824  19.531
 3640TIP3    H135115   5.893   0.738  19.490
 3640TIP3    H235116   5.879   0.826  19.615
 3641TIP3   OH235117   4.214   1.029  19.866
 3641TIP3    H135118   4.263   1.024  19.778
 3641TIP3    H235119   4.299   1.026  19.926
 3642TIP3   OH235120   5.933   0.415  18.896
 3642TIP3    H135121   6.003   0.342  18.930
 3642TIP3    H235122   5.839   0.363  18.890
 3643TIP3   OH235123   5.842   0.605  19.361
 3643TIP3    H135124   5.872   0.501  19.361
 3643TIP3    H235125   5.935   0.649  19.332
 3644TIP3   OH235126   5.946   0.666  19.867
 3644TIP3    H135127   6.051   0.652  19.864
 3644TIP3    H235128   5.914   0.574  19.912
 3645TIP3   OH235129   5.941   0.316  19.388
 3645TIP3    H135130   5.969   0.256  19.466
 3645TIP3    H235131   5.871   0.254  19.340
 3646TIP3   OH235132   4.332   0.380  19.849
 3646TIP3    H135133   4.398   0.295  19.854
 3646TIP3    H235134   4.398   0.456  19.878
 3647TIP3   OH235135   4.172   0.664  19.967
 3647TIP3    H135136   4.205   0.637  19.877
 3647TIP3    H235137   4.197   0.768  19.963
 3648TIP3   OH235138   6.174   0.267  19.035
 3648TIP3    H135139   6.215   0.201  18.966
 3648TIP3    H235140   6.248   0.344  19.044
 3649TIP3   OH235141   4.219   0.256  19.372
 3649TIP3    H135142   4.113   0.256  19.366
 3649TIP3    H235143   4.245   0.314  19.292
 3650TIP3   OH235144   5.796   1.927  19.540
 3650TIP3    H135145   5.887   1.903  19.491
 3650TIP3    H235146   5.829   1.995  19.608
 3651TIP3   OH235147   4.431   1.924  19.863
 3651TIP3    H135148   4.442   1.927  19.962
 3651TIP3    H235149   4.518   1.866  19.839
 3652TIP3   OH235150   4.648   1.760  19.761
 3652TIP3    H135151   4.642   1.654  19.776
 3652TIP3    H235152   4.743   1.782  19.799
 3653TIP3   OH235153   4.924   1.812  19.862
 3653TIP3    H135154   4.950   1.711  19.841
 3653TIP3    H235155   4.920   1.808  19.959
 3654TIP3   OH235156   5.279   0.303  19.805
 3654TIP3    H135157   5.225   0.209  19.809
 3654TIP3    H235158   5.354   0.277  19.739
 3655TIP3   OH235159   5.855   0.109  19.798
 3655TIP3    H135160   5.925   0.133  19.725
 3655TIP3    H235161   5.766   0.156  19.767
 3656TIP3   OH235162   6.067   0.182  19.598
 3656TIP3    H135163   6.117   0.100  19.554
 3656TIP3    H235164   6.138   0.262  19.590
 3657TIP3   OH235165   4.486   0.115  19.524
 3657TIP3    H135166   4.406   0.135  19.462
 3657TIP3    H235167   4.480   0.008  19.528
 3658TIP3   OH235168   4.361   0.113  19.152
 3658TIP3    H135169   4.369   0.160  19.063
 3658TIP3    H235170   4.266   0.146  19.182
 3659TIP3   OH235171   4.981   0.119  19.554
 3659TIP3    H135172   5.064   0.150  19.500
 3659TIP3    H235173   5.026   0.117  19.644
 3660TIP3   OH235174   5.532   0.171  19.662
 3660TIP3    H135175   5.591   0.144  19.587
 3660TIP3    H235176   5.542   0.083  19.718
 3661TIP3   OH235177   5.719   0.197  19.231
 3661TIP3    H135178   5.617   0.227  19.219
 3661TIP3    H235179   5.706   0.096  19.259
 3662TIP3   OH235180   4.337   1.815  19.234
 3662TIP3    H135181   4.231   1.826  19.232
 3662TIP3    H235182   4.364   1.915  19.206
 3663TIP3   OH235183   4.500   0.256  18.961
 3663TIP3    H135184   4.561   0.192  18.903
 3663TIP3    H235185   4.567   0.264  19.037
 3664TIP3   OH235186   5.050   0.311  19.239
 3664TIP3    H135187   5.102   0.243  19.297
 3664TIP3    H235188   5.096   0.405  19.267
 3665TIP3   OH235189   5.336   1.955  19.085
 3665TIP3    H135190   5.438   1.954  19.056
 3665TIP3    H235191   5.294   1.917  19.001
 3666TIP3   OH235192   6.018   1.860  19.362
 3666TIP3    H135193   5.990   1.778  19.304
 3666TIP3    H235194   6.020   1.939  19.296
 3667TIP3   OH235195   4.477   1.899  18.919
 3667TIP3    H135196   4.452   1.940  19.005
 3667TIP3    H235197   4.557   1.835  18.945
 3668TIP3   OH235198   7.556   1.074  19.546
 3668TIP3    H135199   7.560   1.178  19.564
 3668TIP3    H235200   7.471   1.068  19.488
 3669TIP3   OH235201   7.416   0.970  19.861
 3669TIP3    H135202   7.416   0.931  19.953
 3669TIP3    H235203   7.351   0.902  19.816
 3670TIP3   OH235204   7.739   1.306  19.684
 3670TIP3    H135205   7.699   1.227  19.741
 3670TIP3    H235206   7.784   1.365  19.755
 3671TIP3   OH235207   6.696   1.458  19.883
 3671TIP3    H135208   6.679   1.360  19.842
 3671TIP3    H235209   6.801   1.466  19.874
 3672TIP3   OH235210   6.332   0.715  19.445
 3672TIP3    H135211   6.292   0.811  19.465
 3672TIP3    H235212   6.245   0.661  19.419
 3673TIP3   OH235213   6.365   0.979  19.604
 3673TIP3    H135214   6.411   0.898  19.652
 3673TIP3    H235215   6.445   1.022  19.555
 3674TIP3   OH235216   7.564   1.917  19.803
 3674TIP3    H135217   7.609   1.862  19.727
 3674TIP3    H235218   7.484   1.849  19.824
 3675TIP3   OH235219   7.273   1.287  19.990
 3675TIP3    H135220   7.306   1.242  19.907
 3675TIP3    H235221   7.353   1.265  20.050
 3676TIP3   OH235222   7.601   0.614  19.977
 3676TIP3    H135223   7.635   0.513  19.984
 3676TIP3    H235224   7.634   0.639  19.887
 3677TIP3   OH235225   6.854   0.432  19.677
 3677TIP3    H135226   6.870   0.521  19.621
 3677TIP3    H235227   6.800   0.371  19.613
 3678TIP3   OH235228   7.690   0.461  19.493
 3678TIP3    H135229   7.734   0.435  19.580
 3678TIP3    H235230   7.746   0.548  19.469
 3679TIP3   OH235231   6.428   0.722  19.749
 3679TIP3    H135232   6.508   0.675  19.800
 3679TIP3    H235233   6.448   0.680  19.661
 3680TIP3   OH235234   7.007   0.883  19.701
 3680TIP3    H135235   7.085   0.825  19.739
 3680TIP3    H235236   6.964   0.810  19.640
 3681TIP3   OH235237   7.473   1.346  19.432
 3681TIP3    H135238   7.448   1.356  19.338
 3681TIP3    H235239   7.438   1.440  19.468
 3682TIP3   OH235240   7.808   0.398  19.729
 3682TIP3    H135241   7.762   0.383  19.816
 3682TIP3    H235242   7.912   0.378  19.746
 3683TIP3   OH235243   6.675   0.536  19.872
 3683TIP3    H135244   6.707   0.636  19.853
 3683TIP3    H235245   6.723   0.483  19.798
 3684TIP3   OH235246   6.387   1.333  19.255
 3684TIP3    H135247   6.378   1.398  19.177
 3684TIP3    H235248   6.397   1.405  19.327
 3685TIP3   OH235249   7.900   1.450  19.879
 3685TIP3    H135250   7.859   1.393  19.953
 3685TIP3    H235251   7.937   1.535  19.927
 3686TIP3   OH235252   7.140   0.081  19.802
 3686TIP3    H135253   7.153  -0.024  19.819
 3686TIP3    H235254   7.058   0.100  19.863
 3687TIP3   OH235255   7.664   1.738  19.601
 3687TIP3    H135256   7.690   1.639  19.569
 3687TIP3    H235257   7.754   1.793  19.580
 3688TIP3   OH235258   7.822   1.498  19.477
 3688TIP3    H135259   7.809   1.419  19.413
 3688TIP3    H235260   7.842   1.441  19.558
 3689TIP3   OH235261   7.391   1.001  19.295
 3689TIP3    H135262   7.344   1.095  19.273
 3689TIP3    H235263   7.489   1.011  19.255
 3690TIP3   OH235264   7.415   0.893  18.974
 3690TIP3    H135265   7.482   0.939  19.039
 3690TIP3    H235266   7.427   0.791  18.998
 3691TIP3   OH235267   7.801   1.030  19.376
 3691TIP3    H135268   7.726   1.056  19.443
 3691TIP3    H235269   7.862   0.964  19.431
 3692TIP3   OH235270   6.855   1.086  19.566
 3692TIP3    H135271   6.821   1.034  19.486
 3692TIP3    H235272   6.920   1.014  19.609
 3693TIP3   OH235273   7.005   1.496  19.832
 3693TIP3    H135274   6.984   1.470  19.739
 3693TIP3    H235275   7.066   1.413  19.861
 3694TIP3   OH235276   6.823   0.902  19.919
 3694TIP3    H135277   6.882   0.917  19.838
 3694TIP3    H235278   6.860   0.980  19.977
 3695TIP3   OH235279   7.641   0.956  19.152
 3695TIP3    H135280   7.704   0.986  19.226
 3695TIP3    H235281   7.693   1.001  19.076
 3696TIP3   OH235282   7.398   1.634  19.458
 3696TIP3    H135283   7.450   1.671  19.535
 3696TIP3    H235284   7.349   1.723  19.426
 3697TIP3   OH235285   8.040   0.098  19.088
 3697TIP3    H135286   7.953   0.145  19.122
 3697TIP3    H235287   8.114   0.174  19.107
 3698TIP3   OH235288   6.703   0.983  19.338
 3698TIP3    H135289   6.687   1.078  19.293
 3698TIP3    H235290   6.679   0.914  19.267
 3699TIP3   OH235291   8.186   1.623  18.987
 3699TIP3    H135292   8.220   1.725  19.004
 3699TIP3    H235293   8.283   1.576  18.994
 3700TIP3   OH235294   6.298   1.603  19.844
 3700TIP3    H135295   6.377   1.546  19.883
 3700TIP3    H235296   6.249   1.645  19.921
 3701TIP3   OH235297   7.359   1.960  19.330
 3701TIP3    H135298   7.349   1.971  19.232
 3701TIP3    H235299   7.340   2.062  19.357
 3702TIP3   OH235300   6.652   1.840  19.506
 3702TIP3    H135301   6.674   1.826  19.601
 3702TIP3    H235302   6.552   1.802  19.498
 3703TIP3   OH235303   7.667   1.896  19.027
 3703TIP3    H135304   7.725   1.815  18.988
 3703TIP3    H235305   7.680   1.878  19.123
 3704TIP3   OH235306   7.645   1.878  19.299
 3704TIP3    H135307   7.541   1.894  19.315
 3704TIP3    H235308   7.667   1.805  19.367
 3705TIP3   OH235309   6.871   0.176  19.930
 3705TIP3    H135310   6.790   0.192  19.865
 3705TIP3    H235311   6.909   0.276  19.941
 3706TIP3   OH235312   7.799   1.089  18.967
 3706TIP3    H135313   7.772   1.099  18.872
 3706TIP3    H235314   7.904   1.109  18.962
 3707TIP3   OH235315   7.306   0.392  19.013
 3707TIP3    H135316   7.278   0.328  19.087
 3707TIP3    H235317   7.270   0.337  18.938
 3708TIP3   OH235318   6.871   0.688  19.551
 3708TIP3    H135319   6.765   0.666  19.544
 3708TIP3    H235320   6.905   0.668  19.459
 3709TIP3   OH235321   7.504   0.755  19.397
 3709TIP3    H135322   7.451   0.837  19.355
 3709TIP3    H235323   7.564   0.722  19.322
 3710TIP3   OH235324   7.594   0.674  19.686
 3710TIP3    H135325   7.565   0.746  19.618
 3710TIP3    H235326   7.598   0.586  19.629
 3711TIP3   OH235327   6.944   0.422  18.893
 3711TIP3    H135328   6.896   0.380  18.973
 3711TIP3    H235329   6.863   0.484  18.860
 3712TIP3   OH235330   6.246   0.437  19.623
 3712TIP3    H135331   6.295   0.422  19.710
 3712TIP3    H235332   6.316   0.395  19.562
 3713TIP3   OH235333   6.343   0.470  19.151
 3713TIP3    H135334   6.414   0.509  19.089
 3713TIP3    H235335   6.290   0.559  19.178
 3714TIP3   OH235336   7.168   0.425  19.612
 3714TIP3    H135337   7.076   0.382  19.645
 3714TIP3    H235338   7.234   0.402  19.687
 3715TIP3   OH235339   6.585   0.593  19.537
 3715TIP3    H135340   6.499   0.642  19.496
 3715TIP3    H235341   6.609   0.519  19.469
 3716TIP3   OH235342   6.956   0.642  19.301
 3716TIP3    H135343   7.058   0.620  19.273
 3716TIP3    H235344   6.912   0.691  19.224
 3717TIP3   OH235345   7.608   0.303  19.941
 3717TIP3    H135346   7.575   0.283  20.032
 3717TIP3    H235347   7.512   0.288  19.898
 3718TIP3   OH235348   6.844   0.769  19.035
 3718TIP3    H135349   6.813   0.685  18.982
 3718TIP3    H235350   6.933   0.798  18.985
 3719TIP3   OH235351   7.275   0.696  19.836
 3719TIP3    H135352   7.352   0.675  19.772
 3719TIP3    H235353   7.303   0.627  19.905
 3720TIP3   OH235354   6.713   0.331  19.440
 3720TIP3    H135355   6.659   0.248  19.479
 3720TIP3    H235356   6.790   0.276  19.397
 3721TIP3   OH235357   7.208   1.252  19.241
 3721TIP3    H135358   7.126   1.197  19.200
 3721TIP3    H235359   7.160   1.277  19.326
 3722TIP3   OH235360   7.586   0.426  19.069
 3722TIP3    H135361   7.483   0.441  19.043
 3722TIP3    H235362   7.619   0.525  19.096
 3723TIP3   OH235363   7.688   0.655  19.189
 3723TIP3    H135364   7.786   0.648  19.230
 3723TIP3    H235365   7.693   0.744  19.136
 3724TIP3   OH235366   6.637   1.184  19.789
 3724TIP3    H135367   6.669   1.155  19.700
 3724TIP3    H235368   6.704   1.133  19.848
 3725TIP3   OH235369   7.425   1.400  19.138
 3725TIP3    H135370   7.383   1.498  19.160
 3725TIP3    H235371   7.346   1.334  19.169
 3726TIP3   OH235372   8.209   0.680  19.180
 3726TIP3    H135373   8.159   0.636  19.103
 3726TIP3    H235374   8.236   0.777  19.141
 3727TIP3   OH235375   8.034   1.636  19.222
 3727TIP3    H135376   7.971   1.553  19.244
 3727TIP3    H235377   8.090   1.604  19.144
 3728TIP3   OH235378   7.681   1.101  19.874
 3728TIP3    H135379   7.588   1.049  19.853
 3728TIP3    H235380   7.752   1.042  19.821
 3729TIP3   OH235381   6.903   1.554  19.576
 3729TIP3    H135382   6.951   1.649  19.560
 3729TIP3    H235383   6.818   1.564  19.519
 3730TIP3   OH235384   6.496   0.999  19.019
 3730TIP3    H135385   6.541   1.066  19.084
 3730TIP3    H235386   6.390   1.005  19.038
 3731TIP3   OH235387   7.042   1.291  19.459
 3731TIP3    H135388   7.007   1.379  19.505
 3731TIP3    H235389   6.989   1.213  19.506
 3732TIP3   OH235390   6.937   1.817  19.430
 3732TIP3    H135391   6.830   1.827  19.442
 3732TIP3    H235392   6.969   1.911  19.466
 3733TIP3   OH235393   7.786   1.448  19.014
 3733TIP3    H135394   7.803   1.396  19.098
 3733TIP3    H235395   7.687   1.412  18.999
 3734TIP3   OH235396   8.279   1.898  19.033
 3734TIP3    H135397   8.305   1.992  18.992
 3734TIP3    H235398   8.184   1.927  19.068
 3735TIP3   OH235399   7.893   1.276  19.225
 3735TIP3    H135400   7.859   1.178  19.247
 3735TIP3    H235401   8.000   1.263  19.217
 3736TIP3   OH235402   7.120   1.574  18.864
 3736TIP3    H135403   7.098   1.520  18.782
 3736TIP3    H235404   7.062   1.517  18.928
 3737TIP3   OH235405   6.988   1.474  19.102
 3737TIP3    H135406   7.075   1.433  19.143
 3737TIP3    H235407   6.997   1.576  19.133
 3738TIP3   OH235408   6.634   1.205  19.161
 3738TIP3    H135409   6.541   1.247  19.192
 3738TIP3    H235410   6.679   1.289  19.118
 3739TIP3   OH235411   7.520   0.318  19.331
 3739TIP3    H135412   7.515   0.396  19.264
 3739TIP3    H235413   7.591   0.360  19.394
 3740TIP3   OH235414   7.306   1.685  19.167
 3740TIP3    H135415   7.206   1.722  19.184
 3740TIP3    H235416   7.357   1.777  19.147
 3741TIP3   OH235417   7.236   0.532  19.370
 3741TIP3    H135418   7.319   0.593  19.395
 3741TIP3    H235419   7.196   0.505  19.458
 3742TIP3   OH235420   7.311   0.201  19.468
 3742TIP3    H135421   7.296   0.301  19.497
 3742TIP3    H235422   7.406   0.213  19.423
 3743TIP3   OH235423   7.016   1.752  19.166
 3743TIP3    H135424   7.027   1.838  19.105
 3743TIP3    H235425   6.966   1.802  19.240
 3744TIP3   OH235426   6.824   0.359  19.134
 3744TIP3    H135427   6.805   0.433  19.200
 3744TIP3    H235428   6.927   0.339  19.158
 3745TIP3   OH235429   7.813   0.893  19.736
 3745TIP3    H135430   7.732   0.825  19.725
 3745TIP3    H235431   7.874   0.836  19.798
 3746TIP3   OH235432   6.674   1.470  19.018
 3746TIP3    H135433   6.752   1.513  19.072
 3746TIP3    H235434   6.732   1.416  18.953
 3747TIP3   OH235435   6.484   0.689  18.955
 3747TIP3    H135436   6.531   0.781  18.982
 3747TIP3    H235437   6.404   0.727  18.902
 3748TIP3   OH235438   7.998   1.866  19.942
 3748TIP3    H135439   8.003   1.935  19.868
 3748TIP3    H235440   8.099   1.868  19.976
 3749TIP3   OH235441   6.613   0.160  19.777
 3749TIP3    H135442   6.609   0.157  19.679
 3749TIP3    H235443   6.576   0.059  19.793
 3750TIP3   OH235444   6.445   1.605  19.427
 3750TIP3    H135445   6.360   1.668  19.444
 3750TIP3    H235446   6.483   1.658  19.349
 3751TIP3   OH235447   7.350   1.788  18.861
 3751TIP3    H135448   7.297   1.696  18.882
 3751TIP3    H235449   7.443   1.749  18.825
 3752TIP3   OH235450   7.853   1.716  18.887
 3752TIP3    H135451   7.875   1.634  18.947
 3752TIP3    H235452   7.939   1.715  18.828
 3753TIP3   OH235453   6.840   1.261  18.854
 3753TIP3    H135454   6.871   1.223  18.940
 3753TIP3    H235455   6.926   1.233  18.797
 3754TIP3   OH235456   7.465   1.404  18.842
 3754TIP3    H135457   7.426   1.399  18.933
 3754TIP3    H235458   7.446   1.300  18.816
 3755TIP3   OH235459   6.987   1.072  19.126
 3755TIP3    H135460   6.917   1.005  19.166
 3755TIP3    H235461   7.038   1.005  19.066
 3756TIP3   OH235462   7.131   0.870  18.913
 3756TIP3    H135463   7.121   0.903  18.821
 3756TIP3    H235464   7.238   0.883  18.924
 3757TIP3   OH235465   8.107   1.098  18.869
 3757TIP3    H135466   8.069   1.088  18.778
 3757TIP3    H235467   8.119   1.206  18.877
 3758TIP3   OH235468   7.074   2.010  19.062
 3758TIP3    H135469   7.179   2.014  19.085
 3758TIP3    H235470   7.072   2.080  18.989
 3759TIP3   OH235471   6.370   1.442  18.999
 3759TIP3    H135472   6.479   1.443  18.996
 3759TIP3    H235473   6.346   1.384  18.919
 3760TIP3   OH235474   6.247   2.006  19.457
 3760TIP3    H135475   6.157   1.951  19.435
 3760TIP3    H235476   6.275   1.954  19.539
 3761TIP3   OH235477   6.325   1.821  19.656
 3761TIP3    H135478   6.289   1.729  19.697
 3761TIP3    H235479   6.372   1.869  19.734
 3762TIP3   OH235480   8.190   1.224  19.244
 3762TIP3    H135481   8.287   1.256  19.266
 3762TIP3    H235482   8.174   1.152  19.315
 3763TIP3   OH235483   8.209   1.024  19.452
 3763TIP3    H135484   8.111   0.980  19.465
 3763TIP3    H235485   8.255   1.000  19.537
 3764TIP3   OH235486   8.296   1.279  19.949
 3764TIP3    H135487   8.397   1.295  19.921
 3764TIP3    H235488   8.251   1.374  19.924
 3765TIP3   OH235489   8.237   0.974  19.093
 3765TIP3    H135490   8.176   0.986  19.013
 3765TIP3    H235491   8.234   1.074  19.128
 3766TIP3   OH235492   8.038   0.682  18.951
 3766TIP3    H135493   8.051   0.741  18.873
 3766TIP3    H235494   8.014   0.585  18.912
 3767TIP3   OH235495   7.981   0.855  19.527
 3767TIP3    H135496   8.042   0.770  19.543
 3767TIP3    H235497   7.916   0.854  19.606
 3768TIP3   OH235498   6.291   1.020  19.862
 3768TIP3    H135499   6.331   1.016  19.771
 3768TIP3    H235500   6.381   1.030  19.914
 3769TIP3   OH235501   7.986   0.408  18.851
 3769TIP3    H135502   8.028   0.344  18.920
 3769TIP3    H235503   7.883   0.380  18.850
 3770TIP3   OH235504   7.956   0.589  19.342
 3770TIP3    H135505   7.968   0.482  19.353
 3770TIP3    H235506   8.059   0.617  19.331
 3771TIP3   OH235507   7.951   0.673  19.857
 3771TIP3    H135508   8.057   0.666  19.839
 3771TIP3    H235509   7.938   0.580  19.904
 3772TIP3   OH235510   8.005   0.298  19.367
 3772TIP3    H135511   8.011   0.224  19.438
 3772TIP3    H235512   7.913   0.268  19.321
 3773TIP3   OH235513   6.401   0.366  19.852
 3773TIP3    H135514   6.469   0.283  19.855
 3773TIP3    H235515   6.466   0.446  19.880
 3774TIP3   OH235516   6.250   0.677  19.962
 3774TIP3    H135517   6.294   0.672  19.872
 3774TIP3    H235518   6.261   0.781  19.980
 3775TIP3   OH235519   8.227   0.308  19.031
 3775TIP3    H135520   8.273   0.222  18.985
 3775TIP3    H235521   8.258   0.389  18.976
 3776TIP3   OH235522   6.301   0.255  19.374
 3776TIP3    H135523   6.195   0.245  19.371
 3776TIP3    H235524   6.317   0.312  19.294
 3777TIP3   OH235525   7.890   1.931  19.546
 3777TIP3    H135526   7.946   1.909  19.464
 3777TIP3    H235527   7.967   1.972  19.602
 3778TIP3   OH235528   6.505   1.927  19.869
 3778TIP3    H135529   6.526   1.933  19.965
 3778TIP3    H235530   6.589   1.868  19.837
 3779TIP3   OH235531   6.730   1.766  19.760
 3779TIP3    H135532   6.728   1.659  19.765
 3779TIP3    H235533   6.830   1.785  19.792
 3780TIP3   OH235534   6.999   1.800  19.860
 3780TIP3    H135535   7.009   1.692  19.861
 3780TIP3    H235536   6.984   1.819  19.953
 3781TIP3   OH235537   7.350   0.301  19.792
 3781TIP3    H135538   7.288   0.213  19.808
 3781TIP3    H235539   7.422   0.260  19.728
 3782TIP3   OH235540   7.954   0.101  19.812
 3782TIP3    H135541   8.010   0.105  19.728
 3782TIP3    H235542   7.857   0.132  19.786
 3783TIP3   OH235543   8.101   0.125  19.578
 3783TIP3    H135544   8.177   0.056  19.551
 3783TIP3    H235545   8.156   0.219  19.581
 3784TIP3   OH235546   6.555   0.117  19.524
 3784TIP3    H135547   6.475   0.134  19.462
 3784TIP3    H235548   6.553   0.009  19.530
 3785TIP3   OH235549   6.443   0.111  19.151
 3785TIP3    H135550   6.448   0.150  19.060
 3785TIP3    H235551   6.341   0.131  19.173
 3786TIP3   OH235552   7.055   0.115  19.548
 3786TIP3    H135553   7.141   0.150  19.497
 3786TIP3    H235554   7.098   0.113  19.639
 3787TIP3   OH235555   7.583   0.162  19.666
 3787TIP3    H135556   7.676   0.182  19.623
 3787TIP3    H235557   7.602   0.068  19.710
 3788TIP3   OH235558   7.778   0.185  19.239
 3788TIP3    H135559   7.675   0.217  19.234
 3788TIP3    H235560   7.767   0.083  19.265
 3789TIP3   OH235561   6.416   1.821  19.236
 3789TIP3    H135562   6.311   1.835  19.229
 3789TIP3    H235563   6.449   1.915  19.201
 3790TIP3   OH235564   6.568   0.266  18.954
 3790TIP3    H135565   6.634   0.202  18.902
 3790TIP3    H235566   6.624   0.278  19.036
 3791TIP3   OH235567   7.126   0.311  19.230
 3791TIP3    H135568   7.178   0.241  19.285
 3791TIP3    H235569   7.173   0.403  19.262
 3792TIP3   OH235570   7.377   1.967  19.064
 3792TIP3    H135571   7.480   1.967  19.034
 3792TIP3    H235572   7.339   1.905  18.990
 3793TIP3   OH235573   8.066   1.899  19.336
 3793TIP3    H135574   8.061   1.803  19.291
 3793TIP3    H235575   8.067   1.967  19.260
 3794TIP3   OH235576   6.545   1.900  18.918
 3794TIP3    H135577   6.518   1.943  19.004
 3794TIP3    H235578   6.631   1.840  18.941
 3795TIP3   OH235579   8.301   0.740  19.455
 3795TIP3    H135580   8.286   0.841  19.428
 3795TIP3    H235581   8.274   0.692  19.373
 3796TIP3   OH235582   8.305   1.572  19.879
 3796TIP3    H135583   8.413   1.578  19.877
 3796TIP3    H235584   8.279   1.624  19.960
 3797TIP3   OH235585   8.245   0.405  19.615
 3797TIP3    H135586   8.332   0.460  19.644
 3797TIP3    H235587   8.268   0.394  19.521
 3798TIP3   OH235588   8.255   2.020  19.505
 3798TIP3    H135589   8.193   1.965  19.442
 3798TIP3    H235590   8.269   1.946  19.577
 3799TIP3   OH235591   8.298   1.854  19.726
 3799TIP3    H135592   8.259   1.755  19.736
 3799TIP3    H235593   8.405   1.837  19.724
 3800TIP3   OH235594   8.403   0.961  19.897
 3800TIP3    H135595   8.432   1.005  19.812
 3800TIP3    H235596   8.421   1.043  19.957
 3801TIP3   OH235597   8.247   0.672  19.868
 3801TIP3    H135598   8.334   0.611  19.874
 3801TIP3    H235599   8.287   0.767  19.894
 3802TIP3   OH235600   8.307   0.320  19.344
 3802TIP3    H135601   8.201   0.317  19.349
 3802TIP3    H235602   8.321   0.321  19.247
 3803TIP3   OH235603   1.321   3.168  19.532
 3803TIP3    H135604   1.327   3.275  19.543
 3803TIP3    H235605   1.238   3.160  19.474
 3804TIP3   OH235606   1.207   3.057  19.873
 3804TIP3    H135607   1.197   3.012  19.960
 3804TIP3    H235608   1.132   3.007  19.821
 3805TIP3   OH235609   1.532   3.378  19.701
 3805TIP3    H135610   1.508   3.292  19.756
 3805TIP3    H235611   1.576   3.445  19.767
 3806TIP3   OH235612   0.420   3.529  19.850
 3806TIP3    H135613   0.411   3.425  19.822
 3806TIP3    H235614   0.524   3.532  19.877
 3807TIP3   OH235615   0.133   2.765  19.369
 3807TIP3    H135616   0.157   2.853  19.419
 3807TIP3    H235617   0.034   2.747  19.404
 3808TIP3   OH235618   0.112   3.060  19.676
 3808TIP3    H135619   0.162   2.970  19.707
 3808TIP3    H235620   0.187   3.106  19.622
 3809TIP3   OH235621   1.274   4.001  19.744
 3809TIP3    H135622   1.337   3.940  19.685
 3809TIP3    H235623   1.229   3.920  19.792
 3810TIP3   OH235624   1.063   3.356  19.979
 3810TIP3    H135625   1.112   3.304  19.908
 3810TIP3    H235626   1.136   3.347  20.048
 3811TIP3   OH235627   1.370   2.737  19.971
 3811TIP3    H135628   1.396   2.632  19.974
 3811TIP3    H235629   1.363   2.751  19.875
 3812TIP3   OH235630   0.648   2.488  19.707
 3812TIP3    H135631   0.657   2.581  19.656
 3812TIP3    H235632   0.600   2.428  19.639
 3813TIP3   OH235633   1.415   2.542  19.516
 3813TIP3    H135634   1.475   2.500  19.590
 3813TIP3    H235635   1.487   2.610  19.482
 3814TIP3   OH235636   0.261   2.801  19.722
 3814TIP3    H135637   0.316   2.725  19.770
 3814TIP3    H235638   0.274   2.763  19.632
 3815TIP3   OH235639   0.747   2.941  19.694
 3815TIP3    H135640   0.832   2.892  19.732
 3815TIP3    H235641   0.708   2.861  19.638
 3816TIP3   OH235642   1.254   3.434  19.412
 3816TIP3    H135643   1.230   3.433  19.317
 3816TIP3    H235644   1.230   3.538  19.433
 3817TIP3   OH235645   1.610   2.472  19.696
 3817TIP3    H135646   1.543   2.446  19.770
 3817TIP3    H235647   1.705   2.443  19.732
 3818TIP3   OH235648   0.424   2.614  19.865
 3818TIP3    H135649   0.471   2.688  19.918
 3818TIP3    H235650   0.505   2.570  19.815
 3819TIP3   OH235651   0.125   3.401  19.253
 3819TIP3    H135652   0.121   3.462  19.172
 3819TIP3    H235653   0.157   3.474  19.320
 3820TIP3   OH235654   1.659   3.560  19.872
 3820TIP3    H135655   1.631   3.491  19.943
 3820TIP3    H235656   1.705   3.634  19.925
 3821TIP3   OH235657   0.934   2.142  19.824
 3821TIP3    H135658   0.959   2.038  19.828
 3821TIP3    H235659   0.827   2.143  19.845
 3822TIP3   OH235660   1.431   3.817  19.599
 3822TIP3    H135661   1.482   3.728  19.572
 3822TIP3    H235662   1.510   3.887  19.578
 3823TIP3   OH235663   1.608   3.583  19.491
 3823TIP3    H135664   1.572   3.513  19.425
 3823TIP3    H235665   1.604   3.521  19.571
 3824TIP3   OH235666   1.165   3.079  19.276
 3824TIP3    H135667   1.119   3.175  19.258
 3824TIP3    H235668   1.264   3.090  19.239
 3825TIP3   OH235669   1.199   2.958  18.966
 3825TIP3    H135670   1.252   2.995  19.045
 3825TIP3    H235671   1.228   2.856  18.967
 3826TIP3   OH235672   1.590   3.083  19.384
 3826TIP3    H135673   1.518   3.103  19.455
 3826TIP3    H235674   1.665   3.026  19.431
 3827TIP3   OH235675   0.626   3.164  19.567
 3827TIP3    H135676   0.576   3.116  19.491
 3827TIP3    H235677   0.680   3.082  19.609
 3828TIP3   OH235678   0.800   3.573  19.834
 3828TIP3    H135679   0.783   3.536  19.744
 3828TIP3    H235680   0.871   3.502  19.870
 3829TIP3   OH235681   0.620   3.036  19.922
 3829TIP3    H135682   0.658   2.997  19.837
 3829TIP3    H235683   0.711   3.062  19.968
 3830TIP3   OH235684   1.427   3.058  19.151
 3830TIP3    H135685   1.496   3.075  19.226
 3830TIP3    H235686   1.485   3.093  19.074
 3831TIP3   OH235687   1.178   3.713  19.451
 3831TIP3    H135688   1.236   3.747  19.526
 3831TIP3    H235689   1.122   3.799  19.427
 3832TIP3   OH235690   1.852   2.079  19.175
 3832TIP3    H135691   1.749   2.091  19.199
 3832TIP3    H235692   1.884   2.177  19.150
 3833TIP3   OH235693   0.486   3.042  19.335
 3833TIP3    H135694   0.474   3.135  19.286
 3833TIP3    H235695   0.452   2.972  19.270
 3834TIP3   OH235696   1.972   3.666  18.983
 3834TIP3    H135697   1.994   3.769  19.005
 3834TIP3    H235698   2.060   3.619  19.019
 3835TIP3   OH235699   0.149   3.672  19.883
 3835TIP3    H135700   0.228   3.599  19.876
 3835TIP3    H235701   0.182   3.724  19.962
 3836TIP3   OH235702   1.153   4.054  19.339
 3836TIP3    H135703   1.151   4.063  19.241
 3836TIP3    H235704   1.121   4.153  19.365
 3837TIP3   OH235705   0.443   3.913  19.514
 3837TIP3    H135706   0.461   3.879  19.606
 3837TIP3    H235707   0.338   3.902  19.506
 3838TIP3   OH235708   1.483   3.978  19.026
 3838TIP3    H135709   1.540   3.894  18.992
 3838TIP3    H235710   1.478   3.957  19.123
 3839TIP3   OH235711   1.434   3.964  19.295
 3839TIP3    H135712   1.332   3.988  19.315
 3839TIP3    H235713   1.454   3.889  19.361
 3840TIP3   OH235714   0.642   2.201  19.846
 3840TIP3    H135715   0.544   2.232  19.817
 3840TIP3    H235716   0.673   2.286  19.901
 3841TIP3   OH235717   1.603   3.167  18.964
 3841TIP3    H135718   1.582   3.183  18.869
 3841TIP3    H235719   1.708   3.186  18.966
 3842TIP3   OH235720   1.122   2.456  18.971
 3842TIP3    H135721   1.076   2.453  19.058
 3842TIP3    H235722   1.075   2.369  18.932
 3843TIP3   OH235723   0.653   2.724  19.546
 3843TIP3    H135724   0.548   2.715  19.525
 3843TIP3    H235725   0.696   2.720  19.454
 3844TIP3   OH235726   1.272   2.838  19.388
 3844TIP3    H135727   1.223   2.922  19.345
 3844TIP3    H235728   1.334   2.804  19.315
 3845TIP3   OH235729   1.343   2.789  19.693
 3845TIP3    H135730   1.319   2.871  19.634
 3845TIP3    H235731   1.348   2.707  19.628
 3846TIP3   OH235732   0.718   2.490  18.916
 3846TIP3    H135733   0.659   2.425  18.975
 3846TIP3    H235734   0.645   2.541  18.865
 3847TIP3   OH235735   0.087   2.454  19.625
 3847TIP3    H135736   0.131   2.457  19.715
 3847TIP3    H235737   0.129   2.363  19.592
 3848TIP3   OH235738   0.117   2.558  19.139
 3848TIP3    H135739   0.186   2.592  19.071
 3848TIP3    H235740   0.109   2.645  19.194
 3849TIP3   OH235741   0.959   2.494  19.605
 3849TIP3    H135742   0.866   2.479  19.649
 3849TIP3    H235743   1.026   2.446  19.670
 3850TIP3   OH235744   0.366   2.664  19.500
 3850TIP3    H135745   0.290   2.673  19.430
 3850TIP3    H235746   0.375   2.555  19.498
 3851TIP3   OH235747   0.757   2.692  19.292
 3851TIP3    H135748   0.861   2.682  19.271
 3851TIP3    H235749   0.716   2.751  19.219
 3852TIP3   OH235750   1.415   2.449  19.896
 3852TIP3    H135751   1.418   2.422  19.991
 3852TIP3    H235752   1.311   2.430  19.875
 3853TIP3   OH235753   0.622   2.829  19.027
 3853TIP3    H135754   0.572   2.770  18.960
 3853TIP3    H235755   0.714   2.855  18.981
 3854TIP3   OH235756   1.042   2.793  19.827
 3854TIP3    H135757   1.082   2.772  19.740
 3854TIP3    H235758   1.109   2.738  19.884
 3855TIP3   OH235759   0.442   2.388  19.485
 3855TIP3    H135760   0.369   2.311  19.506
 3855TIP3    H235761   0.485   2.342  19.408
 3856TIP3   OH235762   0.990   3.318  19.252
 3856TIP3    H135763   0.910   3.264  19.208
 3856TIP3    H235764   0.939   3.345  19.336
 3857TIP3   OH235765   1.384   2.507  19.079
 3857TIP3    H135766   1.293   2.515  19.028
 3857TIP3    H235767   1.411   2.611  19.089
 3858TIP3   OH235768   1.456   2.762  19.175
 3858TIP3    H135769   1.533   2.728  19.235
 3858TIP3    H235770   1.488   2.860  19.148
 3859TIP3   OH235771   0.450   3.255  19.763
 3859TIP3    H135772   0.505   3.233  19.681
 3859TIP3    H235773   0.510   3.204  19.829
 3860TIP3   OH235774   1.191   3.473  19.124
 3860TIP3    H135775   1.155   3.571  19.149
 3860TIP3    H235776   1.117   3.409  19.165
 3861TIP3   OH235777   1.998   2.725  19.176
 3861TIP3    H135778   1.934   2.717  19.097
 3861TIP3    H235779   2.025   2.828  19.174
 3862TIP3   OH235780   1.804   3.695  19.212
 3862TIP3    H135781   1.783   3.622  19.279
 3862TIP3    H235782   1.855   3.641  19.141
 3863TIP3   OH235783   1.504   3.136  19.881
 3863TIP3    H135784   1.400   3.105  19.871
 3863TIP3    H235785   1.556   3.059  19.828
 3864TIP3   OH235786   0.688   3.627  19.544
 3864TIP3    H135787   0.716   3.720  19.501
 3864TIP3    H235788   0.589   3.619  19.512
 3865TIP3   OH235789   0.259   3.067  19.018
 3865TIP3    H135790   0.318   3.148  19.054
 3865TIP3    H235791   0.166   3.079  19.065
 3866TIP3   OH235792   0.825   3.363  19.483
 3866TIP3    H135793   0.774   3.453  19.510
 3866TIP3    H235794   0.773   3.287  19.534
 3867TIP3   OH235795   0.724   3.889  19.429
 3867TIP3    H135796   0.620   3.908  19.448
 3867TIP3    H235797   0.769   3.977  19.466
 3868TIP3   OH235798   1.562   3.508  19.000
 3868TIP3    H135799   1.576   3.463  19.088
 3868TIP3    H235800   1.462   3.475  18.986
 3869TIP3   OH235801   2.028   3.974  19.045
 3869TIP3    H135802   2.079   4.048  18.992
 3869TIP3    H235803   1.954   4.036  19.088
 3870TIP3   OH235804   1.652   3.345  19.232
 3870TIP3    H135805   1.628   3.250  19.271
 3870TIP3    H235806   1.759   3.335  19.220
 3871TIP3   OH235807   0.904   3.650  18.867
 3871TIP3    H135808   0.901   3.587  18.788
 3871TIP3    H235809   0.838   3.596  18.926
 3872TIP3   OH235810   0.747   3.547  19.101
 3872TIP3    H135811   0.832   3.507  19.146
 3872TIP3    H235812   0.758   3.652  19.129
 3873TIP3   OH235813   0.397   3.275  19.172
 3873TIP3    H135814   0.309   3.314  19.215
 3873TIP3    H235815   0.429   3.354  19.113
 3874TIP3   OH235816   1.333   2.366  19.306
 3874TIP3    H135817   1.348   2.430  19.228
 3874TIP3    H235818   1.375   2.425  19.378
 3875TIP3   OH235819   1.095   3.751  19.165
 3875TIP3    H135820   0.997   3.789  19.187
 3875TIP3    H235821   1.148   3.841  19.149
 3876TIP3   OH235822   1.041   2.600  19.363
 3876TIP3    H135823   1.103   2.685  19.381
 3876TIP3    H235824   1.003   2.573  19.452
 3877TIP3   OH235825   1.093   2.252  19.425
 3877TIP3    H135826   1.065   2.335  19.481
 3877TIP3    H235827   1.181   2.295  19.381
 3878TIP3   OH235828   0.799   3.821  19.166
 3878TIP3    H135829   0.817   3.914  19.116
 3878TIP3    H235830   0.756   3.867  19.247
 3879TIP3   OH235831   0.612   2.380  19.146
 3879TIP3    H135832   0.620   2.473  19.196
 3879TIP3    H235833   0.712   2.343  19.154
 3880TIP3   OH235834   1.623   2.919  19.738
 3880TIP3    H135835   1.533   2.860  19.749
 3880TIP3    H235836   1.691   2.861  19.795
 3881TIP3   OH235837   0.462   3.542  19.012
 3881TIP3    H135838   0.560   3.556  19.053
 3881TIP3    H235839   0.488   3.477  18.938
 3882TIP3   OH235840   0.256   2.750  18.969
 3882TIP3    H135841   0.283   2.850  18.994
 3882TIP3    H235842   0.178   2.763  18.905
 3883TIP3   OH235843   1.747   3.960  19.951
 3883TIP3    H135844   1.760   4.040  19.887
 3883TIP3    H235845   1.844   3.949  19.989
 3884TIP3   OH235846   0.345   2.190  19.789
 3884TIP3    H135847   0.343   2.165  19.693
 3884TIP3    H235848   0.333   2.092  19.827
 3885TIP3   OH235849   0.223   3.643  19.384
 3885TIP3    H135850   0.147   3.700  19.425
 3885TIP3    H235851   0.275   3.720  19.335
 3886TIP3   OH235852   1.138   3.863  18.863
 3886TIP3    H135853   1.078   3.776  18.880
 3886TIP3    H235854   1.225   3.818  18.821
 3887TIP3   OH235855   1.637   3.770  18.879
 3887TIP3    H135856   1.639   3.680  18.933
 3887TIP3    H235857   1.728   3.762  18.828
 3888TIP3   OH235858   0.624   3.325  18.863
 3888TIP3    H135859   0.669   3.300  18.949
 3888TIP3    H235860   0.710   3.312  18.803
 3889TIP3   OH235861   1.239   3.482  18.839
 3889TIP3    H135862   1.201   3.468  18.930
 3889TIP3    H235863   1.239   3.378  18.808
 3890TIP3   OH235864   0.766   3.136  19.117
 3890TIP3    H135865   0.704   3.067  19.165
 3890TIP3    H235866   0.810   3.069  19.052
 3891TIP3   OH235867   0.889   2.945  18.919
 3891TIP3    H135868   0.895   2.980  18.827
 3891TIP3    H235869   0.993   2.944  18.943
 3892TIP3   OH235870   1.907   3.169  18.866
 3892TIP3    H135871   1.883   3.136  18.775
 3892TIP3    H235872   1.889   3.277  18.859
 3893TIP3   OH235873   0.869   4.082  19.080
 3893TIP3    H135874   0.976   4.097  19.076
 3893TIP3    H235875   0.834   4.156  19.018
 3894TIP3   OH235876   0.173   3.546  19.024
 3894TIP3    H135877   0.280   3.556  19.027
 3894TIP3    H235878   0.162   3.490  18.942
 3895TIP3   OH235879   0.095   4.079  19.488
 3895TIP3    H135880  -0.011   4.096  19.493
 3895TIP3    H235881   0.109   4.013  19.563
 3896TIP3   OH235882   0.153   3.879  19.693
 3896TIP3    H135883   0.156   3.784  19.741
 3896TIP3    H235884   0.206   3.939  19.759
 3897TIP3   OH235885   1.948   3.287  19.241
 3897TIP3    H135886   2.044   3.333  19.259
 3897TIP3    H235887   1.945   3.216  19.316
 3898TIP3   OH235888   1.974   3.101  19.459
 3898TIP3    H135889   1.895   3.051  19.508
 3898TIP3    H235890   2.059   3.083  19.518
 3899TIP3   OH235891   2.065   3.411  19.938
 3899TIP3    H135892   2.105   3.329  19.888
 3899TIP3    H235893   2.002   3.461  19.874
 3900TIP3   OH235894   2.047   3.044  19.082
 3900TIP3    H135895   1.984   3.069  19.006
 3900TIP3    H235896   2.021   3.123  19.144
 3901TIP3   OH235897   1.822   2.736  18.933
 3901TIP3    H135898   1.847   2.802  18.860
 3901TIP3    H235899   1.801   2.644  18.885
 3902TIP3   OH235900   1.766   2.889  19.509
 3902TIP3    H135901   1.731   2.795  19.474
 3902TIP3    H235902   1.722   2.891  19.600
 3903TIP3   OH235903   0.208   3.234  19.934
 3903TIP3    H135904   0.208   3.197  19.843
 3903TIP3    H235905   0.284   3.170  19.970
 3904TIP3   OH235906   1.773   2.450  18.841
 3904TIP3    H135907   1.814   2.410  18.924
 3904TIP3    H235908   1.671   2.421  18.844
 3905TIP3   OH235909   1.685   2.666  19.344
 3905TIP3    H135910   1.705   2.563  19.366
 3905TIP3    H235911   1.779   2.690  19.304
 3906TIP3   OH235912   1.790   2.735  19.866
 3906TIP3    H135913   1.896   2.724  19.878
 3906TIP3    H235914   1.761   2.635  19.892
 3907TIP3   OH235915   1.779   2.377  19.361
 3907TIP3    H135916   1.823   2.325  19.437
 3907TIP3    H235917   1.714   2.300  19.328
 3908TIP3   OH235918   0.173   2.434  19.882
 3908TIP3    H135919   0.216   2.335  19.879
 3908TIP3    H235920   0.256   2.493  19.916
 3909TIP3   OH235921   0.108   2.768  19.981
 3909TIP3    H135922   0.141   2.752  19.890
 3909TIP3    H235923   0.075   2.869  19.975
 3910TIP3   OH235924   1.994   2.350  19.030
 3910TIP3    H135925   2.032   2.287  18.958
 3910TIP3    H235926   2.072   2.422  19.038
 3911TIP3   OH235927   0.115   2.339  19.314
 3911TIP3    H135928   0.018   2.334  19.354
 3911TIP3    H235929   0.101   2.412  19.244
 3912TIP3   OH235930   1.651   4.007  19.540
 3912TIP3    H135931   1.737   3.978  19.488
 3912TIP3    H235932   1.694   4.069  19.608
 3913TIP3   OH235933   0.305   4.003  19.903
 3913TIP3    H135934   0.338   4.030  19.993
 3913TIP3    H235935   0.389   3.941  19.876
 3914TIP3   OH235936   0.488   3.821  19.761
 3914TIP3    H135937   0.461   3.718  19.768
 3914TIP3    H235938   0.589   3.825  19.796
 3915TIP3   OH235939   0.779   3.887  19.875
 3915TIP3    H135940   0.816   3.793  19.841
 3915TIP3    H235941   0.811   3.883  19.967
 3916TIP3   OH235942   1.142   2.357  19.782
 3916TIP3    H135943   1.070   2.286  19.817
 3916TIP3    H235944   1.212   2.290  19.743
 3917TIP3   OH235945   1.755   2.132  19.768
 3917TIP3    H135946   1.812   2.176  19.694
 3917TIP3    H235947   1.654   2.166  19.749
 3918TIP3   OH235948   1.923   2.224  19.566
 3918TIP3    H135949   1.999   2.164  19.522
 3918TIP3    H235950   1.980   2.314  19.585
 3919TIP3   OH235951   0.353   2.124  19.533
 3919TIP3    H135952   0.261   2.100  19.484
 3919TIP3    H235953   0.406   2.030  19.523
 3920TIP3   OH235954   0.241   2.125  19.166
 3920TIP3    H135955   0.233   2.171  19.079
 3920TIP3    H235956   0.196   2.201  19.224
 3921TIP3   OH235957   0.794   2.080  19.540
 3921TIP3    H135958   0.883   2.132  19.517
 3921TIP3    H235959   0.796   2.076  19.636
 3922TIP3   OH235960   1.476   2.166  19.676
 3922TIP3    H135961   1.441   2.184  19.587
 3922TIP3    H235962   1.429   2.073  19.701
 3923TIP3   OH235963   1.596   2.149  19.295
 3923TIP3    H135964   1.516   2.190  19.243
 3923TIP3    H235965   1.555   2.054  19.324
 3924TIP3   OH235966   0.209   3.922  19.241
 3924TIP3    H135967   0.102   3.927  19.237
 3924TIP3    H235968   0.228   4.024  19.213
 3925TIP3   OH235969   0.334   2.321  18.971
 3925TIP3    H135970   0.416   2.272  18.927
 3925TIP3    H235971   0.375   2.338  19.060
 3926TIP3   OH235972   0.952   2.369  19.203
 3926TIP3    H135973   0.979   2.306  19.278
 3926TIP3    H235974   0.968   2.465  19.246
 3927TIP3   OH235975   1.174   4.037  19.072
 3927TIP3    H135976   1.275   4.043  19.040
 3927TIP3    H235977   1.136   3.980  18.994
 3928TIP3   OH235978   1.866   3.930  19.360
 3928TIP3    H135979   1.839   3.846  19.305
 3928TIP3    H235980   1.862   4.011  19.294
 3929TIP3   OH235981   0.329   3.985  18.932
 3929TIP3    H135982   0.312   3.994  19.027
 3929TIP3    H235983   0.405   3.911  18.931
 3930TIP3   OH235984   3.402   3.176  19.531
 3930TIP3    H135985   3.402   3.281  19.549
 3930TIP3    H235986   3.312   3.165  19.483
 3931TIP3   OH235987   3.286   3.062  19.865
 3931TIP3    H135988   3.276   3.012  19.951
 3931TIP3    H235989   3.203   3.026  19.815
 3932TIP3   OH235990   3.608   3.387  19.683
 3932TIP3    H135991   3.589   3.302  19.742
 3932TIP3    H235992   3.654   3.455  19.747
 3933TIP3   OH235993   2.538   3.541  19.871
 3933TIP3    H135994   2.518   3.440  19.842
 3933TIP3    H235995   2.643   3.546  19.861
 3934TIP3   OH235996   2.190   2.774  19.449
 3934TIP3    H135997   2.151   2.869  19.472
 3934TIP3    H235998   2.102   2.725  19.417
 3935TIP3   OH235999   2.263   3.062  19.649
 3935TIP3    H136000   2.301   2.977  19.697
 3935TIP3    H236001   2.318   3.143  19.691
 3936TIP3   OH236002   3.344   3.999  19.733
 3936TIP3    H136003   3.417   3.940  19.682
 3936TIP3    H236004   3.318   3.923  19.795
 3937TIP3   OH236005   3.154   3.372  19.979
 3937TIP3    H136006   3.199   3.300  19.919
 3937TIP3    H236007   3.211   3.355  20.059
 3938TIP3   OH236008   3.444   2.728  19.972
 3938TIP3    H136009   3.466   2.624  19.981
 3938TIP3    H236010   3.428   2.738  19.876
 3939TIP3   OH236011   2.717   2.495  19.699
 3939TIP3    H136012   2.746   2.583  19.650
 3939TIP3    H236013   2.664   2.438  19.631
 3940TIP3   OH236014   3.497   2.534  19.520
 3940TIP3    H136015   3.557   2.495  19.594
 3940TIP3    H236016   3.565   2.607  19.487
 3941TIP3   OH236017   2.312   2.757  19.754
 3941TIP3    H136018   2.367   2.682  19.803
 3941TIP3    H236019   2.309   2.716  19.664
 3942TIP3   OH236020   2.857   2.930  19.692
 3942TIP3    H136021   2.935   2.873  19.734
 3942TIP3    H236022   2.806   2.856  19.638
 3943TIP3   OH236023   3.318   3.440  19.415
 3943TIP3    H136024   3.289   3.430  19.321
 3943TIP3    H236025   3.302   3.545  19.431
 3944TIP3   OH236026   3.697   2.478  19.701
 3944TIP3    H136027   3.638   2.453  19.779
 3944TIP3    H236028   3.795   2.449  19.731
 3945TIP3   OH236029   2.536   2.605  19.890
 3945TIP3    H136030   2.556   2.708  19.877
 3945TIP3    H236031   2.585   2.560  19.813
 3946TIP3   OH236032   2.232   3.394  19.263
 3946TIP3    H136033   2.223   3.455  19.183
 3946TIP3    H236034   2.248   3.466  19.333
 3947TIP3   OH236035   3.730   3.563  19.871
 3947TIP3    H136036   3.693   3.501  19.943
 3947TIP3    H236037   3.782   3.637  19.922
 3948TIP3   OH236038   2.991   2.132  19.804
 3948TIP3    H136039   3.003   2.027  19.818
 3948TIP3    H236040   2.893   2.154  19.842
 3949TIP3   OH236041   3.529   3.816  19.616
 3949TIP3    H136042   3.551   3.728  19.565
 3949TIP3    H236043   3.618   3.875  19.599
 3950TIP3   OH236044   3.705   3.566  19.439
 3950TIP3    H136045   3.666   3.497  19.372
 3950TIP3    H236046   3.686   3.508  19.520
 3951TIP3   OH236047   3.231   3.073  19.273
 3951TIP3    H136048   3.186   3.171  19.265
 3951TIP3    H236049   3.328   3.089  19.232
 3952TIP3   OH236050   3.291   2.970  18.961
 3952TIP3    H136051   3.354   3.006  19.033
 3952TIP3    H236052   3.303   2.864  18.971
 3953TIP3   OH236053   3.672   3.094  19.382
 3953TIP3    H136054   3.588   3.122  19.440
 3953TIP3    H236055   3.736   3.042  19.446
 3954TIP3   OH236056   2.713   3.154  19.563
 3954TIP3    H136057   2.673   3.098  19.489
 3954TIP3    H236058   2.781   3.083  19.603
 3955TIP3   OH236059   2.855   3.561  19.839
 3955TIP3    H136060   2.841   3.531  19.746
 3955TIP3    H236061   2.927   3.491  19.870
 3956TIP3   OH236062   2.681   2.951  19.908
 3956TIP3    H136063   2.752   2.957  19.836
 3956TIP3    H236064   2.697   3.044  19.953
 3957TIP3   OH236065   3.499   3.058  19.156
 3957TIP3    H136066   3.567   3.079  19.230
 3957TIP3    H236067   3.555   3.098  19.079
 3958TIP3   OH236068   3.263   3.726  19.457
 3958TIP3    H136069   3.268   3.744  19.552
 3958TIP3    H236070   3.213   3.814  19.425
 3959TIP3   OH236071   3.934   2.085  19.174
 3959TIP3    H136072   3.829   2.100  19.194
 3959TIP3    H236073   3.971   2.182  19.150
 3960TIP3   OH236074   2.560   3.036  19.312
 3960TIP3    H136075   2.588   3.136  19.285
 3960TIP3    H236076   2.454   3.049  19.308
 3961TIP3   OH236077   4.082   3.681  18.956
 3961TIP3    H136078   4.080   3.776  19.001
 3961TIP3    H236079   4.168   3.641  19.004
 3962TIP3   OH236080   2.144   3.681  19.832
 3962TIP3    H136081   2.232   3.628  19.856
 3962TIP3    H236082   2.106   3.713  19.918
 3963TIP3   OH236083   3.216   4.039  19.341
 3963TIP3    H136084   3.222   4.055  19.244
 3963TIP3    H236085   3.197   4.141  19.372
 3964TIP3   OH236086   2.505   3.928  19.506
 3964TIP3    H136087   2.525   3.909  19.601
 3964TIP3    H236088   2.409   3.880  19.494
 3965TIP3   OH236089   3.557   3.981  19.026
 3965TIP3    H136090   3.603   3.892  18.988
 3965TIP3    H236091   3.555   3.959  19.121
 3966TIP3   OH236092   3.505   3.969  19.296
 3966TIP3    H136093   3.401   3.990  19.315
 3966TIP3    H236094   3.523   3.891  19.359
 3967TIP3   OH236095   2.702   2.233  19.886
 3967TIP3    H136096   2.618   2.239  19.824
 3967TIP3    H236097   2.696   2.329  19.926
 3968TIP3   OH236098   3.660   3.170  18.963
 3968TIP3    H136099   3.639   3.175  18.867
 3968TIP3    H236100   3.766   3.178  18.961
 3969TIP3   OH236101   3.196   2.454  18.982
 3969TIP3    H136102   3.139   2.447  19.064
 3969TIP3    H236103   3.133   2.392  18.927
 3970TIP3   OH236104   2.729   2.728  19.540
 3970TIP3    H136105   2.630   2.681  19.539
 3970TIP3    H236106   2.768   2.709  19.449
 3971TIP3   OH236107   3.340   2.845  19.391
 3971TIP3    H136108   3.293   2.925  19.339
 3971TIP3    H236109   3.405   2.806  19.321
 3972TIP3   OH236110   3.394   2.787  19.691
 3972TIP3    H136111   3.383   2.869  19.628
 3972TIP3    H236112   3.422   2.709  19.630
 3973TIP3   OH236113   2.800   2.501  18.907
 3973TIP3    H136114   2.743   2.432  18.963
 3973TIP3    H236115   2.724   2.544  18.851
 3974TIP3   OH236116   2.078   2.467  19.616
 3974TIP3    H136117   2.154   2.469  19.684
 3974TIP3    H236118   2.130   2.444  19.535
 3975TIP3   OH236119   2.217   2.537  19.132
 3975TIP3    H136120   2.278   2.582  19.064
 3975TIP3    H236121   2.140   2.612  19.141
 3976TIP3   OH236122   3.035   2.504  19.601
 3976TIP3    H136123   2.949   2.490  19.658
 3976TIP3    H236124   3.109   2.453  19.656
 3977TIP3   OH236125   2.450   2.639  19.496
 3977TIP3    H136126   2.353   2.674  19.466
 3977TIP3    H236127   2.443   2.531  19.485
 3978TIP3   OH236128   2.837   2.686  19.301
 3978TIP3    H136129   2.936   2.660  19.338
 3978TIP3    H236130   2.868   2.713  19.212
 3979TIP3   OH236131   3.497   2.439  19.899
 3979TIP3    H136132   3.488   2.408  19.992
 3979TIP3    H236133   3.395   2.435  19.871
 3980TIP3   OH236134   2.677   2.809  19.049
 3980TIP3    H136135   2.642   2.749  18.975
 3980TIP3    H236136   2.761   2.850  19.002
 3981TIP3   OH236137   3.124   2.775  19.829
 3981TIP3    H136138   3.192   2.785  19.755
 3981TIP3    H236139   3.181   2.717  19.891
 3982TIP3   OH236140   2.534   2.359  19.470
 3982TIP3    H136141   2.468   2.284  19.508
 3982TIP3    H236142   2.588   2.296  19.410
 3983TIP3   OH236143   3.065   3.312  19.240
 3983TIP3    H136144   2.979   3.270  19.193
 3983TIP3    H236145   3.016   3.346  19.323
 3984TIP3   OH236146   3.461   2.499  19.080
 3984TIP3    H136147   3.365   2.508  19.034
 3984TIP3    H236148   3.495   2.602  19.084
 3985TIP3   OH236149   3.536   2.760  19.176
 3985TIP3    H136150   3.610   2.725  19.239
 3985TIP3    H236151   3.572   2.859  19.159
 3986TIP3   OH236152   2.482   3.253  19.794
 3986TIP3    H136153   2.527   3.247  19.706
 3986TIP3    H236154   2.562   3.228  19.855
 3987TIP3   OH236155   3.266   3.478  19.128
 3987TIP3    H136156   3.213   3.572  19.142
 3987TIP3    H236157   3.192   3.405  19.153
 3988TIP3   OH236158   4.068   2.728  19.177
 3988TIP3    H136159   4.011   2.726  19.094
 3988TIP3    H236160   4.105   2.829  19.178
 3989TIP3   OH236161   3.893   3.667  19.205
 3989TIP3    H136162   3.830   3.658  19.284
 3989TIP3    H236163   3.918   3.566  19.192
 3990TIP3   OH236164   3.575   3.151  19.873
 3990TIP3    H136165   3.474   3.115  19.865
 3990TIP3    H236166   3.631   3.081  19.819
 3991TIP3   OH236167   2.743   3.637  19.572
 3991TIP3    H136168   2.798   3.729  19.566
 3991TIP3    H236169   2.673   3.653  19.501
 3992TIP3   OH236170   2.362   3.073  19.015
 3992TIP3    H136171   2.405   3.156  19.065
 3992TIP3    H236172   2.255   3.087  19.026
 3993TIP3   OH236173   2.915   3.396  19.461
 3993TIP3    H136174   2.853   3.473  19.498
 3993TIP3    H236175   2.894   3.314  19.520
 3994TIP3   OH236176   2.790   3.890  19.421
 3994TIP3    H136177   2.686   3.906  19.445
 3994TIP3    H236178   2.830   3.983  19.453
 3995TIP3   OH236179   3.640   3.505  19.017
 3995TIP3    H136180   3.639   3.452  19.103
 3995TIP3    H236181   3.536   3.489  18.993
 3996TIP3   OH236182   4.109   3.969  19.053
 3996TIP3    H136183   4.167   4.038  19.002
 3996TIP3    H236184   4.030   4.035  19.085
 3997TIP3   OH236185   3.726   3.351  19.239
 3997TIP3    H136186   3.702   3.258  19.284
 3997TIP3    H236187   3.832   3.344  19.235
 3998TIP3   OH236188   2.974   3.648  18.870
 3998TIP3    H136189   2.974   3.587  18.790
 3998TIP3    H236190   2.914   3.589  18.931
 3999TIP3   OH236191   2.836   3.564  19.106
 3999TIP3    H136192   2.918   3.533  19.161
 3999TIP3    H236193   2.842   3.671  19.126
 4000TIP3   OH236194   2.486   3.289  19.150
 4000TIP3    H136195   2.391   3.314  19.192
 4000TIP3    H236196   2.522   3.385  19.119
 4001TIP3   OH236197   3.453   2.342  19.307
 4001TIP3    H136198   3.434   2.409  19.232
 4001TIP3    H236199   3.474   2.408  19.381
 4002TIP3   OH236200   3.150   3.751  19.159
 4002TIP3    H136201   3.055   3.798  19.173
 4002TIP3    H236202   3.213   3.837  19.154
 4003TIP3   OH236203   3.111   2.610  19.364
 4003TIP3    H136204   3.179   2.694  19.374
 4003TIP3    H236205   3.092   2.577  19.456
 4004TIP3   OH236206   3.187   2.262  19.411
 4004TIP3    H136207   3.150   2.329  19.478
 4004TIP3    H236208   3.278   2.311  19.380
 4005TIP3   OH236209   2.862   3.841  19.155
 4005TIP3    H136210   2.881   3.934  19.105
 4005TIP3    H236211   2.820   3.884  19.236
 4006TIP3   OH236212   2.676   2.363  19.129
 4006TIP3    H136213   2.710   2.441  19.187
 4006TIP3    H236214   2.767   2.303  19.122
 4007TIP3   OH236215   3.687   2.919  19.741
 4007TIP3    H136216   3.606   2.855  19.761
 4007TIP3    H236217   3.763   2.877  19.800
 4008TIP3   OH236218   2.548   3.571  19.027
 4008TIP3    H136219   2.528   3.655  19.082
 4008TIP3    H236220   2.653   3.556  19.052
 4009TIP3   OH236221   2.339   2.752  18.962
 4009TIP3    H136222   2.379   2.850  18.976
 4009TIP3    H236223   2.254   2.771  18.906
 4010TIP3   OH236224   3.818   3.949  19.939
 4010TIP3    H136225   3.835   4.045  19.896
 4010TIP3    H236226   3.911   3.935  19.986
 4011TIP3   OH236227   2.438   2.206  19.769
 4011TIP3    H136228   2.420   2.163  19.680
 4011TIP3    H236229   2.437   2.118  19.825
 4012TIP3   OH236230   2.298   3.694  19.435
 4012TIP3    H136231   2.211   3.750  19.462
 4012TIP3    H236232   2.316   3.740  19.349
 4013TIP3   OH236233   3.203   3.860  18.861
 4013TIP3    H136234   3.147   3.770  18.883
 4013TIP3    H236235   3.288   3.819  18.812
 4014TIP3   OH236236   3.694   3.769  18.873
 4014TIP3    H136237   3.709   3.692  18.941
 4014TIP3    H236238   3.788   3.779  18.831
 4015TIP3   OH236239   2.699   3.348  18.853
 4015TIP3    H136240   2.727   3.317  18.942
 4015TIP3    H236241   2.791   3.323  18.804
 4016TIP3   OH236242   3.301   3.490  18.837
 4016TIP3    H136243   3.276   3.479  18.931
 4016TIP3    H236244   3.306   3.385  18.812
 4017TIP3   OH236245   2.831   3.147  19.121
 4017TIP3    H136246   2.765   3.077  19.164
 4017TIP3    H236247   2.882   3.081  19.058
 4018TIP3   OH236248   2.943   2.954  18.927
 4018TIP3    H136249   2.922   2.980  18.834
 4018TIP3    H236250   3.050   2.947  18.927
 4019TIP3   OH236251   3.963   3.179  18.862
 4019TIP3    H136252   3.948   3.145  18.770
 4019TIP3    H236253   3.945   3.286  18.856
 4020TIP3   OH236254   2.939   4.101  19.080
 4020TIP3    H136255   3.046   4.097  19.075
 4020TIP3    H236256   2.916   4.178  19.015
 4021TIP3   OH236257   2.207   3.496  19.015
 4021TIP3    H136258   2.301   3.478  18.974
 4021TIP3    H236259   2.142   3.445  18.950
 4022TIP3   OH236260   2.108   4.063  19.455
 4022TIP3    H136261   2.014   4.016  19.434
 4022TIP3    H236262   2.131   4.013  19.540
 4023TIP3   OH236263   2.196   3.893  19.658
 4023TIP3    H136264   2.160   3.803  19.703
 4023TIP3    H236265   2.245   3.944  19.732
 4024TIP3   OH236266   4.026   3.287  19.236
 4024TIP3    H136267   4.123   3.332  19.252
 4024TIP3    H236268   4.022   3.219  19.313
 4025TIP3   OH236269   4.052   3.097  19.451
 4025TIP3    H136270   3.978   3.039  19.498
 4025TIP3    H236271   4.131   3.104  19.517
 4026TIP3   OH236272   4.100   3.400  19.927
 4026TIP3    H136273   4.179   3.339  19.890
 4026TIP3    H236274   4.078   3.475  19.861
 4027TIP3   OH236275   4.122   3.059  19.075
 4027TIP3    H136276   4.043   3.073  19.010
 4027TIP3    H236277   4.092   3.132  19.143
 4028TIP3   OH236278   3.914   2.751  18.919
 4028TIP3    H136279   3.939   2.817  18.846
 4028TIP3    H236280   3.887   2.660  18.872
 4029TIP3   OH236281   3.845   2.900  19.519
 4029TIP3    H136282   3.812   2.806  19.479
 4029TIP3    H236283   3.794   2.897  19.606
 4030TIP3   OH236284   2.159   3.132  19.889
 4030TIP3    H136285   2.194   3.101  19.801
 4030TIP3    H236286   2.244   3.110  19.945
 4031TIP3   OH236287   3.852   2.457  18.842
 4031TIP3    H136288   3.894   2.417  18.924
 4031TIP3    H236289   3.752   2.420  18.839
 4032TIP3   OH236290   3.758   2.672  19.355
 4032TIP3    H136291   3.773   2.566  19.372
 4032TIP3    H236292   3.850   2.693  19.311
 4033TIP3   OH236293   3.863   2.737  19.876
 4033TIP3    H136294   3.971   2.726  19.868
 4033TIP3    H236295   3.838   2.636  19.900
 4034TIP3   OH236296   3.847   2.375  19.366
 4034TIP3    H136297   3.891   2.328  19.444
 4034TIP3    H236298   3.796   2.291  19.327
 4035TIP3   OH236299   2.266   2.442  19.852
 4035TIP3    H136300   2.314   2.350  19.825
 4035TIP3    H236301   2.339   2.478  19.916
 4036TIP3   OH236302   2.080   2.735  19.949
 4036TIP3    H136303   2.133   2.688  19.876
 4036TIP3    H236304   2.118   2.835  19.947
 4037TIP3   OH236305   4.068   2.334  19.035
 4037TIP3    H136306   4.103   2.278  18.958
 4037TIP3    H236307   4.158   2.382  19.066
 4038TIP3   OH236308   2.097   2.340  19.309
 4038TIP3    H136309   1.995   2.375  19.312
 4038TIP3    H236310   2.135   2.398  19.236
 4039TIP3   OH236311   3.736   4.011  19.547
 4039TIP3    H136312   3.821   3.982  19.495
 4039TIP3    H236313   3.775   4.071  19.619
 4040TIP3   OH236314   2.354   3.999  19.869
 4040TIP3    H136315   2.380   4.008  19.964
 4040TIP3    H236316   2.441   3.945  19.836
 4041TIP3   OH236317   2.567   3.849  19.754
 4041TIP3    H136318   2.556   3.743  19.763
 4041TIP3    H236319   2.661   3.865  19.801
 4042TIP3   OH236320   2.829   3.880  19.868
 4042TIP3    H136321   2.869   3.782  19.848
 4042TIP3    H236322   2.836   3.883  19.964
 4043TIP3   OH236323   3.230   2.346  19.767
 4043TIP3    H136324   3.161   2.269  19.797
 4043TIP3    H236325   3.320   2.288  19.769
 4044TIP3   OH236326   3.826   2.125  19.766
 4044TIP3    H136327   3.882   2.177  19.695
 4044TIP3    H236328   3.725   2.158  19.748
 4045TIP3   OH236329   4.002   2.225  19.565
 4045TIP3    H136330   4.078   2.168  19.518
 4045TIP3    H236331   4.058   2.317  19.585
 4046TIP3   OH236332   2.386   2.113  19.519
 4046TIP3    H136333   2.295   2.088  19.471
 4046TIP3    H236334   2.437   2.017  19.516
 4047TIP3   OH236335   2.266   2.123  19.131
 4047TIP3    H136336   2.295   2.196  19.065
 4047TIP3    H236337   2.203   2.182  19.190
 4048TIP3   OH236338   2.872   2.083  19.542
 4048TIP3    H136339   2.959   2.120  19.499
 4048TIP3    H236340   2.900   2.083  19.636
 4049TIP3   OH236341   3.545   2.160  19.682
 4049TIP3    H136342   3.509   2.185  19.594
 4049TIP3    H236343   3.501   2.064  19.699
 4050TIP3   OH236344   3.678   2.133  19.294
 4050TIP3    H136345   3.589   2.193  19.289
 4050TIP3    H236346   3.637   2.041  19.325
 4051TIP3   OH236347   2.264   3.875  19.223
 4051TIP3    H136348   2.157   3.886  19.215
 4051TIP3    H236349   2.290   3.971  19.186
 4052TIP3   OH236350   2.406   2.349  18.959
 4052TIP3    H136351   2.463   2.281  18.903
 4052TIP3    H236352   2.462   2.341  19.041
 4053TIP3   OH236353   3.008   2.395  19.189
 4053TIP3    H136354   3.047   2.312  19.239
 4053TIP3    H236355   3.044   2.476  19.243
 4054TIP3   OH236356   3.253   4.033  19.071
 4054TIP3    H136357   3.355   4.044  19.041
 4054TIP3    H236358   3.217   3.974  18.994
 4055TIP3   OH236359   3.930   3.920  19.352
 4055TIP3    H136360   3.923   3.841  19.285
 4055TIP3    H236361   3.929   4.007  19.294
 4056TIP3   OH236362   2.383   3.937  18.914
 4056TIP3    H136363   2.368   3.999  18.992
 4056TIP3    H236364   2.481   3.896  18.930
 4057TIP3   OH236365   5.498   3.180  19.513
 4057TIP3    H136366   5.469   3.283  19.493
 4057TIP3    H236367   5.403   3.142  19.543
 4058TIP3   OH236368   5.332   3.121  19.969
 4058TIP3    H136369   5.326   3.023  20.008
 4058TIP3    H236370   5.278   3.108  19.885
 4059TIP3   OH236371   5.695   3.384  19.697
 4059TIP3    H136372   5.652   3.306  19.750
 4059TIP3    H236373   5.737   3.449  19.766
 4060TIP3   OH236374   4.609   3.542  19.883
 4060TIP3    H136375   4.587   3.441  19.860
 4060TIP3    H236376   4.715   3.546  19.867
 4061TIP3   OH236377   4.253   2.778  19.443
 4061TIP3    H136378   4.225   2.874  19.475
 4061TIP3    H236379   4.157   2.739  19.417
 4062TIP3   OH236380   4.323   3.058  19.649
 4062TIP3    H136381   4.377   2.980  19.696
 4062TIP3    H236382   4.390   3.142  19.656
 4063TIP3   OH236383   5.408   3.994  19.775
 4063TIP3    H136384   5.471   3.941  19.713
 4063TIP3    H236385   5.381   3.907  19.827
 4064TIP3   OH236386   5.203   3.407  19.957
 4064TIP3    H136387   5.201   3.357  19.871
 4064TIP3    H236388   5.271   3.341  20.003
 4065TIP3   OH236389   5.556   2.736  19.955
 4065TIP3    H136390   5.549   2.629  19.958
 4065TIP3    H236391   5.531   2.754  19.861
 4066TIP3   OH236392   4.786   2.496  19.687
 4066TIP3    H136393   4.809   2.583  19.632
 4066TIP3    H236394   4.735   2.434  19.621
 4067TIP3   OH236395   5.569   2.547  19.520
 4067TIP3    H136396   5.617   2.489  19.593
 4067TIP3    H236397   5.650   2.612  19.501
 4068TIP3   OH236398   4.386   2.757  19.744
 4068TIP3    H136399   4.450   2.684  19.784
 4068TIP3    H236400   4.393   2.727  19.650
 4069TIP3   OH236401   4.853   2.959  19.695
 4069TIP3    H136402   4.958   2.984  19.704
 4069TIP3    H236403   4.858   2.870  19.639
 4070TIP3   OH236404   5.394   3.441  19.436
 4070TIP3    H136405   5.391   3.431  19.338
 4070TIP3    H236406   5.382   3.547  19.446
 4071TIP3   OH236407   5.759   2.474  19.704
 4071TIP3    H136408   5.693   2.462  19.782
 4071TIP3    H236409   5.853   2.453  19.743
 4072TIP3   OH236410   4.601   2.609  19.875
 4072TIP3    H136411   4.629   2.711  19.867
 4072TIP3    H236412   4.654   2.564  19.800
 4073TIP3   OH236413   4.308   3.395  19.245
 4073TIP3    H136414   4.303   3.455  19.164
 4073TIP3    H236415   4.311   3.469  19.315
 4074TIP3   OH236416   5.825   3.553  19.876
 4074TIP3    H136417   5.778   3.499  19.951
 4074TIP3    H236418   5.867   3.634  19.923
 4075TIP3   OH236419   5.053   2.116  19.813
 4075TIP3    H136420   5.060   2.010  19.817
 4075TIP3    H236421   4.952   2.136  19.844
 4076TIP3   OH236422   5.573   3.839  19.609
 4076TIP3    H136423   5.617   3.741  19.598
 4076TIP3    H236424   5.658   3.898  19.581
 4077TIP3   OH236425   5.752   3.598  19.500
 4077TIP3    H136426   5.732   3.532  19.425
 4077TIP3    H236427   5.739   3.529  19.574
 4078TIP3   OH236428   5.299   3.054  19.249
 4078TIP3    H136429   5.262   3.153  19.270
 4078TIP3    H236430   5.391   3.077  19.202
 4079TIP3   OH236431   5.391   2.892  18.952
 4079TIP3    H136432   5.434   2.946  19.026
 4079TIP3    H236433   5.425   2.793  18.969
 4080TIP3   OH236434   5.731   3.053  19.381
 4080TIP3    H136435   5.652   3.095  19.438
 4080TIP3    H236436   5.810   3.040  19.445
 4081TIP3   OH236437   4.754   3.183  19.570
 4081TIP3    H136438   4.741   3.130  19.487
 4081TIP3    H236439   4.796   3.105  19.627
 4082TIP3   OH236440   4.917   3.559  19.839
 4082TIP3    H136441   4.907   3.520  19.748
 4082TIP3    H236442   5.004   3.506  19.870
 4083TIP3   OH236443   4.726   3.000  19.935
 4083TIP3    H136444   4.764   2.994  19.843
 4083TIP3    H236445   4.811   3.033  19.983
 4084TIP3   OH236446   5.582   3.034  19.145
 4084TIP3    H136447   5.650   3.040  19.223
 4084TIP3    H236448   5.641   3.084  19.075
 4085TIP3   OH236449   5.337   3.732  19.450
 4085TIP3    H136450   5.394   3.773  19.524
 4085TIP3    H236451   5.273   3.814  19.426
 4086TIP3   OH236452   6.007   2.075  19.182
 4086TIP3    H136453   5.906   2.090  19.214
 4086TIP3    H236454   6.040   2.175  19.161
 4087TIP3   OH236455   4.645   3.031  19.334
 4087TIP3    H136456   4.621   3.124  19.289
 4087TIP3    H236457   4.579   2.963  19.291
 4088TIP3   OH236458   6.113   3.655  19.002
 4088TIP3    H136459   6.146   3.758  19.014
 4088TIP3    H236460   6.208   3.606  19.007
 4089TIP3   OH236461   4.235   3.677  19.844
 4089TIP3    H136462   4.315   3.625  19.887
 4089TIP3    H236463   4.181   3.717  19.920
 4090TIP3   OH236464   5.284   4.037  19.342
 4090TIP3    H136465   5.289   4.043  19.244
 4090TIP3    H236466   5.266   4.141  19.364
 4091TIP3   OH236467   4.565   3.916  19.507
 4091TIP3    H136468   4.586   3.896  19.601
 4091TIP3    H236469   4.468   3.869  19.498
 4092TIP3   OH236470   5.607   3.966  19.022
 4092TIP3    H136471   5.674   3.886  18.993
 4092TIP3    H236472   5.608   3.955  19.120
 4093TIP3   OH236473   5.569   3.966  19.291
 4093TIP3    H136474   5.466   3.989  19.311
 4093TIP3    H236475   5.588   3.891  19.358
 4094TIP3   OH236476   4.769   2.223  19.894
 4094TIP3    H136477   4.678   2.236  19.840
 4094TIP3    H236478   4.792   2.324  19.919
 4095TIP3   OH236479   5.759   3.171  18.975
 4095TIP3    H136480   5.742   3.180  18.878
 4095TIP3    H236481   5.865   3.177  18.977
 4096TIP3   OH236482   5.266   2.461  18.974
 4096TIP3    H136483   5.225   2.458  19.063
 4096TIP3    H236484   5.220   2.369  18.941
 4097TIP3   OH236485   4.785   2.730  19.537
 4097TIP3    H136486   4.682   2.709  19.520
 4097TIP3    H236487   4.828   2.729  19.447
 4098TIP3   OH236488   5.412   2.837  19.388
 4098TIP3    H136489   5.367   2.919  19.338
 4098TIP3    H236490   5.476   2.797  19.320
 4099TIP3   OH236491   5.497   2.794  19.686
 4099TIP3    H136492   5.455   2.869  19.627
 4099TIP3    H236493   5.509   2.714  19.623
 4100TIP3   OH236494   4.860   2.460  18.869
 4100TIP3    H136495   4.818   2.437  18.958
 4100TIP3    H236496   4.797   2.539  18.837
 4101TIP3   OH236497   4.154   2.472  19.618
 4101TIP3    H136498   4.224   2.475  19.692
 4101TIP3    H236499   4.213   2.505  19.544
 4102TIP3   OH236500   4.283   2.530  19.125
 4102TIP3    H136501   4.342   2.574  19.055
 4102TIP3    H236502   4.209   2.607  19.136
 4103TIP3   OH236503   5.125   2.455  19.572
 4103TIP3    H136504   5.038   2.469  19.627
 4103TIP3    H236505   5.201   2.432  19.638
 4104TIP3   OH236506   4.478   2.619  19.530
 4104TIP3    H136507   4.409   2.662  19.465
 4104TIP3    H236508   4.510   2.528  19.485
 4105TIP3   OH236509   4.903   2.681  19.297
 4105TIP3    H136510   5.009   2.695  19.304
 4105TIP3    H236511   4.872   2.753  19.232
 4106TIP3   OH236512   5.569   2.450  19.905
 4106TIP3    H136513   5.563   2.420  19.999
 4106TIP3    H236514   5.472   2.423  19.873
 4107TIP3   OH236515   4.709   2.816  19.005
 4107TIP3    H136516   4.705   2.774  18.915
 4107TIP3    H236517   4.817   2.812  19.014
 4108TIP3   OH236518   5.173   2.740  19.845
 4108TIP3    H136519   5.207   2.820  19.787
 4108TIP3    H236520   5.263   2.695  19.876
 4109TIP3   OH236521   4.599   2.379  19.452
 4109TIP3    H136522   4.543   2.299  19.495
 4109TIP3    H236523   4.659   2.325  19.390
 4110TIP3   OH236524   5.129   3.297  19.242
 4110TIP3    H136525   5.048   3.247  19.197
 4110TIP3    H236526   5.078   3.340  19.321
 4111TIP3   OH236527   5.540   2.489  19.068
 4111TIP3    H136528   5.449   2.504  19.017
 4111TIP3    H236529   5.565   2.593  19.088
 4112TIP3   OH236530   5.608   2.741  19.173
 4112TIP3    H136531   5.679   2.714  19.241
 4112TIP3    H236532   5.643   2.840  19.153
 4113TIP3   OH236533   4.571   3.253  19.781
 4113TIP3    H136534   4.631   3.252  19.699
 4113TIP3    H236535   4.644   3.225  19.848
 4114TIP3   OH236536   5.349   3.464  19.171
 4114TIP3    H136537   5.295   3.559  19.185
 4114TIP3    H236538   5.269   3.392  19.179
 4115TIP3   OH236539   6.128   2.726  19.184
 4115TIP3    H136540   6.082   2.717  19.095
 4115TIP3    H236541   6.164   2.827  19.180
 4116TIP3   OH236542   5.943   3.711  19.218
 4116TIP3    H136543   5.926   3.633  19.281
 4116TIP3    H236544   5.990   3.661  19.142
 4117TIP3   OH236545   5.655   3.128  19.879
 4117TIP3    H136546   5.549   3.110  19.887
 4117TIP3    H236547   5.681   3.069  19.801
 4118TIP3   OH236548   4.811   3.617  19.577
 4118TIP3    H136549   4.871   3.706  19.576
 4118TIP3    H236550   4.741   3.640  19.508
 4119TIP3   OH236551   4.436   3.103  19.006
 4119TIP3    H136552   4.481   3.131  19.091
 4119TIP3    H236553   4.334   3.088  19.030
 4120TIP3   OH236554   4.989   3.398  19.453
 4120TIP3    H136555   4.921   3.457  19.506
 4120TIP3    H236556   5.023   3.325  19.516
 4121TIP3   OH236557   4.858   3.895  19.429
 4121TIP3    H136558   4.751   3.898  19.445
 4121TIP3    H236559   4.888   3.989  19.469
 4122TIP3   OH236560   5.709   3.500  19.017
 4122TIP3    H136561   5.727   3.464  19.108
 4122TIP3    H236562   5.606   3.475  19.007
 4123TIP3   OH236563   6.173   3.956  19.045
 4123TIP3    H136564   6.215   4.025  18.984
 4123TIP3    H236565   6.091   4.011  19.085
 4124TIP3   OH236566   5.792   3.346  19.248
 4124TIP3    H136567   5.762   3.247  19.271
 4124TIP3    H236568   5.898   3.333  19.231
 4125TIP3   OH236569   5.038   3.672  18.866
 4125TIP3    H136570   5.047   3.593  18.800
 4125TIP3    H236571   4.975   3.623  18.931
 4126TIP3   OH236572   4.897   3.554  19.107
 4126TIP3    H136573   4.981   3.506  19.149
 4126TIP3    H236574   4.910   3.655  19.139
 4127TIP3   OH236575   4.580   3.276  19.181
 4127TIP3    H136576   4.488   3.309  19.220
 4127TIP3    H236577   4.609   3.364  19.130
 4128TIP3   OH236578   5.485   2.376  19.315
 4128TIP3    H136579   5.513   2.414  19.228
 4128TIP3    H236580   5.522   2.451  19.376
 4129TIP3   OH236581   5.216   3.727  19.180
 4129TIP3    H136582   5.133   3.783  19.215
 4129TIP3    H236583   5.284   3.802  19.152
 4130TIP3   OH236584   5.205   2.616  19.355
 4130TIP3    H136585   5.267   2.701  19.378
 4130TIP3    H236586   5.194   2.565  19.441
 4131TIP3   OH236587   5.247   2.248  19.426
 4131TIP3    H136588   5.203   2.319  19.489
 4131TIP3    H236589   5.332   2.307  19.392
 4132TIP3   OH236590   4.931   3.833  19.167
 4132TIP3    H136591   4.943   3.917  19.105
 4132TIP3    H236592   4.886   3.884  19.243
 4133TIP3   OH236593   4.780   2.394  19.125
 4133TIP3    H136594   4.783   2.473  19.190
 4133TIP3    H236595   4.872   2.343  19.143
 4134TIP3   OH236596   5.789   2.921  19.724
 4134TIP3    H136597   5.698   2.870  19.746
 4134TIP3    H236598   5.858   2.871  19.788
 4135TIP3   OH236599   4.597   3.526  19.016
 4135TIP3    H136600   4.676   3.578  19.062
 4135TIP3    H236601   4.659   3.458  18.961
 4136TIP3   OH236602   4.385   2.759  18.946
 4136TIP3    H136603   4.460   2.824  18.982
 4136TIP3    H236604   4.313   2.827  18.909
 4137TIP3   OH236605   5.906   3.946  19.941
 4137TIP3    H136606   5.916   4.028  19.879
 4137TIP3    H236607   5.996   3.947  19.990
 4138TIP3   OH236608   4.509   2.200  19.782
 4138TIP3    H136609   4.491   2.160  19.691
 4138TIP3    H236610   4.498   2.108  19.833
 4139TIP3   OH236611   4.357   3.683  19.435
 4139TIP3    H136612   4.273   3.744  19.454
 4139TIP3    H236613   4.396   3.733  19.357
 4140TIP3   OH236614   5.275   3.867  18.865
 4140TIP3    H136615   5.207   3.783  18.879
 4140TIP3    H236616   5.361   3.818  18.829
 4141TIP3   OH236617   5.763   3.769  18.873
 4141TIP3    H136618   5.772   3.675  18.922
 4141TIP3    H236619   5.853   3.770  18.820
 4142TIP3   OH236620   4.792   3.346  18.879
 4142TIP3    H136621   4.838   3.294  18.953
 4142TIP3    H236622   4.878   3.368  18.824
 4143TIP3   OH236623   5.368   3.514  18.841
 4143TIP3    H136624   5.332   3.487  18.929
 4143TIP3    H236625   5.379   3.416  18.805
 4144TIP3   OH236626   4.917   3.145  19.113
 4144TIP3    H136627   4.831   3.088  19.137
 4144TIP3    H236628   4.979   3.075  19.065
 4145TIP3   OH236629   4.992   2.818  18.963
 4145TIP3    H136630   4.976   2.889  18.889
 4145TIP3    H236631   5.099   2.816  18.964
 4146TIP3   OH236632   6.046   3.177  18.867
 4146TIP3    H136633   6.037   3.139  18.776
 4146TIP3    H236634   6.041   3.285  18.850
 4147TIP3   OH236635   4.996   4.091  19.054
 4147TIP3    H136636   5.100   4.090  19.076
 4147TIP3    H236637   4.997   4.167  18.984
 4148TIP3   OH236638   4.305   3.501  18.989
 4148TIP3    H136639   4.413   3.516  19.000
 4148TIP3    H236640   4.308   3.413  18.934
 4149TIP3   OH236641   4.167   4.056  19.450
 4149TIP3    H136642   4.073   4.004  19.435
 4149TIP3    H236643   4.197   4.012  19.536
 4150TIP3   OH236644   4.256   3.889  19.660
 4150TIP3    H136645   4.232   3.796  19.707
 4150TIP3    H236646   4.313   3.939  19.729
 4151TIP3   OH236647   6.094   3.292  19.235
 4151TIP3    H136648   6.185   3.346  19.251
 4151TIP3    H236649   6.095   3.222  19.310
 4152TIP3   OH236650   6.141   3.110  19.457
 4152TIP3    H136651   6.065   3.039  19.483
 4152TIP3    H236652   6.215   3.098  19.527
 4153TIP3   OH236653   6.168   3.403  19.941
 4153TIP3    H136654   6.237   3.330  19.906
 4153TIP3    H236655   6.148   3.469  19.867
 4154TIP3   OH236656   6.173   3.029  19.093
 4154TIP3    H136657   6.106   3.039  19.017
 4154TIP3    H236658   6.156   3.126  19.135
 4155TIP3   OH236659   6.012   2.742  18.916
 4155TIP3    H136660   6.034   2.809  18.844
 4155TIP3    H236661   5.974   2.655  18.872
 4156TIP3   OH236662   5.966   2.871  19.503
 4156TIP3    H136663   5.915   2.791  19.457
 4156TIP3    H236664   5.906   2.883  19.583
 4157TIP3   OH236665   4.271   3.164  19.894
 4157TIP3    H136666   4.292   3.118  19.807
 4157TIP3    H236667   4.352   3.128  19.949
 4158TIP3   OH236668   5.928   2.458  18.837
 4158TIP3    H136669   5.961   2.414  18.920
 4158TIP3    H236670   5.829   2.416  18.825
 4159TIP3   OH236671   5.861   2.660  19.340
 4159TIP3    H136672   5.878   2.556  19.364
 4159TIP3    H236673   5.951   2.678  19.290
 4160TIP3   OH236674   5.943   2.726  19.862
 4160TIP3    H136675   6.051   2.716  19.866
 4160TIP3    H236676   5.919   2.625  19.890
 4161TIP3   OH236677   5.936   2.364  19.367
 4161TIP3    H136678   5.974   2.316  19.447
 4161TIP3    H236679   5.875   2.283  19.333
 4162TIP3   OH236680   4.334   2.434  19.856
 4162TIP3    H136681   4.380   2.340  19.833
 4162TIP3    H236682   4.415   2.486  19.899
 4163TIP3   OH236683   4.164   2.744  19.946
 4163TIP3    H136684   4.221   2.705  19.871
 4163TIP3    H236685   4.205   2.842  19.951
 4164TIP3   OH236686   6.122   2.340  19.042
 4164TIP3    H136687   6.164   2.288  18.965
 4164TIP3    H236688   6.210   2.389  19.074
 4165TIP3   OH236689   4.179   2.343  19.312
 4165TIP3    H136690   4.079   2.376  19.319
 4165TIP3    H236691   4.217   2.409  19.243
 4166TIP3   OH236692   5.800   4.005  19.528
 4166TIP3    H136693   5.887   3.973  19.477
 4166TIP3    H236694   5.841   4.070  19.595
 4167TIP3   OH236695   4.429   4.003  19.871
 4167TIP3    H136696   4.455   4.018  19.965
 4167TIP3    H236697   4.516   3.948  19.839
 4168TIP3   OH236698   4.651   3.848  19.762
 4168TIP3    H136699   4.644   3.741  19.773
 4168TIP3    H236700   4.752   3.867  19.793
 4169TIP3   OH236701   4.919   3.882  19.857
 4169TIP3    H136702   4.938   3.776  19.854
 4169TIP3    H236703   4.920   3.902  19.951
 4170TIP3   OH236704   5.322   2.327  19.763
 4170TIP3    H136705   5.239   2.269  19.798
 4170TIP3    H236706   5.401   2.256  19.780
 4171TIP3   OH236707   5.884   2.120  19.764
 4171TIP3    H136708   5.947   2.170  19.697
 4171TIP3    H236709   5.788   2.166  19.751
 4172TIP3   OH236710   6.068   2.221  19.571
 4172TIP3    H136711   6.141   2.159  19.525
 4172TIP3    H236712   6.125   2.311  19.590
 4173TIP3   OH236713   4.467   2.122  19.527
 4173TIP3    H136714   4.375   2.108  19.477
 4173TIP3    H236715   4.509   2.022  19.522
 4174TIP3   OH236716   4.357   2.131  19.140
 4174TIP3    H136717   4.390   2.197  19.070
 4174TIP3    H236718   4.287   2.192  19.188
 4175TIP3   OH236719   4.952   2.078  19.557
 4175TIP3    H136720   5.027   2.123  19.503
 4175TIP3    H236721   4.987   2.097  19.648
 4176TIP3   OH236722   5.590   2.173  19.669
 4176TIP3    H136723   5.573   2.184  19.574
 4176TIP3    H236724   5.545   2.077  19.689
 4177TIP3   OH236725   5.756   2.135  19.303
 4177TIP3    H136726   5.683   2.174  19.243
 4177TIP3    H236727   5.709   2.043  19.332
 4178TIP3   OH236728   4.343   3.890  19.237
 4178TIP3    H136729   4.237   3.904  19.229
 4178TIP3    H236730   4.376   3.982  19.196
 4179TIP3   OH236731   4.490   2.366  18.971
 4179TIP3    H136732   4.558   2.297  18.928
 4179TIP3    H236733   4.552   2.409  19.040
 4180TIP3   OH236734   5.097   2.366  19.199
 4180TIP3    H136735   5.135   2.306  19.272
 4180TIP3    H236736   5.109   2.463  19.240
 4181TIP3   OH236737   5.325   4.031  19.075
 4181TIP3    H136738   5.429   4.035  19.049
 4181TIP3    H236739   5.287   3.981  18.995
 4182TIP3   OH236740   6.034   3.935  19.358
 4182TIP3    H136741   6.001   3.852  19.302
 4182TIP3    H236742   6.020   4.018  19.296
 4183TIP3   OH236743   4.451   3.968  18.918
 4183TIP3    H136744   4.437   4.018  19.003
 4183TIP3    H236745   4.545   3.920  18.935
 4184TIP3   OH236746   7.560   3.153  19.535
 4184TIP3    H136747   7.537   3.259  19.538
 4184TIP3    H236748   7.475   3.120  19.486
 4185TIP3   OH236749   7.412   3.078  19.870
 4185TIP3    H136750   7.415   3.032  19.959
 4185TIP3    H236751   7.334   3.021  19.827
 4186TIP3   OH236752   7.762   3.362  19.692
 4186TIP3    H136753   7.709   3.308  19.762
 4186TIP3    H236754   7.807   3.439  19.750
 4187TIP3   OH236755   6.682   3.557  19.881
 4187TIP3    H136756   6.608   3.484  19.898
 4187TIP3    H236757   6.769   3.516  19.923
 4188TIP3   OH236758   6.346   2.793  19.428
 4188TIP3    H136759   6.300   2.889  19.429
 4188TIP3    H236760   6.260   2.734  19.410
 4189TIP3   OH236761   6.383   3.049  19.646
 4189TIP3    H136762   6.391   2.943  19.660
 4189TIP3    H236763   6.431   3.065  19.560
 4190TIP3   OH236764   7.495   3.978  19.737
 4190TIP3    H136765   7.581   3.923  19.701
 4190TIP3    H236766   7.448   3.898  19.784
 4191TIP3   OH236767   7.301   3.375  19.987
 4191TIP3    H136768   7.337   3.300  19.927
 4191TIP3    H236769   7.370   3.365  20.060
 4192TIP3   OH236770   7.559   2.728  19.959
 4192TIP3    H136771   7.560   2.643  20.018
 4192TIP3    H236772   7.517   2.690  19.877
 4193TIP3   OH236773   6.863   2.497  19.688
 4193TIP3    H136774   6.884   2.586  19.636
 4193TIP3    H236775   6.813   2.437  19.622
 4194TIP3   OH236776   7.660   2.545  19.513
 4194TIP3    H136777   7.710   2.493  19.587
 4194TIP3    H236778   7.739   2.611  19.486
 4195TIP3   OH236779   6.432   2.740  19.740
 4195TIP3    H136780   6.510   2.707  19.799
 4195TIP3    H236781   6.470   2.706  19.653
 4196TIP3   OH236782   7.006   2.947  19.698
 4196TIP3    H136783   7.092   2.891  19.728
 4196TIP3    H236784   6.959   2.872  19.641
 4197TIP3   OH236785   7.482   3.417  19.421
 4197TIP3    H136786   7.443   3.423  19.330
 4197TIP3    H236787   7.460   3.518  19.453
 4198TIP3   OH236788   7.821   2.466  19.726
 4198TIP3    H136789   7.812   2.422  19.813
 4198TIP3    H236790   7.927   2.461  19.714
 4199TIP3   OH236791   6.675   2.612  19.874
 4199TIP3    H136792   6.709   2.713  19.867
 4199TIP3    H236793   6.728   2.565  19.800
 4200TIP3   OH236794   6.385   3.398  19.243
 4200TIP3    H136795   6.371   3.453  19.158
 4200TIP3    H236796   6.394   3.476  19.310
 4201TIP3   OH236797   7.893   3.530  19.880
 4201TIP3    H136798   7.851   3.494  19.964
 4201TIP3    H236799   7.907   3.632  19.904
 4202TIP3   OH236800   7.149   2.118  19.799
 4202TIP3    H136801   7.148   2.010  19.797
 4202TIP3    H236802   7.054   2.142  19.841
 4203TIP3   OH236803   7.673   3.800  19.605
 4203TIP3    H136804   7.700   3.708  19.561
 4203TIP3    H236805   7.760   3.860  19.585
 4204TIP3   OH236806   7.825   3.581  19.471
 4204TIP3    H136807   7.806   3.508  19.402
 4204TIP3    H236808   7.847   3.519  19.548
 4205TIP3   OH236809   7.391   3.081  19.268
 4205TIP3    H136810   7.334   3.170  19.254
 4205TIP3    H236811   7.484   3.109  19.224
 4206TIP3   OH236812   7.421   2.957  18.981
 4206TIP3    H136813   7.492   3.007  19.038
 4206TIP3    H236814   7.440   2.856  19.004
 4207TIP3   OH236815   7.813   3.116  19.385
 4207TIP3    H136816   7.710   3.105  19.415
 4207TIP3    H236817   7.858   3.022  19.404
 4208TIP3   OH236818   6.847   3.197  19.580
 4208TIP3    H136819   6.805   3.143  19.505
 4208TIP3    H236820   6.881   3.115  19.637
 4209TIP3   OH236821   7.013   3.544  19.828
 4209TIP3    H136822   7.082   3.543  19.754
 4209TIP3    H236823   7.080   3.522  19.901
 4210TIP3   OH236824   6.815   3.020  19.912
 4210TIP3    H136825   6.889   2.987  19.849
 4210TIP3    H236826   6.867   3.017  19.997
 4211TIP3   OH236827   7.655   3.047  19.156
 4211TIP3    H136828   7.723   3.088  19.221
 4211TIP3    H236829   7.702   3.081  19.071
 4212TIP3   OH236830   7.403   3.703  19.457
 4212TIP3    H136831   7.453   3.744  19.534
 4212TIP3    H236832   7.347   3.786  19.423
 4213TIP3   OH236833   8.055   2.093  19.126
 4213TIP3    H136834   7.951   2.104  19.149
 4213TIP3    H236835   8.094   2.192  19.133
 4214TIP3   OH236836   6.678   3.042  19.357
 4214TIP3    H136837   6.679   3.124  19.293
 4214TIP3    H236838   6.677   2.958  19.297
 4215TIP3   OH236839   8.192   3.694  18.980
 4215TIP3    H136840   8.229   3.794  18.995
 4215TIP3    H236841   8.286   3.643  18.982
 4216TIP3   OH236842   6.323   3.676  19.848
 4216TIP3    H136843   6.412   3.636  19.886
 4216TIP3    H236844   6.281   3.732  19.921
 4217TIP3   OH236845   7.345   4.040  19.334
 4217TIP3    H136846   7.339   4.059  19.238
 4217TIP3    H236847   7.341   4.143  19.368
 4218TIP3   OH236848   6.656   3.930  19.500
 4218TIP3    H136849   6.674   3.914  19.596
 4218TIP3    H236850   6.562   3.883  19.489
 4219TIP3   OH236851   7.668   3.978  19.034
 4219TIP3    H136852   7.724   3.896  18.993
 4219TIP3    H236853   7.685   3.963  19.130
 4220TIP3   OH236854   7.646   3.962  19.309
 4220TIP3    H136855   7.538   3.969  19.314
 4220TIP3    H236856   7.667   3.881  19.369
 4221TIP3   OH236857   6.854   2.230  19.874
 4221TIP3    H136858   6.773   2.217  19.810
 4221TIP3    H236859   6.817   2.318  19.915
 4222TIP3   OH236860   7.803   3.165  18.962
 4222TIP3    H136861   7.780   3.167  18.867
 4222TIP3    H236862   7.909   3.190  18.960
 4223TIP3   OH236863   7.350   2.453  18.974
 4223TIP3    H136864   7.334   2.420  19.065
 4223TIP3    H236865   7.272   2.396  18.933
 4224TIP3   OH236866   6.885   2.747  19.543
 4224TIP3    H136867   6.779   2.738  19.528
 4224TIP3    H236868   6.927   2.738  19.452
 4225TIP3   OH236869   7.512   2.853  19.384
 4225TIP3    H136870   7.459   2.927  19.328
 4225TIP3    H236871   7.570   2.804  19.314
 4226TIP3   OH236872   7.503   2.765  19.662
 4226TIP3    H136873   7.482   2.829  19.586
 4226TIP3    H236874   7.558   2.690  19.614
 4227TIP3   OH236875   6.947   2.504  18.919
 4227TIP3    H136876   6.885   2.447  18.981
 4227TIP3    H236877   6.874   2.559  18.867
 4228TIP3   OH236878   6.222   2.466  19.624
 4228TIP3    H136879   6.282   2.463  19.705
 4228TIP3    H236880   6.293   2.447  19.555
 4229TIP3   OH236881   6.340   2.528  19.140
 4229TIP3    H136882   6.405   2.574  19.074
 4229TIP3    H236883   6.271   2.609  19.152
 4230TIP3   OH236884   7.198   2.528  19.603
 4230TIP3    H136885   7.116   2.523  19.664
 4230TIP3    H236886   7.274   2.479  19.658
 4231TIP3   OH236887   6.574   2.641  19.525
 4231TIP3    H136888   6.499   2.678  19.462
 4231TIP3    H236889   6.593   2.542  19.489
 4232TIP3   OH236890   6.982   2.708  19.296
 4232TIP3    H136891   7.076   2.696  19.254
 4232TIP3    H236892   6.925   2.759  19.227
 4233TIP3   OH236893   7.592   2.328  19.941
 4233TIP3    H136894   7.593   2.390  20.020
 4233TIP3    H236895   7.538   2.390  19.880
 4234TIP3   OH236896   6.843   2.822  19.034
 4234TIP3    H136897   6.800   2.761  18.964
 4234TIP3    H236898   6.929   2.860  18.986
 4235TIP3   OH236899   7.272   2.822  19.816
 4235TIP3    H136900   7.337   2.806  19.739
 4235TIP3    H236901   7.313   2.747  19.874
 4236TIP3   OH236902   6.666   2.376  19.466
 4236TIP3    H136903   6.612   2.298  19.512
 4236TIP3    H236904   6.724   2.318  19.406
 4237TIP3   OH236905   7.210   3.322  19.226
 4237TIP3    H136906   7.125   3.270  19.190
 4237TIP3    H236907   7.169   3.354  19.312
 4238TIP3   OH236908   7.619   2.499  19.075
 4238TIP3    H136909   7.520   2.515  19.039
 4238TIP3    H236910   7.651   2.599  19.094
 4239TIP3   OH236911   7.699   2.746  19.194
 4239TIP3    H136912   7.796   2.729  19.233
 4239TIP3    H236913   7.718   2.819  19.125
 4240TIP3   OH236914   6.652   3.265  19.777
 4240TIP3    H136915   6.596   3.201  19.718
 4240TIP3    H236916   6.717   3.198  19.826
 4241TIP3   OH236917   7.434   3.475  19.125
 4241TIP3    H136918   7.393   3.571  19.153
 4241TIP3    H236919   7.355   3.408  19.153
 4242TIP3   OH236920   8.209   2.743  19.179
 4242TIP3    H136921   8.151   2.711  19.102
 4242TIP3    H236922   8.228   2.845  19.150
 4243TIP3   OH236923   8.040   3.708  19.220
 4243TIP3    H136924   7.974   3.627  19.239
 4243TIP3    H236925   8.092   3.680  19.137
 4244TIP3   OH236926   7.690   3.159  19.872
 4244TIP3    H136927   7.585   3.134  19.864
 4244TIP3    H236928   7.731   3.061  19.859
 4245TIP3   OH236929   6.893   3.628  19.568
 4245TIP3    H136930   6.963   3.703  19.594
 4245TIP3    H236931   6.849   3.681  19.493
 4246TIP3   OH236932   6.508   3.083  19.027
 4246TIP3    H136933   6.549   3.158  19.086
 4246TIP3    H236934   6.402   3.094  19.035
 4247TIP3   OH236935   7.061   3.380  19.443
 4247TIP3    H136936   7.009   3.461  19.488
 4247TIP3    H236937   7.041   3.293  19.496
 4248TIP3   OH236938   6.941   3.883  19.423
 4248TIP3    H136939   6.839   3.912  19.443
 4248TIP3    H236940   6.987   3.975  19.447
 4249TIP3   OH236941   7.790   3.529  19.016
 4249TIP3    H136942   7.809   3.472  19.098
 4249TIP3    H236943   7.696   3.486  18.994
 4250TIP3   OH236944   8.275   3.972  19.038
 4250TIP3    H136945   8.313   4.061  18.996
 4250TIP3    H236946   8.181   4.010  19.067
 4251TIP3   OH236947   7.902   3.356  19.225
 4251TIP3    H136948   7.882   3.263  19.270
 4251TIP3    H236949   8.010   3.346  19.213
 4252TIP3   OH236950   7.125   3.650  18.870
 4252TIP3    H136951   7.115   3.597  18.786
 4252TIP3    H236952   7.058   3.595  18.928
 4253TIP3   OH236953   6.976   3.555  19.102
 4253TIP3    H136954   7.059   3.512  19.150
 4253TIP3    H236955   6.992   3.660  19.126
 4254TIP3   OH236956   6.650   3.282  19.174
 4254TIP3    H136957   6.552   3.318  19.198
 4254TIP3    H236958   6.691   3.366  19.126
 4255TIP3   OH236959   7.554   2.380  19.311
 4255TIP3    H136960   7.588   2.433  19.232
 4255TIP3    H236961   7.587   2.447  19.383
 4256TIP3   OH236962   7.302   3.747  19.174
 4256TIP3    H136963   7.202   3.786  19.186
 4256TIP3    H236964   7.355   3.836  19.153
 4257TIP3   OH236965   7.281   2.591  19.347
 4257TIP3    H136966   7.317   2.688  19.369
 4257TIP3    H236967   7.237   2.560  19.432
 4258TIP3   OH236968   7.311   2.252  19.415
 4258TIP3    H136969   7.278   2.322  19.481
 4258TIP3    H236970   7.398   2.302  19.377
 4259TIP3   OH236971   7.019   3.827  19.167
 4259TIP3    H136972   7.026   3.911  19.104
 4259TIP3    H236973   6.971   3.874  19.243
 4260TIP3   OH236974   6.844   2.384  19.143
 4260TIP3    H136975   6.845   2.472  19.197
 4260TIP3    H236976   6.947   2.352  19.148
 4261TIP3   OH236977   7.752   2.913  19.758
 4261TIP3    H136978   7.679   2.838  19.780
 4261TIP3    H236979   7.843   2.862  19.786
 4262TIP3   OH236980   6.669   3.554  19.013
 4262TIP3    H136981   6.752   3.586  19.068
 4262TIP3    H236982   6.723   3.495  18.947
 4263TIP3   OH236983   6.472   2.750  18.985
 4263TIP3    H136984   6.521   2.840  19.012
 4263TIP3    H236985   6.409   2.784  18.914
 4264TIP3   OH236986   7.985   3.928  19.945
 4264TIP3    H136987   7.966   4.018  19.893
 4264TIP3    H236988   8.082   3.949  19.979
 4265TIP3   OH236989   6.592   2.201  19.769
 4265TIP3    H136990   6.576   2.157  19.681
 4265TIP3    H236991   6.577   2.114  19.825
 4266TIP3   OH236992   6.446   3.700  19.444
 4266TIP3    H136993   6.350   3.739  19.468
 4266TIP3    H236994   6.455   3.746  19.355
 4267TIP3   OH236995   7.353   3.856  18.874
 4267TIP3    H136996   7.294   3.766  18.887
 4267TIP3    H236997   7.442   3.816  18.830
 4268TIP3   OH236998   7.856   3.796  18.885
 4268TIP3    H136999   7.873   3.715  18.947
 4268TIP3    H237000   7.944   3.793  18.830
 4269TIP3   OH237001   6.842   3.350  18.859
 4269TIP3    H137002   6.884   3.309  18.940
 4269TIP3    H237003   6.925   3.336  18.797
 4270TIP3   OH237004   7.466   3.483  18.840
 4270TIP3    H137005   7.432   3.482  18.932
 4270TIP3    H237006   7.449   3.378  18.820
 4271TIP3   OH237007   6.992   3.131  19.123
 4271TIP3    H137008   6.916   3.067  19.160
 4271TIP3    H237009   7.036   3.066  19.056
 4272TIP3   OH237010   7.107   2.941  18.929
 4272TIP3    H137011   7.097   2.958  18.832
 4272TIP3    H237012   7.214   2.955  18.940
 4273TIP3   OH237013   8.094   3.175  18.882
 4273TIP3    H137014   8.067   3.159  18.788
 4273TIP3    H237015   8.115   3.280  18.884
 4274TIP3   OH237016   7.076   4.077  19.053
 4274TIP3    H137017   7.184   4.078  19.060
 4274TIP3    H237018   7.064   4.155  18.986
 4275TIP3   OH237019   6.366   3.510  19.001
 4275TIP3    H137020   6.474   3.527  18.999
 4275TIP3    H237021   6.355   3.441  18.925
 4276TIP3   OH237022   6.259   4.082  19.449
 4276TIP3    H137023   6.170   4.028  19.424
 4276TIP3    H237024   6.275   4.037  19.538
 4277TIP3   OH237025   6.305   3.935  19.678
 4277TIP3    H137026   6.263   3.842  19.708
 4277TIP3    H237027   6.377   3.952  19.750
 4278TIP3   OH237028   8.191   3.287  19.241
 4278TIP3    H137029   8.263   3.354  19.276
 4278TIP3    H237030   8.193   3.213  19.312
 4279TIP3   OH237031   8.214   3.121  19.470
 4279TIP3    H137032   8.127   3.075  19.506
 4279TIP3    H237033   8.283   3.101  19.541
 4280TIP3   OH237034   8.270   3.340  19.878
 4280TIP3    H137035   8.371   3.373  19.886
 4280TIP3    H237036   8.221   3.434  19.887
 4281TIP3   OH237037   8.228   3.042  19.105
 4281TIP3    H137038   8.181   3.067  19.020
 4281TIP3    H237039   8.235   3.141  19.142
 4282TIP3   OH237040   8.045   2.726  18.938
 4282TIP3    H137041   8.060   2.793  18.864
 4282TIP3    H237042   8.016   2.637  18.889
 4283TIP3   OH237043   7.954   2.889  19.514
 4283TIP3    H137044   7.951   2.824  19.435
 4283TIP3    H237045   8.006   2.822  19.573
 4284TIP3   OH237046   6.371   3.188  19.885
 4284TIP3    H137047   6.378   3.130  19.803
 4284TIP3    H237048   6.424   3.131  19.952
 4285TIP3   OH237049   7.981   2.453  18.842
 4285TIP3    H137050   7.974   2.417  18.932
 4285TIP3    H237051   7.884   2.422  18.808
 4286TIP3   OH237052   7.959   2.661  19.352
 4286TIP3    H137053   7.940   2.559  19.375
 4286TIP3    H237054   8.061   2.654  19.324
 4287TIP3   OH237055   7.979   2.751  19.822
 4287TIP3    H137056   8.089   2.756  19.825
 4287TIP3    H237057   7.959   2.685  19.895
 4288TIP3   OH237058   7.973   2.346  19.372
 4288TIP3    H137059   8.007   2.308  19.458
 4288TIP3    H237060   7.915   2.263  19.338
 4289TIP3   OH237061   6.412   2.429  19.847
 4289TIP3    H137062   6.461   2.333  19.835
 4289TIP3    H237063   6.492   2.487  19.885
 4290TIP3   OH237064   6.230   2.746  19.939
 4290TIP3    H137065   6.285   2.701  19.866
 4290TIP3    H237066   6.270   2.845  19.934
 4291TIP3   OH237067   8.225   2.341  19.047
 4291TIP3    H137068   8.241   2.278  18.969
 4291TIP3    H237069   8.267   2.434  19.017
 4292TIP3   OH237070   6.252   2.332  19.317
 4292TIP3    H137071   6.153   2.367  19.330
 4292TIP3    H237072   6.291   2.414  19.263
 4293TIP3   OH237073   7.893   3.993  19.556
 4293TIP3    H137074   7.956   3.969  19.480
 4293TIP3    H237075   7.957   4.051  19.612
 4294TIP3   OH237076   6.512   3.986  19.869
 4294TIP3    H137077   6.538   3.999  19.964
 4294TIP3    H237078   6.600   3.942  19.830
 4295TIP3   OH237079   6.732   3.840  19.752
 4295TIP3    H137080   6.736   3.741  19.787
 4295TIP3    H237081   6.820   3.882  19.795
 4296TIP3   OH237082   6.984   3.909  19.860
 4296TIP3    H137083   7.048   3.826  19.848
 4296TIP3    H237084   6.984   3.922  19.956
 4297TIP3   OH237085   7.356   2.361  19.769
 4297TIP3    H137086   7.294   2.278  19.798
 4297TIP3    H237087   7.445   2.305  19.751
 4298TIP3   OH237088   7.913   2.103  19.786
 4298TIP3    H137089   7.997   2.163  19.754
 4298TIP3    H237090   7.840   2.146  19.726
 4299TIP3   OH237091   8.094   2.242  19.617
 4299TIP3    H137092   8.166   2.180  19.570
 4299TIP3    H237093   8.143   2.339  19.617
 4300TIP3   OH237094   6.541   2.104  19.524
 4300TIP3    H137095   6.453   2.092  19.469
 4300TIP3    H237096   6.584   2.006  19.518
 4301TIP3   OH237097   6.435   2.118  19.150
 4301TIP3    H137098   6.456   2.185  19.077
 4301TIP3    H237099   6.360   2.169  19.200
 4302TIP3   OH237100   7.007   2.098  19.547
 4302TIP3    H137101   7.095   2.114  19.496
 4302TIP3    H237102   7.046   2.105  19.638
 4303TIP3   OH237103   7.633   2.178  19.635
 4303TIP3    H137104   7.618   2.179  19.539
 4303TIP3    H237105   7.605   2.078  19.661
 4304TIP3   OH237106   7.805   2.124  19.287
 4304TIP3    H137107   7.714   2.173  19.259
 4304TIP3    H237108   7.769   2.031  19.323
 4305TIP3   OH237109   6.404   3.874  19.232
 4305TIP3    H137110   6.302   3.905  19.234
 4305TIP3    H237111   6.446   3.961  19.189
 4306TIP3   OH237112   6.560   2.346  18.973
 4306TIP3    H137113   6.623   2.281  18.920
 4306TIP3    H237114   6.614   2.349  19.057
 4307TIP3   OH237115   7.185   2.354  19.181
 4307TIP3    H137116   7.218   2.294  19.255
 4307TIP3    H237117   7.195   2.452  19.222
 4308TIP3   OH237118   7.379   4.045  19.066
 4308TIP3    H137119   7.482   4.044  19.039
 4308TIP3    H237120   7.345   3.977  18.995
 4309TIP3   OH237121   8.076   3.961  19.346
 4309TIP3    H137122   8.074   3.870  19.292
 4309TIP3    H237123   8.075   4.035  19.274
 4310TIP3   OH237124   6.546   3.973  18.909
 4310TIP3    H137125   6.523   4.008  18.998
 4310TIP3    H237126   6.632   3.912  18.926
 4311TIP3   OH237127   8.305   2.830  19.442
 4311TIP3    H137128   8.279   2.929  19.414
 4311TIP3    H237129   8.282   2.773  19.363
 4312TIP3   OH237130   8.307   3.637  19.874
 4312TIP3    H137131   8.415   3.647  19.883
 4312TIP3    H237132   8.271   3.693  19.950
 4313TIP3   OH237133   8.252   2.487  19.576
 4313TIP3    H137134   8.357   2.506  19.597
 4313TIP3    H237135   8.262   2.432  19.491
 4314TIP3   OH237136   8.254   4.094  19.513
 4314TIP3    H137137   8.197   4.036  19.448
 4314TIP3    H237138   8.265   4.024  19.587
 4315TIP3   OH237139   8.308   3.928  19.730
 4315TIP3    H137140   8.259   3.837  19.748
 4315TIP3    H237141   8.413   3.898  19.721
 4316TIP3   OH237142   8.421   3.029  19.913
 4316TIP3    H137143   8.466   3.064  19.829
 4316TIP3    H237144   8.426   3.118  19.967
 4317TIP3   OH237145   8.251   2.796  19.896
 4317TIP3    H137146   8.331   2.734  19.867
 4317TIP3    H237147   8.309   2.884  19.920
 4318TIP3   OH237148   8.265   2.367  19.337
 4318TIP3    H137149   8.159   2.372  19.321
 4318TIP3    H237150   8.306   2.375  19.247
 4319TIP3   OH237151   1.339   5.245  19.522
 4319TIP3    H137152   1.337   5.349  19.544
 4319TIP3    H237153   1.243   5.233  19.482
 4320TIP3   OH237154   1.198   5.127  19.865
 4320TIP3    H137155   1.188   5.088  19.956
 4320TIP3    H237156   1.119   5.074  19.821
 4321TIP3   OH237157   1.532   5.449  19.701
 4321TIP3    H137158   1.502   5.366  19.757
 4321TIP3    H237159   1.570   5.519  19.770
 4322TIP3   OH237160   0.431   5.587  19.847
 4322TIP3    H137161   0.406   5.486  19.819
 4322TIP3    H237162   0.536   5.575  19.861
 4323TIP3   OH237163   0.134   4.841  19.367
 4323TIP3    H137164   0.140   4.929  19.420
 4323TIP3    H237165   0.036   4.811  19.395
 4324TIP3   OH237166   0.125   5.144  19.687
 4324TIP3    H137167   0.168   5.045  19.701
 4324TIP3    H237168   0.212   5.201  19.665
 4325TIP3   OH237169   1.273   6.069  19.749
 4325TIP3    H137170   1.341   6.010  19.694
 4325TIP3    H237171   1.229   5.988  19.798
 4326TIP3   OH237172   1.059   5.422  19.983
 4326TIP3    H137173   1.111   5.361  19.918
 4326TIP3    H237174   1.138   5.441  20.047
 4327TIP3   OH237175   1.355   4.810  19.969
 4327TIP3    H137176   1.388   4.708  19.974
 4327TIP3    H237177   1.352   4.825  19.872
 4328TIP3   OH237178   0.626   4.579  19.700
 4328TIP3    H137179   0.649   4.666  19.646
 4328TIP3    H237180   0.579   4.517  19.633
 4329TIP3   OH237181   1.422   4.622  19.524
 4329TIP3    H137182   1.483   4.577  19.595
 4329TIP3    H237183   1.498   4.684  19.483
 4330TIP3   OH237184   0.255   4.866  19.727
 4330TIP3    H137185   0.315   4.795  19.775
 4330TIP3    H237186   0.270   4.831  19.635
 4331TIP3   OH237187   0.762   5.016  19.703
 4331TIP3    H137188   0.847   4.963  19.738
 4331TIP3    H237189   0.720   4.938  19.646
 4332TIP3   OH237190   1.251   5.511  19.414
 4332TIP3    H137191   1.231   5.497  19.319
 4332TIP3    H237192   1.234   5.618  19.419
 4333TIP3   OH237193   1.623   4.545  19.696
 4333TIP3    H137194   1.556   4.519  19.771
 4333TIP3    H237195   1.717   4.521  19.733
 4334TIP3   OH237196   0.424   4.687  19.885
 4334TIP3    H137197   0.476   4.772  19.919
 4334TIP3    H237198   0.497   4.639  19.828
 4335TIP3   OH237199   0.134   5.477  19.257
 4335TIP3    H137200   0.107   5.536  19.179
 4335TIP3    H237201   0.161   5.553  19.323
 4336TIP3   OH237202   1.660   5.628  19.874
 4336TIP3    H137203   1.623   5.579  19.955
 4336TIP3    H237204   1.720   5.702  19.914
 4337TIP3   OH237205   0.938   4.216  19.811
 4337TIP3    H137206   0.961   4.113  19.811
 4337TIP3    H237207   0.835   4.220  19.841
 4338TIP3   OH237208   1.441   5.892  19.606
 4338TIP3    H137209   1.486   5.796  19.590
 4338TIP3    H237210   1.527   5.955  19.585
 4339TIP3   OH237211   1.594   5.656  19.494
 4339TIP3    H137212   1.569   5.577  19.433
 4339TIP3    H237213   1.598   5.599  19.577
 4340TIP3   OH237214   1.178   5.161  19.265
 4340TIP3    H137215   1.117   5.247  19.248
 4340TIP3    H237216   1.277   5.201  19.250
 4341TIP3   OH237217   1.195   5.022  18.965
 4341TIP3    H137218   1.242   5.057  19.047
 4341TIP3    H237219   1.230   4.920  18.962
 4342TIP3   OH237220   1.595   5.150  19.389
 4342TIP3    H137221   1.507   5.179  19.440
 4342TIP3    H237222   1.660   5.114  19.459
 4343TIP3   OH237223   0.637   5.225  19.554
 4343TIP3    H137224   0.589   5.166  19.485
 4343TIP3    H237225   0.697   5.152  19.601
 4344TIP3   OH237226   0.800   5.644  19.835
 4344TIP3    H137227   0.779   5.602  19.747
 4344TIP3    H237228   0.871   5.575  19.870
 4345TIP3   OH237229   0.608   5.108  19.912
 4345TIP3    H137230   0.662   5.093  19.828
 4345TIP3    H237231   0.685   5.141  19.971
 4346TIP3   OH237232   1.442   5.132  19.158
 4346TIP3    H137233   1.515   5.154  19.227
 4346TIP3    H237234   1.496   5.161  19.076
 4347TIP3   OH237235   1.190   5.793  19.439
 4347TIP3    H137236   1.264   5.817  19.505
 4347TIP3    H237237   1.132   5.881  19.433
 4348TIP3   OH237238   1.846   4.151  19.183
 4348TIP3    H137239   1.741   4.168  19.192
 4348TIP3    H237240   1.885   4.249  19.161
 4349TIP3   OH237241   0.520   5.096  19.313
 4349TIP3    H137242   0.466   5.182  19.280
 4349TIP3    H237243   0.460   5.014  19.287
 4350TIP3   OH237244   1.972   5.726  19.005
 4350TIP3    H137245   1.999   5.830  19.007
 4350TIP3    H237246   2.071   5.684  19.018
 4351TIP3   OH237247   0.144   5.740  19.880
 4351TIP3    H137248   0.220   5.665  19.876
 4351TIP3    H237249   0.186   5.801  19.950
 4352TIP3   OH237250   1.147   6.117  19.342
 4352TIP3    H137251   1.144   6.126  19.244
 4352TIP3    H237252   1.122   6.218  19.367
 4353TIP3   OH237253   0.454   5.988  19.514
 4353TIP3    H137254   0.468   5.953  19.606
 4353TIP3    H237255   0.349   5.992  19.502
 4354TIP3   OH237256   1.461   6.044  19.024
 4354TIP3    H137257   1.515   5.961  18.985
 4354TIP3    H237258   1.471   6.028  19.119
 4355TIP3   OH237259   1.432   6.047  19.299
 4355TIP3    H137260   1.328   6.060  19.322
 4355TIP3    H237261   1.459   5.965  19.357
 4356TIP3   OH237262   0.643   4.277  19.847
 4356TIP3    H137263   0.544   4.296  19.811
 4356TIP3    H237264   0.671   4.374  19.880
 4357TIP3   OH237265   1.608   5.235  18.968
 4357TIP3    H137266   1.584   5.253  18.874
 4357TIP3    H237267   1.715   5.247  18.966
 4358TIP3   OH237268   1.114   4.522  18.965
 4358TIP3    H137269   1.080   4.513  19.057
 4358TIP3    H237270   1.057   4.442  18.927
 4359TIP3   OH237271   0.651   4.814  19.544
 4359TIP3    H137272   0.548   4.787  19.526
 4359TIP3    H237273   0.689   4.807  19.450
 4360TIP3   OH237274   1.251   4.923  19.387
 4360TIP3    H137275   1.220   5.009  19.335
 4360TIP3    H237276   1.320   4.882  19.323
 4361TIP3   OH237277   1.339   4.862  19.697
 4361TIP3    H137278   1.319   4.943  19.636
 4361TIP3    H237279   1.354   4.783  19.633
 4362TIP3   OH237280   0.701   4.558  18.903
 4362TIP3    H137281   0.659   4.494  18.973
 4362TIP3    H237282   0.613   4.591  18.860
 4363TIP3   OH237283   0.078   4.535  19.620
 4363TIP3    H137284   0.120   4.551  19.709
 4363TIP3    H237285   0.128   4.446  19.592
 4364TIP3   OH237286   0.103   4.622  19.135
 4364TIP3    H137287   0.183   4.668  19.082
 4364TIP3    H237288   0.055   4.707  19.172
 4365TIP3   OH237289   0.952   4.589  19.620
 4365TIP3    H137290   0.860   4.573  19.668
 4365TIP3    H237291   1.021   4.528  19.671
 4366TIP3   OH237292   0.371   4.734  19.496
 4366TIP3    H137293   0.294   4.743  19.427
 4366TIP3    H237294   0.377   4.626  19.499
 4367TIP3   OH237295   0.727   4.766  19.291
 4367TIP3    H137296   0.832   4.764  19.270
 4367TIP3    H237297   0.686   4.826  19.219
 4368TIP3   OH237298   1.426   4.533  19.888
 4368TIP3    H137299   1.423   4.504  19.983
 4368TIP3    H237300   1.322   4.521  19.863
 4369TIP3   OH237301   0.624   4.908  19.032
 4369TIP3    H137302   0.573   4.840  18.974
 4369TIP3    H237303   0.715   4.927  18.981
 4370TIP3   OH237304   1.032   4.868  19.810
 4370TIP3    H137305   1.071   4.846  19.722
 4370TIP3    H237306   1.108   4.820  19.864
 4371TIP3   OH237307   0.444   4.457  19.493
 4371TIP3    H137308   0.382   4.374  19.519
 4371TIP3    H237309   0.494   4.409  19.418
 4372TIP3   OH237310   0.993   5.381  19.249
 4372TIP3    H137311   0.913   5.328  19.205
 4372TIP3    H237312   0.943   5.413  19.332
 4373TIP3   OH237313   1.383   4.576  19.069
 4373TIP3    H137314   1.291   4.584  19.017
 4373TIP3    H237315   1.405   4.681  19.087
 4374TIP3   OH237316   1.448   4.832  19.177
 4374TIP3    H137317   1.513   4.791  19.243
 4374TIP3    H237318   1.495   4.926  19.159
 4375TIP3   OH237319   0.447   5.315  19.765
 4375TIP3    H137320   0.505   5.300  19.684
 4375TIP3    H237321   0.503   5.262  19.833
 4376TIP3   OH237322   1.199   5.541  19.148
 4376TIP3    H137323   1.155   5.639  19.164
 4376TIP3    H237324   1.120   5.474  19.179
 4377TIP3   OH237325   1.991   4.801  19.181
 4377TIP3    H137326   1.933   4.797  19.098
 4377TIP3    H237327   2.019   4.905  19.182
 4378TIP3   OH237328   1.790   5.768  19.212
 4378TIP3    H137329   1.760   5.689  19.270
 4378TIP3    H237330   1.854   5.721  19.145
 4379TIP3   OH237331   1.493   5.203  19.881
 4379TIP3    H137332   1.390   5.170  19.869
 4379TIP3    H237333   1.549   5.129  19.830
 4380TIP3   OH237334   0.683   5.683  19.561
 4380TIP3    H137335   0.733   5.774  19.582
 4380TIP3    H237336   0.601   5.721  19.511
 4381TIP3   OH237337   0.254   5.157  19.026
 4381TIP3    H137338   0.298   5.244  19.066
 4381TIP3    H237339   0.153   5.159  19.057
 4382TIP3   OH237340   0.831   5.442  19.460
 4382TIP3    H137341   0.782   5.523  19.507
 4382TIP3    H237342   0.809   5.357  19.516
 4383TIP3   OH237343   0.727   5.960  19.429
 4383TIP3    H137344   0.624   5.978  19.451
 4383TIP3    H237345   0.769   6.051  19.466
 4384TIP3   OH237346   1.569   5.573  18.999
 4384TIP3    H137347   1.578   5.535  19.090
 4384TIP3    H237348   1.466   5.545  18.984
 4385TIP3   OH237349   2.028   6.042  19.046
 4385TIP3    H137350   2.099   6.117  19.019
 4385TIP3    H237351   1.955   6.103  19.091
 4386TIP3   OH237352   1.651   5.419  19.236
 4386TIP3    H137353   1.628   5.325  19.278
 4386TIP3    H237354   1.756   5.403  19.214
 4387TIP3   OH237355   0.916   5.720  18.863
 4387TIP3    H137356   0.913   5.653  18.787
 4387TIP3    H237357   0.857   5.666  18.928
 4388TIP3   OH237358   0.798   5.628  19.102
 4388TIP3    H137359   0.892   5.607  19.144
 4388TIP3    H237360   0.792   5.734  19.123
 4389TIP3   OH237361   0.397   5.368  19.181
 4389TIP3    H137362   0.303   5.389  19.227
 4389TIP3    H237363   0.384   5.426  19.100
 4390TIP3   OH237364   1.321   4.473  19.309
 4390TIP3    H137365   1.350   4.519  19.224
 4390TIP3    H237366   1.366   4.536  19.377
 4391TIP3   OH237367   1.069   5.805  19.158
 4391TIP3    H137368   0.987   5.862  19.196
 4391TIP3    H237369   1.142   5.882  19.150
 4392TIP3   OH237370   1.024   4.688  19.371
 4392TIP3    H137371   1.086   4.774  19.386
 4392TIP3    H237372   0.993   4.655  19.461
 4393TIP3   OH237373   1.089   4.338  19.418
 4393TIP3    H137374   1.063   4.398  19.495
 4393TIP3    H237375   1.174   4.394  19.382
 4394TIP3   OH237376   0.795   5.909  19.165
 4394TIP3    H137377   0.812   6.001  19.111
 4394TIP3    H237378   0.752   5.955  19.245
 4395TIP3   OH237379   0.623   4.456  19.149
 4395TIP3    H137380   0.614   4.545  19.201
 4395TIP3    H237381   0.728   4.438  19.152
 4396TIP3   OH237382   1.616   4.982  19.740
 4396TIP3    H137383   1.529   4.923  19.758
 4396TIP3    H237384   1.689   4.931  19.799
 4397TIP3   OH237385   0.444   5.635  19.014
 4397TIP3    H137386   0.483   5.733  18.993
 4397TIP3    H237387   0.465   5.582  18.930
 4398TIP3   OH237388   0.256   4.822  18.975
 4398TIP3    H137389   0.280   4.924  18.998
 4398TIP3    H237390   0.201   4.837  18.893
 4399TIP3   OH237391   1.740   6.028  19.943
 4399TIP3    H137392   1.758   6.108  19.880
 4399TIP3    H237393   1.833   6.021  19.989
 4400TIP3   OH237394   0.347   4.271  19.786
 4400TIP3    H137395   0.340   4.247  19.691
 4400TIP3    H237396   0.333   4.172  19.823
 4401TIP3   OH237397   0.235   5.718  19.388
 4401TIP3    H137398   0.154   5.752  19.440
 4401TIP3    H237399   0.267   5.809  19.347
 4402TIP3   OH237400   1.135   5.929  18.853
 4402TIP3    H137401   1.081   5.840  18.877
 4402TIP3    H237402   1.224   5.887  18.814
 4403TIP3   OH237403   1.620   5.849  18.870
 4403TIP3    H137404   1.635   5.762  18.926
 4403TIP3    H237405   1.708   5.848  18.815
 4404TIP3   OH237406   0.635   5.405  18.888
 4404TIP3    H137407   0.658   5.309  18.921
 4404TIP3    H237408   0.727   5.426  18.842
 4405TIP3   OH237409   1.251   5.546  18.866
 4405TIP3    H137410   1.206   5.541  18.954
 4405TIP3    H237411   1.242   5.443  18.838
 4406TIP3   OH237412   0.744   5.231  19.126
 4406TIP3    H137413   0.689   5.162  19.183
 4406TIP3    H237414   0.795   5.159  19.071
 4407TIP3   OH237415   0.883   5.022  18.918
 4407TIP3    H137416   0.881   5.060  18.827
 4407TIP3    H237417   0.989   5.018  18.938
 4408TIP3   OH237418   1.905   5.246  18.866
 4408TIP3    H137419   1.874   5.217  18.775
 4408TIP3    H237420   1.896   5.354  18.862
 4409TIP3   OH237421   0.853   6.171  19.067
 4409TIP3    H137422   0.959   6.172  19.074
 4409TIP3    H237423   0.838   6.246  18.998
 4410TIP3   OH237424   0.145   5.613  19.012
 4410TIP3    H137425   0.250   5.640  19.014
 4410TIP3    H237426   0.141   5.556  18.931
 4411TIP3   OH237427   0.098   6.153  19.485
 4411TIP3    H137428  -0.010   6.164  19.495
 4411TIP3    H237429   0.117   6.084  19.558
 4412TIP3   OH237430   0.141   5.954  19.691
 4412TIP3    H137431   0.136   5.860  19.740
 4412TIP3    H237432   0.202   6.009  19.754
 4413TIP3   OH237433   1.946   5.360  19.241
 4413TIP3    H137434   2.039   5.410  19.260
 4413TIP3    H237435   1.940   5.293  19.318
 4414TIP3   OH237436   1.983   5.169  19.458
 4414TIP3    H137437   1.910   5.113  19.509
 4414TIP3    H237438   2.069   5.169  19.518
 4415TIP3   OH237439   2.083   5.485  19.941
 4415TIP3    H137440   2.121   5.402  19.889
 4415TIP3    H237441   2.000   5.519  19.888
 4416TIP3   OH237442   2.044   5.121  19.085
 4416TIP3    H137443   1.973   5.132  19.010
 4416TIP3    H237444   2.015   5.204  19.141
 4417TIP3   OH237445   1.867   4.821  18.928
 4417TIP3    H137446   1.858   4.885  18.852
 4417TIP3    H237447   1.824   4.728  18.894
 4418TIP3   OH237448   1.779   4.954  19.526
 4418TIP3    H137449   1.728   4.873  19.483
 4418TIP3    H237450   1.724   4.963  19.611
 4419TIP3   OH237451   0.198   5.312  19.926
 4419TIP3    H137452   0.189   5.263  19.840
 4419TIP3    H237453   0.262   5.240  19.970
 4420TIP3   OH237454   1.763   4.551  18.869
 4420TIP3    H137455   1.811   4.489  18.937
 4420TIP3    H237456   1.673   4.498  18.847
 4421TIP3   OH237457   1.674   4.734  19.357
 4421TIP3    H137458   1.699   4.633  19.383
 4421TIP3    H237459   1.769   4.757  19.317
 4422TIP3   OH237460   1.800   4.812  19.869
 4422TIP3    H137461   1.907   4.806  19.879
 4422TIP3    H237462   1.777   4.709  19.890
 4423TIP3   OH237463   1.772   4.456  19.365
 4423TIP3    H137464   1.813   4.406  19.442
 4423TIP3    H237465   1.708   4.378  19.331
 4424TIP3   OH237466   0.168   4.510  19.870
 4424TIP3    H137467   0.213   4.413  19.860
 4424TIP3    H237468   0.245   4.563  19.918
 4425TIP3   OH237469   0.108   4.842  19.991
 4425TIP3    H137470   0.132   4.818  19.899
 4425TIP3    H237471   0.060   4.938  19.977
 4426TIP3   OH237472   1.979   4.412  19.040
 4426TIP3    H137473   2.024   4.357  18.965
 4426TIP3    H237474   2.048   4.492  19.051
 4427TIP3   OH237475   0.107   4.413  19.316
 4427TIP3    H137476   0.018   4.444  19.363
 4427TIP3    H237477   0.101   4.476  19.236
 4428TIP3   OH237478   1.663   6.072  19.544
 4428TIP3    H137479   1.746   6.053  19.483
 4428TIP3    H237480   1.704   6.139  19.610
 4429TIP3   OH237481   0.304   6.062  19.899
 4429TIP3    H137482   0.323   6.085  19.992
 4429TIP3    H237483   0.395   6.009  19.877
 4430TIP3   OH237484   0.492   5.887  19.762
 4430TIP3    H137485   0.465   5.784  19.773
 4430TIP3    H237486   0.589   5.891  19.806
 4431TIP3   OH237487   0.772   5.944  19.873
 4431TIP3    H137488   0.806   5.847  19.845
 4431TIP3    H237489   0.821   5.952  19.958
 4432TIP3   OH237490   1.157   4.423  19.769
 4432TIP3    H137491   1.086   4.347  19.796
 4432TIP3    H237492   1.244   4.360  19.767
 4433TIP3   OH237493   1.756   4.203  19.773
 4433TIP3    H137494   1.812   4.248  19.699
 4433TIP3    H237495   1.653   4.234  19.754
 4434TIP3   OH237496   1.926   4.294  19.563
 4434TIP3    H137497   2.003   4.239  19.517
 4434TIP3    H237498   1.980   4.387  19.582
 4435TIP3   OH237499   0.352   4.194  19.528
 4435TIP3    H137500   0.259   4.172  19.481
 4435TIP3    H237501   0.405   4.102  19.513
 4436TIP3   OH237502   0.237   4.200  19.173
 4436TIP3    H137503   0.242   4.244  19.085
 4436TIP3    H237504   0.187   4.277  19.227
 4437TIP3   OH237505   0.799   4.150  19.546
 4437TIP3    H137506   0.886   4.202  19.516
 4437TIP3    H237507   0.807   4.153  19.642
 4438TIP3   OH237508   1.474   4.236  19.683
 4438TIP3    H137509   1.440   4.264  19.596
 4438TIP3    H237510   1.424   4.140  19.697
 4439TIP3   OH237511   1.578   4.235  19.311
 4439TIP3    H137512   1.488   4.292  19.317
 4439TIP3    H237513   1.547   4.133  19.325
 4440TIP3   OH237514   0.209   5.993  19.242
 4440TIP3    H137515   0.103   6.004  19.230
 4440TIP3    H237516   0.239   6.091  19.210
 4441TIP3   OH237517   0.330   4.392  18.969
 4441TIP3    H137518   0.407   4.338  18.922
 4441TIP3    H237519   0.371   4.402  19.058
 4442TIP3   OH237520   0.952   4.454  19.191
 4442TIP3    H137521   1.000   4.392  19.258
 4442TIP3    H237522   0.964   4.549  19.236
 4443TIP3   OH237523   1.167   6.105  19.069
 4443TIP3    H137524   1.270   6.115  19.043
 4443TIP3    H237525   1.136   6.044  18.992
 4444TIP3   OH237526   1.871   6.003  19.356
 4444TIP3    H137527   1.845   5.916  19.301
 4444TIP3    H237528   1.871   6.081  19.288
 4445TIP3   OH237529   0.349   5.997  18.939
 4445TIP3    H137530   0.331   6.043  19.024
 4445TIP3    H237531   0.452   5.974  18.945
 4446TIP3   OH237532   3.408   5.244  19.524
 4446TIP3    H137533   3.403   5.349  19.541
 4446TIP3    H237534   3.315   5.229  19.479
 4447TIP3   OH237535   3.276   5.136  19.865
 4447TIP3    H137536   3.273   5.082  19.949
 4447TIP3    H237537   3.210   5.079  19.809
 4448TIP3   OH237538   3.593   5.458  19.701
 4448TIP3    H137539   3.573   5.375  19.762
 4448TIP3    H237540   3.638   5.529  19.764
 4449TIP3   OH237541   2.541   5.614  19.865
 4449TIP3    H137542   2.518   5.510  19.855
 4449TIP3    H237543   2.648   5.614  19.853
 4450TIP3   OH237544   2.187   4.843  19.464
 4450TIP3    H137545   2.163   4.946  19.476
 4450TIP3    H237546   2.099   4.807  19.420
 4451TIP3   OH237547   2.248   5.132  19.628
 4451TIP3    H137548   2.292   5.050  19.679
 4451TIP3    H237549   2.332   5.193  19.604
 4452TIP3   OH237550   3.356   6.070  19.750
 4452TIP3    H137551   3.424   6.012  19.695
 4452TIP3    H237552   3.309   5.988  19.794
 4453TIP3   OH237553   3.128   5.403  19.994
 4453TIP3    H137554   3.186   5.339  19.936
 4453TIP3    H237555   3.197   5.420  20.067
 4454TIP3   OH237556   3.431   4.805  19.964
 4454TIP3    H137557   3.461   4.701  19.973
 4454TIP3    H237558   3.439   4.817  19.868
 4455TIP3   OH237559   2.722   4.558  19.691
 4455TIP3    H137560   2.739   4.645  19.634
 4455TIP3    H237561   2.657   4.502  19.632
 4456TIP3   OH237562   3.496   4.629  19.528
 4456TIP3    H137563   3.557   4.578  19.596
 4456TIP3    H237564   3.573   4.687  19.486
 4457TIP3   OH237565   2.311   4.843  19.756
 4457TIP3    H137566   2.377   4.772  19.799
 4457TIP3    H237567   2.316   4.809  19.663
 4458TIP3   OH237568   2.852   5.016  19.692
 4458TIP3    H137569   2.931   4.957  19.730
 4458TIP3    H237570   2.793   4.940  19.647
 4459TIP3   OH237571   3.311   5.499  19.419
 4459TIP3    H137572   3.297   5.498  19.323
 4459TIP3    H237573   3.299   5.606  19.434
 4460TIP3   OH237574   3.697   4.550  19.701
 4460TIP3    H137575   3.631   4.522  19.776
 4460TIP3    H237576   3.793   4.520  19.737
 4461TIP3   OH237577   2.528   4.679  19.875
 4461TIP3    H137578   2.561   4.782  19.876
 4461TIP3    H237579   2.580   4.641  19.797
 4462TIP3   OH237580   2.239   5.470  19.270
 4462TIP3    H137581   2.230   5.530  19.188
 4462TIP3    H237582   2.253   5.547  19.336
 4463TIP3   OH237583   3.729   5.634  19.871
 4463TIP3    H137584   3.715   5.563  19.943
 4463TIP3    H237585   3.780   5.709  19.920
 4464TIP3   OH237586   2.989   4.204  19.794
 4464TIP3    H137587   3.014   4.102  19.809
 4464TIP3    H237588   2.886   4.211  19.827
 4465TIP3   OH237589   3.510   5.891  19.602
 4465TIP3    H137590   3.560   5.800  19.575
 4465TIP3    H237591   3.589   5.962  19.581
 4466TIP3   OH237592   3.685   5.663  19.489
 4466TIP3    H137593   3.671   5.595  19.415
 4466TIP3    H237594   3.669   5.598  19.565
 4467TIP3   OH237595   3.231   5.156  19.269
 4467TIP3    H137596   3.181   5.247  19.249
 4467TIP3    H237597   3.329   5.168  19.230
 4468TIP3   OH237598   3.273   5.037  18.967
 4468TIP3    H137599   3.339   5.073  19.038
 4468TIP3    H237600   3.300   4.934  18.964
 4469TIP3   OH237601   3.650   5.138  19.378
 4469TIP3    H137602   3.575   5.174  19.442
 4469TIP3    H237603   3.727   5.099  19.437
 4470TIP3   OH237604   2.708   5.222  19.558
 4470TIP3    H137605   2.665   5.170  19.482
 4470TIP3    H237606   2.776   5.149  19.596
 4471TIP3   OH237607   2.859   5.643  19.836
 4471TIP3    H137608   2.851   5.613  19.743
 4471TIP3    H237609   2.922   5.564  19.870
 4472TIP3   OH237610   2.683   5.030  19.916
 4472TIP3    H137611   2.739   5.038  19.833
 4472TIP3    H237612   2.708   5.123  19.960
 4473TIP3   OH237613   3.494   5.134  19.147
 4473TIP3    H137614   3.559   5.148  19.225
 4473TIP3    H237615   3.560   5.161  19.072
 4474TIP3   OH237616   3.271   5.786  19.443
 4474TIP3    H137617   3.341   5.825  19.510
 4474TIP3    H237618   3.214   5.872  19.421
 4475TIP3   OH237619   3.920   4.148  19.180
 4475TIP3    H137620   3.817   4.176  19.188
 4475TIP3    H237621   3.968   4.243  19.157
 4476TIP3   OH237622   2.545   5.115  19.334
 4476TIP3    H137623   2.529   5.205  19.282
 4476TIP3    H237624   2.520   5.040  19.270
 4477TIP3   OH237625   4.046   5.739  18.993
 4477TIP3    H137626   4.068   5.844  19.003
 4477TIP3    H237627   4.145   5.698  19.005
 4478TIP3   OH237628   2.151   5.750  19.826
 4478TIP3    H137629   2.214   5.674  19.862
 4478TIP3    H237630   2.101   5.781  19.907
 4479TIP3   OH237631   3.224   6.126  19.330
 4479TIP3    H137632   3.219   6.142  19.234
 4479TIP3    H237633   3.198   6.225  19.363
 4480TIP3   OH237634   2.509   5.987  19.509
 4480TIP3    H137635   2.528   5.968  19.604
 4480TIP3    H237636   2.408   5.951  19.499
 4481TIP3   OH237637   3.545   6.050  19.019
 4481TIP3    H137638   3.604   5.968  18.986
 4481TIP3    H237639   3.549   6.035  19.116
 4482TIP3   OH237640   3.505   6.050  19.296
 4482TIP3    H137641   3.399   6.065  19.316
 4482TIP3    H237642   3.526   5.973  19.360
 4483TIP3   OH237643   2.702   4.291  19.884
 4483TIP3    H137644   2.617   4.288  19.824
 4483TIP3    H237645   2.696   4.392  19.910
 4484TIP3   OH237646   3.682   5.236  18.967
 4484TIP3    H137647   3.663   5.257  18.872
 4484TIP3    H237648   3.787   5.251  18.970
 4485TIP3   OH237649   3.189   4.526  18.975
 4485TIP3    H137650   3.145   4.524  19.063
 4485TIP3    H237651   3.127   4.454  18.931
 4486TIP3   OH237652   2.719   4.807  19.552
 4486TIP3    H137653   2.616   4.778  19.535
 4486TIP3    H237654   2.760   4.807  19.460
 4487TIP3   OH237655   3.337   4.918  19.385
 4487TIP3    H137656   3.296   5.003  19.335
 4487TIP3    H237657   3.402   4.880  19.316
 4488TIP3   OH237658   3.402   4.866  19.689
 4488TIP3    H137659   3.396   4.941  19.619
 4488TIP3    H237660   3.420   4.781  19.633
 4489TIP3   OH237661   2.807   4.573  18.905
 4489TIP3    H137662   2.753   4.528  18.979
 4489TIP3    H237663   2.728   4.609  18.849
 4490TIP3   OH237664   2.079   4.540  19.620
 4490TIP3    H137665   2.149   4.544  19.694
 4490TIP3    H237666   2.138   4.566  19.543
 4491TIP3   OH237667   2.201   4.606  19.120
 4491TIP3    H137668   2.272   4.653  19.059
 4491TIP3    H237669   2.132   4.687  19.134
 4492TIP3   OH237670   3.037   4.567  19.597
 4492TIP3    H137671   2.948   4.563  19.650
 4492TIP3    H237672   3.105   4.520  19.659
 4493TIP3   OH237673   2.433   4.701  19.537
 4493TIP3    H137674   2.352   4.753  19.492
 4493TIP3    H237675   2.438   4.605  19.493
 4494TIP3   OH237676   2.812   4.784  19.298
 4494TIP3    H137677   2.908   4.769  19.261
 4494TIP3    H237678   2.763   4.838  19.227
 4495TIP3   OH237679   3.498   4.528  19.897
 4495TIP3    H137680   3.497   4.500  19.991
 4495TIP3    H237681   3.395   4.514  19.875
 4496TIP3   OH237682   2.682   4.902  19.025
 4496TIP3    H137683   2.648   4.833  18.958
 4496TIP3    H237684   2.774   4.930  18.983
 4497TIP3   OH237685   3.124   4.849  19.824
 4497TIP3    H137686   3.198   4.853  19.753
 4497TIP3    H237687   3.177   4.792  19.890
 4498TIP3   OH237688   2.530   4.435  19.466
 4498TIP3    H137689   2.462   4.366  19.508
 4498TIP3    H237690   2.587   4.365  19.415
 4499TIP3   OH237691   3.056   5.394  19.235
 4499TIP3    H137692   2.972   5.343  19.194
 4499TIP3    H237693   3.013   5.418  19.324
 4500TIP3   OH237694   3.453   4.577  19.066
 4500TIP3    H137695   3.353   4.574  19.027
 4500TIP3    H237696   3.469   4.683  19.075
 4501TIP3   OH237697   3.536   4.835  19.177
 4501TIP3    H137698   3.607   4.799  19.243
 4501TIP3    H237699   3.577   4.930  19.155
 4502TIP3   OH237700   2.483   5.325  19.807
 4502TIP3    H137701   2.505   5.319  19.713
 4502TIP3    H237702   2.576   5.300  19.848
 4503TIP3   OH237703   3.275   5.549  19.132
 4503TIP3    H137704   3.234   5.649  19.150
 4503TIP3    H237705   3.194   5.485  19.161
 4504TIP3   OH237706   4.060   4.799  19.182
 4504TIP3    H137707   4.012   4.803  19.094
 4504TIP3    H237708   4.096   4.900  19.187
 4505TIP3   OH237709   3.860   5.784  19.209
 4505TIP3    H137710   3.843   5.708  19.275
 4505TIP3    H237711   3.912   5.734  19.137
 4506TIP3   OH237712   3.571   5.220  19.878
 4506TIP3    H137713   3.468   5.183  19.868
 4506TIP3    H237714   3.625   5.151  19.821
 4507TIP3   OH237715   2.771   5.713  19.552
 4507TIP3    H137716   2.797   5.803  19.502
 4507TIP3    H237717   2.666   5.712  19.533
 4508TIP3   OH237718   2.341   5.136  19.025
 4508TIP3    H137719   2.388   5.194  19.095
 4508TIP3    H237720   2.234   5.149  19.040
 4509TIP3   OH237721   2.893   5.435  19.459
 4509TIP3    H137722   2.862   5.526  19.502
 4509TIP3    H237723   2.850   5.359  19.516
 4510TIP3   OH237724   2.800   5.975  19.433
 4510TIP3    H137725   2.693   5.987  19.443
 4510TIP3    H237726   2.833   6.068  19.474
 4511TIP3   OH237727   3.636   5.585  19.000
 4511TIP3    H137728   3.651   5.543  19.089
 4511TIP3    H237729   3.534   5.558  18.990
 4512TIP3   OH237730   4.102   6.034  19.041
 4512TIP3    H137731   4.155   6.104  18.987
 4512TIP3    H237732   4.027   6.096  19.084
 4513TIP3   OH237733   3.715   5.429  19.234
 4513TIP3    H137734   3.677   5.338  19.272
 4513TIP3    H237735   3.821   5.409  19.231
 4514TIP3   OH237736   2.971   5.719  18.869
 4514TIP3    H137737   2.954   5.661  18.790
 4514TIP3    H237738   2.907   5.669  18.934
 4515TIP3   OH237739   2.829   5.632  19.098
 4515TIP3    H137740   2.914   5.589  19.143
 4515TIP3    H237741   2.841   5.735  19.126
 4516TIP3   OH237742   2.484   5.347  19.163
 4516TIP3    H137743   2.391   5.379  19.206
 4516TIP3    H237744   2.515   5.437  19.118
 4517TIP3   OH237745   3.417   4.466  19.317
 4517TIP3    H137746   3.435   4.517  19.232
 4517TIP3    H237747   3.452   4.535  19.384
 4518TIP3   OH237748   3.165   5.830  19.153
 4518TIP3    H137749   3.066   5.864  19.178
 4518TIP3    H237750   3.216   5.924  19.146
 4519TIP3   OH237751   3.105   4.679  19.349
 4519TIP3    H137752   3.170   4.763  19.369
 4519TIP3    H237753   3.066   4.652  19.437
 4520TIP3   OH237754   3.178   4.333  19.421
 4520TIP3    H137755   3.144   4.409  19.482
 4520TIP3    H237756   3.266   4.385  19.384
 4521TIP3   OH237757   2.870   5.904  19.168
 4521TIP3    H137758   2.882   5.991  19.109
 4521TIP3    H237759   2.829   5.952  19.246
 4522TIP3   OH237760   2.697   4.464  19.136
 4522TIP3    H137761   2.669   4.536  19.202
 4522TIP3    H237762   2.802   4.452  19.159
 4523TIP3   OH237763   3.686   5.000  19.736
 4523TIP3    H137764   3.600   4.939  19.755
 4523TIP3    H237765   3.760   4.951  19.795
 4524TIP3   OH237766   2.532   5.622  19.020
 4524TIP3    H137767   2.615   5.656  19.074
 4524TIP3    H237768   2.587   5.568  18.952
 4525TIP3   OH237769   2.339   4.828  18.955
 4525TIP3    H137770   2.380   4.918  18.993
 4525TIP3    H237771   2.248   4.864  18.915
 4526TIP3   OH237772   3.824   6.024  19.946
 4526TIP3    H137773   3.836   6.107  19.883
 4526TIP3    H237774   3.917   6.021  19.991
 4527TIP3   OH237775   2.435   4.276  19.772
 4527TIP3    H137776   2.421   4.235  19.681
 4527TIP3    H237777   2.423   4.187  19.825
 4528TIP3   OH237778   2.291   5.753  19.427
 4528TIP3    H137779   2.206   5.810  19.452
 4528TIP3    H237780   2.319   5.805  19.345
 4529TIP3   OH237781   3.210   5.928  18.856
 4529TIP3    H137782   3.154   5.840  18.880
 4529TIP3    H237783   3.299   5.886  18.814
 4530TIP3   OH237784   3.704   5.852  18.870
 4530TIP3    H137785   3.716   5.772  18.935
 4530TIP3    H237786   3.798   5.854  18.825
 4531TIP3   OH237787   2.693   5.426  18.859
 4531TIP3    H137788   2.722   5.385  18.943
 4531TIP3    H237789   2.780   5.406  18.803
 4532TIP3   OH237790   3.315   5.565  18.848
 4532TIP3    H137791   3.276   5.547  18.938
 4532TIP3    H237792   3.317   5.463  18.814
 4533TIP3   OH237793   2.835   5.227  19.120
 4533TIP3    H137794   2.758   5.169  19.162
 4533TIP3    H237795   2.882   5.154  19.064
 4534TIP3   OH237796   2.964   5.026  18.918
 4534TIP3    H137797   2.961   5.053  18.823
 4534TIP3    H237798   3.071   5.027  18.934
 4535TIP3   OH237799   3.978   5.250  18.865
 4535TIP3    H137800   3.956   5.216  18.774
 4535TIP3    H237801   3.971   5.359  18.854
 4536TIP3   OH237802   2.929   6.172  19.080
 4536TIP3    H137803   3.037   6.170  19.079
 4536TIP3    H237804   2.914   6.239  19.004
 4537TIP3   OH237805   2.224   5.588  19.011
 4537TIP3    H137806   2.332   5.597  18.998
 4537TIP3    H237807   2.198   5.521  18.936
 4538TIP3   OH237808   2.109   6.138  19.457
 4538TIP3    H137809   2.014   6.089  19.436
 4538TIP3    H237810   2.130   6.092  19.544
 4539TIP3   OH237811   2.176   5.972  19.663
 4539TIP3    H137812   2.147   5.876  19.701
 4539TIP3    H237813   2.210   6.023  19.743
 4540TIP3   OH237814   4.012   5.366  19.244
 4540TIP3    H137815   4.110   5.410  19.256
 4540TIP3    H237816   4.010   5.297  19.319
 4541TIP3   OH237817   4.054   5.180  19.458
 4541TIP3    H137818   3.979   5.121  19.503
 4541TIP3    H237819   4.139   5.173  19.517
 4542TIP3   OH237820   4.088   5.472  19.945
 4542TIP3    H137821   4.153   5.398  19.906
 4542TIP3    H237822   4.071   5.543  19.873
 4543TIP3   OH237823   4.122   5.125  19.080
 4543TIP3    H137824   4.047   5.144  19.012
 4543TIP3    H237825   4.097   5.203  19.143
 4544TIP3   OH237826   3.926   4.822  18.923
 4544TIP3    H137827   3.930   4.887  18.847
 4544TIP3    H237828   3.893   4.729  18.883
 4545TIP3   OH237829   3.851   4.971  19.520
 4545TIP3    H137830   3.810   4.881  19.481
 4545TIP3    H237831   3.798   4.975  19.606
 4546TIP3   OH237832   2.152   5.194  19.869
 4546TIP3    H137833   2.197   5.187  19.780
 4546TIP3    H237834   2.240   5.190  19.926
 4547TIP3   OH237835   3.853   4.537  18.844
 4547TIP3    H137836   3.896   4.492  18.924
 4547TIP3    H237837   3.751   4.510  18.847
 4548TIP3   OH237838   3.755   4.743  19.367
 4548TIP3    H137839   3.775   4.638  19.382
 4548TIP3    H237840   3.843   4.762  19.314
 4549TIP3   OH237841   3.862   4.819  19.867
 4549TIP3    H137842   3.963   4.793  19.850
 4549TIP3    H237843   3.829   4.723  19.901
 4550TIP3   OH237844   3.847   4.468  19.370
 4550TIP3    H137845   3.883   4.415  19.447
 4550TIP3    H237846   3.796   4.390  19.322
 4551TIP3   OH237847   2.263   4.516  19.846
 4551TIP3    H137848   2.311   4.422  19.824
 4551TIP3    H237849   2.339   4.563  19.900
 4552TIP3   OH237850   2.091   4.817  19.953
 4552TIP3    H137851   2.141   4.775  19.874
 4552TIP3    H237852   2.130   4.916  19.950
 4553TIP3   OH237853   4.055   4.408  19.040
 4553TIP3    H137854   4.096   4.356  18.962
 4553TIP3    H237855   4.140   4.459  19.075
 4554TIP3   OH237856   2.119   4.425  19.321
 4554TIP3    H137857   2.015   4.448  19.326
 4554TIP3    H237858   2.149   4.485  19.245
 4555TIP3   OH237859   3.724   6.076  19.537
 4555TIP3    H137860   3.813   6.046  19.489
 4555TIP3    H237861   3.760   6.150  19.598
 4556TIP3   OH237862   2.366   6.078  19.873
 4556TIP3    H137863   2.347   6.044  19.964
 4556TIP3    H237864   2.435   6.003  19.840
 4557TIP3   OH237865   2.563   5.894  19.765
 4557TIP3    H137866   2.519   5.795  19.760
 4557TIP3    H237867   2.659   5.871  19.800
 4558TIP3   OH237868   2.848   5.959  19.883
 4558TIP3    H137869   2.870   5.907  19.800
 4558TIP3    H237870   2.893   5.888  19.944
 4559TIP3   OH237871   3.233   4.425  19.773
 4559TIP3    H137872   3.168   4.345  19.800
 4559TIP3    H237873   3.322   4.369  19.755
 4560TIP3   OH237874   3.830   4.205  19.773
 4560TIP3    H137875   3.886   4.250  19.698
 4560TIP3    H237876   3.728   4.231  19.752
 4561TIP3   OH237877   3.996   4.296  19.564
 4561TIP3    H137878   4.068   4.236  19.515
 4561TIP3    H237879   4.055   4.385  19.585
 4562TIP3   OH237880   2.386   4.189  19.524
 4562TIP3    H137881   2.297   4.167  19.473
 4562TIP3    H237882   2.433   4.091  19.522
 4563TIP3   OH237883   2.291   4.201  19.141
 4563TIP3    H137884   2.319   4.277  19.077
 4563TIP3    H237885   2.213   4.250  19.190
 4564TIP3   OH237886   2.867   4.165  19.541
 4564TIP3    H137887   2.948   4.200  19.489
 4564TIP3    H237888   2.905   4.176  19.631
 4565TIP3   OH237889   3.549   4.232  19.682
 4565TIP3    H137890   3.526   4.252  19.590
 4565TIP3    H237891   3.494   4.141  19.702
 4566TIP3   OH237892   3.661   4.237  19.301
 4566TIP3    H137893   3.569   4.292  19.309
 4566TIP3    H237894   3.630   4.136  19.322
 4567TIP3   OH237895   2.266   5.964  19.237
 4567TIP3    H137896   2.159   5.969  19.230
 4567TIP3    H237897   2.289   6.060  19.198
 4568TIP3   OH237898   2.402   4.410  18.960
 4568TIP3    H137899   2.471   4.345  18.913
 4568TIP3    H237900   2.460   4.435  19.039
 4569TIP3   OH237901   3.006   4.455  19.197
 4569TIP3    H137902   3.044   4.382  19.261
 4569TIP3    H237903   3.038   4.545  19.243
 4570TIP3   OH237904   3.245   6.115  19.056
 4570TIP3    H137905   3.351   6.115  19.039
 4570TIP3    H237906   3.215   6.052  18.980
 4571TIP3   OH237907   3.944   6.004  19.360
 4571TIP3    H137908   3.914   5.920  19.303
 4571TIP3    H237909   3.948   6.083  19.294
 4572TIP3   OH237910   2.404   6.061  18.921
 4572TIP3    H137911   2.383   6.087  19.013
 4572TIP3    H237912   2.479   5.986  18.934
 4573TIP3   OH237913   5.490   5.247  19.521
 4573TIP3    H137914   5.488   5.350  19.549
 4573TIP3    H237915   5.392   5.236  19.484
 4574TIP3   OH237916   5.331   5.117  19.863
 4574TIP3    H137917   5.345   5.105  19.959
 4574TIP3    H237918   5.265   5.037  19.841
 4575TIP3   OH237919   5.672   5.466  19.686
 4575TIP3    H137920   5.661   5.376  19.738
 4575TIP3    H237921   5.718   5.530  19.754
 4576TIP3   OH237922   4.630   5.606  19.878
 4576TIP3    H137923   4.611   5.503  19.853
 4576TIP3    H237924   4.735   5.614  19.865
 4577TIP3   OH237925   4.252   4.815  19.443
 4577TIP3    H137926   4.250   4.914  19.478
 4577TIP3    H237927   4.150   4.806  19.413
 4578TIP3   OH237928   4.326   5.130  19.651
 4578TIP3    H137929   4.365   5.045  19.699
 4578TIP3    H237930   4.397   5.206  19.676
 4579TIP3   OH237931   5.420   6.079  19.751
 4579TIP3    H137932   5.486   6.015  19.700
 4579TIP3    H237933   5.385   6.005  19.812
 4580TIP3   OH237934   5.185   5.455  19.961
 4580TIP3    H137935   5.226   5.399  19.888
 4580TIP3    H237936   5.255   5.415  20.029
 4581TIP3   OH237937   5.520   4.805  19.965
 4581TIP3    H137938   5.532   4.700  19.977
 4581TIP3    H237939   5.512   4.814  19.868
 4582TIP3   OH237940   4.793   4.562  19.689
 4582TIP3    H137941   4.808   4.644  19.627
 4582TIP3    H237942   4.742   4.494  19.630
 4583TIP3   OH237943   5.575   4.624  19.532
 4583TIP3    H137944   5.636   4.569  19.596
 4583TIP3    H237945   5.651   4.685  19.491
 4584TIP3   OH237946   4.370   4.829  19.739
 4584TIP3    H137947   4.440   4.766  19.787
 4584TIP3    H237948   4.396   4.804  19.646
 4585TIP3   OH237949   4.932   5.018  19.697
 4585TIP3    H137950   5.009   4.956  19.734
 4585TIP3    H237951   4.880   4.944  19.642
 4586TIP3   OH237952   5.391   5.512  19.414
 4586TIP3    H137953   5.370   5.503  19.318
 4586TIP3    H237954   5.374   5.618  19.427
 4587TIP3   OH237955   5.776   4.533  19.697
 4587TIP3    H137956   5.711   4.513  19.774
 4587TIP3    H237957   5.872   4.521  19.737
 4588TIP3   OH237958   4.595   4.683  19.871
 4588TIP3    H137959   4.634   4.782  19.880
 4588TIP3    H237960   4.648   4.648  19.792
 4589TIP3   OH237961   4.303   5.466  19.249
 4589TIP3    H137962   4.294   5.525  19.167
 4589TIP3    H237963   4.319   5.541  19.317
 4590TIP3   OH237964   5.810   5.624  19.875
 4590TIP3    H137965   5.765   5.566  19.947
 4590TIP3    H237966   5.877   5.680  19.928
 4591TIP3   OH237967   5.061   4.200  19.800
 4591TIP3    H137968   5.086   4.095  19.807
 4591TIP3    H237969   4.962   4.207  19.839
 4592TIP3   OH237970   5.597   5.907  19.621
 4592TIP3    H137971   5.635   5.816  19.582
 4592TIP3    H237972   5.679   5.973  19.597
 4593TIP3   OH237973   5.745   5.679  19.490
 4593TIP3    H137974   5.720   5.615  19.415
 4593TIP3    H237975   5.738   5.609  19.565
 4594TIP3   OH237976   5.305   5.144  19.263
 4594TIP3    H137977   5.256   5.240  19.260
 4594TIP3    H237978   5.402   5.169  19.226
 4595TIP3   OH237979   5.352   5.038  18.962
 4595TIP3    H137980   5.418   5.088  19.024
 4595TIP3    H237981   5.361   4.938  18.994
 4596TIP3   OH237982   5.739   5.152  19.389
 4596TIP3    H137983   5.654   5.189  19.442
 4596TIP3    H237984   5.803   5.113  19.458
 4597TIP3   OH237985   4.772   5.215  19.557
 4597TIP3    H137986   4.731   5.163  19.479
 4597TIP3    H237987   4.844   5.146  19.592
 4598TIP3   OH237988   4.937   5.643  19.852
 4598TIP3    H137989   4.942   5.607  19.761
 4598TIP3    H237990   4.997   5.568  19.898
 4599TIP3   OH237991   4.774   5.027  19.924
 4599TIP3    H137992   4.820   5.031  19.835
 4599TIP3    H237993   4.804   5.122  19.961
 4600TIP3   OH237994   5.582   5.129  19.160
 4600TIP3    H137995   5.654   5.152  19.232
 4600TIP3    H237996   5.642   5.158  19.080
 4601TIP3   OH237997   5.342   5.797  19.446
 4601TIP3    H137998   5.394   5.822  19.526
 4601TIP3    H237999   5.287   5.885  19.427
 4602TIP3   OH238000   5.984   4.140  19.175
 4602TIP3    H138001   5.883   4.157  19.205
 4602TIP3    H238002   6.002   4.224  19.115
 4603TIP3   OH238003   4.619   5.107  19.339
 4603TIP3    H138004   4.598   5.200  19.292
 4603TIP3    H238005   4.600   5.035  19.270
 4604TIP3   OH238006   6.132   5.737  19.008
 4604TIP3    H138007   6.162   5.841  19.006
 4604TIP3    H238008   6.229   5.688  19.010
 4605TIP3   OH238009   4.238   5.750  19.842
 4605TIP3    H138010   4.322   5.691  19.874
 4605TIP3    H238011   4.213   5.810  19.917
 4606TIP3   OH238012   5.283   6.112  19.336
 4606TIP3    H138013   5.289   6.126  19.239
 4606TIP3    H238014   5.271   6.213  19.368
 4607TIP3   OH238015   4.576   5.998  19.505
 4607TIP3    H138016   4.601   5.980  19.599
 4607TIP3    H238017   4.481   5.948  19.497
 4608TIP3   OH238018   5.618   6.058  19.033
 4608TIP3    H138019   5.673   5.971  18.999
 4608TIP3    H238020   5.626   6.046  19.130
 4609TIP3   OH238021   5.573   6.056  19.309
 4609TIP3    H138022   5.469   6.080  19.326
 4609TIP3    H238023   5.585   5.968  19.363
 4610TIP3   OH238024   4.780   4.300  19.895
 4610TIP3    H138025   4.705   4.289  19.824
 4610TIP3    H238026   4.755   4.398  19.924
 4611TIP3   OH238027   5.756   5.236  18.974
 4611TIP3    H138028   5.735   5.245  18.878
 4611TIP3    H238029   5.863   5.254  18.973
 4612TIP3   OH238030   5.268   4.532  18.976
 4612TIP3    H138031   5.222   4.539  19.064
 4612TIP3    H238032   5.199   4.466  18.934
 4613TIP3   OH238033   4.816   4.816  19.549
 4613TIP3    H138034   4.710   4.828  19.532
 4613TIP3    H238035   4.849   4.805  19.454
 4614TIP3   OH238036   5.411   4.921  19.398
 4614TIP3    H138037   5.367   5.001  19.343
 4614TIP3    H238038   5.474   4.877  19.331
 4615TIP3   OH238039   5.482   4.862  19.701
 4615TIP3    H138040   5.460   4.944  19.641
 4615TIP3    H238041   5.502   4.784  19.636
 4616TIP3   OH238042   4.869   4.583  18.912
 4616TIP3    H138043   4.814   4.524  18.979
 4616TIP3    H238044   4.792   4.613  18.850
 4617TIP3   OH238045   4.144   4.540  19.622
 4617TIP3    H138046   4.207   4.549  19.700
 4617TIP3    H238047   4.207   4.573  19.549
 4618TIP3   OH238048   4.268   4.602  19.124
 4618TIP3    H138049   4.342   4.644  19.064
 4618TIP3    H238050   4.203   4.688  19.135
 4619TIP3   OH238051   5.118   4.558  19.608
 4619TIP3    H138052   5.026   4.553  19.657
 4619TIP3    H238053   5.188   4.524  19.676
 4620TIP3   OH238054   4.524   4.729  19.518
 4620TIP3    H138055   4.432   4.749  19.470
 4620TIP3    H238056   4.558   4.640  19.473
 4621TIP3   OH238057   4.875   4.782  19.298
 4621TIP3    H138058   4.979   4.760  19.280
 4621TIP3    H238059   4.842   4.829  19.216
 4622TIP3   OH238060   5.576   4.514  19.903
 4622TIP3    H138061   5.569   4.514  20.000
 4622TIP3    H238062   5.471   4.506  19.881
 4623TIP3   OH238063   4.748   4.900  19.026
 4623TIP3    H138064   4.710   4.826  18.966
 4623TIP3    H238065   4.844   4.915  18.986
 4624TIP3   OH238066   5.193   4.846  19.821
 4624TIP3    H138067   5.279   4.835  19.762
 4624TIP3    H238068   5.232   4.816  19.908
 4625TIP3   OH238069   4.600   4.440  19.466
 4625TIP3    H138070   4.532   4.370  19.509
 4625TIP3    H238071   4.654   4.369  19.414
 4626TIP3   OH238072   5.135   5.386  19.241
 4626TIP3    H138073   5.052   5.334  19.199
 4626TIP3    H238074   5.089   5.413  19.327
 4627TIP3   OH238075   5.544   4.575  19.067
 4627TIP3    H138076   5.449   4.580  19.020
 4627TIP3    H238077   5.559   4.681  19.086
 4628TIP3   OH238078   5.597   4.830  19.186
 4628TIP3    H138079   5.669   4.798  19.251
 4628TIP3    H238080   5.636   4.926  19.163
 4629TIP3   OH238081   4.558   5.322  19.786
 4629TIP3    H138082   4.591   5.333  19.695
 4629TIP3    H238083   4.645   5.283  19.830
 4630TIP3   OH238084   5.348   5.541  19.128
 4630TIP3    H138085   5.300   5.636  19.135
 4630TIP3    H238086   5.270   5.475  19.159
 4631TIP3   OH238087   6.142   4.781  19.186
 4631TIP3    H138088   6.078   4.787  19.108
 4631TIP3    H238089   6.183   4.878  19.187
 4632TIP3   OH238090   5.922   5.803  19.186
 4632TIP3    H138091   5.910   5.728  19.254
 4632TIP3    H238092   6.002   5.763  19.130
 4633TIP3   OH238093   5.655   5.206  19.880
 4633TIP3    H138094   5.547   5.204  19.892
 4633TIP3    H238095   5.669   5.132  19.811
 4634TIP3   OH238096   4.805   5.705  19.577
 4634TIP3    H138097   4.862   5.795  19.575
 4634TIP3    H238098   4.732   5.727  19.509
 4635TIP3   OH238099   4.426   5.149  19.004
 4635TIP3    H138100   4.474   5.214  19.069
 4635TIP3    H238101   4.321   5.160  19.023
 4636TIP3   OH238102   4.975   5.441  19.466
 4636TIP3    H138103   4.928   5.528  19.503
 4636TIP3    H238104   4.926   5.361  19.513
 4637TIP3   OH238105   4.862   5.972  19.425
 4637TIP3    H138106   4.756   5.983  19.438
 4637TIP3    H238107   4.895   6.067  19.462
 4638TIP3   OH238108   5.716   5.575  19.000
 4638TIP3    H138109   5.729   5.542  19.092
 4638TIP3    H238110   5.613   5.551  18.989
 4639TIP3   OH238111   6.197   6.043  19.043
 4639TIP3    H138112   6.274   6.116  19.028
 4639TIP3    H238113   6.120   6.106  19.080
 4640TIP3   OH238114   5.788   5.436  19.242
 4640TIP3    H138115   5.757   5.341  19.277
 4640TIP3    H238116   5.894   5.421  19.231
 4641TIP3   OH238117   5.047   5.734  18.862
 4641TIP3    H138118   5.032   5.664  18.789
 4641TIP3    H238119   4.974   5.699  18.927
 4642TIP3   OH238120   4.906   5.632  19.107
 4642TIP3    H138121   4.986   5.594  19.160
 4642TIP3    H238122   4.914   5.738  19.129
 4643TIP3   OH238123   4.558   5.343  19.166
 4643TIP3    H138124   4.465   5.383  19.196
 4643TIP3    H238125   4.603   5.427  19.124
 4644TIP3   OH238126   5.468   4.488  19.315
 4644TIP3    H138127   5.511   4.524  19.231
 4644TIP3    H238128   5.519   4.546  19.383
 4645TIP3   OH238129   5.225   5.819  19.144
 4645TIP3    H138130   5.128   5.862  19.168
 4645TIP3    H238131   5.286   5.907  19.139
 4646TIP3   OH238132   5.161   4.693  19.371
 4646TIP3    H138133   5.229   4.773  19.391
 4646TIP3    H238134   5.147   4.645  19.459
 4647TIP3   OH238135   5.251   4.330  19.420
 4647TIP3    H138136   5.215   4.406  19.479
 4647TIP3    H238137   5.344   4.377  19.389
 4648TIP3   OH238138   4.942   5.910  19.164
 4648TIP3    H138139   4.956   5.997  19.106
 4648TIP3    H238140   4.902   5.958  19.244
 4649TIP3   OH238141   4.762   4.467  19.141
 4649TIP3    H138142   4.753   4.554  19.197
 4649TIP3    H238143   4.866   4.445  19.153
 4650TIP3   OH238144   5.769   4.985  19.729
 4650TIP3    H138145   5.684   4.934  19.761
 4650TIP3    H238146   5.841   4.952  19.796
 4651TIP3   OH238147   4.601   5.615  19.019
 4651TIP3    H138148   4.684   5.651  19.072
 4651TIP3    H238149   4.652   5.562  18.949
 4652TIP3   OH238150   4.406   4.830  18.963
 4652TIP3    H138151   4.452   4.917  19.002
 4652TIP3    H238152   4.322   4.870  18.916
 4653TIP3   OH238153   5.887   6.019  19.941
 4653TIP3    H138154   5.910   6.107  19.887
 4653TIP3    H238155   5.975   6.006  19.994
 4654TIP3   OH238156   4.523   4.273  19.770
 4654TIP3    H138157   4.502   4.235  19.679
 4654TIP3    H238158   4.502   4.184  19.821
 4655TIP3   OH238159   4.366   5.761  19.430
 4655TIP3    H138160   4.279   5.818  19.451
 4655TIP3    H238161   4.396   5.812  19.349
 4656TIP3   OH238162   5.290   5.928  18.858
 4656TIP3    H138163   5.227   5.842  18.879
 4656TIP3    H238164   5.378   5.881  18.820
 4657TIP3   OH238165   5.775   5.855  18.883
 4657TIP3    H138166   5.795   5.778  18.949
 4657TIP3    H238167   5.862   5.851  18.827
 4658TIP3   OH238168   4.776   5.409  18.857
 4658TIP3    H138169   4.827   5.398  18.942
 4658TIP3    H238170   4.858   5.380  18.796
 4659TIP3   OH238171   5.390   5.558  18.841
 4659TIP3    H138172   5.352   5.544  18.931
 4659TIP3    H238173   5.397   5.454  18.811
 4660TIP3   OH238174   4.905   5.220  19.124
 4660TIP3    H138175   4.833   5.152  19.163
 4660TIP3    H238176   4.950   5.156  19.057
 4661TIP3   OH238177   5.039   5.020  18.920
 4661TIP3    H138178   5.029   5.046  18.826
 4661TIP3    H238179   5.147   5.024  18.930
 4662TIP3   OH238180   6.054   5.257  18.870
 4662TIP3    H138181   6.029   5.224  18.780
 4662TIP3    H238182   6.044   5.366  18.861
 4663TIP3   OH238183   4.996   6.166  19.055
 4663TIP3    H138184   5.102   6.167  19.069
 4663TIP3    H238185   4.990   6.225  18.975
 4664TIP3   OH238186   4.294   5.588  19.004
 4664TIP3    H138187   4.402   5.589  18.998
 4664TIP3    H238188   4.266   5.531  18.924
 4665TIP3   OH238189   4.170   6.150  19.460
 4665TIP3    H138190   4.082   6.094  19.438
 4665TIP3    H238191   4.204   6.095  19.539
 4666TIP3   OH238192   4.270   5.968  19.650
 4666TIP3    H138193   4.234   5.877  19.693
 4666TIP3    H238194   4.324   6.015  19.724
 4667TIP3   OH238195   6.091   5.360  19.228
 4667TIP3    H138196   6.185   5.408  19.250
 4667TIP3    H238197   6.083   5.290  19.302
 4668TIP3   OH238198   6.124   5.169  19.461
 4668TIP3    H138199   6.054   5.100  19.501
 4668TIP3    H238200   6.202   5.172  19.528
 4669TIP3   OH238201   6.161   5.469  19.916
 4669TIP3    H138202   6.247   5.412  19.886
 4669TIP3    H238203   6.151   5.548  19.853
 4670TIP3   OH238204   6.202   5.125  19.071
 4670TIP3    H138205   6.137   5.145  18.994
 4670TIP3    H238206   6.172   5.205  19.129
 4671TIP3   OH238207   5.973   4.810  18.921
 4671TIP3    H138208   6.012   4.882  18.856
 4671TIP3    H238209   5.944   4.732  18.859
 4672TIP3   OH238210   5.943   4.932  19.521
 4672TIP3    H138211   5.883   4.853  19.485
 4672TIP3    H238212   5.887   4.952  19.604
 4673TIP3   OH238213   4.240   5.227  19.893
 4673TIP3    H138214   4.275   5.195  19.805
 4673TIP3    H238215   4.326   5.204  19.949
 4674TIP3   OH238216   5.908   4.517  18.833
 4674TIP3    H138217   5.932   4.496  18.924
 4674TIP3    H238218   5.800   4.504  18.833
 4675TIP3   OH238219   5.812   4.729  19.365
 4675TIP3    H138220   5.852   4.629  19.383
 4675TIP3    H238221   5.898   4.767  19.317
 4676TIP3   OH238222   5.946   4.803  19.863
 4676TIP3    H138223   6.052   4.793  19.871
 4676TIP3    H238224   5.918   4.703  19.891
 4677TIP3   OH238225   5.926   4.442  19.362
 4677TIP3    H138226   5.963   4.392  19.443
 4677TIP3    H238227   5.865   4.365  19.324
 4678TIP3   OH238228   4.335   4.509  19.850
 4678TIP3    H138229   4.382   4.415  19.825
 4678TIP3    H238230   4.417   4.560  19.895
 4679TIP3   OH238231   4.165   4.815  19.955
 4679TIP3    H138232   4.205   4.761  19.879
 4679TIP3    H238233   4.210   4.910  19.942
 4680TIP3   OH238234   6.169   4.389  19.035
 4680TIP3    H138235   6.176   4.323  18.957
 4680TIP3    H238236   6.170   4.483  18.989
 4681TIP3   OH238237   4.176   4.410  19.308
 4681TIP3    H138238   4.078   4.450  19.321
 4681TIP3    H238239   4.215   4.483  19.245
 4682TIP3   OH238240   5.817   6.078  19.538
 4682TIP3    H138241   5.898   6.043  19.483
 4682TIP3    H238242   5.864   6.138  19.605
 4683TIP3   OH238243   4.437   6.073  19.875
 4683TIP3    H138244   4.465   6.083  19.970
 4683TIP3    H238245   4.522   6.017  19.840
 4684TIP3   OH238246   4.644   5.910  19.757
 4684TIP3    H138247   4.640   5.805  19.768
 4684TIP3    H238248   4.740   5.930  19.800
 4685TIP3   OH238249   4.916   5.961  19.869
 4685TIP3    H138250   4.953   5.863  19.847
 4685TIP3    H238251   4.915   5.957  19.965
 4686TIP3   OH238252   5.302   4.417  19.782
 4686TIP3    H138253   5.228   4.339  19.796
 4686TIP3    H238254   5.388   4.353  19.782
 4687TIP3   OH238255   5.916   4.194  19.762
 4687TIP3    H138256   5.975   4.233  19.687
 4687TIP3    H238257   5.819   4.237  19.743
 4688TIP3   OH238258   6.070   4.285  19.557
 4688TIP3    H138259   6.151   4.224  19.523
 4688TIP3    H238260   6.122   4.376  19.583
 4689TIP3   OH238261   4.457   4.184  19.526
 4689TIP3    H138262   4.370   4.174  19.469
 4689TIP3    H238263   4.501   4.085  19.516
 4690TIP3   OH238264   4.356   4.201  19.146
 4690TIP3    H138265   4.382   4.271  19.076
 4690TIP3    H238266   4.287   4.257  19.201
 4691TIP3   OH238267   4.948   4.176  19.549
 4691TIP3    H138268   5.039   4.188  19.501
 4691TIP3    H238269   4.980   4.194  19.640
 4692TIP3   OH238270   5.620   4.233  19.675
 4692TIP3    H138271   5.594   4.264  19.586
 4692TIP3    H238272   5.555   4.149  19.693
 4693TIP3   OH238273   5.727   4.221  19.298
 4693TIP3    H138274   5.651   4.244  19.233
 4693TIP3    H238275   5.691   4.125  19.329
 4694TIP3   OH238276   4.330   5.959  19.229
 4694TIP3    H138277   4.239   5.947  19.176
 4694TIP3    H238278   4.352   6.061  19.207
 4695TIP3   OH238279   4.477   4.420  18.974
 4695TIP3    H138280   4.550   4.360  18.926
 4695TIP3    H238281   4.529   4.438  19.057
 4696TIP3   OH238282   5.081   4.469  19.198
 4696TIP3    H138283   5.114   4.399  19.263
 4696TIP3    H238284   5.116   4.558  19.242
 4697TIP3   OH238285   5.327   6.105  19.067
 4697TIP3    H138286   5.433   6.105  19.048
 4697TIP3    H238287   5.295   6.049  18.988
 4698TIP3   OH238288   6.028   6.003  19.355
 4698TIP3    H138289   5.994   5.928  19.292
 4698TIP3    H238290   6.031   6.087  19.295
 4699TIP3   OH238291   4.466   6.047  18.919
 4699TIP3    H138292   4.444   6.093  19.005
 4699TIP3    H238293   4.555   5.992  18.942
 4700TIP3   OH238294   7.555   5.221  19.523
 4700TIP3    H138295   7.555   5.317  19.564
 4700TIP3    H238296   7.456   5.213  19.488
 4701TIP3   OH238297   7.435   5.133  19.864
 4701TIP3    H138298   7.429   5.081  19.950
 4701TIP3    H238299   7.339   5.112  19.826
 4702TIP3   OH238300   7.721   5.466  19.695
 4702TIP3    H138301   7.707   5.381  19.755
 4702TIP3    H238302   7.785   5.521  19.758
 4703TIP3   OH238303   6.709   5.614  19.868
 4703TIP3    H138304   6.697   5.511  19.842
 4703TIP3    H238305   6.815   5.630  19.852
 4704TIP3   OH238306   6.327   4.858  19.429
 4704TIP3    H138307   6.292   4.956  19.453
 4704TIP3    H238308   6.234   4.809  19.413
 4705TIP3   OH238309   6.392   5.135  19.640
 4705TIP3    H138310   6.443   5.066  19.698
 4705TIP3    H238311   6.450   5.224  19.650
 4706TIP3   OH238312   7.488   6.079  19.748
 4706TIP3    H138313   7.564   6.024  19.698
 4706TIP3    H238314   7.449   5.999  19.802
 4707TIP3   OH238315   7.282   5.415  19.990
 4707TIP3    H138316   7.343   5.359  19.927
 4707TIP3    H238317   7.336   5.400  20.072
 4708TIP3   OH238318   7.578   4.799  19.977
 4708TIP3    H138319   7.593   4.694  19.986
 4708TIP3    H238320   7.611   4.814  19.885
 4709TIP3   OH238321   6.853   4.590  19.685
 4709TIP3    H138322   6.889   4.677  19.639
 4709TIP3    H238323   6.806   4.537  19.612
 4710TIP3   OH238324   7.655   4.599  19.516
 4710TIP3    H138325   7.703   4.549  19.592
 4710TIP3    H238326   7.736   4.663  19.491
 4711TIP3   OH238327   6.448   4.843  19.759
 4711TIP3    H138328   6.516   4.788  19.816
 4711TIP3    H238329   6.467   4.799  19.672
 4712TIP3   OH238330   7.040   5.037  19.696
 4712TIP3    H138331   7.107   4.974  19.746
 4712TIP3    H238332   6.995   4.961  19.640
 4713TIP3   OH238333   7.527   5.497  19.436
 4713TIP3    H138334   7.604   5.443  19.390
 4713TIP3    H238335   7.588   5.549  19.501
 4714TIP3   OH238336   7.842   4.533  19.709
 4714TIP3    H138337   7.781   4.518  19.789
 4714TIP3    H238338   7.942   4.530  19.741
 4715TIP3   OH238339   6.667   4.685  19.871
 4715TIP3    H138340   6.716   4.781  19.874
 4715TIP3    H238341   6.725   4.634  19.802
 4716TIP3   OH238342   6.378   5.470  19.255
 4716TIP3    H138343   6.372   5.536  19.177
 4716TIP3    H238344   6.398   5.542  19.325
 4717TIP3   OH238345   7.906   5.596  19.883
 4717TIP3    H138346   7.868   5.553  19.966
 4717TIP3    H238347   7.915   5.698  19.909
 4718TIP3   OH238348   7.146   4.199  19.777
 4718TIP3    H138349   7.167   4.096  19.797
 4718TIP3    H238350   7.050   4.216  19.819
 4719TIP3   OH238351   7.659   5.897  19.608
 4719TIP3    H138352   7.699   5.804  19.576
 4719TIP3    H238353   7.742   5.964  19.586
 4720TIP3   OH238354   7.801   5.643  19.471
 4720TIP3    H138355   7.832   5.578  19.399
 4720TIP3    H238356   7.828   5.589  19.552
 4721TIP3   OH238357   7.379   5.155  19.266
 4721TIP3    H138358   7.332   5.245  19.237
 4721TIP3    H238359   7.478   5.160  19.225
 4722TIP3   OH238360   7.412   5.025  18.964
 4722TIP3    H138361   7.472   5.070  19.033
 4722TIP3    H238362   7.431   4.923  18.982
 4723TIP3   OH238363   7.791   5.189  19.362
 4723TIP3    H138364   7.710   5.189  19.429
 4723TIP3    H238365   7.862   5.126  19.409
 4724TIP3   OH238366   6.885   5.233  19.546
 4724TIP3    H138367   6.821   5.177  19.486
 4724TIP3    H238368   6.943   5.159  19.594
 4725TIP3   OH238369   7.003   5.642  19.832
 4725TIP3    H138370   7.010   5.612  19.739
 4725TIP3    H238371   7.069   5.575  19.878
 4726TIP3   OH238372   6.860   5.008  19.919
 4726TIP3    H138373   6.909   5.038  19.836
 4726TIP3    H238374   6.873   5.096  19.974
 4727TIP3   OH238375   7.635   5.113  19.148
 4727TIP3    H138376   7.699   5.136  19.225
 4727TIP3    H238377   7.698   5.144  19.073
 4728TIP3   OH238378   7.376   5.771  19.487
 4728TIP3    H138379   7.419   5.794  19.573
 4728TIP3    H238380   7.352   5.870  19.456
 4729TIP3   OH238381   8.049   4.151  19.140
 4729TIP3    H138382   7.944   4.170  19.160
 4729TIP3    H238383   8.092   4.249  19.146
 4730TIP3   OH238384   6.685   5.103  19.350
 4730TIP3    H138385   6.676   5.194  19.299
 4730TIP3    H238386   6.676   5.029  19.281
 4731TIP3   OH238387   8.175   5.778  18.967
 4731TIP3    H138388   8.213   5.879  18.961
 4731TIP3    H238389   8.270   5.730  18.980
 4732TIP3   OH238390   6.291   5.750  19.834
 4732TIP3    H138391   6.382   5.708  19.866
 4732TIP3    H238392   6.244   5.794  19.911
 4733TIP3   OH238393   7.372   6.122  19.348
 4733TIP3    H138394   7.361   6.115  19.249
 4733TIP3    H238395   7.344   6.225  19.362
 4734TIP3   OH238396   6.650   5.991  19.517
 4734TIP3    H138397   6.682   5.974  19.610
 4734TIP3    H238398   6.557   5.936  19.516
 4735TIP3   OH238399   7.689   6.054  19.026
 4735TIP3    H138400   7.740   5.969  18.988
 4735TIP3    H238401   7.698   6.040  19.123
 4736TIP3   OH238402   7.652   6.043  19.302
 4736TIP3    H138403   7.548   6.072  19.316
 4736TIP3    H238404   7.658   5.962  19.361
 4737TIP3   OH238405   6.864   4.283  19.872
 4737TIP3    H138406   6.776   4.276  19.817
 4737TIP3    H238407   6.851   4.384  19.905
 4738TIP3   OH238408   7.819   5.224  18.972
 4738TIP3    H138409   7.792   5.241  18.879
 4738TIP3    H238410   7.923   5.244  18.968
 4739TIP3   OH238411   7.344   4.537  18.971
 4739TIP3    H138412   7.317   4.503  19.060
 4739TIP3    H238413   7.279   4.472  18.922
 4740TIP3   OH238414   6.885   4.848  19.549
 4740TIP3    H138415   6.821   4.929  19.525
 4740TIP3    H238416   6.916   4.812  19.459
 4741TIP3   OH238417   7.488   4.926  19.395
 4741TIP3    H138418   7.440   5.002  19.340
 4741TIP3    H238419   7.557   4.885  19.330
 4742TIP3   OH238420   7.570   4.849  19.695
 4742TIP3    H138421   7.543   4.921  19.627
 4742TIP3    H238422   7.576   4.762  19.638
 4743TIP3   OH238423   6.937   4.546  18.872
 4743TIP3    H138424   6.893   4.502  18.952
 4743TIP3    H238425   6.863   4.618  18.846
 4744TIP3   OH238426   6.218   4.513  19.631
 4744TIP3    H138427   6.283   4.536  19.708
 4744TIP3    H238428   6.289   4.502  19.561
 4745TIP3   OH238429   6.431   4.649  19.179
 4745TIP3    H138430   6.455   4.668  19.084
 4745TIP3    H238431   6.328   4.685  19.180
 4746TIP3   OH238432   7.213   4.576  19.611
 4746TIP3    H138433   7.139   4.585  19.680
 4746TIP3    H238434   7.286   4.517  19.659
 4747TIP3   OH238435   6.560   4.697  19.516
 4747TIP3    H138436   6.498   4.780  19.484
 4747TIP3    H238437   6.659   4.730  19.495
 4748TIP3   OH238438   6.947   4.780  19.295
 4748TIP3    H138439   7.048   4.749  19.280
 4748TIP3    H238440   6.927   4.843  19.219
 4749TIP3   OH238441   7.642   4.507  19.901
 4749TIP3    H138442   7.622   4.478  19.992
 4749TIP3    H238443   7.542   4.506  19.865
 4750TIP3   OH238444   6.824   4.891  19.012
 4750TIP3    H138445   6.797   4.841  18.928
 4750TIP3    H238446   6.922   4.923  18.982
 4751TIP3   OH238447   7.259   4.860  19.816
 4751TIP3    H138448   7.325   4.852  19.740
 4751TIP3    H238449   7.314   4.804  19.882
 4752TIP3   OH238450   6.711   4.421  19.471
 4752TIP3    H138451   6.662   4.338  19.519
 4752TIP3    H238452   6.794   4.369  19.429
 4753TIP3   OH238453   7.181   5.400  19.240
 4753TIP3    H138454   7.110   5.335  19.191
 4753TIP3    H238455   7.125   5.415  19.323
 4754TIP3   OH238456   7.607   4.579  19.072
 4754TIP3    H138457   7.509   4.596  19.032
 4754TIP3    H238458   7.638   4.681  19.090
 4755TIP3   OH238459   7.704   4.822  19.196
 4755TIP3    H138460   7.790   4.809  19.255
 4755TIP3    H238461   7.728   4.910  19.146
 4756TIP3   OH238462   6.641   5.319  19.788
 4756TIP3    H138463   6.704   5.345  19.715
 4756TIP3    H238464   6.709   5.282  19.856
 4757TIP3   OH238465   7.425   5.534  19.145
 4757TIP3    H138466   7.380   5.620  19.103
 4757TIP3    H238467   7.348   5.460  19.138
 4758TIP3   OH238468   8.183   4.795  19.192
 4758TIP3    H138469   8.136   4.780  19.106
 4758TIP3    H238470   8.248   4.878  19.172
 4759TIP3   OH238471   8.031   5.787  19.211
 4759TIP3    H138472   7.977   5.697  19.218
 4759TIP3    H238473   8.082   5.779  19.124
 4760TIP3   OH238474   7.700   5.255  19.877
 4760TIP3    H138475   7.602   5.216  19.854
 4760TIP3    H238476   7.764   5.185  19.829
 4761TIP3   OH238477   6.907   5.717  19.540
 4761TIP3    H138478   6.931   5.808  19.494
 4761TIP3    H238479   6.802   5.715  19.522
 4762TIP3   OH238480   6.510   5.173  19.005
 4762TIP3    H138481   6.555   5.226  19.080
 4762TIP3    H238482   6.404   5.171  19.027
 4763TIP3   OH238483   7.074   5.477  19.480
 4763TIP3    H138484   7.008   5.558  19.504
 4763TIP3    H238485   7.031   5.397  19.533
 4764TIP3   OH238486   6.932   5.996  19.424
 4764TIP3    H138487   6.826   6.008  19.436
 4764TIP3    H238488   6.965   6.084  19.473
 4765TIP3   OH238489   7.792   5.591  19.019
 4765TIP3    H138490   7.823   5.533  19.096
 4765TIP3    H238491   7.689   5.564  19.014
 4766TIP3   OH238492   8.279   6.040  19.017
 4766TIP3    H138493   8.312   6.140  19.001
 4766TIP3    H238494   8.188   6.061  19.065
 4767TIP3   OH238495   7.869   5.431  19.235
 4767TIP3    H138496   7.829   5.334  19.258
 4767TIP3    H238497   7.973   5.402  19.221
 4768TIP3   OH238498   7.150   5.679  18.885
 4768TIP3    H138499   7.120   5.649  18.795
 4768TIP3    H238500   7.060   5.661  18.934
 4769TIP3   OH238501   6.975   5.638  19.108
 4769TIP3    H138502   7.062   5.600  19.152
 4769TIP3    H238503   6.985   5.744  19.121
 4770TIP3   OH238504   6.650   5.353  19.178
 4770TIP3    H138505   6.553   5.380  19.213
 4770TIP3    H238506   6.675   5.437  19.123
 4771TIP3   OH238507   7.532   4.466  19.306
 4771TIP3    H138508   7.578   4.508  19.226
 4771TIP3    H238509   7.580   4.522  19.378
 4772TIP3   OH238510   7.272   5.800  19.188
 4772TIP3    H138511   7.187   5.867  19.193
 4772TIP3    H238512   7.345   5.867  19.149
 4773TIP3   OH238513   7.241   4.669  19.354
 4773TIP3    H138514   7.306   4.754  19.364
 4773TIP3    H238515   7.236   4.630  19.446
 4774TIP3   OH238516   7.321   4.322  19.425
 4774TIP3    H138517   7.286   4.394  19.488
 4774TIP3    H238518   7.401   4.378  19.381
 4775TIP3   OH238519   7.013   5.932  19.154
 4775TIP3    H138520   7.022   6.028  19.109
 4775TIP3    H238521   6.974   5.968  19.239
 4776TIP3   OH238522   6.860   4.464  19.147
 4776TIP3    H138523   6.868   4.558  19.190
 4776TIP3    H238524   6.961   4.429  19.151
 4777TIP3   OH238525   7.796   5.032  19.739
 4777TIP3    H138526   7.711   4.968  19.726
 4777TIP3    H238527   7.861   4.970  19.792
 4778TIP3   OH238528   6.661   5.612  19.026
 4778TIP3    H138529   6.729   5.672  19.079
 4778TIP3    H238530   6.730   5.580  18.957
 4779TIP3   OH238531   6.479   4.811  18.955
 4779TIP3    H138532   6.538   4.895  18.979
 4779TIP3    H238533   6.400   4.859  18.905
 4780TIP3   OH238534   7.988   6.007  19.941
 4780TIP3    H138535   7.968   6.106  19.905
 4780TIP3    H238536   8.082   6.023  19.983
 4781TIP3   OH238537   6.585   4.261  19.773
 4781TIP3    H138538   6.543   4.217  19.692
 4781TIP3    H238539   6.578   4.177  19.833
 4782TIP3   OH238540   6.437   5.754  19.435
 4782TIP3    H138541   6.351   5.818  19.440
 4782TIP3    H238542   6.480   5.798  19.356
 4783TIP3   OH238543   7.368   5.900  18.886
 4783TIP3    H138544   7.295   5.821  18.876
 4783TIP3    H238545   7.444   5.871  18.822
 4784TIP3   OH238546   7.834   5.850  18.878
 4784TIP3    H138547   7.864   5.779  18.945
 4784TIP3    H238548   7.920   5.853  18.819
 4785TIP3   OH238549   6.854   5.419  18.861
 4785TIP3    H138550   6.893   5.394  18.948
 4785TIP3    H238551   6.934   5.390  18.800
 4786TIP3   OH238552   7.455   5.546  18.835
 4786TIP3    H138553   7.368   5.549  18.891
 4786TIP3    H238554   7.457   5.441  18.813
 4787TIP3   OH238555   6.985   5.220  19.117
 4787TIP3    H138556   6.884   5.188  19.122
 4787TIP3    H238557   7.029   5.148  19.054
 4788TIP3   OH238558   7.104   5.024  18.919
 4788TIP3    H138559   7.098   5.074  18.832
 4788TIP3    H238560   7.212   5.013  18.929
 4789TIP3   OH238561   8.107   5.247  18.875
 4789TIP3    H138562   8.078   5.224  18.782
 4789TIP3    H238563   8.101   5.356  18.875
 4790TIP3   OH238564   7.127   6.222  19.160
 4790TIP3    H138565   7.210   6.237  19.103
 4790TIP3    H238566   7.043   6.256  19.103
 4791TIP3   OH238567   6.369   5.578  18.989
 4791TIP3    H138568   6.477   5.585  18.997
 4791TIP3    H238569   6.359   5.523  18.904
 4792TIP3   OH238570   6.255   6.149  19.460
 4792TIP3    H138571   6.167   6.096  19.430
 4792TIP3    H238572   6.277   6.089  19.539
 4793TIP3   OH238573   6.327   5.966  19.654
 4793TIP3    H138574   6.294   5.877  19.700
 4793TIP3    H238575   6.379   6.018  19.726
 4794TIP3   OH238576   8.158   5.349  19.259
 4794TIP3    H138577   8.247   5.400  19.287
 4794TIP3    H238578   8.153   5.276  19.331
 4795TIP3   OH238579   8.199   5.172  19.464
 4795TIP3    H138580   8.106   5.128  19.493
 4795TIP3    H238581   8.258   5.158  19.545
 4796TIP3   OH238582   8.284   5.423  19.931
 4796TIP3    H138583   8.380   5.458  19.901
 4796TIP3    H238584   8.228   5.515  19.927
 4797TIP3   OH238585   8.274   5.146  19.087
 4797TIP3    H138586   8.210   5.165  19.010
 4797TIP3    H238587   8.249   5.229  19.143
 4798TIP3   OH238588   8.047   4.807  18.931
 4798TIP3    H138589   8.076   4.873  18.860
 4798TIP3    H238590   8.020   4.717  18.884
 4799TIP3   OH238591   7.971   5.003  19.533
 4799TIP3    H138592   8.030   4.915  19.544
 4799TIP3    H238593   7.910   4.997  19.614
 4800TIP3   OH238594   6.350   5.246  19.890
 4800TIP3    H138595   6.351   5.190  19.808
 4800TIP3    H238596   6.427   5.202  19.944
 4801TIP3   OH238597   7.978   4.529  18.855
 4801TIP3    H138598   7.972   4.496  18.947
 4801TIP3    H238599   7.880   4.502  18.822
 4802TIP3   OH238600   7.944   4.725  19.349
 4802TIP3    H138601   7.974   4.623  19.367
 4802TIP3    H238602   8.031   4.757  19.299
 4803TIP3   OH238603   7.967   4.818  19.824
 4803TIP3    H138604   8.076   4.821  19.823
 4803TIP3    H238605   7.952   4.723  19.870
 4804TIP3   OH238606   7.974   4.428  19.376
 4804TIP3    H138607   7.988   4.390  19.468
 4804TIP3    H238608   7.910   4.351  19.338
 4805TIP3   OH238609   6.417   4.516  19.843
 4805TIP3    H138610   6.449   4.413  19.839
 4805TIP3    H238611   6.508   4.562  19.877
 4806TIP3   OH238612   6.233   4.816  19.961
 4806TIP3    H138613   6.277   4.766  19.885
 4806TIP3    H238614   6.274   4.914  19.952
 4807TIP3   OH238615   8.237   4.412  19.054
 4807TIP3    H138616   8.272   4.352  18.982
 4807TIP3    H238617   8.269   4.509  19.024
 4808TIP3   OH238618   6.279   4.433  19.315
 4808TIP3    H138619   6.176   4.435  19.341
 4808TIP3    H238620   6.268   4.424  19.218
 4809TIP3   OH238621   7.884   6.083  19.542
 4809TIP3    H138622   7.964   6.049  19.485
 4809TIP3    H238623   7.935   6.141  19.608
 4810TIP3   OH238624   6.499   6.074  19.874
 4810TIP3    H138625   6.525   6.085  19.968
 4810TIP3    H238626   6.582   6.015  19.841
 4811TIP3   OH238627   6.723   5.925  19.767
 4811TIP3    H138628   6.730   5.818  19.773
 4811TIP3    H238629   6.817   5.950  19.809
 4812TIP3   OH238630   6.982   5.973  19.885
 4812TIP3    H138631   7.021   5.876  19.868
 4812TIP3    H238632   6.973   5.975  19.981
 4813TIP3   OH238633   7.391   4.420  19.770
 4813TIP3    H138634   7.325   4.338  19.793
 4813TIP3    H238635   7.477   4.365  19.737
 4814TIP3   OH238636   7.941   4.187  19.810
 4814TIP3    H138637   7.993   4.246  19.742
 4814TIP3    H238638   7.841   4.209  19.785
 4815TIP3   OH238639   8.082   4.312  19.607
 4815TIP3    H138640   8.151   4.243  19.563
 4815TIP3    H238641   8.139   4.403  19.609
 4816TIP3   OH238642   6.529   4.193  19.511
 4816TIP3    H138643   6.438   4.168  19.461
 4816TIP3    H238644   6.581   4.100  19.504
 4817TIP3   OH238645   6.433   4.188  19.141
 4817TIP3    H138646   6.468   4.259  19.075
 4817TIP3    H238647   6.334   4.224  19.156
 4818TIP3   OH238648   6.974   4.177  19.525
 4818TIP3    H138649   7.066   4.189  19.478
 4818TIP3    H238650   7.008   4.174  19.617
 4819TIP3   OH238651   7.616   4.246  19.637
 4819TIP3    H138652   7.622   4.238  19.541
 4819TIP3    H238653   7.588   4.145  19.665
 4820TIP3   OH238654   7.795   4.214  19.297
 4820TIP3    H138655   7.701   4.260  19.282
 4820TIP3    H238656   7.766   4.115  19.325
 4821TIP3   OH238657   6.404   5.951  19.235
 4821TIP3    H138658   6.328   5.940  19.167
 4821TIP3    H238659   6.431   6.053  19.218
 4822TIP3   OH238660   6.538   4.420  18.971
 4822TIP3    H138661   6.609   4.366  18.916
 4822TIP3    H238662   6.599   4.445  19.047
 4823TIP3   OH238663   7.183   4.438  19.183
 4823TIP3    H138664   7.228   4.375  19.250
 4823TIP3    H238665   7.195   4.534  19.228
 4824TIP3   OH238666   7.409   6.104  19.087
 4824TIP3    H138667   7.510   6.102  19.051
 4824TIP3    H238668   7.357   6.054  19.014
 4825TIP3   OH238669   8.092   6.025  19.352
 4825TIP3    H138670   8.074   5.937  19.296
 4825TIP3    H238671   8.085   6.102  19.285
 4826TIP3   OH238672   6.554   6.005  18.925
 4826TIP3    H138673   6.556   6.071  19.001
 4826TIP3    H238674   6.657   5.974  18.922
 4827TIP3   OH238675   8.314   4.899  19.451
 4827TIP3    H138676   8.275   4.993  19.418
 4827TIP3    H238677   8.247   4.829  19.410
 4828TIP3   OH238678   8.294   5.719  19.875
 4828TIP3    H138679   8.400   5.729  19.886
 4828TIP3    H238680   8.254   5.762  19.956
 4829TIP3   OH238681   8.245   4.565  19.579
 4829TIP3    H138682   8.350   4.582  19.599
 4829TIP3    H238683   8.253   4.521  19.489
 4830TIP3   OH238684   8.260   6.176  19.513
 4830TIP3    H138685   8.206   6.117  19.446
 4830TIP3    H238686   8.265   6.104  19.586
 4831TIP3   OH238687   8.293   6.006  19.725
 4831TIP3    H138688   8.237   5.921  19.756
 4831TIP3    H238689   8.394   5.972  19.732
 4832TIP3   OH238690   8.412   5.099  19.910
 4832TIP3    H138691   8.457   5.126  19.824
 4832TIP3    H238692   8.424   5.189  19.962
 4833TIP3   OH238693   8.247   4.855  19.875
 4833TIP3    H138694   8.331   4.793  19.876
 4833TIP3    H238695   8.293   4.947  19.904
 4834TIP3   OH238696   8.262   4.456  19.328
 4834TIP3    H138697   8.155   4.454  19.325
 4834TIP3    H238698   8.286   4.444  19.232
 4835TIP3   OH238699   1.328   7.323  19.522
 4835TIP3    H138700   1.295   7.425  19.534
 4835TIP3    H238701   1.253   7.284  19.462
 4836TIP3   OH238702   1.207   7.213  19.871
 4836TIP3    H138703   1.190   7.161  19.955
 4836TIP3    H238704   1.141   7.162  19.810
 4837TIP3   OH238705   1.552   7.508  19.696
 4837TIP3    H138706   1.538   7.423  19.756
 4837TIP3    H238707   1.594   7.579  19.759
 4838TIP3   OH238708   0.413   7.663  19.857
 4838TIP3    H138709   0.396   7.562  19.819
 4838TIP3    H238710   0.514   7.649  19.887
 4839TIP3   OH238711   0.127   6.900  19.372
 4839TIP3    H138712   0.152   6.993  19.413
 4839TIP3    H238713   0.022   6.897  19.399
 4840TIP3   OH238714   0.135   7.210  19.676
 4840TIP3    H138715   0.168   7.109  19.693
 4840TIP3    H238716   0.224   7.254  19.641
 4841TIP3   OH238717   1.287   8.107  19.758
 4841TIP3    H138718   1.365   8.052  19.710
 4841TIP3    H238719   1.256   8.031  19.821
 4842TIP3   OH238720   1.058   7.522  19.973
 4842TIP3    H138721   1.104   7.449  19.915
 4842TIP3    H238722   1.124   7.519  20.049
 4843TIP3   OH238723   1.341   6.883  19.968
 4843TIP3    H138724   1.372   6.780  19.976
 4843TIP3    H238725   1.356   6.901  19.874
 4844TIP3   OH238726   0.652   6.634  19.699
 4844TIP3    H138727   0.668   6.728  19.651
 4844TIP3    H238728   0.596   6.582  19.631
 4845TIP3   OH238729   1.429   6.688  19.518
 4845TIP3    H138730   1.487   6.646  19.593
 4845TIP3    H238731   1.502   6.757  19.486
 4846TIP3   OH238732   0.246   6.942  19.718
 4846TIP3    H138733   0.317   6.875  19.760
 4846TIP3    H238734   0.260   6.910  19.626
 4847TIP3   OH238735   0.772   7.081  19.690
 4847TIP3    H138736   0.853   7.026  19.731
 4847TIP3    H238737   0.722   7.000  19.644
 4848TIP3   OH238738   1.238   7.593  19.394
 4848TIP3    H138739   1.217   7.597  19.299
 4848TIP3    H238740   1.252   7.696  19.415
 4849TIP3   OH238741   1.627   6.621  19.700
 4849TIP3    H138742   1.561   6.602  19.777
 4849TIP3    H238743   1.719   6.587  19.735
 4850TIP3   OH238744   0.430   6.754  19.860
 4850TIP3    H138745   0.479   6.828  19.913
 4850TIP3    H238746   0.510   6.709  19.809
 4851TIP3   OH238747   0.138   7.531  19.248
 4851TIP3    H138748   0.129   7.590  19.166
 4851TIP3    H238749   0.166   7.603  19.314
 4852TIP3   OH238750   1.642   7.715  19.863
 4852TIP3    H138751   1.614   7.662  19.945
 4852TIP3    H238752   1.701   7.795  19.898
 4853TIP3   OH238753   0.932   6.291  19.828
 4853TIP3    H138754   0.953   6.188  19.824
 4853TIP3    H238755   0.823   6.295  19.841
 4854TIP3   OH238756   1.454   7.964  19.591
 4854TIP3    H138757   1.489   7.863  19.597
 4854TIP3    H238758   1.547   8.011  19.559
 4855TIP3   OH238759   1.615   7.696  19.497
 4855TIP3    H138760   1.590   7.641  19.416
 4855TIP3    H238761   1.597   7.621  19.566
 4856TIP3   OH238762   1.166   7.231  19.272
 4856TIP3    H138763   1.102   7.313  19.245
 4856TIP3    H238764   1.262   7.262  19.235
 4857TIP3   OH238765   1.192   7.105  18.970
 4857TIP3    H138766   1.250   7.140  19.046
 4857TIP3    H238767   1.230   7.005  18.959
 4858TIP3   OH238768   1.586   7.226  19.385
 4858TIP3    H138769   1.505   7.264  19.440
 4858TIP3    H238770   1.656   7.190  19.453
 4859TIP3   OH238771   0.642   7.300  19.563
 4859TIP3    H138772   0.593   7.266  19.482
 4859TIP3    H238773   0.700   7.215  19.594
 4860TIP3   OH238774   0.809   7.694  19.839
 4860TIP3    H138775   0.779   7.645  19.757
 4860TIP3    H238776   0.883   7.630  19.876
 4861TIP3   OH238777   0.609   7.195  19.921
 4861TIP3    H138778   0.659   7.176  19.836
 4861TIP3    H238779   0.686   7.181  19.986
 4862TIP3   OH238780   1.423   7.206  19.149
 4862TIP3    H138781   1.489   7.214  19.227
 4862TIP3    H238782   1.491   7.229  19.073
 4863TIP3   OH238783   1.145   8.005  19.528
 4863TIP3    H138784   1.215   7.929  19.550
 4863TIP3    H238785   1.183   8.082  19.589
 4864TIP3   OH238786   1.850   6.225  19.187
 4864TIP3    H138787   1.753   6.249  19.225
 4864TIP3    H238788   1.882   6.318  19.148
 4865TIP3   OH238789   0.490   7.180  19.331
 4865TIP3    H138790   0.481   7.273  19.282
 4865TIP3    H238791   0.447   7.113  19.268
 4866TIP3   OH238792   1.970   7.811  19.007
 4866TIP3    H138793   2.004   7.915  19.003
 4866TIP3    H238794   2.062   7.755  19.013
 4867TIP3   OH238795   0.141   7.791  19.843
 4867TIP3    H138796   0.232   7.736  19.861
 4867TIP3    H238797   0.167   7.888  19.877
 4868TIP3   OH238798   1.071   8.225  19.309
 4868TIP3    H138799   1.109   8.218  19.217
 4868TIP3    H238800   1.099   8.324  19.334
 4869TIP3   OH238801   0.438   8.057  19.506
 4869TIP3    H138802   0.461   8.047  19.602
 4869TIP3    H238803   0.349   7.999  19.498
 4870TIP3   OH238804   1.463   8.104  19.068
 4870TIP3    H138805   1.542   8.042  19.031
 4870TIP3    H238806   1.471   8.082  19.163
 4871TIP3   OH238807   1.398   8.086  19.323
 4871TIP3    H138808   1.299   8.114  19.345
 4871TIP3    H238809   1.419   8.007  19.385
 4872TIP3   OH238810   0.646   6.339  19.834
 4872TIP3    H138811   0.546   6.351  19.800
 4872TIP3    H238812   0.659   6.436  19.874
 4873TIP3   OH238813   1.608   7.303  18.968
 4873TIP3    H138814   1.591   7.323  18.873
 4873TIP3    H238815   1.714   7.324  18.971
 4874TIP3   OH238816   1.115   6.604  18.973
 4874TIP3    H138817   1.078   6.598  19.063
 4874TIP3    H238818   1.054   6.531  18.931
 4875TIP3   OH238819   0.650   6.870  19.547
 4875TIP3    H138820   0.543   6.856  19.532
 4875TIP3    H238821   0.686   6.873  19.453
 4876TIP3   OH238822   1.256   6.992  19.387
 4876TIP3    H138823   1.221   7.076  19.333
 4876TIP3    H238824   1.322   6.948  19.322
 4877TIP3   OH238825   1.346   6.938  19.693
 4877TIP3    H138826   1.328   7.021  19.634
 4877TIP3    H238827   1.354   6.860  19.628
 4878TIP3   OH238828   0.716   6.651  18.911
 4878TIP3    H138829   0.673   6.591  18.984
 4878TIP3    H238830   0.632   6.668  18.854
 4879TIP3   OH238831   0.081   6.590  19.622
 4879TIP3    H138832   0.120   6.595  19.714
 4879TIP3    H238833   0.139   6.510  19.587
 4880TIP3   OH238834   0.117   6.695  19.141
 4880TIP3    H138835   0.188   6.733  19.076
 4880TIP3    H238836   0.105   6.780  19.198
 4881TIP3   OH238837   0.963   6.639  19.602
 4881TIP3    H138838   0.871   6.632  19.653
 4881TIP3    H238839   1.031   6.591  19.663
 4882TIP3   OH238840   0.364   6.810  19.498
 4882TIP3    H138841   0.287   6.813  19.428
 4882TIP3    H238842   0.377   6.702  19.502
 4883TIP3   OH238843   0.740   6.840  19.291
 4883TIP3    H138844   0.841   6.828  19.263
 4883TIP3    H238845   0.698   6.900  19.221
 4884TIP3   OH238846   1.420   6.600  19.890
 4884TIP3    H138847   1.422   6.565  19.982
 4884TIP3    H238848   1.317   6.582  19.868
 4885TIP3   OH238849   0.620   6.971  19.027
 4885TIP3    H138850   0.575   6.906  18.963
 4885TIP3    H238851   0.712   6.994  18.980
 4886TIP3   OH238852   1.045   6.941  19.821
 4886TIP3    H138853   1.102   6.932  19.739
 4886TIP3    H238854   1.109   6.888  19.882
 4887TIP3   OH238855   0.454   6.534  19.502
 4887TIP3    H138856   0.396   6.445  19.523
 4887TIP3    H238857   0.504   6.497  19.423
 4888TIP3   OH238858   0.983   7.448  19.228
 4888TIP3    H138859   0.899   7.393  19.193
 4888TIP3    H238860   0.947   7.479  19.317
 4889TIP3   OH238861   1.381   6.657  19.075
 4889TIP3    H138862   1.284   6.654  19.032
 4889TIP3    H238863   1.401   6.763  19.077
 4890TIP3   OH238864   1.463   6.910  19.181
 4890TIP3    H138865   1.537   6.872  19.242
 4890TIP3    H238866   1.506   7.002  19.153
 4891TIP3   OH238867   0.451   7.399  19.757
 4891TIP3    H138868   0.514   7.371  19.680
 4891TIP3    H238869   0.501   7.345  19.829
 4892TIP3   OH238870   1.184   7.612  19.117
 4892TIP3    H138871   1.125   7.699  19.137
 4892TIP3    H238872   1.123   7.534  19.158
 4893TIP3   OH238873   1.990   6.871  19.189
 4893TIP3    H138874   1.932   6.865  19.106
 4893TIP3    H238875   2.014   6.974  19.194
 4894TIP3   OH238876   1.784   7.847  19.220
 4894TIP3    H138877   1.784   7.760  19.274
 4894TIP3    H238878   1.845   7.820  19.143
 4895TIP3   OH238879   1.495   7.296  19.876
 4895TIP3    H138880   1.391   7.270  19.862
 4895TIP3    H238881   1.548   7.216  19.832
 4896TIP3   OH238882   0.690   7.743  19.557
 4896TIP3    H138883   0.719   7.843  19.580
 4896TIP3    H238884   0.594   7.756  19.517
 4897TIP3   OH238885   0.252   7.202  19.018
 4897TIP3    H138886   0.307   7.289  19.050
 4897TIP3    H238887   0.155   7.217  19.055
 4898TIP3   OH238888   0.843   7.502  19.451
 4898TIP3    H138889   0.775   7.572  19.493
 4898TIP3    H238890   0.823   7.414  19.503
 4899TIP3   OH238891   0.729   8.026  19.445
 4899TIP3    H138892   0.622   8.031  19.451
 4899TIP3    H238893   0.755   8.119  19.490
 4900TIP3   OH238894   1.570   7.651  19.005
 4900TIP3    H138895   1.583   7.597  19.089
 4900TIP3    H238896   1.466   7.628  18.988
 4901TIP3   OH238897   2.056   8.094  19.016
 4901TIP3    H138898   2.123   8.176  19.022
 4901TIP3    H238899   1.960   8.140  19.038
 4902TIP3   OH238900   1.634   7.497  19.242
 4902TIP3    H138901   1.607   7.401  19.282
 4902TIP3    H238902   1.735   7.480  19.215
 4903TIP3   OH238903   0.924   7.772  18.877
 4903TIP3    H138904   0.908   7.710  18.799
 4903TIP3    H238905   0.839   7.741  18.932
 4904TIP3   OH238906   0.748   7.712  19.109
 4904TIP3    H138907   0.821   7.664  19.164
 4904TIP3    H238908   0.758   7.814  19.139
 4905TIP3   OH238909   0.402   7.412  19.159
 4905TIP3    H138910   0.317   7.448  19.209
 4905TIP3    H238911   0.439   7.500  19.113
 4906TIP3   OH238912   1.353   6.518  19.306
 4906TIP3    H138913   1.379   6.578  19.227
 4906TIP3    H238914   1.379   6.584  19.380
 4907TIP3   OH238915   1.097   7.879  19.202
 4907TIP3    H138916   1.034   7.920  19.132
 4907TIP3    H238917   1.194   7.899  19.166
 4908TIP3   OH238918   1.047   6.751  19.366
 4908TIP3    H138919   1.097   6.845  19.380
 4908TIP3    H238920   1.010   6.724  19.456
 4909TIP3   OH238921   1.103   6.404  19.407
 4909TIP3    H138922   1.074   6.475  19.474
 4909TIP3    H238923   1.188   6.456  19.366
 4910TIP3   OH238924   0.812   8.004  19.169
 4910TIP3    H138925   0.820   8.082  19.099
 4910TIP3    H238926   0.733   8.044  19.222
 4911TIP3   OH238927   0.630   6.533  19.148
 4911TIP3    H138928   0.616   6.623  19.199
 4911TIP3    H238929   0.735   6.515  19.164
 4912TIP3   OH238930   1.616   7.071  19.744
 4912TIP3    H138931   1.531   7.005  19.757
 4912TIP3    H238932   1.689   7.025  19.804
 4913TIP3   OH238933   0.453   7.686  19.012
 4913TIP3    H138934   0.544   7.724  19.051
 4913TIP3    H238935   0.493   7.620  18.944
 4914TIP3   OH238936   0.255   6.888  18.969
 4914TIP3    H138937   0.284   6.988  18.994
 4914TIP3    H238938   0.183   6.909  18.901
 4915TIP3   OH238939   1.769   8.085  19.934
 4915TIP3    H138940   1.788   8.140  19.853
 4915TIP3    H238941   1.863   8.094  19.979
 4916TIP3   OH238942   0.354   6.341  19.794
 4916TIP3    H138943   0.342   6.323  19.698
 4916TIP3    H238944   0.347   6.240  19.827
 4917TIP3   OH238945   0.257   7.806  19.439
 4917TIP3    H138946   0.162   7.835  19.470
 4917TIP3    H238947   0.271   7.868  19.361
 4918TIP3   OH238948   1.148   7.975  18.882
 4918TIP3    H138949   1.085   7.887  18.880
 4918TIP3    H238950   1.233   7.941  18.829
 4919TIP3   OH238951   1.661   7.948  18.926
 4919TIP3    H138952   1.661   7.847  18.961
 4919TIP3    H238953   1.731   7.946  18.853
 4920TIP3   OH238954   0.631   7.481  18.855
 4920TIP3    H138955   0.645   7.417  18.931
 4920TIP3    H238956   0.722   7.460  18.804
 4921TIP3   OH238957   1.253   7.605  18.849
 4921TIP3    H138958   1.187   7.611  18.926
 4921TIP3    H238959   1.247   7.499  18.832
 4922TIP3   OH238960   0.759   7.279  19.117
 4922TIP3    H138961   0.694   7.207  19.158
 4922TIP3    H238962   0.812   7.218  19.052
 4923TIP3   OH238963   0.888   7.096  18.919
 4923TIP3    H138964   0.894   7.139  18.828
 4923TIP3    H238965   0.992   7.090  18.941
 4924TIP3   OH238966   1.898   7.335  18.866
 4924TIP3    H138967   1.876   7.301  18.775
 4924TIP3    H238968   1.895   7.443  18.853
 4925TIP3   OH238969   0.865   8.248  19.024
 4925TIP3    H138970   0.933   8.324  19.050
 4925TIP3    H238971   0.794   8.300  18.969
 4926TIP3   OH238972   0.162   7.697  19.032
 4926TIP3    H138973   0.268   7.708  19.035
 4926TIP3    H238974   0.155   7.622  18.962
 4927TIP3   OH238975   0.029   8.288  19.408
 4927TIP3    H138976  -0.076   8.304  19.427
 4927TIP3    H238977   0.040   8.204  19.465
 4928TIP3   OH238978   0.153   8.016  19.656
 4928TIP3    H138979   0.173   7.913  19.684
 4928TIP3    H238980   0.204   8.069  19.727
 4929TIP3   OH238981   1.949   7.427  19.224
 4929TIP3    H138982   2.045   7.473  19.239
 4929TIP3    H238983   1.945   7.361  19.302
 4930TIP3   OH238984   1.979   7.242  19.457
 4930TIP3    H138985   1.907   7.181  19.504
 4930TIP3    H238986   2.060   7.247  19.522
 4931TIP3   OH238987   1.989   7.546  19.972
 4931TIP3    H138988   2.052   7.471  19.932
 4931TIP3    H238989   2.000   7.627  19.910
 4932TIP3   OH238990   2.050   7.186  19.075
 4932TIP3    H138991   1.985   7.216  19.001
 4932TIP3    H238992   2.037   7.272  19.133
 4933TIP3   OH238993   1.826   6.871  18.929
 4933TIP3    H138994   1.857   6.939  18.861
 4933TIP3    H238995   1.805   6.785  18.876
 4934TIP3   OH238996   1.779   7.033  19.525
 4934TIP3    H138997   1.740   6.950  19.476
 4934TIP3    H238998   1.725   7.030  19.610
 4935TIP3   OH238999   0.174   7.388  19.898
 4935TIP3    H139000   0.194   7.340  19.811
 4935TIP3    H239001   0.228   7.323  19.957
 4936TIP3   OH239002   1.772   6.584  18.823
 4936TIP3    H139003   1.804   6.566  18.915
 4936TIP3    H239004   1.665   6.573  18.829
 4937TIP3   OH239005   1.702   6.813  19.355
 4937TIP3    H139006   1.722   6.709  19.374
 4937TIP3    H239007   1.790   6.832  19.304
 4938TIP3   OH239008   1.795   6.891  19.868
 4938TIP3    H139009   1.901   6.871  19.862
 4938TIP3    H239010   1.764   6.791  19.894
 4939TIP3   OH239011   1.789   6.533  19.369
 4939TIP3    H139012   1.828   6.471  19.442
 4939TIP3    H239013   1.718   6.465  19.331
 4940TIP3   OH239014   0.175   6.588  19.875
 4940TIP3    H139015   0.222   6.492  19.882
 4940TIP3    H239016   0.255   6.651  19.908
 4941TIP3   OH239017   0.115   6.894  19.979
 4941TIP3    H139018   0.151   6.868  19.890
 4941TIP3    H239019   0.070   6.987  19.960
 4942TIP3   OH239020   1.977   6.510  19.038
 4942TIP3    H139021   2.025   6.442  18.977
 4942TIP3    H239022   2.064   6.560  19.075
 4943TIP3   OH239023   0.125   6.471  19.311
 4943TIP3    H139024   0.033   6.478  19.361
 4943TIP3    H239025   0.108   6.543  19.240
 4944TIP3   OH239026   1.674   8.116  19.495
 4944TIP3    H139027   1.764   8.108  19.439
 4944TIP3    H239028   1.702   8.193  19.559
 4945TIP3   OH239029   0.287   8.052  19.917
 4945TIP3    H139030   0.324   8.109  19.994
 4945TIP3    H239031   0.382   8.014  19.882
 4946TIP3   OH239032   0.508   7.965  19.751
 4946TIP3    H139033   0.493   7.859  19.763
 4946TIP3    H239034   0.612   7.975  19.779
 4947TIP3   OH239035   0.772   7.985  19.855
 4947TIP3    H139036   0.792   7.882  19.876
 4947TIP3    H239037   0.803   8.038  19.934
 4948TIP3   OH239038   1.153   6.502  19.776
 4948TIP3    H139039   1.081   6.428  19.807
 4948TIP3    H239040   1.231   6.439  19.745
 4949TIP3   OH239041   1.751   6.268  19.762
 4949TIP3    H139042   1.813   6.316  19.693
 4949TIP3    H239043   1.652   6.304  19.744
 4950TIP3   OH239044   1.929   6.370  19.567
 4950TIP3    H139045   2.001   6.310  19.519
 4950TIP3    H239046   1.990   6.459  19.586
 4951TIP3   OH239047   0.354   6.270  19.540
 4951TIP3    H139048   0.260   6.247  19.495
 4951TIP3    H239049   0.408   6.176  19.533
 4952TIP3   OH239050   0.239   6.261  19.155
 4952TIP3    H139051   0.242   6.313  19.070
 4952TIP3    H239052   0.201   6.338  19.217
 4953TIP3   OH239053   0.794   6.225  19.548
 4953TIP3    H139054   0.887   6.261  19.514
 4953TIP3    H239055   0.804   6.229  19.643
 4954TIP3   OH239056   1.469   6.310  19.677
 4954TIP3    H139057   1.451   6.333  19.585
 4954TIP3    H239058   1.410   6.221  19.694
 4955TIP3   OH239059   1.580   6.315  19.313
 4955TIP3    H139060   1.489   6.373  19.306
 4955TIP3    H239061   1.540   6.215  19.322
 4956TIP3   OH239062   0.186   8.028  19.247
 4956TIP3    H139063   0.085   8.024  19.218
 4956TIP3    H239064   0.218   8.120  19.206
 4957TIP3   OH239065   0.327   6.464  18.971
 4957TIP3    H139066   0.406   6.406  18.930
 4957TIP3    H239067   0.366   6.488  19.059
 4958TIP3   OH239068   0.938   6.534  19.199
 4958TIP3    H139069   0.978   6.466  19.265
 4958TIP3    H239070   0.971   6.625  19.242
 4959TIP3   OH239071   1.184   8.182  19.072
 4959TIP3    H139072   1.287   8.163  19.048
 4959TIP3    H239073   1.135   8.132  18.997
 4960TIP3   OH239074   1.896   8.089  19.322
 4960TIP3    H139075   1.858   7.997  19.283
 4960TIP3    H239076   1.885   8.156  19.246
 4961TIP3   OH239077   0.355   8.086  18.914
 4961TIP3    H139078   0.309   8.152  18.980
 4961TIP3    H239079   0.429   8.039  18.969
 4962TIP3   OH239080   3.405   7.316  19.523
 4962TIP3    H139081   3.397   7.417  19.554
 4962TIP3    H239082   3.312   7.305  19.475
 4963TIP3   OH239083   3.277   7.202  19.865
 4963TIP3    H139084   3.266   7.153  19.951
 4963TIP3    H239085   3.203   7.153  19.812
 4964TIP3   OH239086   3.610   7.510  19.701
 4964TIP3    H139087   3.587   7.433  19.765
 4964TIP3    H239088   3.650   7.586  19.763
 4965TIP3   OH239089   2.539   7.685  19.871
 4965TIP3    H139090   2.498   7.590  19.842
 4965TIP3    H239091   2.643   7.664  19.859
 4966TIP3   OH239092   2.176   6.923  19.468
 4966TIP3    H139093   2.161   7.025  19.495
 4966TIP3    H239094   2.085   6.899  19.427
 4967TIP3   OH239095   2.258   7.202  19.644
 4967TIP3    H139096   2.289   7.114  19.694
 4967TIP3    H239097   2.339   7.269  19.663
 4968TIP3   OH239098   3.351   8.110  19.772
 4968TIP3    H139099   3.428   8.061  19.719
 4968TIP3    H239100   3.307   8.022  19.812
 4969TIP3   OH239101   3.127   7.528  19.977
 4969TIP3    H139102   3.168   7.471  19.905
 4969TIP3    H239103   3.188   7.495  20.050
 4970TIP3   OH239104   3.442   6.872  19.967
 4970TIP3    H139105   3.479   6.772  19.973
 4970TIP3    H239106   3.427   6.881  19.870
 4971TIP3   OH239107   2.721   6.609  19.683
 4971TIP3    H139108   2.737   6.709  19.647
 4971TIP3    H239109   2.645   6.574  19.622
 4972TIP3   OH239110   3.498   6.691  19.531
 4972TIP3    H139111   3.562   6.650  19.601
 4972TIP3    H239112   3.568   6.758  19.491
 4973TIP3   OH239113   2.309   6.904  19.749
 4973TIP3    H139114   2.382   6.839  19.793
 4973TIP3    H239115   2.322   6.871  19.656
 4974TIP3   OH239116   2.859   7.086  19.697
 4974TIP3    H139117   2.939   7.031  19.736
 4974TIP3    H239118   2.806   7.006  19.651
 4975TIP3   OH239119   3.301   7.588  19.404
 4975TIP3    H139120   3.289   7.580  19.308
 4975TIP3    H239121   3.293   7.694  19.417
 4976TIP3   OH239122   3.697   6.629  19.709
 4976TIP3    H139123   3.633   6.598  19.783
 4976TIP3    H239124   3.793   6.600  19.744
 4977TIP3   OH239125   2.534   6.776  19.870
 4977TIP3    H139126   2.573   6.876  19.862
 4977TIP3    H239127   2.582   6.727  19.796
 4978TIP3   OH239128   2.232   7.525  19.249
 4978TIP3    H139129   2.224   7.583  19.166
 4978TIP3    H239130   2.247   7.601  19.316
 4979TIP3   OH239131   3.710   7.703  19.877
 4979TIP3    H139132   3.680   7.658  19.963
 4979TIP3    H239133   3.754   7.794  19.909
 4980TIP3   OH239134   3.002   6.288  19.794
 4980TIP3    H139135   3.031   6.188  19.816
 4980TIP3    H239136   2.914   6.305  19.846
 4981TIP3   OH239137   3.534   7.963  19.624
 4981TIP3    H139138   3.542   7.858  19.600
 4981TIP3    H239139   3.621   8.000  19.575
 4982TIP3   OH239140   3.666   7.701  19.492
 4982TIP3    H139141   3.650   7.640  19.415
 4982TIP3    H239142   3.664   7.630  19.565
 4983TIP3   OH239143   3.235   7.220  19.267
 4983TIP3    H139144   3.178   7.306  19.236
 4983TIP3    H239145   3.333   7.240  19.229
 4984TIP3   OH239146   3.270   7.106  18.966
 4984TIP3    H139147   3.341   7.149  19.030
 4984TIP3    H239148   3.285   7.003  18.982
 4985TIP3   OH239149   3.658   7.231  19.383
 4985TIP3    H139150   3.573   7.263  19.438
 4985TIP3    H239151   3.727   7.198  19.452
 4986TIP3   OH239152   2.707   7.291  19.569
 4986TIP3    H139153   2.662   7.244  19.490
 4986TIP3    H239154   2.776   7.216  19.601
 4987TIP3   OH239155   2.847   7.692  19.837
 4987TIP3    H139156   2.852   7.693  19.740
 4987TIP3    H239157   2.927   7.627  19.863
 4988TIP3   OH239158   2.693   7.097  19.923
 4988TIP3    H139159   2.751   7.101  19.840
 4988TIP3    H239160   2.711   7.195  19.958
 4989TIP3   OH239161   3.497   7.194  19.144
 4989TIP3    H139162   3.560   7.213  19.221
 4989TIP3    H239163   3.561   7.228  19.070
 4990TIP3   OH239164   3.265   7.886  19.448
 4990TIP3    H139165   3.291   7.910  19.538
 4990TIP3    H239166   3.194   7.962  19.426
 4991TIP3   OH239167   3.930   6.218  19.176
 4991TIP3    H139168   3.831   6.236  19.213
 4991TIP3    H239169   3.964   6.318  19.158
 4992TIP3   OH239170   2.549   7.182  19.343
 4992TIP3    H139171   2.536   7.275  19.296
 4992TIP3    H239172   2.516   7.112  19.278
 4993TIP3   OH239173   4.045   7.806  19.010
 4993TIP3    H139174   4.081   7.907  19.005
 4993TIP3    H239175   4.136   7.748  19.012
 4994TIP3   OH239176   2.171   7.774  19.853
 4994TIP3    H139177   2.274   7.746  19.851
 4994TIP3    H239178   2.173   7.869  19.898
 4995TIP3   OH239179   3.227   8.243  19.333
 4995TIP3    H139180   3.235   8.240  19.235
 4995TIP3    H239181   3.182   8.338  19.347
 4996TIP3   OH239182   2.521   8.034  19.492
 4996TIP3    H139183   2.545   8.039  19.588
 4996TIP3    H239184   2.453   7.950  19.491
 4997TIP3   OH239185   3.540   8.106  19.068
 4997TIP3    H139186   3.618   8.041  19.032
 4997TIP3    H239187   3.541   8.081  19.164
 4998TIP3   OH239188   3.487   8.098  19.323
 4998TIP3    H139189   3.388   8.135  19.344
 4998TIP3    H239190   3.497   8.011  19.379
 4999TIP3   OH239191   2.671   6.353  19.925
 4999TIP3    H139192   2.618   6.389  19.845
 4999TIP3    H239193   2.724   6.444  19.951
 5000TIP3   OH239194   3.676   7.302  18.964
 5000TIP3    H139195   3.654   7.317  18.869
 5000TIP3    H239196   3.782   7.322  18.965
 5001TIP3   OH239197   3.194   6.604  18.994
 5001TIP3    H139198   3.145   6.589  19.079
 5001TIP3    H239199   3.139   6.536  18.939
 5002TIP3   OH239200   2.715   6.871  19.568
 5002TIP3    H139201   2.611   6.850  19.547
 5002TIP3    H239202   2.756   6.882  19.477
 5003TIP3   OH239203   3.335   6.984  19.387
 5003TIP3    H139204   3.300   7.072  19.339
 5003TIP3    H239205   3.399   6.942  19.319
 5004TIP3   OH239206   3.412   6.928  19.687
 5004TIP3    H139207   3.397   7.004  19.618
 5004TIP3    H239208   3.422   6.842  19.627
 5005TIP3   OH239209   2.795   6.632  18.895
 5005TIP3    H139210   2.748   6.592  18.977
 5005TIP3    H239211   2.718   6.691  18.855
 5006TIP3   OH239212   2.081   6.619  19.623
 5006TIP3    H139213   2.145   6.619  19.702
 5006TIP3    H239214   2.146   6.652  19.553
 5007TIP3   OH239215   2.203   6.675  19.120
 5007TIP3    H139216   2.274   6.723  19.059
 5007TIP3    H239217   2.135   6.757  19.136
 5008TIP3   OH239218   3.051   6.639  19.619
 5008TIP3    H139219   2.954   6.622  19.653
 5008TIP3    H239220   3.112   6.578  19.680
 5009TIP3   OH239221   2.425   6.796  19.523
 5009TIP3    H139222   2.339   6.838  19.478
 5009TIP3    H239223   2.446   6.709  19.468
 5010TIP3   OH239224   2.808   6.847  19.309
 5010TIP3    H139225   2.907   6.826  19.280
 5010TIP3    H239226   2.769   6.904  19.234
 5011TIP3   OH239227   3.478   6.577  19.905
 5011TIP3    H139228   3.456   6.569  20.001
 5011TIP3    H239229   3.379   6.576  19.868
 5012TIP3   OH239230   2.684   6.959  19.023
 5012TIP3    H139231   2.647   6.904  18.947
 5012TIP3    H239232   2.779   6.988  18.985
 5013TIP3   OH239233   3.121   6.933  19.827
 5013TIP3    H139234   3.178   6.901  19.750
 5013TIP3    H239235   3.165   6.877  19.898
 5014TIP3   OH239236   2.509   6.532  19.467
 5014TIP3    H139237   2.456   6.451  19.514
 5014TIP3    H239238   2.569   6.474  19.407
 5015TIP3   OH239239   3.058   7.454  19.232
 5015TIP3    H139240   2.973   7.404  19.191
 5015TIP3    H239241   3.016   7.478  19.321
 5016TIP3   OH239242   3.470   6.657  19.053
 5016TIP3    H139243   3.363   6.658  19.036
 5016TIP3    H239244   3.489   6.760  19.078
 5017TIP3   OH239245   3.547   6.900  19.178
 5017TIP3    H139246   3.626   6.870  19.238
 5017TIP3    H239247   3.575   7.002  19.158
 5018TIP3   OH239248   2.483   7.400  19.791
 5018TIP3    H139249   2.515   7.378  19.700
 5018TIP3    H239250   2.555   7.349  19.846
 5019TIP3   OH239251   3.274   7.618  19.134
 5019TIP3    H139252   3.212   7.707  19.134
 5019TIP3    H239253   3.201   7.545  19.165
 5020TIP3   OH239254   4.066   6.865  19.181
 5020TIP3    H139255   4.012   6.860  19.096
 5020TIP3    H239256   4.095   6.969  19.184
 5021TIP3   OH239257   3.875   7.838  19.226
 5021TIP3    H139258   3.849   7.748  19.273
 5021TIP3    H239259   3.935   7.800  19.152
 5022TIP3   OH239260   3.567   7.291  19.877
 5022TIP3    H139261   3.464   7.262  19.863
 5022TIP3    H239262   3.622   7.218  19.824
 5023TIP3   OH239263   2.763   7.759  19.553
 5023TIP3    H139264   2.809   7.857  19.554
 5023TIP3    H239265   2.685   7.776  19.489
 5024TIP3   OH239266   2.354   7.236  19.016
 5024TIP3    H139267   2.404   7.299  19.082
 5024TIP3    H239268   2.250   7.247  19.037
 5025TIP3   OH239269   2.897   7.493  19.455
 5025TIP3    H139270   2.859   7.588  19.485
 5025TIP3    H239271   2.857   7.426  19.523
 5026TIP3   OH239272   2.816   8.032  19.427
 5026TIP3    H139273   2.709   8.047  19.438
 5026TIP3    H239274   2.858   8.117  19.476
 5027TIP3   OH239275   3.647   7.647  19.007
 5027TIP3    H139276   3.661   7.593  19.092
 5027TIP3    H239277   3.540   7.641  19.002
 5028TIP3   OH239278   4.127   8.093  19.020
 5028TIP3    H139279   4.198   8.174  19.022
 5028TIP3    H239280   4.036   8.142  19.048
 5029TIP3   OH239281   3.719   7.495  19.238
 5029TIP3    H139282   3.685   7.400  19.271
 5029TIP3    H239283   3.824   7.476  19.225
 5030TIP3   OH239284   2.999   7.762  18.874
 5030TIP3    H139285   2.970   7.702  18.797
 5030TIP3    H239286   2.912   7.752  18.932
 5031TIP3   OH239287   2.828   7.709  19.115
 5031TIP3    H139288   2.915   7.666  19.155
 5031TIP3    H239289   2.842   7.812  19.143
 5032TIP3   OH239290   2.497   7.415  19.175
 5032TIP3    H139291   2.399   7.453  19.198
 5032TIP3    H239292   2.540   7.497  19.125
 5033TIP3   OH239293   3.406   6.553  19.310
 5033TIP3    H139294   3.464   6.589  19.236
 5033TIP3    H239295   3.451   6.600  19.388
 5034TIP3   OH239296   3.123   7.857  19.179
 5034TIP3    H139297   3.026   7.904  19.193
 5034TIP3    H239298   3.188   7.941  19.186
 5035TIP3   OH239299   3.112   6.755  19.373
 5035TIP3    H139300   3.176   6.842  19.385
 5035TIP3    H239301   3.104   6.713  19.464
 5036TIP3   OH239302   3.168   6.417  19.417
 5036TIP3    H139303   3.143   6.480  19.491
 5036TIP3    H239304   3.256   6.470  19.385
 5037TIP3   OH239305   2.861   7.988  19.167
 5037TIP3    H139306   2.862   8.075  19.107
 5037TIP3    H239307   2.834   8.029  19.254
 5038TIP3   OH239308   2.703   6.533  19.140
 5038TIP3    H139309   2.691   6.611  19.206
 5038TIP3    H239310   2.805   6.505  19.154
 5039TIP3   OH239311   3.686   7.062  19.740
 5039TIP3    H139312   3.598   7.005  19.758
 5039TIP3    H239313   3.755   7.011  19.800
 5040TIP3   OH239314   2.516   7.676  19.005
 5040TIP3    H139315   2.583   7.739  19.056
 5040TIP3    H239316   2.589   7.620  18.954
 5041TIP3   OH239317   2.336   6.904  18.948
 5041TIP3    H139318   2.396   6.983  18.984
 5041TIP3    H239319   2.246   6.956  18.926
 5042TIP3   OH239320   3.840   8.095  19.940
 5042TIP3    H139321   3.863   8.147  19.859
 5042TIP3    H239322   3.936   8.085  19.981
 5043TIP3   OH239323   2.427   6.350  19.774
 5043TIP3    H139324   2.422   6.313  19.681
 5043TIP3    H239325   2.414   6.258  19.823
 5044TIP3   OH239326   2.283   7.828  19.419
 5044TIP3    H139327   2.201   7.880  19.459
 5044TIP3    H239328   2.288   7.883  19.335
 5045TIP3   OH239329   3.208   7.981  18.867
 5045TIP3    H139330   3.155   7.889  18.888
 5045TIP3    H239331   3.293   7.943  18.820
 5046TIP3   OH239332   3.719   7.944  18.918
 5046TIP3    H139333   3.735   7.846  18.956
 5046TIP3    H239334   3.798   7.952  18.852
 5047TIP3   OH239335   2.709   7.485  18.861
 5047TIP3    H139336   2.734   7.429  18.940
 5047TIP3    H239337   2.803   7.478  18.811
 5048TIP3   OH239338   3.326   7.613  18.839
 5048TIP3    H139339   3.271   7.614  18.922
 5048TIP3    H239340   3.325   7.508  18.819
 5049TIP3   OH239341   2.835   7.293  19.118
 5049TIP3    H139342   2.758   7.234  19.157
 5049TIP3    H239343   2.880   7.227  19.054
 5050TIP3   OH239344   2.969   7.104  18.915
 5050TIP3    H139345   2.959   7.129  18.820
 5050TIP3    H239346   3.077   7.102  18.923
 5051TIP3   OH239347   3.974   7.339  18.866
 5051TIP3    H139348   3.952   7.306  18.775
 5051TIP3    H239349   3.967   7.447  18.856
 5052TIP3   OH239350   2.929   8.234  19.029
 5052TIP3    H139351   3.017   8.291  19.050
 5052TIP3    H239352   2.875   8.302  18.974
 5053TIP3   OH239353   2.219   7.634  19.003
 5053TIP3    H139354   2.327   7.642  18.994
 5053TIP3    H239355   2.190   7.586  18.919
 5054TIP3   OH239356   2.088   8.255  19.450
 5054TIP3    H139357   2.004   8.206  19.407
 5054TIP3    H239358   2.079   8.210  19.537
 5055TIP3   OH239359   2.171   8.022  19.648
 5055TIP3    H139360   2.136   7.925  19.676
 5055TIP3    H239361   2.223   8.054  19.728
 5056TIP3   OH239362   4.015   7.432  19.232
 5056TIP3    H139363   4.112   7.476  19.249
 5056TIP3    H239364   4.007   7.362  19.308
 5057TIP3   OH239365   4.046   7.251  19.459
 5057TIP3    H139366   3.972   7.187  19.503
 5057TIP3    H239367   4.125   7.250  19.524
 5058TIP3   OH239368   4.061   7.550  19.955
 5058TIP3    H139369   4.140   7.484  19.928
 5058TIP3    H239370   4.072   7.632  19.894
 5059TIP3   OH239371   4.128   7.202  19.076
 5059TIP3    H139372   4.056   7.217  19.005
 5059TIP3    H239373   4.112   7.288  19.133
 5060TIP3   OH239374   3.894   6.878  18.925
 5060TIP3    H139375   3.929   6.928  18.846
 5060TIP3    H239376   3.867   6.785  18.883
 5061TIP3   OH239377   3.849   7.041  19.523
 5061TIP3    H139378   3.818   6.948  19.484
 5061TIP3    H239379   3.796   7.040  19.609
 5062TIP3   OH239380   2.143   7.302  19.879
 5062TIP3    H139381   2.189   7.283  19.792
 5062TIP3    H239382   2.226   7.286  19.939
 5063TIP3   OH239383   3.862   6.592  18.837
 5063TIP3    H139384   3.902   6.563  18.925
 5063TIP3    H239385   3.757   6.587  18.851
 5064TIP3   OH239386   3.771   6.801  19.345
 5064TIP3    H139387   3.783   6.696  19.363
 5064TIP3    H239388   3.864   6.821  19.303
 5065TIP3   OH239389   3.863   6.881  19.862
 5065TIP3    H139390   3.970   6.874  19.857
 5065TIP3    H239391   3.841   6.780  19.897
 5066TIP3   OH239392   3.853   6.516  19.363
 5066TIP3    H139393   3.902   6.469  19.439
 5066TIP3    H239394   3.791   6.436  19.332
 5067TIP3   OH239395   2.264   6.587  19.853
 5067TIP3    H139396   2.322   6.499  19.828
 5067TIP3    H239397   2.334   6.646  19.903
 5068TIP3   OH239398   2.086   6.891  19.954
 5068TIP3    H139399   2.136   6.859  19.874
 5068TIP3    H239400   2.118   6.993  19.957
 5069TIP3   OH239401   4.060   6.500  19.040
 5069TIP3    H139402   4.102   6.442  18.967
 5069TIP3    H239403   4.149   6.523  19.091
 5070TIP3   OH239404   2.112   6.483  19.312
 5070TIP3    H139405   2.017   6.525  19.333
 5070TIP3    H239406   2.148   6.558  19.250
 5071TIP3   OH239407   3.742   8.114  19.492
 5071TIP3    H139408   3.833   8.101  19.440
 5071TIP3    H239409   3.766   8.192  19.554
 5072TIP3   OH239410   2.350   8.041  19.880
 5072TIP3    H139411   2.408   8.100  19.943
 5072TIP3    H239412   2.428   7.999  19.824
 5073TIP3   OH239413   2.582   7.965  19.741
 5073TIP3    H139414   2.593   7.859  19.758
 5073TIP3    H239415   2.670   8.003  19.788
 5074TIP3   OH239416   2.841   7.984  19.849
 5074TIP3    H139417   2.867   7.879  19.859
 5074TIP3    H239418   2.847   8.020  19.940
 5075TIP3   OH239419   3.236   6.486  19.771
 5075TIP3    H139420   3.161   6.413  19.794
 5075TIP3    H239421   3.322   6.422  19.769
 5076TIP3   OH239422   3.831   6.275  19.768
 5076TIP3    H139423   3.887   6.319  19.692
 5076TIP3    H239424   3.731   6.310  19.750
 5077TIP3   OH239425   3.996   6.377  19.569
 5077TIP3    H139426   4.071   6.315  19.528
 5077TIP3    H239427   4.055   6.468  19.585
 5078TIP3   OH239428   2.408   6.258  19.524
 5078TIP3    H139429   2.314   6.248  19.476
 5078TIP3    H239430   2.449   6.159  19.511
 5079TIP3   OH239431   2.258   6.272  19.119
 5079TIP3    H139432   2.290   6.345  19.054
 5079TIP3    H239433   2.202   6.332  19.183
 5080TIP3   OH239434   2.886   6.235  19.541
 5080TIP3    H139435   2.938   6.270  19.463
 5080TIP3    H239436   2.944   6.278  19.613
 5081TIP3   OH239437   3.540   6.307  19.680
 5081TIP3    H139438   3.510   6.333  19.591
 5081TIP3    H239439   3.487   6.216  19.697
 5082TIP3   OH239440   3.677   6.293  19.295
 5082TIP3    H139441   3.610   6.318  19.225
 5082TIP3    H239442   3.636   6.200  19.327
 5083TIP3   OH239443   2.252   8.014  19.220
 5083TIP3    H139444   2.149   8.024  19.192
 5083TIP3    H239445   2.294   8.098  19.173
 5084TIP3   OH239446   2.407   6.480  18.962
 5084TIP3    H139447   2.482   6.423  18.917
 5084TIP3    H239448   2.441   6.475  19.053
 5085TIP3   OH239449   3.007   6.535  19.205
 5085TIP3    H139450   3.046   6.464  19.268
 5085TIP3    H239451   3.042   6.625  19.249
 5086TIP3   OH239452   3.255   8.186  19.071
 5086TIP3    H139453   3.354   8.153  19.045
 5086TIP3    H239454   3.199   8.131  19.005
 5087TIP3   OH239455   3.971   8.092  19.324
 5087TIP3    H139456   3.938   7.997  19.283
 5087TIP3    H239457   3.948   8.161  19.252
 5088TIP3   OH239458   2.472   8.160  18.929
 5088TIP3    H139459   2.394   8.174  18.993
 5088TIP3    H239460   2.519   8.072  18.961
 5089TIP3   OH239461   5.492   7.315  19.521
 5089TIP3    H139462   5.482   7.414  19.557
 5089TIP3    H239463   5.392   7.294  19.493
 5090TIP3   OH239464   5.370   7.200  19.858
 5090TIP3    H139465   5.349   7.154  19.943
 5090TIP3    H239466   5.271   7.236  19.837
 5091TIP3   OH239467   5.690   7.511  19.706
 5091TIP3    H139468   5.665   7.432  19.768
 5091TIP3    H239469   5.731   7.585  19.770
 5092TIP3   OH239470   4.635   7.694  19.872
 5092TIP3    H139471   4.607   7.594  19.841
 5092TIP3    H239472   4.743   7.682  19.874
 5093TIP3   OH239473   4.239   6.923  19.434
 5093TIP3    H139474   4.224   7.021  19.469
 5093TIP3    H239475   4.140   6.891  19.414
 5094TIP3   OH239476   4.322   7.197  19.643
 5094TIP3    H139477   4.367   7.113  19.689
 5094TIP3    H239478   4.399   7.271  19.641
 5095TIP3   OH239479   5.429   8.122  19.763
 5095TIP3    H139480   5.502   8.067  19.712
 5095TIP3    H239481   5.385   8.038  19.809
 5096TIP3   OH239482   5.189   7.578  19.950
 5096TIP3    H139483   5.148   7.480  19.926
 5096TIP3    H239484   5.279   7.549  19.995
 5097TIP3   OH239485   5.525   6.870  19.975
 5097TIP3    H139486   5.537   6.765  19.956
 5097TIP3    H239487   5.509   6.904  19.884
 5098TIP3   OH239488   4.767   6.658  19.684
 5098TIP3    H139489   4.778   6.733  19.613
 5098TIP3    H239490   4.714   6.584  19.634
 5099TIP3   OH239491   5.580   6.675  19.519
 5099TIP3    H139492   5.639   6.637  19.596
 5099TIP3    H239493   5.649   6.749  19.488
 5100TIP3   OH239494   4.388   6.906  19.746
 5100TIP3    H139495   4.457   6.843  19.794
 5100TIP3    H239496   4.396   6.861  19.656
 5101TIP3   OH239497   4.896   7.063  19.678
 5101TIP3    H139498   4.986   7.022  19.718
 5101TIP3    H239499   4.864   6.988  19.615
 5102TIP3   OH239500   5.385   7.592  19.409
 5102TIP3    H139501   5.365   7.587  19.313
 5102TIP3    H239502   5.385   7.699  19.421
 5103TIP3   OH239503   5.781   6.626  19.704
 5103TIP3    H139504   5.721   6.600  19.783
 5103TIP3    H239505   5.877   6.598  19.736
 5104TIP3   OH239506   4.628   6.780  19.899
 5104TIP3    H139507   4.659   6.883  19.887
 5104TIP3    H239508   4.664   6.735  19.816
 5105TIP3   OH239509   4.302   7.525  19.259
 5105TIP3    H139510   4.301   7.592  19.182
 5105TIP3    H239511   4.331   7.590  19.332
 5106TIP3   OH239512   5.793   7.708  19.876
 5106TIP3    H139513   5.772   7.671  19.967
 5106TIP3    H239514   5.849   7.797  19.893
 5107TIP3   OH239515   5.059   6.267  19.800
 5107TIP3    H139516   5.079   6.163  19.813
 5107TIP3    H239517   4.957   6.277  19.832
 5108TIP3   OH239518   5.604   7.964  19.621
 5108TIP3    H139519   5.617   7.861  19.598
 5108TIP3    H239520   5.690   8.005  19.573
 5109TIP3   OH239521   5.734   7.703  19.495
 5109TIP3    H139522   5.721   7.642  19.416
 5109TIP3    H239523   5.728   7.628  19.567
 5110TIP3   OH239524   5.304   7.217  19.262
 5110TIP3    H139525   5.255   7.312  19.249
 5110TIP3    H239526   5.404   7.238  19.229
 5111TIP3   OH239527   5.352   7.105  18.967
 5111TIP3    H139528   5.416   7.142  19.038
 5111TIP3    H239529   5.374   6.999  18.971
 5112TIP3   OH239530   5.742   7.227  19.378
 5112TIP3    H139531   5.661   7.262  19.434
 5112TIP3    H239532   5.807   7.179  19.443
 5113TIP3   OH239533   4.751   7.308  19.580
 5113TIP3    H139534   4.735   7.258  19.496
 5113TIP3    H239535   4.812   7.236  19.629
 5114TIP3   OH239536   4.935   7.696  19.843
 5114TIP3    H139537   4.939   7.652  19.754
 5114TIP3    H239538   5.010   7.636  19.889
 5115TIP3   OH239539   4.765   7.068  19.921
 5115TIP3    H139540   4.822   7.075  19.838
 5115TIP3    H239541   4.797   7.158  19.963
 5116TIP3   OH239542   5.569   7.197  19.154
 5116TIP3    H139543   5.634   7.207  19.232
 5116TIP3    H239544   5.634   7.228  19.079
 5117TIP3   OH239545   5.345   7.910  19.439
 5117TIP3    H139546   5.368   7.928  19.532
 5117TIP3    H239547   5.273   7.987  19.420
 5118TIP3   OH239548   6.006   6.223  19.177
 5118TIP3    H139549   5.900   6.243  19.185
 5118TIP3    H239550   6.047   6.319  19.155
 5119TIP3   OH239551   4.617   7.185  19.342
 5119TIP3    H139552   4.609   7.282  19.299
 5119TIP3    H239553   4.588   7.120  19.270
 5120TIP3   OH239554   6.117   7.802  19.001
 5120TIP3    H139555   6.159   7.902  18.998
 5120TIP3    H239556   6.206   7.744  19.014
 5121TIP3   OH239557   4.247   7.776  19.854
 5121TIP3    H139558   4.349   7.748  19.859
 5121TIP3    H239559   4.243   7.869  19.900
 5122TIP3   OH239560   5.298   8.239  19.327
 5122TIP3    H139561   5.301   8.235  19.229
 5122TIP3    H239562   5.255   8.335  19.342
 5123TIP3   OH239563   4.601   8.032  19.493
 5123TIP3    H139564   4.624   8.043  19.589
 5123TIP3    H239565   4.533   7.949  19.497
 5124TIP3   OH239566   5.615   8.108  19.060
 5124TIP3    H139567   5.689   8.041  19.024
 5124TIP3    H239568   5.618   8.085  19.156
 5125TIP3   OH239569   5.563   8.104  19.319
 5125TIP3    H139570   5.465   8.142  19.340
 5125TIP3    H239571   5.567   8.014  19.371
 5126TIP3   OH239572   4.787   6.407  19.872
 5126TIP3    H139573   4.694   6.411  19.824
 5126TIP3    H239574   4.795   6.507  19.910
 5127TIP3   OH239575   5.746   7.299  18.966
 5127TIP3    H139576   5.732   7.318  18.871
 5127TIP3    H239577   5.851   7.319  18.976
 5128TIP3   OH239578   5.273   6.610  18.982
 5128TIP3    H139579   5.231   6.596  19.069
 5128TIP3    H239580   5.213   6.541  18.933
 5129TIP3   OH239581   4.755   6.871  19.498
 5129TIP3    H139582   4.654   6.849  19.474
 5129TIP3    H239583   4.809   6.862  19.413
 5130TIP3   OH239584   5.394   6.996  19.400
 5130TIP3    H139585   5.361   7.082  19.345
 5130TIP3    H239586   5.466   6.956  19.338
 5131TIP3   OH239587   5.497   6.927  19.697
 5131TIP3    H139588   5.464   7.009  19.642
 5131TIP3    H239589   5.498   6.849  19.629
 5132TIP3   OH239590   4.880   6.640  18.905
 5132TIP3    H139591   4.821   6.595  18.977
 5132TIP3    H239592   4.805   6.688  18.851
 5133TIP3   OH239593   4.155   6.618  19.624
 5133TIP3    H139594   4.224   6.620  19.699
 5133TIP3    H239595   4.216   6.644  19.550
 5134TIP3   OH239596   4.278   6.674  19.129
 5134TIP3    H139597   4.353   6.721  19.074
 5134TIP3    H239598   4.205   6.754  19.134
 5135TIP3   OH239599   5.097   6.620  19.578
 5135TIP3    H139600   5.010   6.629  19.634
 5135TIP3    H239601   5.171   6.593  19.646
 5136TIP3   OH239602   4.434   6.747  19.530
 5136TIP3    H139603   4.379   6.795  19.457
 5136TIP3    H239604   4.486   6.665  19.486
 5137TIP3   OH239605   4.890   6.839  19.269
 5137TIP3    H139606   4.990   6.839  19.235
 5137TIP3    H239607   4.836   6.891  19.199
 5138TIP3   OH239608   5.564   6.592  19.892
 5138TIP3    H139609   5.552   6.543  19.978
 5138TIP3    H239610   5.465   6.584  19.856
 5139TIP3   OH239611   4.760   6.959  19.033
 5139TIP3    H139612   4.725   6.901  18.957
 5139TIP3    H239613   4.849   6.997  18.990
 5140TIP3   OH239614   5.160   6.917  19.794
 5140TIP3    H139615   5.258   6.920  19.754
 5140TIP3    H239616   5.179   6.885  19.884
 5141TIP3   OH239617   4.589   6.522  19.461
 5141TIP3    H139618   4.536   6.442  19.508
 5141TIP3    H239619   4.651   6.467  19.403
 5142TIP3   OH239620   5.134   7.451  19.245
 5142TIP3    H139621   5.049   7.402  19.205
 5142TIP3    H239622   5.088   7.482  19.330
 5143TIP3   OH239623   5.545   6.647  19.077
 5143TIP3    H139624   5.451   6.666  19.033
 5143TIP3    H239625   5.576   6.747  19.099
 5144TIP3   OH239626   5.612   6.903  19.182
 5144TIP3    H139627   5.688   6.868  19.242
 5144TIP3    H239628   5.653   6.996  19.150
 5145TIP3   OH239629   4.566   7.410  19.799
 5145TIP3    H139630   4.607   7.388  19.711
 5145TIP3    H239631   4.645   7.379  19.857
 5146TIP3   OH239632   5.345   7.612  19.139
 5146TIP3    H139633   5.284   7.701  19.140
 5146TIP3    H239634   5.272   7.537  19.168
 5147TIP3   OH239635   6.130   6.873  19.194
 5147TIP3    H139636   6.089   6.868  19.103
 5147TIP3    H239637   6.171   6.973  19.193
 5148TIP3   OH239638   5.954   7.840  19.225
 5148TIP3    H139639   5.918   7.750  19.262
 5148TIP3    H239640   6.009   7.808  19.145
 5149TIP3   OH239641   5.652   7.292  19.883
 5149TIP3    H139642   5.547   7.267  19.868
 5149TIP3    H239643   5.702   7.213  19.833
 5150TIP3   OH239644   4.832   7.768  19.544
 5150TIP3    H139645   4.885   7.862  19.552
 5150TIP3    H239646   4.757   7.794  19.479
 5151TIP3   OH239647   4.429   7.225  18.997
 5151TIP3    H139648   4.476   7.290  19.063
 5151TIP3    H239649   4.324   7.235  19.017
 5152TIP3   OH239650   4.961   7.491  19.451
 5152TIP3    H139651   4.916   7.577  19.494
 5152TIP3    H239652   4.965   7.422  19.525
 5153TIP3   OH239653   4.892   8.048  19.418
 5153TIP3    H139654   4.785   8.052  19.434
 5153TIP3    H239655   4.929   8.132  19.471
 5154TIP3   OH239656   5.720   7.644  19.011
 5154TIP3    H139657   5.739   7.591  19.094
 5154TIP3    H239658   5.614   7.635  19.007
 5155TIP3   OH239659   6.200   8.092  19.017
 5155TIP3    H139660   6.268   8.173  19.021
 5155TIP3    H239661   6.105   8.141  19.038
 5156TIP3   OH239662   5.793   7.490  19.238
 5156TIP3    H139663   5.764   7.396  19.279
 5156TIP3    H239664   5.898   7.473  19.229
 5157TIP3   OH239665   5.063   7.765  18.876
 5157TIP3    H139666   5.034   7.703  18.802
 5157TIP3    H239667   4.986   7.743  18.941
 5158TIP3   OH239668   4.903   7.699  19.116
 5158TIP3    H139669   4.989   7.654  19.156
 5158TIP3    H239670   4.920   7.802  19.141
 5159TIP3   OH239671   4.561   7.413  19.167
 5159TIP3    H139672   4.463   7.446  19.195
 5159TIP3    H239673   4.600   7.499  19.122
 5160TIP3   OH239674   5.485   6.515  19.306
 5160TIP3    H139675   5.514   6.573  19.227
 5160TIP3    H239676   5.530   6.568  19.380
 5161TIP3   OH239677   5.201   7.859  19.172
 5161TIP3    H139678   5.109   7.913  19.191
 5161TIP3    H239679   5.271   7.940  19.174
 5162TIP3   OH239680   5.200   6.751  19.347
 5162TIP3    H139681   5.239   6.849  19.366
 5162TIP3    H239682   5.159   6.719  19.434
 5163TIP3   OH239683   5.248   6.399  19.419
 5163TIP3    H139684   5.217   6.478  19.479
 5163TIP3    H239685   5.334   6.445  19.377
 5164TIP3   OH239686   4.937   7.985  19.162
 5164TIP3    H139687   4.924   8.070  19.102
 5164TIP3    H239688   4.908   8.022  19.251
 5165TIP3   OH239689   4.765   6.544  19.140
 5165TIP3    H139690   4.762   6.636  19.188
 5165TIP3    H239691   4.866   6.512  19.159
 5166TIP3   OH239692   5.766   7.064  19.744
 5166TIP3    H139693   5.677   7.006  19.758
 5166TIP3    H239694   5.839   7.008  19.797
 5167TIP3   OH239695   4.590   7.673  19.013
 5167TIP3    H139696   4.660   7.725  19.070
 5167TIP3    H239697   4.660   7.621  18.955
 5168TIP3   OH239698   4.410   6.901  18.977
 5168TIP3    H139699   4.463   6.994  18.990
 5168TIP3    H239700   4.331   6.927  18.918
 5169TIP3   OH239701   5.916   8.092  19.931
 5169TIP3    H139702   5.939   8.151  19.852
 5169TIP3    H239703   6.007   8.096  19.980
 5170TIP3   OH239704   4.520   6.353  19.781
 5170TIP3    H139705   4.503   6.317  19.690
 5170TIP3    H239706   4.513   6.260  19.831
 5171TIP3   OH239707   4.374   7.823  19.435
 5171TIP3    H139708   4.291   7.871  19.479
 5171TIP3    H239709   4.370   7.868  19.347
 5172TIP3   OH239710   5.282   7.984  18.866
 5172TIP3    H139711   5.229   7.893  18.889
 5172TIP3    H239712   5.368   7.946  18.818
 5173TIP3   OH239713   5.798   7.935  18.922
 5173TIP3    H139714   5.815   7.838  18.958
 5173TIP3    H239715   5.871   7.944  18.850
 5174TIP3   OH239716   4.783   7.490  18.862
 5174TIP3    H139717   4.814   7.448  18.947
 5174TIP3    H239718   4.873   7.473  18.810
 5175TIP3   OH239719   5.398   7.621  18.854
 5175TIP3    H139720   5.344   7.625  18.938
 5175TIP3    H239721   5.392   7.514  18.835
 5176TIP3   OH239722   4.905   7.288  19.114
 5176TIP3    H139723   4.846   7.218  19.164
 5176TIP3    H239724   4.954   7.224  19.048
 5177TIP3   OH239725   5.039   7.101  18.919
 5177TIP3    H139726   5.040   7.131  18.825
 5177TIP3    H239727   5.146   7.094  18.936
 5178TIP3   OH239728   6.057   7.332  18.862
 5178TIP3    H139729   6.028   7.293  18.774
 5178TIP3    H239730   6.041   7.438  18.851
 5179TIP3   OH239731   4.995   8.239  19.029
 5179TIP3    H139732   5.078   8.295  19.060
 5179TIP3    H239733   4.942   8.307  18.973
 5180TIP3   OH239734   4.292   7.634  18.999
 5180TIP3    H139735   4.399   7.648  18.993
 5180TIP3    H239736   4.273   7.580  18.916
 5181TIP3   OH239737   4.161   8.260  19.458
 5181TIP3    H139738   4.079   8.212  19.413
 5181TIP3    H239739   4.156   8.208  19.543
 5182TIP3   OH239740   4.225   8.037  19.662
 5182TIP3    H139741   4.189   7.939  19.685
 5182TIP3    H239742   4.292   8.056  19.736
 5183TIP3   OH239743   6.087   7.434  19.233
 5183TIP3    H139744   6.185   7.477  19.250
 5183TIP3    H239745   6.081   7.363  19.307
 5184TIP3   OH239746   6.119   7.247  19.454
 5184TIP3    H139747   6.047   7.180  19.494
 5184TIP3    H239748   6.192   7.253  19.525
 5185TIP3   OH239749   6.128   7.551  19.951
 5185TIP3    H139750   6.200   7.480  19.918
 5185TIP3    H239751   6.130   7.627  19.884
 5186TIP3   OH239752   6.203   7.200  19.078
 5186TIP3    H139753   6.132   7.218  19.006
 5186TIP3    H239754   6.184   7.284  19.136
 5187TIP3   OH239755   6.002   6.900  18.919
 5187TIP3    H139756   6.012   6.960  18.839
 5187TIP3    H239757   5.971   6.806  18.882
 5188TIP3   OH239758   5.918   7.029  19.512
 5188TIP3    H139759   5.885   6.941  19.464
 5188TIP3    H239760   5.873   7.020  19.602
 5189TIP3   OH239761   4.246   7.318  19.879
 5189TIP3    H139762   4.277   7.274  19.794
 5189TIP3    H239763   4.325   7.291  19.939
 5190TIP3   OH239764   5.917   6.610  18.851
 5190TIP3    H139765   5.966   6.564  18.926
 5190TIP3    H239766   5.820   6.567  18.854
 5191TIP3   OH239767   5.852   6.800  19.349
 5191TIP3    H139768   5.867   6.695  19.368
 5191TIP3    H239769   5.944   6.820  19.303
 5192TIP3   OH239770   5.949   6.879  19.858
 5192TIP3    H139771   6.054   6.855  19.858
 5192TIP3    H239772   5.912   6.788  19.897
 5193TIP3   OH239773   5.950   6.512  19.360
 5193TIP3    H139774   5.982   6.464  19.442
 5193TIP3    H239775   5.884   6.437  19.322
 5194TIP3   OH239776   4.339   6.581  19.859
 5194TIP3    H139777   4.396   6.496  19.828
 5194TIP3    H239778   4.407   6.626  19.923
 5195TIP3   OH239779   4.157   6.898  19.939
 5195TIP3    H139780   4.219   6.852  19.871
 5195TIP3    H239781   4.193   6.997  19.933
 5196TIP3   OH239782   6.122   6.488  19.035
 5196TIP3    H139783   6.174   6.433  18.966
 5196TIP3    H239784   6.195   6.563  19.059
 5197TIP3   OH239785   4.177   6.486  19.312
 5197TIP3    H139786   4.074   6.516  19.319
 5197TIP3    H239787   4.216   6.559  19.252
 5198TIP3   OH239788   5.817   8.117  19.497
 5198TIP3    H139789   5.906   8.106  19.442
 5198TIP3    H239790   5.844   8.192  19.561
 5199TIP3   OH239791   4.422   8.056  19.872
 5199TIP3    H139792   4.468   8.116  19.942
 5199TIP3    H239793   4.510   8.016  19.827
 5200TIP3   OH239794   4.659   7.965  19.746
 5200TIP3    H139795   4.664   7.859  19.767
 5200TIP3    H239796   4.754   7.994  19.783
 5201TIP3   OH239797   4.921   7.985  19.845
 5201TIP3    H139798   4.944   7.879  19.848
 5201TIP3    H239799   4.924   8.014  19.939
 5202TIP3   OH239800   5.310   6.478  19.764
 5202TIP3    H139801   5.231   6.415  19.796
 5202TIP3    H239802   5.389   6.406  19.771
 5203TIP3   OH239803   5.903   6.278  19.772
 5203TIP3    H139804   5.965   6.322  19.702
 5203TIP3    H239805   5.804   6.312  19.748
 5204TIP3   OH239806   6.078   6.367  19.575
 5204TIP3    H139807   6.152   6.311  19.527
 5204TIP3    H239808   6.130   6.460  19.589
 5205TIP3   OH239809   4.464   6.266  19.532
 5205TIP3    H139810   4.370   6.243  19.488
 5205TIP3    H239811   4.513   6.170  19.521
 5206TIP3   OH239812   4.347   6.269  19.135
 5206TIP3    H139813   4.380   6.339  19.067
 5206TIP3    H239814   4.283   6.331  19.189
 5207TIP3   OH239815   4.946   6.234  19.539
 5207TIP3    H139816   5.030   6.267  19.488
 5207TIP3    H239817   4.976   6.260  19.629
 5208TIP3   OH239818   5.626   6.306  19.676
 5208TIP3    H139819   5.586   6.334  19.590
 5208TIP3    H239820   5.573   6.217  19.699
 5209TIP3   OH239821   5.744   6.301  19.295
 5209TIP3    H139822   5.642   6.331  19.280
 5209TIP3    H239823   5.728   6.203  19.333
 5210TIP3   OH239824   4.324   8.014  19.227
 5210TIP3    H139825   4.221   8.023  19.200
 5210TIP3    H239826   4.365   8.095  19.175
 5211TIP3   OH239827   4.488   6.497  18.986
 5211TIP3    H139828   4.564   6.441  18.940
 5211TIP3    H239829   4.540   6.527  19.067
 5212TIP3   OH239830   5.091   6.530  19.190
 5212TIP3    H139831   5.126   6.459  19.255
 5212TIP3    H239832   5.117   6.621  19.237
 5213TIP3   OH239833   5.327   8.190  19.066
 5213TIP3    H139834   5.429   8.161  19.042
 5213TIP3    H239835   5.273   8.135  18.998
 5214TIP3   OH239836   6.047   8.090  19.325
 5214TIP3    H139837   6.013   7.997  19.286
 5214TIP3    H239838   6.024   8.160  19.253
 5215TIP3   OH239839   4.521   8.140  18.923
 5215TIP3    H139840   4.463   8.169  19.001
 5215TIP3    H239841   4.585   8.066  18.962
 5216TIP3   OH239842   7.561   7.306  19.523
 5216TIP3    H139843   7.554   7.411  19.543
 5216TIP3    H239844   7.471   7.288  19.476
 5217TIP3   OH239845   7.415   7.193  19.857
 5217TIP3    H139846   7.418   7.154  19.949
 5217TIP3    H239847   7.346   7.127  19.813
 5218TIP3   OH239848   7.765   7.517  19.699
 5218TIP3    H139849   7.715   7.446  19.758
 5218TIP3    H239850   7.795   7.591  19.764
 5219TIP3   OH239851   6.688   7.678  19.868
 5219TIP3    H139852   6.655   7.579  19.843
 5219TIP3    H239853   6.794   7.663  19.860
 5220TIP3   OH239854   6.328   6.909  19.446
 5220TIP3    H139855   6.317   7.011  19.471
 5220TIP3    H239856   6.230   6.886  19.413
 5221TIP3   OH239857   6.403   7.208  19.647
 5221TIP3    H139858   6.450   7.126  19.693
 5221TIP3    H239859   6.484   7.275  19.629
 5222TIP3   OH239860   7.497   8.113  19.775
 5222TIP3    H139861   7.564   8.054  19.722
 5222TIP3    H239862   7.457   8.033  19.829
 5223TIP3   OH239863   7.276   7.525  19.976
 5223TIP3    H139864   7.316   7.466  19.904
 5223TIP3    H239865   7.340   7.497  20.049
 5224TIP3   OH239866   7.591   6.882  19.974
 5224TIP3    H139867   7.612   6.778  19.990
 5224TIP3    H239868   7.574   6.884  19.878
 5225TIP3   OH239869   6.867   6.641  19.695
 5225TIP3    H139870   6.875   6.729  19.639
 5225TIP3    H239871   6.813   6.577  19.635
 5226TIP3   OH239872   7.659   6.699  19.527
 5226TIP3    H139873   7.718   6.645  19.594
 5226TIP3    H239874   7.739   6.757  19.488
 5227TIP3   OH239875   6.453   6.916  19.747
 5227TIP3    H139876   6.523   6.861  19.801
 5227TIP3    H239877   6.477   6.879  19.657
 5228TIP3   OH239878   6.999   7.082  19.694
 5228TIP3    H139879   7.083   7.022  19.721
 5228TIP3    H239880   6.944   7.010  19.640
 5229TIP3   OH239881   7.464   7.583  19.417
 5229TIP3    H139882   7.431   7.576  19.324
 5229TIP3    H239883   7.450   7.688  19.433
 5230TIP3   OH239884   7.847   6.610  19.706
 5230TIP3    H139885   7.796   6.586  19.790
 5230TIP3    H239886   7.950   6.597  19.729
 5231TIP3   OH239887   6.670   6.763  19.872
 5231TIP3    H139888   6.714   6.860  19.884
 5231TIP3    H239889   6.732   6.720  19.801
 5232TIP3   OH239890   6.375   7.525  19.254
 5232TIP3    H139891   6.377   7.587  19.173
 5232TIP3    H239892   6.397   7.597  19.323
 5233TIP3   OH239893   7.891   7.729  19.877
 5233TIP3    H139894   7.821   7.685  19.940
 5233TIP3    H239895   7.876   7.833  19.895
 5234TIP3   OH239896   7.156   6.282  19.804
 5234TIP3    H139897   7.156   6.175  19.813
 5234TIP3    H239898   7.059   6.312  19.838
 5235TIP3   OH239899   7.656   7.951  19.613
 5235TIP3    H139900   7.688   7.856  19.577
 5235TIP3    H239901   7.743   8.009  19.587
 5236TIP3   OH239902   7.816   7.697  19.487
 5236TIP3    H139903   7.790   7.614  19.430
 5236TIP3    H239904   7.829   7.641  19.570
 5237TIP3   OH239905   7.376   7.210  19.260
 5237TIP3    H139906   7.312   7.297  19.256
 5237TIP3    H239907   7.462   7.248  19.213
 5238TIP3   OH239908   7.435   7.106  18.962
 5238TIP3    H139909   7.509   7.160  19.014
 5238TIP3    H239910   7.431   7.018  19.016
 5239TIP3   OH239911   7.796   7.227  19.364
 5239TIP3    H139912   7.721   7.252  19.431
 5239TIP3    H239913   7.861   7.164  19.419
 5240TIP3   OH239914   6.851   7.295  19.560
 5240TIP3    H139915   6.811   7.249  19.479
 5240TIP3    H239916   6.923   7.223  19.591
 5241TIP3   OH239917   6.992   7.693  19.841
 5241TIP3    H139918   6.987   7.677  19.745
 5241TIP3    H239919   7.075   7.635  19.869
 5242TIP3   OH239920   6.826   7.085  19.911
 5242TIP3    H139921   6.893   7.099  19.834
 5242TIP3    H239922   6.843   7.175  19.961
 5243TIP3   OH239923   7.637   7.187  19.142
 5243TIP3    H139924   7.688   7.202  19.228
 5243TIP3    H239925   7.710   7.233  19.080
 5244TIP3   OH239926   7.407   7.871  19.458
 5244TIP3    H139927   7.454   7.896  19.543
 5244TIP3    H239928   7.349   7.956  19.438
 5245TIP3   OH239929   8.051   6.232  19.149
 5245TIP3    H139930   7.944   6.241  19.158
 5245TIP3    H239931   8.084   6.334  19.146
 5246TIP3   OH239932   6.689   7.186  19.339
 5246TIP3    H139933   6.674   7.281  19.293
 5246TIP3    H239934   6.656   7.118  19.272
 5247TIP3   OH239935   8.203   7.834  18.968
 5247TIP3    H139936   8.228   7.937  18.987
 5247TIP3    H239937   8.301   7.795  18.979
 5248TIP3   OH239938   6.325   7.773  19.851
 5248TIP3    H139939   6.428   7.750  19.859
 5248TIP3    H239940   6.315   7.866  19.898
 5249TIP3   OH239941   7.379   8.235  19.331
 5249TIP3    H139942   7.380   8.227  19.233
 5249TIP3    H239943   7.335   8.330  19.343
 5250TIP3   OH239944   6.670   8.031  19.500
 5250TIP3    H139945   6.700   8.043  19.594
 5250TIP3    H239946   6.598   7.952  19.510
 5251TIP3   OH239947   7.682   8.115  19.060
 5251TIP3    H139948   7.757   8.047  19.022
 5251TIP3    H239949   7.682   8.080  19.153
 5252TIP3   OH239950   7.633   8.086  19.320
 5252TIP3    H139951   7.538   8.133  19.339
 5252TIP3    H239952   7.628   7.997  19.374
 5253TIP3   OH239953   6.863   6.398  19.885
 5253TIP3    H139954   6.785   6.371  19.821
 5253TIP3    H239955   6.820   6.486  19.920
 5254TIP3   OH239956   7.808   7.310  18.969
 5254TIP3    H139957   7.780   7.322  18.875
 5254TIP3    H239958   7.913   7.332  18.964
 5255TIP3   OH239959   7.343   6.629  18.980
 5255TIP3    H139960   7.291   6.612  19.065
 5255TIP3    H239961   7.284   6.562  18.926
 5256TIP3   OH239962   6.868   6.881  19.540
 5256TIP3    H139963   6.762   6.863  19.527
 5256TIP3    H239964   6.905   6.873  19.447
 5257TIP3   OH239965   7.502   7.006  19.400
 5257TIP3    H139966   7.451   7.076  19.339
 5257TIP3    H239967   7.558   6.951  19.334
 5258TIP3   OH239968   7.530   6.928  19.681
 5258TIP3    H139969   7.526   6.999  19.608
 5258TIP3    H239970   7.568   6.843  19.631
 5259TIP3   OH239971   6.948   6.657  18.927
 5259TIP3    H139972   6.895   6.592  18.988
 5259TIP3    H239973   6.871   6.685  18.863
 5260TIP3   OH239974   6.232   6.619  19.615
 5260TIP3    H139975   6.299   6.624  19.691
 5260TIP3    H239976   6.293   6.644  19.540
 5261TIP3   OH239977   6.346   6.676  19.109
 5261TIP3    H139978   6.426   6.709  19.051
 5261TIP3    H239979   6.292   6.768  19.122
 5262TIP3   OH239980   7.197   6.637  19.601
 5262TIP3    H139981   7.108   6.641  19.653
 5262TIP3    H239982   7.261   6.580  19.660
 5263TIP3   OH239983   6.576   6.798  19.532
 5263TIP3    H139984   6.491   6.832  19.478
 5263TIP3    H239985   6.593   6.699  19.497
 5264TIP3   OH239986   6.954   6.843  19.290
 5264TIP3    H139987   7.050   6.844  19.249
 5264TIP3    H239988   6.900   6.906  19.230
 5265TIP3   OH239989   7.646   6.582  19.897
 5265TIP3    H139990   7.628   6.549  19.987
 5265TIP3    H239991   7.546   6.590  19.866
 5266TIP3   OH239992   6.816   6.967  19.035
 5266TIP3    H139993   6.783   6.891  18.973
 5266TIP3    H239994   6.908   6.993  18.992
 5267TIP3   OH239995   7.261   6.920  19.815
 5267TIP3    H139996   7.347   6.895  19.760
 5267TIP3    H239997   7.270   6.856  19.893
 5268TIP3   OH239998   6.675   6.536  19.478
 5268TIP3    H139999   6.612   6.449  19.497
 5268TIP3    H240000   6.732   6.502  19.403
 5269TIP3   OH240001   7.206   7.453  19.232
 5269TIP3    H140002   7.122   7.398  19.195
 5269TIP3    H240003   7.159   7.489  19.315
 5270TIP3   OH240004   7.616   6.647  19.061
 5270TIP3    H140005   7.514   6.666  19.031
 5270TIP3    H240006   7.652   6.745  19.086
 5271TIP3   OH240007   7.724   6.894  19.181
 5271TIP3    H140008   7.809   6.881  19.241
 5271TIP3    H240009   7.740   6.990  19.143
 5272TIP3   OH240010   6.636   7.399  19.790
 5272TIP3    H140011   6.679   7.390  19.701
 5272TIP3    H240012   6.703   7.340  19.843
 5273TIP3   OH240013   7.425   7.608  19.142
 5273TIP3    H140014   7.362   7.697  19.152
 5273TIP3    H240015   7.355   7.530  19.164
 5274TIP3   OH240016   8.176   6.888  19.193
 5274TIP3    H140017   8.147   6.849  19.106
 5274TIP3    H240018   8.199   6.989  19.163
 5275TIP3   OH240019   8.033   7.846  19.220
 5275TIP3    H140020   7.973   7.766  19.254
 5275TIP3    H240021   8.090   7.797  19.151
 5276TIP3   OH240022   7.673   7.327  19.879
 5276TIP3    H140023   7.572   7.288  19.863
 5276TIP3    H240024   7.725   7.260  19.817
 5277TIP3   OH240025   6.903   7.760  19.554
 5277TIP3    H140026   6.959   7.853  19.547
 5277TIP3    H240027   6.820   7.781  19.496
 5278TIP3   OH240028   6.505   7.226  19.017
 5278TIP3    H140029   6.548   7.290  19.085
 5278TIP3    H240030   6.398   7.231  19.030
 5279TIP3   OH240031   7.047   7.501  19.451
 5279TIP3    H140032   7.005   7.589  19.492
 5279TIP3    H240033   7.004   7.424  19.507
 5280TIP3   OH240034   6.963   8.032  19.428
 5280TIP3    H140035   6.857   8.044  19.441
 5280TIP3    H240036   7.002   8.120  19.475
 5281TIP3   OH240037   7.792   7.659  19.028
 5281TIP3    H140038   7.810   7.593  19.105
 5281TIP3    H240039   7.689   7.641  19.012
 5282TIP3   OH240040   8.309   8.096  19.061
 5282TIP3    H140041   8.348   8.179  19.010
 5282TIP3    H240042   8.206   8.124  19.066
 5283TIP3   OH240043   7.893   7.491  19.235
 5283TIP3    H140044   7.857   7.393  19.261
 5283TIP3    H240045   7.998   7.473  19.223
 5284TIP3   OH240046   7.138   7.775  18.865
 5284TIP3    H140047   7.126   7.699  18.799
 5284TIP3    H240048   7.063   7.748  18.932
 5285TIP3   OH240049   6.986   7.710  19.109
 5285TIP3    H140050   7.071   7.663  19.148
 5285TIP3    H240051   7.000   7.811  19.144
 5286TIP3   OH240052   6.645   7.414  19.175
 5286TIP3    H140053   6.549   7.455  19.196
 5286TIP3    H240054   6.695   7.497  19.130
 5287TIP3   OH240055   7.551   6.555  19.311
 5287TIP3    H140056   7.561   6.599  19.222
 5287TIP3    H240057   7.590   6.631  19.371
 5288TIP3   OH240058   7.282   7.856  19.170
 5288TIP3    H140059   7.188   7.910  19.180
 5288TIP3    H240060   7.351   7.935  19.166
 5289TIP3   OH240061   7.306   6.785  19.395
 5289TIP3    H140062   7.361   6.875  19.419
 5289TIP3    H240063   7.290   6.738  19.482
 5290TIP3   OH240064   7.321   6.412  19.410
 5290TIP3    H140065   7.285   6.479  19.479
 5290TIP3    H240066   7.410   6.466  19.379
 5291TIP3   OH240067   7.027   7.991  19.168
 5291TIP3    H140068   7.031   8.078  19.109
 5291TIP3    H240069   6.992   8.029  19.255
 5292TIP3   OH240070   6.804   6.569  19.164
 5292TIP3    H140071   6.845   6.653  19.212
 5292TIP3    H240072   6.888   6.504  19.158
 5293TIP3   OH240073   7.779   7.099  19.736
 5293TIP3    H140074   7.697   7.031  19.730
 5293TIP3    H240075   7.847   7.044  19.793
 5294TIP3   OH240076   6.667   7.669  19.015
 5294TIP3    H140077   6.735   7.729  19.069
 5294TIP3    H240078   6.740   7.616  18.960
 5295TIP3   OH240079   6.483   6.894  18.955
 5295TIP3    H140080   6.527   6.985  18.984
 5295TIP3    H240081   6.406   6.930  18.897
 5296TIP3   OH240082   7.999   8.054  19.939
 5296TIP3    H140083   7.983   8.129  19.870
 5296TIP3    H240084   8.096   8.084  19.969
 5297TIP3   OH240085   6.603   6.347  19.771
 5297TIP3    H140086   6.577   6.304  19.684
 5297TIP3    H240087   6.582   6.265  19.831
 5298TIP3   OH240088   6.438   7.826  19.422
 5298TIP3    H140089   6.354   7.879  19.458
 5298TIP3    H240090   6.445   7.879  19.337
 5299TIP3   OH240091   7.359   7.982  18.874
 5299TIP3    H140092   7.299   7.891  18.882
 5299TIP3    H240093   7.449   7.944  18.831
 5300TIP3   OH240094   7.867   7.939  18.928
 5300TIP3    H140095   7.882   7.842  18.969
 5300TIP3    H240096   7.946   7.945  18.864
 5301TIP3   OH240097   6.851   7.492  18.865
 5301TIP3    H140098   6.854   7.404  18.920
 5301TIP3    H240099   6.949   7.488  18.825
 5302TIP3   OH240100   7.464   7.618  18.857
 5302TIP3    H140101   7.423   7.611  18.947
 5302TIP3    H240102   7.453   7.513  18.832
 5303TIP3   OH240103   6.981   7.276  19.126
 5303TIP3    H140104   6.903   7.214  19.157
 5303TIP3    H240105   7.025   7.217  19.055
 5304TIP3   OH240106   7.122   7.102  18.925
 5304TIP3    H140107   7.109   7.107  18.827
 5304TIP3    H240108   7.230   7.104  18.929
 5305TIP3   OH240109   8.090   7.330  18.878
 5305TIP3    H140110   8.075   7.306  18.783
 5305TIP3    H240111   8.129   7.431  18.872
 5306TIP3   OH240112   7.081   8.235  19.028
 5306TIP3    H140113   7.173   8.282  19.051
 5306TIP3    H240114   7.032   8.305  18.971
 5307TIP3   OH240115   6.367   7.633  19.003
 5307TIP3    H140116   6.475   7.644  18.998
 5307TIP3    H240117   6.346   7.583  18.917
 5308TIP3   OH240118   6.238   8.261  19.455
 5308TIP3    H140119   6.152   8.219  19.412
 5308TIP3    H240120   6.230   8.209  19.540
 5309TIP3   OH240121   6.311   8.033  19.656
 5309TIP3    H140122   6.270   7.938  19.681
 5309TIP3    H240123   6.372   8.055  19.734
 5310TIP3   OH240124   8.193   7.443  19.240
 5310TIP3    H140125   8.280   7.497  19.264
 5310TIP3    H240126   8.186   7.372  19.315
 5311TIP3   OH240127   8.204   7.260  19.445
 5311TIP3    H140128   8.111   7.214  19.471
 5311TIP3    H240129   8.258   7.259  19.529
 5312TIP3   OH240130   8.315   7.481  19.846
 5312TIP3    H140131   8.415   7.448  19.870
 5312TIP3    H240132   8.337   7.585  19.828
 5313TIP3   OH240133   8.231   7.183  19.110
 5313TIP3    H140134   8.184   7.209  19.027
 5313TIP3    H240135   8.239   7.279  19.152
 5314TIP3   OH240136   8.048   6.876  18.926
 5314TIP3    H140137   8.074   6.945  18.857
 5314TIP3    H240138   8.026   6.788  18.873
 5315TIP3   OH240139   7.963   7.063  19.520
 5315TIP3    H140140   7.987   6.961  19.536
 5315TIP3    H240141   7.922   7.091  19.607
 5316TIP3   OH240142   6.305   7.312  19.887
 5316TIP3    H140143   6.344   7.276  19.801
 5316TIP3    H240144   6.390   7.295  19.945
 5317TIP3   OH240145   7.978   6.612  18.828
 5317TIP3    H140146   7.984   6.576  18.919
 5317TIP3    H240147   7.878   6.578  18.803
 5318TIP3   OH240148   7.961   6.791  19.355
 5318TIP3    H140149   7.978   6.687  19.370
 5318TIP3    H240150   8.056   6.821  19.320
 5319TIP3   OH240151   7.973   6.909  19.824
 5319TIP3    H140152   8.081   6.900  19.828
 5319TIP3    H240153   7.941   6.827  19.878
 5320TIP3   OH240154   7.984   6.489  19.370
 5320TIP3    H140155   8.001   6.453  19.461
 5320TIP3    H240156   7.919   6.412  19.331
 5321TIP3   OH240157   6.415   6.582  19.856
 5321TIP3    H140158   6.466   6.493  19.826
 5321TIP3    H240159   6.494   6.637  19.898
 5322TIP3   OH240160   6.241   6.898  19.949
 5322TIP3    H140161   6.292   6.855  19.871
 5322TIP3    H240162   6.274   6.999  19.939
 5323TIP3   OH240163   8.224   6.487  19.054
 5323TIP3    H140164   8.253   6.431  18.976
 5323TIP3    H240165   8.240   6.588  19.026
 5324TIP3   OH240166   6.262   6.492  19.312
 5324TIP3    H140167   6.159   6.512  19.324
 5324TIP3    H240168   6.287   6.559  19.240
 5325TIP3   OH240169   7.879   8.113  19.510
 5325TIP3    H140170   7.952   8.116  19.438
 5325TIP3    H240171   7.921   8.186  19.571
 5326TIP3   OH240172   6.499   8.053  19.877
 5326TIP3    H140173   6.550   8.120  19.937
 5326TIP3    H240174   6.581   8.009  19.827
 5327TIP3   OH240175   6.733   7.967  19.749
 5327TIP3    H140176   6.741   7.861  19.763
 5327TIP3    H240177   6.828   7.999  19.787
 5328TIP3   OH240178   6.993   7.989  19.851
 5328TIP3    H140179   7.010   7.883  19.852
 5328TIP3    H240180   6.997   8.016  19.945
 5329TIP3   OH240181   7.379   6.486  19.760
 5329TIP3    H140182   7.317   6.405  19.789
 5329TIP3    H240183   7.471   6.432  19.750
 5330TIP3   OH240184   7.930   6.261  19.806
 5330TIP3    H140185   7.987   6.321  19.743
 5330TIP3    H240186   7.832   6.288  19.776
 5331TIP3   OH240187   8.090   6.392  19.619
 5331TIP3    H140188   8.163   6.324  19.579
 5331TIP3    H240189   8.144   6.486  19.613
 5332TIP3   OH240190   6.534   6.259  19.522
 5332TIP3    H140191   6.434   6.240  19.489
 5332TIP3    H240192   6.577   6.160  19.514
 5333TIP3   OH240193   6.391   6.267  19.127
 5333TIP3    H140194   6.433   6.340  19.065
 5333TIP3    H240195   6.356   6.329  19.200
 5334TIP3   OH240196   7.017   6.246  19.565
 5334TIP3    H140197   7.081   6.270  19.492
 5334TIP3    H240198   7.072   6.282  19.642
 5335TIP3   OH240199   7.654   6.321  19.664
 5335TIP3    H140200   7.649   6.337  19.570
 5335TIP3    H240201   7.601   6.227  19.677
 5336TIP3   OH240202   7.782   6.302  19.285
 5336TIP3    H140203   7.694   6.361  19.295
 5336TIP3    H240204   7.746   6.203  19.306
 5337TIP3   OH240205   6.393   8.014  19.228
 5337TIP3    H140206   6.292   8.022  19.200
 5337TIP3    H240207   6.437   8.093  19.175
 5338TIP3   OH240208   6.570   6.484  18.989
 5338TIP3    H140209   6.643   6.413  18.955
 5338TIP3    H240210   6.620   6.507  19.073
 5339TIP3   OH240211   7.179   6.552  19.189
 5339TIP3    H140212   7.210   6.471  19.246
 5339TIP3    H240213   7.195   6.636  19.246
 5340TIP3   OH240214   7.392   8.188  19.065
 5340TIP3    H140215   7.490   8.163  19.031
 5340TIP3    H240216   7.334   8.128  19.003
 5341TIP3   OH240217   8.100   8.109  19.328
 5341TIP3    H140218   8.082   8.007  19.299
 5341TIP3    H240219   8.104   8.162  19.243
 5342TIP3   OH240220   6.597   8.149  18.918
 5342TIP3    H140221   6.544   8.170  19.000
 5342TIP3    H240222   6.664   8.072  18.946
 5343TIP3   OH240223   8.307   6.985  19.441
 5343TIP3    H140224   8.269   7.080  19.412
 5343TIP3    H240225   8.262   6.920  19.375
 5344TIP3   OH240226   8.307   7.767  19.901
 5344TIP3    H140227   8.416   7.777  19.892
 5344TIP3    H240228   8.276   7.858  19.855
 5345TIP3   OH240229   8.245   6.643  19.580
 5345TIP3    H140230   8.350   6.656  19.599
 5345TIP3    H240231   8.248   6.603  19.489
 5346TIP3   OH240232   8.229   8.221  19.543
 5346TIP3    H140233   8.182   8.176  19.465
 5346TIP3    H240234   8.174   8.176  19.615
 5347TIP3   OH240235   8.313   8.001  19.743
 5347TIP3    H140236   8.331   7.942  19.664
 5347TIP3    H240237   8.406   8.053  19.742
 5348TIP3   OH240238   8.416   7.165  19.898
 5348TIP3    H140239   8.477   7.202  19.823
 5348TIP3    H240240   8.438   7.238  19.967
 5349TIP3   OH240241   8.249   6.925  19.908
 5349TIP3    H140242   8.330   6.865  19.878
 5349TIP3    H240243   8.297   7.021  19.912
 5350TIP3   OH240244   8.270   6.519  19.337
 5350TIP3    H140245   8.163   6.516  19.325
 5350TIP3    H240246   8.304   6.509  19.245
 5351TIP3   OH240247   0.914   8.250  19.886
 5351TIP3    H140248   0.954   8.181  19.821
 5351TIP3    H240249   0.809   8.248  19.863
 5352TIP3   OH240250   1.839   8.252  19.110
 5352TIP3    H140251   1.755   8.249  19.170
 5352TIP3    H240252   1.850   8.360  19.106
 5353TIP3   OH240253   0.629   8.342  19.874
 5353TIP3    H140254   0.551   8.308  19.933
 5353TIP3    H240255   0.641   8.444  19.908
 5354TIP3   OH240256   0.310   8.335  19.813
 5354TIP3    H140257   0.312   8.323  19.715
 5354TIP3    H240258   0.266   8.245  19.845
 5355TIP3   OH240259   1.780   8.288  19.710
 5355TIP3    H140260   1.788   8.389  19.748
 5355TIP3    H240261   1.672   8.284  19.709
 5356TIP3   OH240262   0.294   8.313  19.527
 5356TIP3    H140263   0.208   8.295  19.470
 5356TIP3    H240264   0.353   8.224  19.514
 5357TIP3   OH240265   0.234   8.287  19.110
 5357TIP3    H140266   0.262   8.379  19.067
 5357TIP3    H240267   0.161   8.324  19.173
 5358TIP3   OH240268   0.816   8.272  19.563
 5358TIP3    H140269   0.853   8.349  19.503
 5358TIP3    H240270   0.781   8.336  19.635
 5359TIP3   OH240271   1.484   8.316  19.661
 5359TIP3    H140272   1.399   8.349  19.612
 5359TIP3    H240273   1.439   8.240  19.717
 5360TIP3   OH240274   1.615   8.319  19.271
 5360TIP3    H140275   1.537   8.306  19.206
 5360TIP3    H240276   1.573   8.269  19.349
 5361TIP3   OH240277   2.972   8.254  19.883
 5361TIP3    H140278   3.007   8.188  19.813
 5361TIP3    H240279   2.865   8.265  19.860
 5362TIP3   OH240280   3.905   8.259  19.109
 5362TIP3    H140281   3.821   8.273  19.171
 5362TIP3    H240282   3.930   8.363  19.099
 5363TIP3   OH240283   2.694   8.338  19.868
 5363TIP3    H140284   2.595   8.313  19.900
 5363TIP3    H240285   2.702   8.440  19.902
 5364TIP3   OH240286   2.364   8.328  19.799
 5364TIP3    H140287   2.364   8.309  19.702
 5364TIP3    H240288   2.323   8.237  19.835
 5365TIP3   OH240289   3.862   8.286  19.706
 5365TIP3    H140290   3.874   8.380  19.753
 5365TIP3    H240291   3.755   8.279  19.713
 5366TIP3   OH240292   2.376   8.285  19.511
 5366TIP3    H140293   2.281   8.270  19.466
 5366TIP3    H240294   2.430   8.195  19.484
 5367TIP3   OH240295   2.273   8.276  19.118
 5367TIP3    H140296   2.322   8.372  19.113
 5367TIP3    H240297   2.201   8.306  19.185
 5368TIP3   OH240298   2.893   8.269  19.559
 5368TIP3    H140299   2.906   8.360  19.510
 5368TIP3    H240300   2.827   8.305  19.627
 5369TIP3   OH240301   3.545   8.319  19.646
 5369TIP3    H140302   3.478   8.304  19.573
 5369TIP3    H240303   3.507   8.250  19.711
 5370TIP3   OH240304   3.682   8.331  19.280
 5370TIP3    H140305   3.625   8.312  19.201
 5370TIP3    H240306   3.638   8.261  19.342
 5371TIP3   OH240307   5.050   8.252  19.885
 5371TIP3    H140308   5.085   8.177  19.823
 5371TIP3    H240309   4.942   8.253  19.868
 5372TIP3   OH240310   5.980   8.258  19.110
 5372TIP3    H140311   5.897   8.267  19.173
 5372TIP3    H240312   6.001   8.363  19.103
 5373TIP3   OH240313   4.766   8.342  19.866
 5373TIP3    H140314   4.673   8.316  19.908
 5373TIP3    H240315   4.782   8.441  19.904
 5374TIP3   OH240316   4.431   8.336  19.791
 5374TIP3    H140317   4.440   8.315  19.695
 5374TIP3    H240318   4.406   8.239  19.825
 5375TIP3   OH240319   5.940   8.286  19.711
 5375TIP3    H140320   5.957   8.382  19.754
 5375TIP3    H240321   5.833   8.287  19.711
 5376TIP3   OH240322   4.456   8.284  19.505
 5376TIP3    H140323   4.359   8.261  19.467
 5376TIP3    H240324   4.513   8.196  19.479
 5377TIP3   OH240325   4.352   8.278  19.116
 5377TIP3    H140326   4.404   8.371  19.108
 5377TIP3    H240327   4.281   8.311  19.183
 5378TIP3   OH240328   4.964   8.280  19.564
 5378TIP3    H140329   4.966   8.377  19.520
 5378TIP3    H240330   4.904   8.307  19.640
 5379TIP3   OH240331   5.635   8.323  19.646
 5379TIP3    H140332   5.578   8.305  19.567
 5379TIP3    H240333   5.586   8.258  19.711
 5380TIP3   OH240334   5.760   8.335  19.276
 5380TIP3    H140335   5.699   8.323  19.198
 5380TIP3    H240336   5.710   8.267  19.338
 5381TIP3   OH240337   7.126   8.255  19.884
 5381TIP3    H140338   7.163   8.201  19.808
 5381TIP3    H240339   7.019   8.262  19.865
 5382TIP3   OH240340   8.035   8.242  19.078
 5382TIP3    H140341   7.956   8.243  19.146
 5382TIP3    H240342   8.048   8.349  19.066
 5383TIP3   OH240343   6.843   8.339  19.873
 5383TIP3    H140344   6.751   8.309  19.914
 5383TIP3    H240345   6.853   8.439  19.910
 5384TIP3   OH240346   6.505   8.337  19.790
 5384TIP3    H140347   6.515   8.318  19.694
 5384TIP3    H240348   6.476   8.241  19.824
 5385TIP3   OH240349   7.985   8.262  19.735
 5385TIP3    H140350   8.006   8.349  19.789
 5385TIP3    H240351   7.882   8.280  19.715
 5386TIP3   OH240352   6.530   8.284  19.506
 5386TIP3    H140353   6.434   8.255  19.468
 5386TIP3    H240354   6.588   8.196  19.486
 5387TIP3   OH240355   6.434   8.274  19.127
 5387TIP3    H140356   6.479   8.371  19.117
 5387TIP3    H240357   6.359   8.303  19.192
 5388TIP3   OH240358   7.028   8.275  19.559
 5388TIP3    H140359   7.056   8.369  19.517
 5388TIP3    H240360   6.956   8.315  19.620
 5389TIP3   OH240361   7.685   8.318  19.650
 5389TIP3    H140362   7.618   8.323  19.576
 5389TIP3    H240363   7.634   8.249  19.709
 5390TIP3   OH240364   7.828   8.306  19.269
 5390TIP3    H140365   7.753   8.331  19.205
 5390TIP3    H240366   7.778   8.220  19.310
 5391TIP3   OH240367   1.319   1.096  10.659
 5391TIP3    H140368   1.299   1.201  10.663
 5391TIP3    H240369   1.243   1.060  10.600
 5392TIP3   OH240370   1.225   0.956  10.995
 5392TIP3    H140371   1.200   0.925  11.086
 5392TIP3    H240372   1.151   0.904  10.942
 5393TIP3   OH240373   0.357   0.982  11.158
 5393TIP3    H140374   0.318   0.903  11.212
 5393TIP3    H240375   0.432   1.019  11.220
 5394TIP3   OH240376   1.555   1.306  10.867
 5394TIP3    H140377   1.530   1.220  10.921
 5394TIP3    H240378   1.593   1.372  10.935
 5395TIP3   OH240379   0.407   1.470  10.982
 5395TIP3    H140380   0.398   1.368  10.948
 5395TIP3    H240381   0.514   1.467  10.991
 5396TIP3   OH240382   0.136   0.705  10.497
 5396TIP3    H140383   0.130   0.794  10.550
 5396TIP3    H240384   0.042   0.658  10.519
 5397TIP3   OH240385   0.123   0.997  10.818
 5397TIP3    H140386   0.172   0.902  10.840
 5397TIP3    H240387   0.189   1.042  10.755
 5398TIP3   OH240388   1.300   1.914  10.863
 5398TIP3    H140389   1.375   1.851  10.819
 5398TIP3    H240390   1.241   1.837  10.901
 5399TIP3   OH240391   1.002   1.290  11.087
 5399TIP3    H140392   1.036   1.228  11.015
 5399TIP3    H240393   1.097   1.320  11.124
 5400TIP3   OH240394   1.956   0.339  11.081
 5400TIP3    H140395   1.964   0.410  11.154
 5400TIP3    H240396   2.030   0.380  11.021
 5401TIP3   OH240397   1.391   0.680  11.119
 5401TIP3    H140398   1.416   0.577  11.137
 5401TIP3    H240399   1.379   0.677  11.022
 5402TIP3   OH240400   0.632   0.448  10.812
 5402TIP3    H140401   0.655   0.528  10.750
 5402TIP3    H240402   0.594   0.376  10.748
 5403TIP3   OH240403   1.448   0.451  10.629
 5403TIP3    H140404   1.499   0.435  10.715
 5403TIP3    H240405   1.511   0.524  10.589
 5404TIP3   OH240406   0.240   0.720  10.880
 5404TIP3    H140407   0.308   0.657  10.927
 5404TIP3    H240408   0.259   0.695  10.787
 5405TIP3   OH240409   0.779   0.901  10.831
 5405TIP3    H140410   0.859   0.846  10.872
 5405TIP3    H240411   0.741   0.823  10.773
 5406TIP3   OH240412   1.989   0.488  11.312
 5406TIP3    H140413   1.942   0.586  11.303
 5406TIP3    H240414   1.985   0.475  11.408
 5407TIP3   OH240415   0.491   0.337  11.219
 5407TIP3    H140416   0.452   0.386  11.140
 5407TIP3    H240417   0.408   0.348  11.281
 5408TIP3   OH240418   1.256   1.384  10.545
 5408TIP3    H140419   1.245   1.376  10.448
 5408TIP3    H240420   1.246   1.489  10.559
 5409TIP3   OH240421   0.792   1.148  11.226
 5409TIP3    H140422   0.722   1.214  11.269
 5409TIP3    H240423   0.857   1.219  11.181
 5410TIP3   OH240424   1.625   0.455  10.852
 5410TIP3    H140425   1.585   0.398  10.926
 5410TIP3    H240426   1.724   0.476  10.882
 5411TIP3   OH240427   0.429   0.535  11.011
 5411TIP3    H140428   0.492   0.608  11.056
 5411TIP3    H240429   0.495   0.501  10.939
 5412TIP3   OH240430   0.632   1.420  11.283
 5412TIP3    H140431   0.608   1.502  11.224
 5412TIP3    H240432   0.535   1.400  11.320
 5413TIP3   OH240433   0.112   1.346  10.377
 5413TIP3    H140434   0.121   1.387  10.286
 5413TIP3    H240435   0.153   1.423  10.435
 5414TIP3   OH240436   1.669   1.547  11.072
 5414TIP3    H140437   1.562   1.560  11.085
 5414TIP3    H240438   1.691   1.642  11.034
 5415TIP3   OH240439   1.693   0.223  11.215
 5415TIP3    H140440   1.609   0.256  11.161
 5415TIP3    H240441   1.768   0.219  11.144
 5416TIP3   OH240442   0.914   0.102  10.900
 5416TIP3    H140443   0.921   0.009  10.949
 5416TIP3    H240444   0.845   0.157  10.957
 5417TIP3   OH240445   1.470   1.720  10.740
 5417TIP3    H140446   1.487   1.635  10.684
 5417TIP3    H240447   1.562   1.774  10.720
 5418TIP3   OH240448   1.581   1.498  10.589
 5418TIP3    H140449   1.580   1.420  10.521
 5418TIP3    H240450   1.581   1.440  10.670
 5419TIP3   OH240451   1.768   1.353  11.459
 5419TIP3    H140452   1.793   1.277  11.393
 5419TIP3    H240453   1.779   1.442  11.404
 5420TIP3   OH240454   1.152   1.015  10.403
 5420TIP3    H140455   1.110   1.113  10.386
 5420TIP3    H240456   1.241   1.016  10.348
 5421TIP3   OH240457   1.211   0.849  10.118
 5421TIP3    H140458   1.301   0.881  10.166
 5421TIP3    H240459   1.234   0.750  10.090
 5422TIP3   OH240460   1.990   0.956  11.216
 5422TIP3    H140461   1.936   1.045  11.236
 5422TIP3    H240462   2.059   0.994  11.150
 5423TIP3   OH240463   1.565   0.979  10.516
 5423TIP3    H140464   1.484   1.023  10.566
 5423TIP3    H240465   1.635   0.956  10.587
 5424TIP3   OH240466   1.551   0.810  11.426
 5424TIP3    H140467   1.541   0.913  11.447
 5424TIP3    H240468   1.474   0.799  11.359
 5425TIP3   OH240469   0.614   1.103  10.700
 5425TIP3    H140470   0.541   1.058  10.639
 5425TIP3    H240471   0.671   1.019  10.732
 5426TIP3   OH240472   0.779   1.442  10.955
 5426TIP3    H140473   0.791   1.442  10.858
 5426TIP3    H240474   0.860   1.384  10.990
 5427TIP3   OH240475   0.657   0.959  11.070
 5427TIP3    H140476   0.707   0.976  10.984
 5427TIP3    H240477   0.701   1.033  11.130
 5428TIP3   OH240478   1.388   1.577  11.141
 5428TIP3    H140479   1.367   1.637  11.219
 5428TIP3    H240480   1.366   1.478  11.174
 5429TIP3   OH240481   0.770   1.449  11.517
 5429TIP3    H140482   0.686   1.498  11.559
 5429TIP3    H240483   0.734   1.436  11.425
 5430TIP3   OH240484   1.408   0.974  10.279
 5430TIP3    H140485   1.475   0.958  10.355
 5430TIP3    H240486   1.478   0.998  10.208
 5431TIP3   OH240487   0.472   1.077  11.393
 5431TIP3    H140488   0.476   1.147  11.467
 5431TIP3    H240489   0.385   1.021  11.419
 5432TIP3   OH240490   1.190   1.735  10.554
 5432TIP3    H140491   1.199   1.725  10.650
 5432TIP3    H240492   1.120   1.815  10.541
 5433TIP3   OH240493   0.567   1.649  11.617
 5433TIP3    H140494   0.560   1.669  11.521
 5433TIP3    H240495   0.462   1.645  11.641
 5434TIP3   OH240496   1.848   0.078  10.278
 5434TIP3    H140497   1.769   0.125  10.325
 5434TIP3    H240498   1.881   0.155  10.216
 5435TIP3   OH240499   0.435   0.981  10.506
 5435TIP3    H140500   0.425   1.065  10.445
 5435TIP3    H240501   0.452   0.899  10.447
 5436TIP3   OH240502   1.967   1.636  10.118
 5436TIP3    H140503   1.999   1.738  10.130
 5436TIP3    H240504   2.058   1.581  10.133
 5437TIP3   OH240505   0.168   1.262  11.370
 5437TIP3    H140506   0.063   1.251  11.356
 5437TIP3    H240507   0.204   1.172  11.327
 5438TIP3   OH240508   0.140   1.602  10.983
 5438TIP3    H140509   0.218   1.526  10.992
 5438TIP3    H240510   0.154   1.652  11.067
 5439TIP3   OH240511   2.053   1.637  11.624
 5439TIP3    H140512   2.035   1.539  11.588
 5439TIP3    H240513   1.952   1.659  11.655
 5440TIP3   OH240514   1.044   1.590  11.493
 5440TIP3    H140515   1.060   1.685  11.536
 5440TIP3    H240516   0.938   1.572  11.509
 5441TIP3   OH240517   1.088   1.992  10.424
 5441TIP3    H140518   1.136   2.011  10.338
 5441TIP3    H240519   1.120   2.078  10.476
 5442TIP3   OH240520   0.442   1.834  10.649
 5442TIP3    H140521   0.463   1.811  10.743
 5442TIP3    H240522   0.337   1.819  10.644
 5443TIP3   OH240523   1.431   1.961  10.184
 5443TIP3    H140524   1.494   1.880  10.150
 5443TIP3    H240525   1.455   1.962  10.278
 5444TIP3   OH240526   1.409   1.901  10.462
 5444TIP3    H140527   1.307   1.871  10.465
 5444TIP3    H240528   1.452   1.817  10.510
 5445TIP3   OH240529   1.699   0.684  11.647
 5445TIP3    H140530   1.661   0.735  11.567
 5445TIP3    H240531   1.697   0.584  11.612
 5446TIP3   OH240532   0.377   1.439  11.431
 5446TIP3    H140533   0.387   1.381  11.513
 5446TIP3    H240534   0.289   1.387  11.395
 5447TIP3   OH240535   0.642   0.207  11.010
 5447TIP3    H140536   0.547   0.230  10.969
 5447TIP3    H240537   0.639   0.271  11.088
 5448TIP3   OH240538   1.092   0.188  11.427
 5448TIP3    H140539   1.140   0.091  11.425
 5448TIP3    H240540   0.995   0.163  11.394
 5449TIP3   OH240541   1.493   0.494  11.458
 5449TIP3    H140542   1.429   0.477  11.537
 5449TIP3    H240543   1.489   0.601  11.456
 5450TIP3   OH240544   1.614   1.082  10.124
 5450TIP3    H140545   1.583   1.038  10.037
 5450TIP3    H240546   1.715   1.110  10.100
 5451TIP3   OH240547   1.079   0.378  10.135
 5451TIP3    H140548   1.042   0.311  10.203
 5451TIP3    H240549   1.051   0.332  10.052
 5452TIP3   OH240550   0.661   0.669  11.143
 5452TIP3    H140551   0.649   0.704  11.235
 5452TIP3    H240552   0.657   0.765  11.097
 5453TIP3   OH240553   0.664   0.688  10.671
 5453TIP3    H140554   0.558   0.670  10.657
 5453TIP3    H240555   0.695   0.661  10.580
 5454TIP3   OH240556   1.257   0.782  10.539
 5454TIP3    H140557   1.211   0.860  10.484
 5454TIP3    H240558   1.335   0.751  10.477
 5455TIP3   OH240559   1.175   0.760  11.717
 5455TIP3    H140560   1.097   0.725  11.658
 5455TIP3    H240561   1.250   0.684  11.711
 5456TIP3   OH240562   1.365   0.683  10.820
 5456TIP3    H140563   1.350   0.771  10.767
 5456TIP3    H240564   1.362   0.608  10.750
 5457TIP3   OH240565   0.345   0.700  11.301
 5457TIP3    H140566   0.427   0.746  11.350
 5457TIP3    H240567   0.360   0.600  11.332
 5458TIP3   OH240568   0.733   0.443  10.024
 5458TIP3    H140569   0.706   0.425  10.116
 5458TIP3    H240570   0.657   0.509   9.994
 5459TIP3   OH240571   0.111   0.470  10.746
 5459TIP3    H140572   0.168   0.438  10.822
 5459TIP3    H240573   0.143   0.404  10.675
 5460TIP3   OH240574   0.134   0.466  10.257
 5460TIP3    H140575   0.219   0.517  10.220
 5460TIP3    H240576   0.066   0.547  10.270
 5461TIP3   OH240577   1.240   0.889  11.262
 5461TIP3    H140578   1.312   0.832  11.210
 5461TIP3    H240579   1.198   0.807  11.316
 5462TIP3   OH240580   0.958   0.414  10.740
 5462TIP3    H140581   0.864   0.386  10.779
 5462TIP3    H240582   1.023   0.395  10.816
 5463TIP3   OH240583   0.387   0.627  10.609
 5463TIP3    H140584   0.304   0.648  10.550
 5463TIP3    H240585   0.411   0.526  10.584
 5464TIP3   OH240586   0.726   0.601  10.418
 5464TIP3    H140587   0.834   0.604  10.416
 5464TIP3    H240588   0.698   0.660  10.340
 5465TIP3   OH240589   1.412   0.326  11.059
 5465TIP3    H140590   1.352   0.341  11.138
 5465TIP3    H240591   1.341   0.285  10.996
 5466TIP3   OH240592   0.625   0.747  10.207
 5466TIP3    H140593   0.535   0.697  10.178
 5466TIP3    H240594   0.677   0.768  10.125
 5467TIP3   OH240595   1.762   2.091  11.706
 5467TIP3    H140596   1.800   2.144  11.628
 5467TIP3    H240597   1.849   2.100  11.763
 5468TIP3   OH240598   0.460   1.241  11.622
 5468TIP3    H140599   0.519   1.246  11.705
 5468TIP3    H240600   0.370   1.200  11.658
 5469TIP3   OH240601   1.035   0.730  10.933
 5469TIP3    H140602   1.101   0.675  10.876
 5469TIP3    H240603   1.035   0.672  11.014
 5470TIP3   OH240604   0.517   0.336  10.589
 5470TIP3    H140605   0.455   0.253  10.621
 5470TIP3    H240606   0.571   0.289  10.518
 5471TIP3   OH240607   0.960   0.507  11.161
 5471TIP3    H140608   0.891   0.586  11.146
 5471TIP3    H240609   1.033   0.556  11.217
 5472TIP3   OH240610   0.988   1.264  10.368
 5472TIP3    H140611   0.904   1.211  10.328
 5472TIP3    H240612   0.946   1.278  10.458
 5473TIP3   OH240613   1.809   1.183  11.254
 5473TIP3    H140614   1.860   1.240  11.183
 5473TIP3    H240615   1.715   1.169  11.210
 5474TIP3   OH240616   1.359   0.454  10.199
 5474TIP3    H140617   1.260   0.479  10.169
 5474TIP3    H240618   1.409   0.549  10.196
 5475TIP3   OH240619   1.093   1.288  11.455
 5475TIP3    H140620   1.051   1.227  11.524
 5475TIP3    H240621   1.061   1.387  11.480
 5476TIP3   OH240622   1.461   0.688  10.343
 5476TIP3    H140623   1.553   0.662  10.388
 5476TIP3    H240624   1.502   0.729  10.262
 5477TIP3   OH240625   0.458   1.195  10.909
 5477TIP3    H140626   0.514   1.170  10.828
 5477TIP3    H240627   0.481   1.111  10.967
 5478TIP3   OH240628   1.227   1.407  10.254
 5478TIP3    H140629   1.180   1.504  10.264
 5478TIP3    H240630   1.143   1.343  10.275
 5479TIP3   OH240631   0.189   0.958  11.413
 5479TIP3    H140632   0.185   0.909  11.498
 5479TIP3    H240633   0.084   0.957  11.391
 5480TIP3   OH240634   0.870   1.000  11.692
 5480TIP3    H140635   0.816   0.913  11.660
 5480TIP3    H240636   0.968   0.960  11.678
 5481TIP3   OH240637   1.421   1.547  11.484
 5481TIP3    H140638   1.329   1.553  11.437
 5481TIP3    H240639   1.390   1.578  11.573
 5482TIP3   OH240640   1.999   0.704  10.360
 5482TIP3    H140641   1.961   0.658  10.278
 5482TIP3    H240642   2.010   0.804  10.328
 5483TIP3   OH240643   2.030   1.308  11.580
 5483TIP3    H140644   1.934   1.323  11.536
 5483TIP3    H240645   2.094   1.303  11.501
 5484TIP3   OH240646   1.841   1.610  10.364
 5484TIP3    H140647   1.748   1.561  10.368
 5484TIP3    H240648   1.868   1.603  10.269
 5485TIP3   OH240649   1.517   1.074  11.033
 5485TIP3    H140650   1.421   1.036  11.004
 5485TIP3    H240651   1.582   1.000  10.997
 5486TIP3   OH240652   0.685   1.549  10.693
 5486TIP3    H140653   0.724   1.642  10.658
 5486TIP3    H240654   0.595   1.540  10.641
 5487TIP3   OH240655   0.252   0.976  10.124
 5487TIP3    H140656   0.312   1.055  10.159
 5487TIP3    H240657   0.161   0.984  10.173
 5488TIP3   OH240658   0.839   1.284  10.612
 5488TIP3    H140659   0.778   1.368  10.631
 5488TIP3    H240660   0.793   1.206  10.665
 5489TIP3   OH240661   0.926   1.752  11.291
 5489TIP3    H140662   0.993   1.826  11.254
 5489TIP3    H240663   0.993   1.696  11.349
 5490TIP3   OH240664   0.730   1.815  10.575
 5490TIP3    H140665   0.629   1.840  10.598
 5490TIP3    H240666   0.779   1.910  10.591
 5491TIP3   OH240667   1.255   1.311  11.223
 5491TIP3    H140668   1.197   1.281  11.302
 5491TIP3    H240669   1.301   1.218  11.203
 5492TIP3   OH240670   1.528   1.415  10.122
 5492TIP3    H140671   1.554   1.322  10.167
 5492TIP3    H240672   1.432   1.427  10.163
 5493TIP3   OH240673   1.607   1.801  11.469
 5493TIP3    H140674   1.516   1.746  11.454
 5493TIP3    H240675   1.615   1.866  11.391
 5494TIP3   OH240676   2.048   1.917  10.172
 5494TIP3    H140677   2.114   1.998  10.147
 5494TIP3    H240678   1.974   1.976  10.223
 5495TIP3   OH240679   0.294   0.433  11.429
 5495TIP3    H140680   0.199   0.483  11.425
 5495TIP3    H240681   0.264   0.332  11.444
 5496TIP3   OH240682   1.627   1.281  10.369
 5496TIP3    H140683   1.599   1.183  10.344
 5496TIP3    H240684   1.733   1.277  10.354
 5497TIP3   OH240685   0.261   1.709  11.235
 5497TIP3    H140686   0.339   1.642  11.256
 5497TIP3    H240687   0.242   1.751  11.323
 5498TIP3   OH240688   0.736   1.478  10.221
 5498TIP3    H140689   0.828   1.437  10.254
 5498TIP3    H240690   0.750   1.583  10.243
 5499TIP3   OH240691   0.383   1.195  10.296
 5499TIP3    H140692   0.287   1.241  10.305
 5499TIP3    H240693   0.443   1.272  10.256
 5500TIP3   OH240694   1.269   0.373  11.293
 5500TIP3    H140695   1.351   0.389  11.353
 5500TIP3    H240696   1.207   0.310  11.350
 5501TIP3   OH240697   1.310   0.305  10.431
 5501TIP3    H140698   1.313   0.366  10.349
 5501TIP3    H240699   1.370   0.364  10.493
 5502TIP3   OH240700   1.081   1.681  10.264
 5502TIP3    H140701   0.983   1.697  10.300
 5502TIP3    H240702   1.122   1.780  10.265
 5503TIP3   OH240703   1.012   0.544  10.478
 5503TIP3    H140704   1.100   0.602  10.493
 5503TIP3    H240705   0.980   0.517  10.568
 5504TIP3   OH240706   1.159   0.639  11.390
 5504TIP3    H140707   1.058   0.655  11.423
 5504TIP3    H240708   1.166   0.532  11.388
 5505TIP3   OH240709   1.103   0.197  10.581
 5505TIP3    H140710   1.089   0.287  10.633
 5505TIP3    H240711   1.187   0.226  10.522
 5506TIP3   OH240712   0.789   1.760  10.296
 5506TIP3    H140713   0.805   1.859  10.260
 5506TIP3    H240714   0.778   1.783  10.392
 5507TIP3   OH240715   0.615   0.356  10.279
 5507TIP3    H140716   0.623   0.435  10.346
 5507TIP3    H240717   0.713   0.315  10.291
 5508TIP3   OH240718   1.763   0.421  11.502
 5508TIP3    H140719   1.656   0.421  11.491
 5508TIP3    H240720   1.793   0.383  11.415
 5509TIP3   OH240721   1.615   0.813  10.915
 5509TIP3    H140722   1.536   0.741  10.911
 5509TIP3    H240723   1.690   0.761  10.966
 5510TIP3   OH240724   0.447   1.493  10.135
 5510TIP3    H140725   0.522   1.519  10.200
 5510TIP3    H240726   0.504   1.423  10.082
 5511TIP3   OH240727   0.337   0.688  10.151
 5511TIP3    H140728   0.327   0.795  10.150
 5511TIP3    H240729   0.275   0.668  10.073
 5512TIP3   OH240730   1.740   1.852  11.067
 5512TIP3    H140731   1.737   1.921  10.991
 5512TIP3    H240732   1.847   1.840  11.069
 5513TIP3   OH240733   0.350   0.186  10.923
 5513TIP3    H140734   0.340   0.172  10.825
 5513TIP3    H240735   0.341   0.083  10.951
 5514TIP3   OH240736   0.223   1.595  10.516
 5514TIP3    H140737   0.135   1.650  10.535
 5514TIP3    H240738   0.279   1.664  10.464
 5515TIP3   OH240739   0.165   1.917  11.671
 5515TIP3    H140740   0.233   1.919  11.746
 5515TIP3    H240741   0.131   1.817  11.683
 5516TIP3   OH240742   0.712   1.780  11.850
 5516TIP3    H140743   0.809   1.747  11.820
 5516TIP3    H240744   0.651   1.755  11.772
 5517TIP3   OH240745   1.107   1.720  19.956
 5517TIP3    H140746   1.031   1.645  19.964
 5517TIP3    H240747   1.190   1.670  19.995
 5518TIP3   OH240748   1.357   1.627  11.738
 5518TIP3    H140749   1.328   1.533  11.779
 5518TIP3    H240750   1.452   1.641  11.784
 5519TIP3   OH240751   1.570   1.705  10.103
 5519TIP3    H140752   1.563   1.597  10.099
 5519TIP3    H240753   1.620   1.736  10.023
 5520TIP3   OH240754   0.211   1.273  11.797
 5520TIP3    H140755   0.227   1.168  11.812
 5520TIP3    H240756   0.110   1.265  11.765
 5521TIP3   OH240757   0.656   1.247  10.034
 5521TIP3    H140758   0.679   1.211  10.123
 5521TIP3    H240759   0.738   1.312  10.017
 5522TIP3   OH240760   0.865   1.293  11.721
 5522TIP3    H140761   0.833   1.343  11.639
 5522TIP3    H240762   0.846   1.188  11.700
 5523TIP3   OH240763   1.486   1.221  11.490
 5523TIP3    H140764   1.578   1.274  11.481
 5523TIP3    H240765   1.426   1.306  11.512
 5524TIP3   OH240766   0.299   0.938  11.751
 5524TIP3    H140767   0.349   0.844  11.750
 5524TIP3    H240768   0.272   0.947  11.846
 5525TIP3   OH240769   0.761   1.102  10.259
 5525TIP3    H140770   0.689   1.045  10.305
 5525TIP3    H240771   0.812   1.029  10.206
 5526TIP3   OH240772   0.612   0.821  11.381
 5526TIP3    H140773   0.591   0.923  11.356
 5526TIP3    H240774   0.717   0.827  11.402
 5527TIP3   OH240775   0.900   0.867  10.072
 5527TIP3    H140776   0.911   0.792  10.002
 5527TIP3    H240777   1.004   0.882  10.096
 5528TIP3   OH240778   1.258   1.117  11.784
 5528TIP3    H140779   1.316   1.084  11.709
 5528TIP3    H240780   1.217   1.025  11.817
 5529TIP3   OH240781   1.867   1.117  19.997
 5529TIP3    H140782   1.925   1.054  19.938
 5529TIP3    H240783   1.918   1.209  19.987
 5530TIP3   OH240784   0.658   0.430  11.576
 5530TIP3    H140785   0.678   0.404  11.483
 5530TIP3    H240786   0.730   0.509  11.587
 5531TIP3   OH240787   0.770   0.371  11.329
 5531TIP3    H140788   0.840   0.413  11.264
 5531TIP3    H240789   0.675   0.405  11.295
 5532TIP3   OH240790   0.925   0.891  11.247
 5532TIP3    H140791   1.012   0.936  11.285
 5532TIP3    H240792   0.864   0.978  11.238
 5533TIP3   OH240793   1.475   0.675  11.828
 5533TIP3    H140794   1.491   0.593  11.887
 5533TIP3    H240795   1.575   0.690  11.793
 5534TIP3   OH240796   1.588   1.030  11.677
 5534TIP3    H140797   1.546   1.084  11.602
 5534TIP3    H240798   1.690   1.013  11.649
 5535TIP3   OH240799   0.525   0.655  11.769
 5535TIP3    H140800   0.462   0.567  11.773
 5535TIP3    H240801   0.563   0.647  11.679
 5536TIP3   OH240802   0.802   0.088  11.357
 5536TIP3    H140803   0.785   0.196  11.362
 5536TIP3    H240804   0.706   0.058  11.325
 5537TIP3   OH240805   1.003   0.508  11.765
 5537TIP3    H140806   0.937   0.556  11.827
 5537TIP3    H240807   0.963   0.542  11.679
 5538TIP3   OH240808   1.312   0.444  11.666
 5538TIP3    H140809   1.208   0.425  11.682
 5538TIP3    H240810   1.359   0.396  11.742
 5539TIP3   OH240811   1.503   0.329  11.847
 5539TIP3    H140812   1.477   0.224  11.839
 5539TIP3    H240813   1.450   0.355  11.930
 5540TIP3   OH240814   0.372   0.405  11.805
 5540TIP3    H140815   0.435   0.382  11.729
 5540TIP3    H240816   0.336   0.307  11.824
 5541TIP3   OH240817   0.898   0.068  11.642
 5541TIP3    H140818   0.860  -0.033  11.641
 5541TIP3    H240819   0.890   0.097  11.548
 5542TIP3   OH240820   0.848   0.165  11.885
 5542TIP3    H140821   0.881   0.122  11.800
 5542TIP3    H240822   0.833   0.266  11.857
 5543TIP3   OH240823   0.823   2.032  10.202
 5543TIP3    H140824   0.930   2.036  10.207
 5543TIP3    H240825   0.803   2.077  10.116
 5544TIP3   OH240826   0.168   1.412  10.121
 5544TIP3    H140827   0.272   1.445  10.122
 5544TIP3    H240828   0.171   1.342  10.048
 5545TIP3   OH240829   0.092   1.987  10.577
 5545TIP3    H140830  -0.005   2.027  10.595
 5545TIP3    H240831   0.113   1.934  10.661
 5546TIP3   OH240832   0.189   1.823  10.792
 5546TIP3    H140833   0.197   1.718  10.814
 5546TIP3    H240834   0.210   1.866  10.879
 5547TIP3   OH240835   2.045   1.902  11.071
 5547TIP3    H140836   2.060   1.901  11.167
 5547TIP3    H240837   2.104   1.987  11.049
 5548TIP3   OH240838   1.976   1.855  11.364
 5548TIP3    H140839   1.938   1.768  11.316
 5548TIP3    H240840   2.011   1.807  11.445
 5549TIP3   OH240841   1.802   1.454  11.834
 5549TIP3    H140842   1.703   1.483  11.810
 5549TIP3    H240843   1.848   1.547  11.860
 5550TIP3   OH240844   1.925   1.228  10.367
 5550TIP3    H140845   2.017   1.277  10.392
 5550TIP3    H240846   1.911   1.165  10.444
 5551TIP3   OH240847   1.971   1.019  10.602
 5551TIP3    H140848   1.894   0.946  10.627
 5551TIP3    H240849   2.030   1.018  10.684
 5552TIP3   OH240850   1.946   1.297  11.045
 5552TIP3    H140851   2.026   1.230  11.026
 5552TIP3    H240852   1.981   1.388  11.004
 5553TIP3   OH240853   1.815   1.607  11.310
 5553TIP3    H140854   1.742   1.658  11.365
 5553TIP3    H240855   1.761   1.587  11.227
 5554TIP3   OH240856   2.044   1.012  10.203
 5554TIP3    H140857   1.961   1.031  10.143
 5554TIP3    H240858   2.026   1.088  10.270
 5555TIP3   OH240859   1.933   0.631  10.109
 5555TIP3    H140860   1.876   0.720  10.097
 5555TIP3    H240861   1.870   0.565  10.058
 5556TIP3   OH240862   1.766   0.823  10.663
 5556TIP3    H140863   1.707   0.748  10.617
 5556TIP3    H240864   1.726   0.825  10.754
 5557TIP3   OH240865   0.174   1.160  11.036
 5557TIP3    H140866   0.169   1.093  10.959
 5557TIP3    H240867   0.264   1.128  11.080
 5558TIP3   OH240868   1.884   1.036  11.605
 5558TIP3    H140869   1.934   0.942  11.626
 5558TIP3    H240870   1.964   1.104  11.581
 5559TIP3   OH240871   1.967   0.775  11.713
 5559TIP3    H140872   1.869   0.735  11.692
 5559TIP3    H240873   2.026   0.685  11.705
 5560TIP3   OH240874   1.771   0.364  10.003
 5560TIP3    H140875   1.846   0.331  10.066
 5560TIP3    H240876   1.682   0.314  10.031
 5561TIP3   OH240877   1.707   0.598  10.486
 5561TIP3    H140878   1.735   0.494  10.493
 5561TIP3    H240879   1.804   0.641  10.470
 5562TIP3   OH240880   1.809   0.649  11.057
 5562TIP3    H140881   1.917   0.669  11.057
 5562TIP3    H240882   1.794   0.650  11.154
 5563TIP3   OH240883   1.819   0.738  11.317
 5563TIP3    H140884   1.719   0.767  11.341
 5563TIP3    H240885   1.863   0.828  11.279
 5564TIP3   OH240886   0.123   0.577  11.665
 5564TIP3    H140887   0.219   0.581  11.707
 5564TIP3    H240888   0.086   0.486  11.700
 5565TIP3   OH240889   2.105   0.111  11.852
 5565TIP3    H140890   2.199   0.101  11.806
 5565TIP3    H240891   2.056   0.175  11.787
 5566TIP3   OH240892   1.812   0.319  10.504
 5566TIP3    H140893   1.832   0.272  10.590
 5566TIP3    H240894   1.727   0.261  10.473
 5567TIP3   OH240895   0.153   0.375  11.017
 5567TIP3    H140896   0.199   0.279  11.004
 5567TIP3    H240897   0.240   0.437  11.021
 5568TIP3   OH240898   0.042   0.739  11.101
 5568TIP3    H140899   0.112   0.695  11.039
 5568TIP3    H240900   0.105   0.798  11.158
 5569TIP3   OH240901   1.966   0.326  11.687
 5569TIP3    H140902   1.870   0.376  11.693
 5569TIP3    H240903   1.948   0.262  11.609
 5570TIP3   OH240904   2.009   0.285  10.145
 5570TIP3    H140905   2.058   0.232  10.073
 5570TIP3    H240906   2.042   0.384  10.124
 5571TIP3   OH240907   0.154   0.322  10.503
 5571TIP3    H140908   0.051   0.321  10.473
 5571TIP3    H240909   0.200   0.392  10.441
 5572TIP3   OH240910   1.675   1.903  10.668
 5572TIP3    H140911   1.752   1.892  10.599
 5572TIP3    H240912   1.720   1.970  10.732
 5573TIP3   OH240913   0.127   0.230  11.300
 5573TIP3    H140914   0.036   0.210  11.349
 5573TIP3    H240915   0.085   0.297  11.234
 5574TIP3   OH240916   0.266   1.563  11.715
 5574TIP3    H140917   0.228   1.522  11.633
 5574TIP3    H240918   0.297   1.473  11.760
 5575TIP3   OH240919   0.632   1.753  11.350
 5575TIP3    H140920   0.625   1.849  11.305
 5575TIP3    H240921   0.739   1.738  11.345
 5576TIP3   OH240922   1.070   1.865  11.607
 5576TIP3    H140923   1.072   1.835  11.701
 5576TIP3    H240924   1.173   1.902  11.596
 5577TIP3   OH240925   1.319   2.004  11.578
 5577TIP3    H140926   1.400   1.972  11.522
 5577TIP3    H240927   1.366   2.049  11.654
 5578TIP3   OH240928   1.905   0.160  11.457
 5578TIP3    H140929   1.815   0.173  11.407
 5578TIP3    H240930   1.901   0.053  11.473
 5579TIP3   OH240931   0.354   2.073  11.339
 5579TIP3    H140932   0.264   2.112  11.296
 5579TIP3    H240933   0.315   2.049  11.426
 5580TIP3   OH240934   0.607   2.011  11.222
 5580TIP3    H140935   0.505   2.022  11.255
 5580TIP3    H240936   0.607   2.085  11.152
 5581TIP3   OH240937   1.095   1.969  11.145
 5581TIP3    H140938   1.101   2.036  11.070
 5581TIP3    H240939   1.125   2.034  11.218
 5582TIP3   OH240940   1.332   1.827  11.302
 5582TIP3    H140941   1.255   1.854  11.239
 5582TIP3    H240942   1.411   1.894  11.276
 5583TIP3   OH240943   1.614   2.002  11.261
 5583TIP3    H140944   1.624   2.098  11.220
 5583TIP3    H240945   1.653   1.942  11.187
 5584TIP3   OH240946   0.314   1.907  11.038
 5584TIP3    H140947   0.284   1.840  11.111
 5584TIP3    H240948   0.399   1.855  11.002
 5585TIP3   OH240949   0.510   1.761  10.901
 5585TIP3    H140950   0.477   1.660  10.914
 5585TIP3    H240951   0.612   1.758  10.938
 5586TIP3   OH240952   0.775   1.758  11.020
 5586TIP3    H140953   0.821   1.661  11.013
 5586TIP3    H240954   0.806   1.786  11.110
 5587TIP3   OH240955   1.165   0.277  10.884
 5587TIP3    H140956   1.100   0.191  10.887
 5587TIP3    H240957   1.236   0.244  10.818
 5588TIP3   OH240958   1.684   0.114  10.893
 5588TIP3    H140959   1.760   0.140  10.828
 5588TIP3    H240960   1.596   0.163  10.859
 5589TIP3   OH240961   1.932   0.188  10.724
 5589TIP3    H140962   2.000   0.143  10.661
 5589TIP3    H240963   1.983   0.284  10.738
 5590TIP3   OH240964   0.312   0.155  10.664
 5590TIP3    H140965   0.242   0.206  10.605
 5590TIP3    H240966   0.297   0.052  10.638
 5591TIP3   OH240967   0.172   0.122  10.280
 5591TIP3    H140968   0.256   0.171  10.239
 5591TIP3    H240969   0.123   0.208  10.317
 5592TIP3   OH240970   0.829   0.133  10.633
 5592TIP3    H140971   0.925   0.165  10.601
 5592TIP3    H240972   0.856   0.119  10.726
 5593TIP3   OH240973   1.416   0.151  10.773
 5593TIP3    H140974   1.438   0.139  10.679
 5593TIP3    H240975   1.415   0.050  10.807
 5594TIP3   OH240976   1.573   0.186  10.408
 5594TIP3    H140977   1.477   0.224  10.382
 5594TIP3    H240978   1.565   0.084  10.381
 5595TIP3   OH240979   0.224   1.865  10.294
 5595TIP3    H140980   0.124   1.860  10.326
 5595TIP3    H240981   0.232   1.970  10.275
 5596TIP3   OH240982   0.387   0.234  10.129
 5596TIP3    H140983   0.418   0.216  10.039
 5596TIP3    H240984   0.477   0.268  10.173
 5597TIP3   OH240985   0.900   0.306  10.335
 5597TIP3    H140986   0.937   0.245  10.407
 5597TIP3    H240987   0.953   0.398  10.349
 5598TIP3   OH240988   1.148   1.951  10.158
 5598TIP3    H140989   1.255   1.970  10.152
 5598TIP3    H240990   1.136   1.894  10.077
 5599TIP3   OH240991   1.873   1.867  10.487
 5599TIP3    H140992   1.862   1.769  10.446
 5599TIP3    H240993   1.860   1.932  10.409
 5600TIP3   OH240994   0.274   0.132  11.605
 5600TIP3    H140995   0.252   0.029  11.601
 5600TIP3    H240996   0.378   0.129  11.631
 5601TIP3   OH240997   0.544   0.133  11.789
 5601TIP3    H140998   0.643   0.147  11.821
 5601TIP3    H240999   0.547   0.028  11.765
 5602TIP3   OH241000   0.504   1.992  10.107
 5602TIP3    H141001   0.429   1.949  10.163
 5602TIP3    H241002   0.595   1.945  10.138
 5603TIP3   OH241003   1.412   0.048  11.808
 5603TIP3    H141004   1.384  -0.053  11.827
 5603TIP3    H241005   1.503   0.029  11.758
 5604TIP3   OH241006   1.775   1.735  11.667
 5604TIP3    H141007   1.687   1.727  11.609
 5604TIP3    H241008   1.786   1.840  11.668
 5605TIP3   OH241009   3.407   1.092  10.664
 5605TIP3    H141010   3.394   1.192  10.697
 5605TIP3    H241011   3.331   1.089  10.596
 5606TIP3   OH241012   3.269   0.970  11.016
 5606TIP3    H141013   3.267   0.906  11.096
 5606TIP3    H241014   3.208   0.911  10.956
 5607TIP3   OH241015   2.418   0.974  11.143
 5607TIP3    H141016   2.407   0.891  11.204
 5607TIP3    H241017   2.500   1.024  11.184
 5608TIP3   OH241018   3.629   1.299  10.857
 5608TIP3    H141019   3.627   1.214  10.916
 5608TIP3    H241020   3.653   1.376  10.920
 5609TIP3   OH241021   2.533   1.477  10.981
 5609TIP3    H141022   2.490   1.381  10.960
 5609TIP3    H241023   2.637   1.450  10.968
 5610TIP3   OH241024   2.164   0.705  10.581
 5610TIP3    H141025   2.109   0.794  10.591
 5610TIP3    H241026   2.106   0.662  10.509
 5611TIP3   OH241027   2.200   1.009  10.791
 5611TIP3    H141028   2.262   0.922  10.812
 5611TIP3    H241029   2.267   1.068  10.739
 5612TIP3   OH241030   3.369   1.906  10.868
 5612TIP3    H141031   3.445   1.845  10.825
 5612TIP3    H241032   3.314   1.828  10.911
 5613TIP3   OH241033   3.078   1.274  11.094
 5613TIP3    H141034   3.108   1.210  11.021
 5613TIP3    H241035   3.175   1.306  11.126
 5614TIP3   OH241036   4.027   0.322  11.090
 5614TIP3    H141037   4.037   0.403  11.157
 5614TIP3    H241038   4.107   0.350  11.030
 5615TIP3   OH241039   3.484   0.673  11.112
 5615TIP3    H141040   3.501   0.569  11.122
 5615TIP3    H241041   3.435   0.677  11.025
 5616TIP3   OH241042   2.699   0.441  10.774
 5616TIP3    H141043   2.710   0.532  10.722
 5616TIP3    H241044   2.643   0.380  10.710
 5617TIP3   OH241045   3.536   0.449  10.635
 5617TIP3    H141046   3.578   0.433  10.726
 5617TIP3    H241047   3.606   0.521  10.600
 5618TIP3   OH241048   2.318   0.744  10.893
 5618TIP3    H141049   2.400   0.704  10.942
 5618TIP3    H241050   2.320   0.689  10.811
 5619TIP3   OH241051   2.847   0.882  10.832
 5619TIP3    H141052   2.938   0.836  10.862
 5619TIP3    H241053   2.819   0.816  10.759
 5620TIP3   OH241054   4.061   0.486  11.314
 5620TIP3    H141055   4.021   0.587  11.316
 5620TIP3    H241056   4.074   0.466  11.408
 5621TIP3   OH241057   2.581   0.345  11.212
 5621TIP3    H141058   2.548   0.407  11.137
 5621TIP3    H241059   2.495   0.347  11.272
 5622TIP3   OH241060   3.330   1.370  10.557
 5622TIP3    H141061   3.317   1.372  10.460
 5622TIP3    H241062   3.299   1.469  10.582
 5623TIP3   OH241063   2.823   1.176  11.196
 5623TIP3    H141064   2.764   1.260  11.229
 5623TIP3    H241065   2.904   1.227  11.151
 5624TIP3   OH241066   3.710   0.442  10.846
 5624TIP3    H141067   3.685   0.385  10.923
 5624TIP3    H241068   3.816   0.448  10.856
 5625TIP3   OH241069   2.551   0.546  10.996
 5625TIP3    H141070   2.624   0.617  11.032
 5625TIP3    H241071   2.599   0.516  10.912
 5626TIP3   OH241072   2.675   1.403  11.295
 5626TIP3    H141073   2.665   1.492  11.243
 5626TIP3    H241074   2.577   1.400  11.339
 5627TIP3   OH241075   2.213   1.331  10.390
 5627TIP3    H141076   2.217   1.396  10.311
 5627TIP3    H241077   2.234   1.403  10.460
 5628TIP3   OH241078   3.733   1.558  11.057
 5628TIP3    H141079   3.632   1.580  11.084
 5628TIP3    H241080   3.757   1.649  11.010
 5629TIP3   OH241081   3.752   0.230  11.205
 5629TIP3    H141082   3.678   0.256  11.138
 5629TIP3    H241083   3.841   0.227  11.153
 5630TIP3   OH241084   2.988   0.108  10.898
 5630TIP3    H141085   2.997   0.011  10.942
 5630TIP3    H241086   2.927   0.160  10.965
 5631TIP3   OH241087   3.555   1.729  10.739
 5631TIP3    H141088   3.572   1.639  10.688
 5631TIP3    H241089   3.643   1.785  10.707
 5632TIP3   OH241090   3.660   1.492  10.588
 5632TIP3    H141091   3.647   1.411  10.523
 5632TIP3    H241092   3.655   1.433  10.669
 5633TIP3   OH241093   3.843   1.370  11.450
 5633TIP3    H141094   3.861   1.287  11.388
 5633TIP3    H241095   3.864   1.451  11.389
 5634TIP3   OH241096   3.246   1.019  10.419
 5634TIP3    H141097   3.197   1.109  10.393
 5634TIP3    H241098   3.334   1.015  10.362
 5635TIP3   OH241099   3.304   0.849  10.113
 5635TIP3    H141100   3.389   0.891  10.162
 5635TIP3    H241101   3.342   0.752  10.089
 5636TIP3   OH241102   4.060   0.961  11.236
 5636TIP3    H141103   3.992   1.045  11.237
 5636TIP3    H241104   4.133   0.998  11.173
 5637TIP3   OH241105   3.641   0.993  10.522
 5637TIP3    H141106   3.562   1.025  10.584
 5637TIP3    H241107   3.716   0.955  10.583
 5638TIP3   OH241108   3.600   0.796  11.423
 5638TIP3    H141109   3.604   0.899  11.450
 5638TIP3    H241110   3.531   0.801  11.350
 5639TIP3   OH241111   2.701   1.097  10.698
 5639TIP3    H141112   2.668   1.072  10.607
 5639TIP3    H241113   2.759   1.011  10.722
 5640TIP3   OH241114   2.846   1.442  10.962
 5640TIP3    H141115   2.863   1.429  10.867
 5640TIP3    H241116   2.930   1.394  11.004
 5641TIP3   OH241117   2.714   0.950  11.073
 5641TIP3    H141118   2.753   0.949  10.981
 5641TIP3    H241119   2.769   1.032  11.114
 5642TIP3   OH241120   3.457   1.584  11.139
 5642TIP3    H141121   3.429   1.642  11.215
 5642TIP3    H241122   3.438   1.484  11.172
 5643TIP3   OH241123   2.856   1.443  11.507
 5643TIP3    H141124   2.779   1.493  11.559
 5643TIP3    H241125   2.805   1.428  11.421
 5644TIP3   OH241126   3.503   0.959  10.290
 5644TIP3    H141127   3.560   0.968  10.375
 5644TIP3    H241128   3.569   1.015  10.229
 5645TIP3   OH241129   2.528   1.024  11.413
 5645TIP3    H141130   2.549   1.124  11.442
 5645TIP3    H241131   2.442   1.001  11.468
 5646TIP3   OH241132   3.248   1.680  10.565
 5646TIP3    H141133   3.282   1.723  10.647
 5646TIP3    H241134   3.199   1.760  10.519
 5647TIP3   OH241135   2.662   1.631  11.614
 5647TIP3    H141136   2.648   1.676  11.526
 5647TIP3    H241137   2.559   1.609  11.636
 5648TIP3   OH241138   3.933   0.089  10.283
 5648TIP3    H141139   3.850   0.134  10.329
 5648TIP3    H241140   3.953   0.164  10.217
 5649TIP3   OH241141   2.581   0.994  10.465
 5649TIP3    H141142   2.537   1.072  10.411
 5649TIP3    H241143   2.530   0.908  10.433
 5650TIP3   OH241144   4.040   1.631  10.112
 5650TIP3    H141145   4.071   1.733  10.133
 5650TIP3    H241146   4.128   1.573  10.132
 5651TIP3   OH241147   2.188   1.273  11.354
 5651TIP3    H141148   2.156   1.278  11.262
 5651TIP3    H241149   2.222   1.170  11.356
 5652TIP3   OH241150   2.141   1.558  11.026
 5652TIP3    H141151   2.245   1.541  11.020
 5652TIP3    H241152   2.137   1.652  11.071
 5653TIP3   OH241153   4.097   1.648  11.608
 5653TIP3    H141154   4.093   1.541  11.594
 5653TIP3    H241155   4.000   1.668  11.645
 5654TIP3   OH241156   3.127   1.569  11.496
 5654TIP3    H141157   3.136   1.659  11.549
 5654TIP3    H241158   3.023   1.542  11.500
 5655TIP3   OH241159   3.191   1.985  10.441
 5655TIP3    H141160   3.202   2.010  10.346
 5655TIP3    H241161   3.194   2.083  10.483
 5656TIP3   OH241162   2.503   1.845  10.655
 5656TIP3    H141163   2.533   1.813  10.745
 5656TIP3    H241164   2.402   1.806  10.652
 5657TIP3   OH241165   3.497   1.959  10.186
 5657TIP3    H141166   3.549   1.874  10.146
 5657TIP3    H241167   3.538   1.962  10.275
 5658TIP3   OH241168   3.480   1.903  10.470
 5658TIP3    H141169   3.375   1.917  10.482
 5658TIP3    H241170   3.490   1.797  10.486
 5659TIP3   OH241171   3.783   0.672  11.634
 5659TIP3    H141172   3.727   0.713  11.560
 5659TIP3    H241173   3.796   0.571  11.605
 5660TIP3   OH241174   2.428   1.406  11.435
 5660TIP3    H141175   2.423   1.367  11.527
 5660TIP3    H241176   2.331   1.376  11.401
 5661TIP3   OH241177   2.750   0.217  11.032
 5661TIP3    H141178   2.669   0.246  10.974
 5661TIP3    H241179   2.725   0.274  11.112
 5662TIP3   OH241180   3.150   0.185  11.423
 5662TIP3    H141181   3.210   0.096  11.423
 5662TIP3    H241182   3.075   0.152  11.361
 5663TIP3   OH241183   3.562   0.496  11.421
 5663TIP3    H141184   3.501   0.479  11.502
 5663TIP3    H241185   3.593   0.597  11.435
 5664TIP3   OH241186   3.684   1.077  10.117
 5664TIP3    H141187   3.636   1.090  10.029
 5664TIP3    H241188   3.784   1.103  10.089
 5665TIP3   OH241189   3.149   0.387  10.107
 5665TIP3    H141190   3.115   0.336  10.186
 5665TIP3    H241191   3.105   0.332  10.035
 5666TIP3   OH241192   2.729   0.686  11.167
 5666TIP3    H141193   2.640   0.677  11.221
 5666TIP3    H241194   2.724   0.792  11.144
 5667TIP3   OH241195   2.720   0.696  10.643
 5667TIP3    H141196   2.614   0.684  10.633
 5667TIP3    H241197   2.758   0.681  10.551
 5668TIP3   OH241198   3.362   0.754  10.530
 5668TIP3    H141199   3.309   0.841  10.498
 5668TIP3    H241200   3.414   0.727  10.449
 5669TIP3   OH241201   3.201   0.794  11.652
 5669TIP3    H141202   3.157   0.701  11.681
 5669TIP3    H241203   3.290   0.792  11.706
 5670TIP3   OH241204   3.440   0.675  10.829
 5670TIP3    H141205   3.447   0.762  10.772
 5670TIP3    H241206   3.445   0.600  10.760
 5671TIP3   OH241207   2.429   0.692  11.292
 5671TIP3    H141208   2.489   0.737  11.361
 5671TIP3    H241209   2.409   0.595  11.329
 5672TIP3   OH241210   2.789   0.441  10.014
 5672TIP3    H141211   2.754   0.437  10.106
 5672TIP3    H241212   2.704   0.481   9.967
 5673TIP3   OH241213   2.110   0.428  10.728
 5673TIP3    H141214   2.187   0.420  10.795
 5673TIP3    H241215   2.151   0.374  10.653
 5674TIP3   OH241216   2.213   0.474  10.306
 5674TIP3    H141217   2.269   0.516  10.232
 5674TIP3    H241218   2.151   0.557  10.327
 5675TIP3   OH241219   3.315   0.849  11.257
 5675TIP3    H141220   3.385   0.783  11.211
 5675TIP3    H241221   3.260   0.781  11.316
 5676TIP3   OH241222   3.017   0.427  10.754
 5676TIP3    H141223   2.915   0.393  10.763
 5676TIP3    H241224   3.057   0.392  10.839
 5677TIP3   OH241225   2.431   0.607  10.638
 5677TIP3    H141226   2.331   0.631  10.609
 5677TIP3    H241227   2.449   0.512  10.596
 5678TIP3   OH241228   2.834   0.636  10.404
 5678TIP3    H141229   2.940   0.635  10.403
 5678TIP3    H241230   2.802   0.689  10.323
 5679TIP3   OH241231   3.502   0.316  11.058
 5679TIP3    H141232   3.433   0.332  11.132
 5679TIP3    H241233   3.434   0.278  10.992
 5680TIP3   OH241234   2.694   0.766  10.186
 5680TIP3    H141235   2.636   0.696  10.138
 5680TIP3    H241236   2.769   0.791  10.120
 5681TIP3   OH241237   3.819   2.071  11.723
 5681TIP3    H141238   3.858   2.128  11.649
 5681TIP3    H241239   3.903   2.073  11.784
 5682TIP3   OH241240   2.462   1.241  11.669
 5682TIP3    H141241   2.552   1.252  11.721
 5682TIP3    H241242   2.389   1.210  11.734
 5683TIP3   OH241243   3.138   0.737  10.920
 5683TIP3    H141244   3.211   0.692  10.861
 5683TIP3    H241245   3.121   0.658  10.981
 5684TIP3   OH241246   2.547   0.322  10.576
 5684TIP3    H141247   2.484   0.248  10.618
 5684TIP3    H241248   2.607   0.261  10.520
 5685TIP3   OH241249   2.980   0.535  11.175
 5685TIP3    H141250   2.897   0.606  11.176
 5685TIP3    H241251   3.058   0.591  11.216
 5686TIP3   OH241252   3.053   1.251  10.371
 5686TIP3    H141253   2.974   1.184  10.342
 5686TIP3    H241254   3.017   1.273  10.462
 5687TIP3   OH241255   3.872   1.188  11.246
 5687TIP3    H141256   3.918   1.252  11.177
 5687TIP3    H241257   3.775   1.173  11.204
 5688TIP3   OH241258   3.418   0.425  10.205
 5688TIP3    H141259   3.321   0.456  10.173
 5688TIP3    H241260   3.472   0.519  10.216
 5689TIP3   OH241261   3.163   1.272  11.460
 5689TIP3    H141262   3.167   1.227  11.546
 5689TIP3    H241263   3.151   1.376  11.482
 5690TIP3   OH241264   3.564   0.651  10.304
 5690TIP3    H141265   3.638   0.636  10.374
 5690TIP3    H241266   3.595   0.746  10.270
 5691TIP3   OH241267   2.515   1.196  10.910
 5691TIP3    H141268   2.580   1.172  10.835
 5691TIP3    H241269   2.527   1.111  10.968
 5692TIP3   OH241270   3.298   1.395  10.276
 5692TIP3    H141271   3.250   1.492  10.284
 5692TIP3    H241272   3.213   1.329  10.285
 5693TIP3   OH241273   2.198   0.966  11.447
 5693TIP3    H141274   2.187   0.915  11.532
 5693TIP3    H241275   2.128   0.914  11.389
 5694TIP3   OH241276   2.936   0.944  11.658
 5694TIP3    H141277   2.882   0.890  11.590
 5694TIP3    H241278   3.036   0.902  11.649
 5695TIP3   OH241279   3.486   1.535  11.492
 5695TIP3    H141280   3.388   1.533  11.456
 5695TIP3    H241281   3.468   1.580  11.580
 5696TIP3   OH241282   4.091   0.696  10.331
 5696TIP3    H141283   4.018   0.669  10.262
 5696TIP3    H241284   4.099   0.801  10.310
 5697TIP3   OH241285   4.109   1.341  11.590
 5697TIP3    H141286   4.007   1.345  11.557
 5697TIP3    H241287   4.164   1.321  11.508
 5698TIP3   OH241288   3.918   1.595  10.359
 5698TIP3    H141289   3.828   1.539  10.365
 5698TIP3    H241290   3.937   1.599  10.263
 5699TIP3   OH241291   3.601   1.082  11.048
 5699TIP3    H141292   3.498   1.067  11.026
 5699TIP3    H241293   3.645   1.000  11.003
 5700TIP3   OH241294   2.762   1.554  10.680
 5700TIP3    H141295   2.791   1.654  10.654
 5700TIP3    H241296   2.663   1.553  10.646
 5701TIP3   OH241297   2.327   0.991  10.085
 5701TIP3    H141298   2.392   1.047  10.143
 5701TIP3    H241299   2.236   0.995  10.137
 5702TIP3   OH241300   2.925   1.288  10.620
 5702TIP3    H141301   2.868   1.378  10.629
 5702TIP3    H241302   2.869   1.218  10.673
 5703TIP3   OH241303   2.989   1.741  11.292
 5703TIP3    H141304   3.051   1.817  11.252
 5703TIP3    H241305   3.056   1.698  11.357
 5704TIP3   OH241306   2.801   1.827  10.571
 5704TIP3    H141307   2.697   1.847  10.589
 5704TIP3    H241308   2.845   1.922  10.600
 5705TIP3   OH241309   3.333   1.305  11.226
 5705TIP3    H141310   3.269   1.275  11.301
 5705TIP3    H241311   3.380   1.211  11.205
 5706TIP3   OH241312   3.629   1.428  10.127
 5706TIP3    H141313   3.643   1.373  10.211
 5706TIP3    H241314   3.523   1.416  10.124
 5707TIP3   OH241315   3.673   1.811  11.469
 5707TIP3    H141316   3.583   1.755  11.449
 5707TIP3    H241317   3.685   1.874  11.390
 5708TIP3   OH241318   4.125   1.901  10.173
 5708TIP3    H141319   4.189   1.974  10.133
 5708TIP3    H241320   4.048   1.966  10.211
 5709TIP3   OH241321   2.366   0.382  11.393
 5709TIP3    H141322   2.269   0.422  11.380
 5709TIP3    H241323   2.344   0.280  11.417
 5710TIP3   OH241324   3.710   1.276  10.347
 5710TIP3    H141325   3.699   1.169  10.350
 5710TIP3    H241326   3.818   1.281  10.341
 5711TIP3   OH241327   2.338   1.707  11.254
 5711TIP3    H141328   2.394   1.618  11.256
 5711TIP3    H241329   2.384   1.762  11.325
 5712TIP3   OH241330   2.822   1.484  10.242
 5712TIP3    H141331   2.914   1.445  10.276
 5712TIP3    H241332   2.830   1.590  10.266
 5713TIP3   OH241333   2.449   1.185  10.273
 5713TIP3    H141334   2.366   1.231  10.321
 5713TIP3    H241335   2.500   1.270  10.236
 5714TIP3   OH241336   3.334   0.385  11.278
 5714TIP3    H141337   3.424   0.409  11.329
 5714TIP3    H241338   3.279   0.322  11.341
 5715TIP3   OH241339   3.401   0.299  10.447
 5715TIP3    H141340   3.406   0.366  10.370
 5715TIP3    H241341   3.462   0.351  10.514
 5716TIP3   OH241342   3.159   1.664  10.263
 5716TIP3    H141343   3.066   1.682  10.306
 5716TIP3    H241344   3.191   1.766  10.243
 5717TIP3   OH241345   3.127   0.551  10.494
 5717TIP3    H141346   3.221   0.602  10.508
 5717TIP3    H241347   3.095   0.534  10.587
 5718TIP3   OH241348   3.174   0.653  11.410
 5718TIP3    H141349   3.193   0.697  11.498
 5718TIP3    H241350   3.223   0.558  11.410
 5719TIP3   OH241351   3.171   0.205  10.578
 5719TIP3    H141352   3.145   0.283  10.640
 5719TIP3    H241353   3.260   0.245  10.535
 5720TIP3   OH241354   2.862   1.768  10.303
 5720TIP3    H141355   2.886   1.862  10.260
 5720TIP3    H241356   2.839   1.801  10.394
 5721TIP3   OH241357   2.716   0.409  10.271
 5721TIP3    H141358   2.730   0.479  10.345
 5721TIP3    H241359   2.805   0.351  10.284
 5722TIP3   OH241360   3.831   0.413  11.489
 5722TIP3    H141361   3.725   0.405  11.477
 5722TIP3    H241362   3.864   0.408  11.396
 5723TIP3   OH241363   3.687   0.816  10.909
 5723TIP3    H141364   3.615   0.738  10.925
 5723TIP3    H241365   3.772   0.770  10.955
 5724TIP3   OH241366   2.537   1.447  10.175
 5724TIP3    H141367   2.637   1.469  10.205
 5724TIP3    H241368   2.554   1.437  10.079
 5725TIP3   OH241369   2.329   0.686  10.124
 5725TIP3    H141370   2.352   0.791  10.118
 5725TIP3    H241371   2.250   0.677  10.058
 5726TIP3   OH241372   3.812   1.866  11.065
 5726TIP3    H141373   3.809   1.940  10.993
 5726TIP3    H241374   3.917   1.850  11.068
 5727TIP3   OH241375   2.417   0.172  10.934
 5727TIP3    H141376   2.392   0.162  10.838
 5727TIP3    H241377   2.407   0.066  10.956
 5728TIP3   OH241378   2.273   1.617  10.566
 5728TIP3    H141379   2.187   1.681  10.565
 5728TIP3    H241380   2.319   1.653  10.485
 5729TIP3   OH241381   2.212   1.924  11.694
 5729TIP3    H141382   2.296   1.909  11.754
 5729TIP3    H241383   2.180   1.823  11.677
 5730TIP3   OH241384   2.760   1.806  11.845
 5730TIP3    H141385   2.847   1.762  11.885
 5730TIP3    H241386   2.747   1.748  11.765
 5731TIP3   OH241387   3.186   1.713   9.970
 5731TIP3    H141388   3.120   1.639  10.007
 5731TIP3    H241389   3.276   1.686  10.014
 5732TIP3   OH241390   3.433   1.640  11.737
 5732TIP3    H141391   3.391   1.544  11.768
 5732TIP3    H241392   3.513   1.649  11.799
 5733TIP3   OH241393   3.614   1.711  10.073
 5733TIP3    H141394   3.647   1.609  10.090
 5733TIP3    H241395   3.687   1.752  10.013
 5734TIP3   OH241396   2.185   1.242  11.798
 5734TIP3    H141397   2.175   1.136  11.783
 5734TIP3    H241398   2.144   1.284  11.715
 5735TIP3   OH241399   2.759   1.195  10.055
 5735TIP3    H141400   2.757   1.187  10.153
 5735TIP3    H241401   2.839   1.264  10.049
 5736TIP3   OH241402   2.937   1.236  11.696
 5736TIP3    H141403   2.923   1.288  11.611
 5736TIP3    H241404   2.924   1.132  11.675
 5737TIP3   OH241405   3.583   1.205  11.474
 5737TIP3    H141406   3.666   1.272  11.484
 5737TIP3    H241407   3.505   1.278  11.470
 5738TIP3   OH241408   2.322   0.923  11.734
 5738TIP3    H141409   2.407   0.860  11.730
 5738TIP3    H241410   2.340   0.980  11.815
 5739TIP3   OH241411   2.844   1.057  10.276
 5739TIP3    H141412   2.757   1.008  10.311
 5739TIP3    H241413   2.877   0.990  10.206
 5740TIP3   OH241414   2.717   0.810  11.411
 5740TIP3    H141415   2.647   0.890  11.421
 5740TIP3    H241416   2.802   0.862  11.375
 5741TIP3   OH241417   2.975   0.868  10.079
 5741TIP3    H141418   3.007   0.862   9.987
 5741TIP3    H241419   3.071   0.867  10.124
 5742TIP3   OH241420   3.339   1.123  11.803
 5742TIP3    H141421   3.417   1.082  11.748
 5742TIP3    H241422   3.301   1.036  11.848
 5743TIP3   OH241423   3.939   1.100  19.990
 5743TIP3    H141424   4.021   1.054  19.942
 5743TIP3    H241425   3.978   1.199  19.989
 5744TIP3   OH241426   2.812   0.569  11.550
 5744TIP3    H141427   2.842   0.498  11.481
 5744TIP3    H241428   2.818   0.660  11.498
 5745TIP3   OH241429   2.838   0.370  11.352
 5745TIP3    H141430   2.897   0.409  11.278
 5745TIP3    H241431   2.738   0.380  11.316
 5746TIP3   OH241432   2.972   0.971  11.344
 5746TIP3    H141433   3.075   0.982  11.320
 5746TIP3    H241434   2.926   1.053  11.296
 5747TIP3   OH241435   3.478   0.703  11.828
 5747TIP3    H141436   3.513   0.602  11.827
 5747TIP3    H241437   3.568   0.756  11.849
 5748TIP3   OH241438   3.647   1.015  11.683
 5748TIP3    H141439   3.639   1.082  11.607
 5748TIP3    H241440   3.749   0.983  11.674
 5749TIP3   OH241441   2.612   0.647  11.749
 5749TIP3    H141442   2.520   0.590  11.740
 5749TIP3    H241443   2.668   0.609  11.671
 5750TIP3   OH241444   2.896   0.088  11.312
 5750TIP3    H141445   2.879   0.192  11.334
 5750TIP3    H241446   2.796   0.055  11.300
 5751TIP3   OH241447   3.065   0.538  11.735
 5751TIP3    H141448   2.990   0.508  11.800
 5751TIP3    H241449   3.010   0.525  11.653
 5752TIP3   OH241450   3.411   0.436  11.642
 5752TIP3    H141451   3.313   0.407  11.672
 5752TIP3    H241452   3.474   0.373  11.699
 5753TIP3   OH241453   3.584   0.312  11.831
 5753TIP3    H141454   3.597   0.209  11.859
 5753TIP3    H241455   3.532   0.353  11.909
 5754TIP3   OH241456   2.387   0.452  11.779
 5754TIP3    H141457   2.398   0.366  11.722
 5754TIP3    H241458   2.400   0.410  11.870
 5755TIP3   OH241459   2.893   0.071  11.608
 5755TIP3    H141460   2.867  -0.032  11.601
 5755TIP3    H241461   2.957   0.088  11.531
 5756TIP3   OH241462   2.954   0.119  11.885
 5756TIP3    H141463   2.962   0.080  11.794
 5756TIP3    H241464   2.949   0.223  11.870
 5757TIP3   OH241465   2.902   2.030  10.187
 5757TIP3    H141466   3.008   2.025  10.184
 5757TIP3    H241467   2.878   2.052  10.095
 5758TIP3   OH241468   2.236   1.469  10.145
 5758TIP3    H141469   2.344   1.458  10.148
 5758TIP3    H241470   2.209   1.412  10.067
 5759TIP3   OH241471   2.093   2.003  10.609
 5759TIP3    H141472   2.005   1.949  10.575
 5759TIP3    H241473   2.124   1.938  10.682
 5760TIP3   OH241474   2.197   1.814  10.800
 5760TIP3    H141475   2.132   1.735  10.829
 5760TIP3    H241476   2.254   1.834  10.881
 5761TIP3   OH241477   4.123   1.907  11.054
 5761TIP3    H141478   4.138   1.911  11.150
 5761TIP3    H241479   4.174   1.995  11.026
 5762TIP3   OH241480   4.045   1.859  11.363
 5762TIP3    H141481   4.005   1.772  11.316
 5762TIP3    H241482   4.084   1.813  11.443
 5763TIP3   OH241483   3.914   1.410  11.871
 5763TIP3    H141484   3.814   1.405  11.909
 5763TIP3    H241485   3.922   1.510  11.843
 5764TIP3   OH241486   4.002   1.231  10.360
 5764TIP3    H141487   4.093   1.280  10.388
 5764TIP3    H241488   3.979   1.178  10.442
 5765TIP3   OH241489   4.060   1.021  10.609
 5765TIP3    H141490   3.974   0.959  10.634
 5765TIP3    H241491   4.111   1.032  10.694
 5766TIP3   OH241492   4.034   1.298  11.047
 5766TIP3    H141493   4.107   1.219  11.041
 5766TIP3    H241494   4.085   1.381  11.006
 5767TIP3   OH241495   3.889   1.612  11.298
 5767TIP3    H141496   3.817   1.660  11.354
 5767TIP3    H241497   3.831   1.591  11.216
 5768TIP3   OH241498   4.117   0.990  10.200
 5768TIP3    H141499   4.028   0.999  10.146
 5768TIP3    H241500   4.107   1.079  10.254
 5769TIP3   OH241501   3.878   0.682  10.143
 5769TIP3    H141502   3.856   0.761  10.082
 5769TIP3    H241503   3.904   0.606  10.079
 5770TIP3   OH241504   3.843   0.839  10.666
 5770TIP3    H141505   3.815   0.741  10.637
 5770TIP3    H241506   3.807   0.843  10.758
 5771TIP3   OH241507   2.176   1.085  11.055
 5771TIP3    H141508   2.166   1.049  10.962
 5771TIP3    H241509   2.275   1.045  11.073
 5772TIP3   OH241510   3.961   1.052  11.612
 5772TIP3    H141511   4.005   0.956  11.638
 5772TIP3    H241512   4.050   1.102  11.582
 5773TIP3   OH241513   4.049   0.789  11.697
 5773TIP3    H141514   3.964   0.732  11.666
 5773TIP3    H241515   4.135   0.728  11.671
 5774TIP3   OH241516   3.842   0.398   9.992
 5774TIP3    H141517   3.920   0.353  10.044
 5774TIP3    H241518   3.759   0.337  10.013
 5775TIP3   OH241519   3.786   0.598  10.492
 5775TIP3    H141520   3.815   0.495  10.509
 5775TIP3    H241521   3.878   0.636  10.458
 5776TIP3   OH241522   3.878   0.652  11.045
 5776TIP3    H141523   3.983   0.680  11.050
 5776TIP3    H241524   3.859   0.614  11.133
 5777TIP3   OH241525   3.897   0.732  11.317
 5777TIP3    H141526   3.793   0.755  11.314
 5777TIP3    H241527   3.944   0.822  11.279
 5778TIP3   OH241528   2.149   0.560  11.638
 5778TIP3    H141529   2.243   0.544  11.685
 5778TIP3    H241530   2.095   0.470  11.661
 5779TIP3   OH241531   4.182   0.067  11.852
 5779TIP3    H141532   4.265   0.069  11.789
 5779TIP3    H241533   4.132   0.153  11.816
 5780TIP3   OH241534   3.880   0.324  10.515
 5780TIP3    H141535   3.909   0.265  10.593
 5780TIP3    H241536   3.803   0.261  10.476
 5781TIP3   OH241537   2.264   0.418  10.971
 5781TIP3    H141538   2.305   0.319  10.978
 5781TIP3    H241539   2.352   0.475  10.988
 5782TIP3   OH241540   2.095   0.715  11.059
 5782TIP3    H141541   2.161   0.678  10.990
 5782TIP3    H241542   2.161   0.785  11.098
 5783TIP3   OH241543   4.059   0.331  11.678
 5783TIP3    H141544   3.961   0.377  11.689
 5783TIP3    H241545   4.030   0.259  11.610
 5784TIP3   OH241546   4.085   0.301  10.139
 5784TIP3    H141547   4.134   0.248  10.068
 5784TIP3    H241548   4.157   0.381  10.153
 5785TIP3   OH241549   2.128   0.251  10.511
 5785TIP3    H141550   2.027   0.267  10.486
 5785TIP3    H241551   2.176   0.309  10.441
 5786TIP3   OH241552   3.763   1.912  10.676
 5786TIP3    H141553   3.835   1.905  10.602
 5786TIP3    H241554   3.807   1.983  10.736
 5787TIP3   OH241555   2.140   0.180  11.277
 5787TIP3    H141556   2.064   0.189  11.345
 5787TIP3    H241557   2.103   0.254  11.213
 5788TIP3   OH241558   2.375   1.581  11.689
 5788TIP3    H141559   2.280   1.612  11.655
 5788TIP3    H241560   2.350   1.537  11.773
 5789TIP3   OH241561   2.692   1.737  11.356
 5789TIP3    H141562   2.694   1.838  11.321
 5789TIP3    H241563   2.797   1.716  11.353
 5790TIP3   OH241564   3.144   1.861  11.599
 5790TIP3    H141565   3.133   1.838  11.694
 5790TIP3    H241566   3.248   1.878  11.591
 5791TIP3   OH241567   3.422   2.064  11.551
 5791TIP3    H141568   3.482   1.987  11.513
 5791TIP3    H241569   3.452   2.062  11.645
 5792TIP3   OH241570   3.985   0.158  11.456
 5792TIP3    H141571   3.893   0.190  11.419
 5792TIP3    H241572   3.968   0.053  11.457
 5793TIP3   OH241573   2.411   2.068  11.320
 5793TIP3    H141574   2.329   2.132  11.291
 5793TIP3    H241575   2.390   2.060  11.414
 5794TIP3   OH241576   2.670   2.004  11.227
 5794TIP3    H141577   2.571   2.025  11.262
 5794TIP3    H241578   2.665   2.065  11.146
 5795TIP3   OH241579   3.166   1.954  11.162
 5795TIP3    H141580   3.114   2.004  11.092
 5795TIP3    H241581   3.201   2.036  11.217
 5796TIP3   OH241582   3.410   1.840  11.306
 5796TIP3    H141583   3.343   1.869  11.234
 5796TIP3    H241584   3.498   1.892  11.275
 5797TIP3   OH241585   3.686   2.011  11.265
 5797TIP3    H141586   3.707   2.106  11.227
 5797TIP3    H241587   3.735   1.950  11.196
 5798TIP3   OH241588   2.363   1.882  11.021
 5798TIP3    H141589   2.339   1.815  11.093
 5798TIP3    H241590   2.457   1.841  10.990
 5799TIP3   OH241591   2.593   1.766  10.897
 5799TIP3    H141592   2.580   1.662  10.924
 5799TIP3    H241593   2.691   1.784  10.936
 5800TIP3   OH241594   2.850   1.769  11.017
 5800TIP3    H141595   2.883   1.669  11.003
 5800TIP3    H241596   2.863   1.779  11.113
 5801TIP3   OH241597   3.233   0.293  10.900
 5801TIP3    H141598   3.177   0.200  10.908
 5801TIP3    H241599   3.294   0.271  10.823
 5802TIP3   OH241600   3.771   0.108  10.895
 5802TIP3    H141601   3.843   0.135  10.828
 5802TIP3    H241602   3.678   0.140  10.853
 5803TIP3   OH241603   4.015   0.194  10.724
 5803TIP3    H141604   4.080   0.143  10.660
 5803TIP3    H241605   4.072   0.285  10.738
 5804TIP3   OH241606   2.367   0.134  10.676
 5804TIP3    H141607   2.302   0.154  10.599
 5804TIP3    H241608   2.378   0.026  10.670
 5805TIP3   OH241609   2.299   0.128  10.318
 5805TIP3    H141610   2.334   0.168  10.233
 5805TIP3    H241611   2.198   0.162  10.315
 5806TIP3   OH241612   2.900   0.117  10.643
 5806TIP3    H141613   2.991   0.156  10.605
 5806TIP3    H241614   2.926   0.123  10.738
 5807TIP3   OH241615   3.493   0.152  10.777
 5807TIP3    H141616   3.516   0.139  10.683
 5807TIP3    H241617   3.479   0.051  10.808
 5808TIP3   OH241618   3.667   0.187  10.389
 5808TIP3    H141619   3.566   0.223  10.378
 5808TIP3    H241620   3.654   0.084  10.368
 5809TIP3   OH241621   2.255   1.813  10.356
 5809TIP3    H141622   2.157   1.813  10.315
 5809TIP3    H241623   2.283   1.914  10.339
 5810TIP3   OH241624   2.447   0.217  10.094
 5810TIP3    H141625   2.518   0.146  10.061
 5810TIP3    H241626   2.511   0.276  10.149
 5811TIP3   OH241627   2.993   0.326  10.343
 5811TIP3    H141628   3.042   0.254  10.400
 5811TIP3    H241629   3.024   0.416  10.389
 5812TIP3   OH241630   3.212   1.944  10.158
 5812TIP3    H141631   3.320   1.966  10.160
 5812TIP3    H241632   3.209   1.895  10.071
 5813TIP3   OH241633   3.945   1.858  10.481
 5813TIP3    H141634   3.935   1.760  10.438
 5813TIP3    H241635   3.924   1.924  10.407
 5814TIP3   OH241636   2.320   0.117  11.674
 5814TIP3    H141637   2.310   0.022  11.631
 5814TIP3    H241638   2.423   0.111  11.701
 5815TIP3   OH241639   2.594   0.109  11.773
 5815TIP3    H141640   2.690   0.142  11.741
 5815TIP3    H241641   2.599   0.005  11.742
 5816TIP3   OH241642   2.481   1.950  10.110
 5816TIP3    H141643   2.411   1.972  10.181
 5816TIP3    H241644   2.526   1.860  10.140
 5817TIP3   OH241645   3.596   0.031  11.868
 5817TIP3    H141646   3.530  -0.052  11.886
 5817TIP3    H241647   3.665  -0.021  11.808
 5818TIP3   OH241648   3.845   1.766  11.679
 5818TIP3    H141649   3.770   1.759  11.606
 5818TIP3    H241650   3.847   1.872  11.688
 5819TIP3   OH241651   5.476   1.092  10.670
 5819TIP3    H141652   5.474   1.196  10.695
 5819TIP3    H241653   5.411   1.096  10.593
 5820TIP3   OH241654   5.346   0.960  11.015
 5820TIP3    H141655   5.324   0.901  11.095
 5820TIP3    H241656   5.283   0.911  10.948
 5821TIP3   OH241657   4.479   0.959  11.109
 5821TIP3    H141658   4.483   0.872  11.165
 5821TIP3    H241659   4.525   1.030  11.170
 5822TIP3   OH241660   5.707   1.300  10.862
 5822TIP3    H141661   5.691   1.217  10.922
 5822TIP3    H241662   5.727   1.377  10.926
 5823TIP3   OH241663   4.615   1.474  10.993
 5823TIP3    H141664   4.577   1.374  10.975
 5823TIP3    H241665   4.718   1.453  10.975
 5824TIP3   OH241666   4.226   0.726  10.572
 5824TIP3    H141667   4.193   0.821  10.603
 5824TIP3    H241668   4.178   0.719  10.485
 5825TIP3   OH241669   4.277   1.001  10.809
 5825TIP3    H141670   4.330   0.910  10.832
 5825TIP3    H241671   4.346   1.054  10.753
 5826TIP3   OH241672   5.459   1.912  10.878
 5826TIP3    H141673   5.532   1.850  10.830
 5826TIP3    H241674   5.402   1.833  10.918
 5827TIP3   OH241675   5.163   1.283  11.076
 5827TIP3    H141676   5.199   1.203  11.020
 5827TIP3    H241677   5.255   1.303  11.126
 5828TIP3   OH241678   6.107   0.307  11.101
 5828TIP3    H141679   6.109   0.397  11.155
 5828TIP3    H241680   6.179   0.332  11.031
 5829TIP3   OH241681   5.561   0.671  11.119
 5829TIP3    H141682   5.577   0.567  11.135
 5829TIP3    H241683   5.507   0.671  11.035
 5830TIP3   OH241684   4.765   0.440  10.772
 5830TIP3    H141685   4.784   0.526  10.716
 5830TIP3    H241686   4.717   0.374  10.707
 5831TIP3   OH241687   5.607   0.449  10.633
 5831TIP3    H141688   5.653   0.429  10.720
 5831TIP3    H241689   5.677   0.519  10.599
 5832TIP3   OH241690   4.387   0.722  10.885
 5832TIP3    H141691   4.468   0.682  10.937
 5832TIP3    H241692   4.402   0.677  10.798
 5833TIP3   OH241693   4.927   0.892  10.831
 5833TIP3    H141694   5.016   0.838  10.857
 5833TIP3    H241695   4.893   0.828  10.759
 5834TIP3   OH241696   6.141   0.493  11.322
 5834TIP3    H141697   6.090   0.586  11.307
 5834TIP3    H241698   6.129   0.481  11.418
 5835TIP3   OH241699   4.643   0.333  11.207
 5835TIP3    H141700   4.609   0.402  11.136
 5835TIP3    H241701   4.566   0.343  11.274
 5836TIP3   OH241702   5.412   1.367  10.557
 5836TIP3    H141703   5.393   1.368  10.460
 5836TIP3    H241704   5.394   1.471  10.578
 5837TIP3   OH241705   4.906   1.164  11.194
 5837TIP3    H141706   4.839   1.240  11.229
 5837TIP3    H241707   4.978   1.224  11.144
 5838TIP3   OH241708   5.795   0.455  10.830
 5838TIP3    H141709   5.764   0.407  10.913
 5838TIP3    H241710   5.897   0.473  10.850
 5839TIP3   OH241711   4.621   0.548  11.002
 5839TIP3    H141712   4.683   0.630  11.035
 5839TIP3    H241713   4.676   0.517  10.922
 5840TIP3   OH241714   4.760   1.398  11.294
 5840TIP3    H141715   4.738   1.495  11.259
 5840TIP3    H241716   4.668   1.376  11.341
 5841TIP3   OH241717   4.289   1.333  10.384
 5841TIP3    H141718   4.291   1.396  10.303
 5841TIP3    H241719   4.302   1.405  10.455
 5842TIP3   OH241720   5.803   1.536  11.061
 5842TIP3    H141721   5.704   1.563  11.087
 5842TIP3    H241722   5.832   1.628  11.019
 5843TIP3   OH241723   5.837   0.222  11.203
 5843TIP3    H141724   5.763   0.245  11.135
 5843TIP3    H241725   5.927   0.233  11.149
 5844TIP3   OH241726   5.081   0.094  10.902
 5844TIP3    H141727   5.081  -0.003  10.946
 5844TIP3    H241728   5.018   0.149  10.965
 5845TIP3   OH241729   5.634   1.723  10.749
 5845TIP3    H141730   5.645   1.636  10.694
 5845TIP3    H241731   5.717   1.782  10.713
 5846TIP3   OH241732   5.743   1.487  10.588
 5846TIP3    H141733   5.724   1.409  10.522
 5846TIP3    H241734   5.729   1.433  10.671
 5847TIP3   OH241735   5.919   1.355  11.442
 5847TIP3    H141736   5.941   1.280  11.373
 5847TIP3    H241737   5.931   1.443  11.388
 5848TIP3   OH241738   5.327   1.030  10.416
 5848TIP3    H141739   5.275   1.119  10.389
 5848TIP3    H241740   5.408   1.024  10.350
 5849TIP3   OH241741   5.380   0.846  10.116
 5849TIP3    H141742   5.467   0.884  10.163
 5849TIP3    H241743   5.420   0.751  10.085
 5850TIP3   OH241744   6.144   0.959  11.229
 5850TIP3    H141745   6.075   1.042  11.239
 5850TIP3    H241746   6.208   1.000  11.160
 5851TIP3   OH241747   5.715   0.997  10.524
 5851TIP3    H141748   5.634   1.023  10.586
 5851TIP3    H241749   5.788   0.956  10.586
 5852TIP3   OH241750   5.708   0.811  11.437
 5852TIP3    H141751   5.698   0.914  11.461
 5852TIP3    H241752   5.639   0.807  11.363
 5853TIP3   OH241753   4.753   1.101  10.704
 5853TIP3    H141754   4.716   1.071  10.616
 5853TIP3    H241755   4.825   1.024  10.723
 5854TIP3   OH241756   4.927   1.454  10.958
 5854TIP3    H141757   4.940   1.426  10.866
 5854TIP3    H241758   5.012   1.408  11.002
 5855TIP3   OH241759   4.792   0.936  11.072
 5855TIP3    H141760   4.836   0.945  10.982
 5855TIP3    H241761   4.839   1.019  11.119
 5856TIP3   OH241762   5.524   1.580  11.144
 5856TIP3    H141763   5.513   1.631  11.229
 5856TIP3    H241764   5.506   1.478  11.174
 5857TIP3   OH241765   4.917   1.434  11.526
 5857TIP3    H141766   4.837   1.493  11.566
 5857TIP3    H241767   4.880   1.422  11.434
 5858TIP3   OH241768   5.586   0.948  10.286
 5858TIP3    H141769   5.634   0.964  10.374
 5858TIP3    H241770   5.651   1.009  10.229
 5859TIP3   OH241771   4.554   1.069  11.358
 5859TIP3    H141772   4.599   1.137  11.420
 5859TIP3    H241773   4.531   0.989  11.421
 5860TIP3   OH241774   5.317   1.671  10.564
 5860TIP3    H141775   5.325   1.704  10.655
 5860TIP3    H241776   5.265   1.750  10.519
 5861TIP3   OH241777   4.722   1.624  11.609
 5861TIP3    H141778   4.716   1.662  11.517
 5861TIP3    H241779   4.620   1.621  11.636
 5862TIP3   OH241780   6.005   0.090  10.275
 5862TIP3    H141781   5.926   0.142  10.322
 5862TIP3    H241782   6.031   0.163  10.208
 5863TIP3   OH241783   4.655   0.992  10.470
 5863TIP3    H141784   4.606   1.067  10.417
 5863TIP3    H241785   4.610   0.902  10.440
 5864TIP3   OH241786   6.113   1.631  10.115
 5864TIP3    H141787   6.137   1.736  10.130
 5864TIP3    H241788   6.204   1.581  10.135
 5865TIP3   OH241789   4.242   1.288  11.348
 5865TIP3    H141790   4.177   1.270  11.272
 5865TIP3    H241791   4.269   1.186  11.369
 5866TIP3   OH241792   4.228   1.554  11.020
 5866TIP3    H141793   4.331   1.528  11.032
 5866TIP3    H241794   4.221   1.640  11.076
 5867TIP3   OH241795   6.237   1.629  11.599
 5867TIP3    H141796   6.181   1.538  11.591
 5867TIP3    H241797   6.156   1.702  11.608
 5868TIP3   OH241798   5.198   1.562  11.496
 5868TIP3    H141799   5.222   1.651  11.545
 5868TIP3    H241800   5.101   1.533  11.530
 5869TIP3   OH241801   5.238   1.988  10.439
 5869TIP3    H141802   5.276   2.004  10.349
 5869TIP3    H241803   5.265   2.081  10.482
 5870TIP3   OH241804   4.578   1.847  10.646
 5870TIP3    H141805   4.606   1.814  10.737
 5870TIP3    H241806   4.480   1.805  10.640
 5871TIP3   OH241807   5.568   1.967  10.192
 5871TIP3    H141808   5.622   1.882  10.155
 5871TIP3    H241809   5.611   1.977  10.279
 5872TIP3   OH241810   5.557   1.900  10.470
 5872TIP3    H141811   5.453   1.894  10.484
 5872TIP3    H241812   5.591   1.811  10.515
 5873TIP3   OH241813   5.860   0.675  11.651
 5873TIP3    H141814   5.815   0.725  11.574
 5873TIP3    H241815   5.871   0.575  11.616
 5874TIP3   OH241816   4.501   1.405  11.429
 5874TIP3    H141817   4.501   1.362  11.519
 5874TIP3    H241818   4.406   1.368  11.397
 5875TIP3   OH241819   4.815   0.216  11.011
 5875TIP3    H141820   4.723   0.235  10.962
 5875TIP3    H241821   4.796   0.273  11.091
 5876TIP3   OH241822   5.234   0.176  11.431
 5876TIP3    H141823   5.291   0.087  11.420
 5876TIP3    H241824   5.148   0.147  11.378
 5877TIP3   OH241825   5.628   0.519  11.446
 5877TIP3    H141826   5.561   0.495  11.520
 5877TIP3    H241827   5.652   0.622  11.464
 5878TIP3   OH241828   5.756   1.079  10.118
 5878TIP3    H141829   5.712   1.086  10.028
 5878TIP3    H241830   5.858   1.103  10.092
 5879TIP3   OH241831   5.224   0.388  10.107
 5879TIP3    H141832   5.200   0.336  10.189
 5879TIP3    H241833   5.171   0.333  10.040
 5880TIP3   OH241834   4.792   0.679  11.193
 5880TIP3    H141835   4.692   0.673  11.230
 5880TIP3    H241836   4.796   0.782  11.162
 5881TIP3   OH241837   4.791   0.697  10.636
 5881TIP3    H141838   4.684   0.684  10.628
 5881TIP3    H241839   4.827   0.677  10.545
 5882TIP3   OH241840   5.437   0.758  10.534
 5882TIP3    H141841   5.383   0.844  10.500
 5882TIP3    H241842   5.495   0.735  10.455
 5883TIP3   OH241843   5.275   0.788  11.656
 5883TIP3    H141844   5.224   0.697  11.685
 5883TIP3    H241845   5.354   0.795  11.721
 5884TIP3   OH241846   5.499   0.677  10.828
 5884TIP3    H141847   5.512   0.766  10.775
 5884TIP3    H241848   5.512   0.604  10.758
 5885TIP3   OH241849   4.510   0.678  11.286
 5885TIP3    H141850   4.522   0.734  11.369
 5885TIP3    H241851   4.472   0.589  11.329
 5886TIP3   OH241852   4.865   0.440  10.011
 5886TIP3    H141853   4.828   0.421  10.102
 5886TIP3    H241854   4.781   0.487   9.970
 5887TIP3   OH241855   4.189   0.436  10.731
 5887TIP3    H141856   4.265   0.408  10.795
 5887TIP3    H241857   4.232   0.414  10.644
 5888TIP3   OH241858   4.290   0.471  10.304
 5888TIP3    H141859   4.371   0.517  10.256
 5888TIP3    H241860   4.226   0.557  10.317
 5889TIP3   OH241861   5.393   0.853  11.263
 5889TIP3    H141862   5.464   0.789  11.217
 5889TIP3    H241863   5.335   0.781  11.316
 5890TIP3   OH241864   5.093   0.426  10.753
 5890TIP3    H141865   4.993   0.389  10.763
 5890TIP3    H241866   5.138   0.391  10.836
 5891TIP3   OH241867   4.499   0.615  10.629
 5891TIP3    H141868   4.399   0.637  10.598
 5891TIP3    H241869   4.520   0.517  10.594
 5892TIP3   OH241870   4.906   0.616  10.404
 5892TIP3    H141871   5.013   0.623  10.413
 5892TIP3    H241872   4.881   0.685  10.331
 5893TIP3   OH241873   5.582   0.327  11.064
 5893TIP3    H141874   5.508   0.329  11.134
 5893TIP3    H241875   5.528   0.287  10.990
 5894TIP3   OH241876   4.777   0.763  10.196
 5894TIP3    H141877   4.705   0.700  10.154
 5894TIP3    H241878   4.847   0.779  10.124
 5895TIP3   OH241879   5.883   2.073  11.716
 5895TIP3    H141880   5.927   2.130  11.644
 5895TIP3    H241881   5.971   2.050  11.768
 5896TIP3   OH241882   4.523   1.227  11.657
 5896TIP3    H141883   4.609   1.254  11.709
 5896TIP3    H241884   4.457   1.185  11.724
 5897TIP3   OH241885   5.204   0.733  10.919
 5897TIP3    H141886   5.286   0.691  10.868
 5897TIP3    H241887   5.191   0.658  10.986
 5898TIP3   OH241888   4.624   0.319  10.566
 5898TIP3    H141889   4.568   0.242  10.614
 5898TIP3    H241890   4.694   0.257  10.519
 5899TIP3   OH241891   5.047   0.515  11.160
 5899TIP3    H141892   4.974   0.594  11.160
 5899TIP3    H241893   5.127   0.564  11.206
 5900TIP3   OH241894   5.126   1.251  10.368
 5900TIP3    H141895   5.050   1.181  10.338
 5900TIP3    H241896   5.089   1.270  10.459
 5901TIP3   OH241897   5.955   1.186  11.233
 5901TIP3    H141898   6.003   1.242  11.160
 5901TIP3    H241899   5.864   1.159  11.188
 5902TIP3   OH241900   5.493   0.431  10.203
 5902TIP3    H141901   5.399   0.464  10.167
 5902TIP3    H241902   5.548   0.525  10.216
 5903TIP3   OH241903   5.268   1.273  11.501
 5903TIP3    H141904   5.226   1.256  11.589
 5903TIP3    H241905   5.253   1.378  11.492
 5904TIP3   OH241906   5.644   0.649  10.300
 5904TIP3    H141907   5.719   0.632  10.368
 5904TIP3    H241908   5.667   0.749  10.273
 5905TIP3   OH241909   4.598   1.189  10.916
 5905TIP3    H141910   4.646   1.164  10.831
 5905TIP3    H241911   4.609   1.099  10.968
 5906TIP3   OH241912   5.352   1.407  10.294
 5906TIP3    H141913   5.309   1.506  10.307
 5906TIP3    H241914   5.263   1.344  10.303
 5907TIP3   OH241915   4.222   1.013  11.486
 5907TIP3    H141916   4.276   0.931  11.527
 5907TIP3    H241917   4.157   0.965  11.423
 5908TIP3   OH241918   5.003   0.942  11.643
 5908TIP3    H141919   4.939   0.875  11.592
 5908TIP3    H241920   5.093   0.883  11.647
 5909TIP3   OH241921   5.569   1.521  11.473
 5909TIP3    H141922   5.469   1.552  11.486
 5909TIP3    H241923   5.621   1.548  11.556
 5910TIP3   OH241924   6.160   0.692  10.334
 5910TIP3    H141925   6.085   0.667  10.266
 5910TIP3    H241926   6.172   0.795  10.312
 5911TIP3   OH241927   6.166   1.317  11.585
 5911TIP3    H141928   6.068   1.332  11.546
 5911TIP3    H241929   6.225   1.319  11.503
 5912TIP3   OH241930   5.990   1.598  10.359
 5912TIP3    H141931   5.893   1.553  10.361
 5912TIP3    H241932   6.013   1.605  10.263
 5913TIP3   OH241933   5.671   1.070  11.045
 5913TIP3    H141934   5.569   1.052  11.021
 5913TIP3    H241935   5.721   0.993  10.997
 5914TIP3   OH241936   4.843   1.530  10.685
 5914TIP3    H141937   4.893   1.620  10.659
 5914TIP3    H241938   4.744   1.549  10.653
 5915TIP3   OH241939   4.398   0.981  10.091
 5915TIP3    H141940   4.454   1.044  10.152
 5915TIP3    H241941   4.299   0.990  10.130
 5916TIP3   OH241942   4.992   1.279  10.611
 5916TIP3    H141943   4.937   1.372  10.621
 5916TIP3    H241944   4.947   1.219  10.679
 5917TIP3   OH241945   5.056   1.746  11.317
 5917TIP3    H141946   5.122   1.816  11.275
 5917TIP3    H241947   5.122   1.694  11.378
 5918TIP3   OH241948   4.888   1.815  10.592
 5918TIP3    H141949   4.783   1.826  10.604
 5918TIP3    H241950   4.919   1.917  10.608
 5919TIP3   OH241951   5.400   1.296  11.235
 5919TIP3    H141952   5.355   1.270  11.321
 5919TIP3    H241953   5.446   1.203  11.210
 5920TIP3   OH241954   5.707   1.424  10.122
 5920TIP3    H141955   5.735   1.377  10.207
 5920TIP3    H241956   5.602   1.407  10.129
 5921TIP3   OH241957   5.746   1.839  11.479
 5921TIP3    H141958   5.674   1.761  11.469
 5921TIP3    H241959   5.756   1.880  11.388
 5922TIP3   OH241960   6.194   1.910  10.169
 5922TIP3    H141961   6.270   1.979  10.140
 5922TIP3    H241962   6.129   1.978  10.220
 5923TIP3   OH241963   4.455   0.422  11.432
 5923TIP3    H141964   4.390   0.488  11.483
 5923TIP3    H241965   4.411   0.328  11.445
 5924TIP3   OH241966   5.786   1.272  10.351
 5924TIP3    H141967   5.771   1.166  10.350
 5924TIP3    H241968   5.893   1.273  10.353
 5925TIP3   OH241969   4.407   1.698  11.253
 5925TIP3    H141970   4.469   1.613  11.258
 5925TIP3    H241971   4.452   1.759  11.321
 5926TIP3   OH241972   4.888   1.480  10.228
 5926TIP3    H141973   4.978   1.439  10.268
 5926TIP3    H241974   4.900   1.584  10.255
 5927TIP3   OH241975   4.518   1.178  10.277
 5927TIP3    H141976   4.435   1.231  10.320
 5927TIP3    H241977   4.574   1.261  10.240
 5928TIP3   OH241978   5.406   0.376  11.308
 5928TIP3    H141979   5.489   0.386  11.370
 5928TIP3    H241980   5.342   0.312  11.362
 5929TIP3   OH241981   5.480   0.301  10.443
 5929TIP3    H141982   5.480   0.373  10.369
 5929TIP3    H241983   5.538   0.350  10.513
 5930TIP3   OH241984   5.222   1.684  10.274
 5930TIP3    H141985   5.132   1.712  10.319
 5930TIP3    H241986   5.258   1.781  10.248
 5931TIP3   OH241987   5.200   0.543  10.494
 5931TIP3    H141988   5.291   0.596  10.506
 5931TIP3    H241989   5.169   0.524  10.586
 5932TIP3   OH241990   5.256   0.659  11.419
 5932TIP3    H141991   5.276   0.713  11.503
 5932TIP3    H241992   5.278   0.558  11.439
 5933TIP3   OH241993   5.247   0.212  10.575
 5933TIP3    H141994   5.227   0.285  10.644
 5933TIP3    H241995   5.337   0.252  10.533
 5934TIP3   OH241996   4.930   1.769  10.315
 5934TIP3    H141997   4.958   1.865  10.274
 5934TIP3    H241998   4.897   1.802  10.403
 5935TIP3   OH241999   4.778   0.402  10.265
 5935TIP3    H142000   4.798   0.471  10.338
 5935TIP3    H242001   4.863   0.338  10.279
 5936TIP3   OH242002   5.896   0.416  11.496
 5936TIP3    H142003   5.790   0.439  11.488
 5936TIP3    H242004   5.918   0.386  11.405
 5937TIP3   OH242005   5.761   0.794  10.915
 5937TIP3    H142006   5.691   0.716  10.934
 5937TIP3    H242007   5.847   0.755  10.962
 5938TIP3   OH242008   4.606   1.444  10.169
 5938TIP3    H142009   4.708   1.467  10.195
 5938TIP3    H242010   4.622   1.424  10.074
 5939TIP3   OH242011   4.423   0.681  10.128
 5939TIP3    H142012   4.435   0.788  10.122
 5939TIP3    H242013   4.345   0.662  10.065
 5940TIP3   OH242014   5.871   1.840  11.045
 5940TIP3    H142015   5.859   1.911  10.972
 5940TIP3    H242016   5.977   1.845  11.052
 5941TIP3   OH242017   4.511   0.165  10.949
 5941TIP3    H142018   4.490   0.143  10.855
 5941TIP3    H242019   4.492   0.066  10.983
 5942TIP3   OH242020   4.347   1.602  10.555
 5942TIP3    H142021   4.271   1.673  10.575
 5942TIP3    H242022   4.396   1.652  10.481
 5943TIP3   OH242023   4.287   1.907  11.681
 5943TIP3    H142024   4.375   1.893  11.734
 5943TIP3    H242025   4.254   1.806  11.666
 5944TIP3   OH242026   5.255   1.706   9.970
 5944TIP3    H142027   5.179   1.638   9.996
 5944TIP3    H242028   5.338   1.666  10.017
 5945TIP3   OH242029   5.493   1.654  11.743
 5945TIP3    H142030   5.459   1.553  11.760
 5945TIP3    H242031   5.601   1.639  11.749
 5946TIP3   OH242032   5.699   1.715  10.089
 5946TIP3    H142033   5.728   1.612  10.088
 5946TIP3    H242034   5.755   1.762  10.017
 5947TIP3   OH242035   4.239   1.242  11.814
 5947TIP3    H142036   4.231   1.135  11.803
 5947TIP3    H242037   4.194   1.279  11.731
 5948TIP3   OH242038   4.814   1.208  10.029
 5948TIP3    H142039   4.789   1.190  10.122
 5948TIP3    H242040   4.895   1.276  10.041
 5949TIP3   OH242041   5.012   1.232  11.696
 5949TIP3    H142042   4.985   1.299  11.622
 5949TIP3    H242043   5.004   1.133  11.654
 5950TIP3   OH242044   5.649   1.212  11.480
 5950TIP3    H142045   5.743   1.264  11.485
 5950TIP3    H242046   5.582   1.297  11.479
 5951TIP3   OH242047   4.356   0.949  11.801
 5951TIP3    H142048   4.408   0.914  11.720
 5951TIP3    H242049   4.432   0.953  11.868
 5952TIP3   OH242050   4.919   1.059  10.272
 5952TIP3    H142051   4.836   1.016  10.319
 5952TIP3    H242052   4.946   0.983  10.207
 5953TIP3   OH242053   4.855   0.800  11.459
 5953TIP3    H142054   4.752   0.826  11.470
 5953TIP3    H242055   4.887   0.849  11.377
 5954TIP3   OH242056   5.048   0.870  10.075
 5954TIP3    H142057   5.078   0.832   9.989
 5954TIP3    H242058   5.144   0.867  10.122
 5955TIP3   OH242059   5.408   1.118  11.810
 5955TIP3    H142060   5.481   1.081  11.748
 5955TIP3    H242061   5.399   1.037  11.875
 5956TIP3   OH242062   6.012   1.090  19.978
 5956TIP3    H142063   6.090   1.036  19.932
 5956TIP3    H242064   6.058   1.187  19.971
 5957TIP3   OH242065   4.887   0.531  11.557
 5957TIP3    H142066   4.896   0.459  11.484
 5957TIP3    H242067   4.908   0.624  11.508
 5958TIP3   OH242068   4.896   0.357  11.341
 5958TIP3    H142069   4.953   0.397  11.267
 5958TIP3    H242070   4.795   0.377  11.312
 5959TIP3   OH242071   5.080   0.950  11.298
 5959TIP3    H142072   5.175   0.988  11.319
 5959TIP3    H242073   5.022   1.038  11.280
 5960TIP3   OH242074   5.544   0.683  11.825
 5960TIP3    H142075   5.581   0.582  11.829
 5960TIP3    H242076   5.610   0.725  11.757
 5961TIP3   OH242077   5.724   1.022  11.679
 5961TIP3    H142078   5.684   1.088  11.610
 5961TIP3    H242079   5.829   1.037  11.666
 5962TIP3   OH242080   4.698   0.638  11.759
 5962TIP3    H142081   4.599   0.646  11.719
 5962TIP3    H242082   4.755   0.619  11.678
 5963TIP3   OH242083   4.965   0.083  11.324
 5963TIP3    H142084   4.947   0.189  11.336
 5963TIP3    H242085   4.865   0.053  11.303
 5964TIP3   OH242086   5.118   0.554  11.738
 5964TIP3    H142087   5.084   0.531  11.828
 5964TIP3    H242088   5.032   0.526  11.685
 5965TIP3   OH242089   5.444   0.439  11.643
 5965TIP3    H142090   5.341   0.435  11.667
 5965TIP3    H242091   5.488   0.375  11.710
 5966TIP3   OH242092   5.633   0.338  11.855
 5966TIP3    H142093   5.612   0.231  11.853
 5966TIP3    H242094   5.603   0.363  11.947
 5967TIP3   OH242095   4.456   0.428  11.784
 5967TIP3    H142096   4.521   0.370  11.730
 5967TIP3    H242097   4.445   0.373  11.866
 5968TIP3   OH242098   4.975   0.079  11.603
 5968TIP3    H142099   5.020  -0.015  11.623
 5968TIP3    H242100   4.985   0.084  11.506
 5969TIP3   OH242101   5.055   0.161  11.860
 5969TIP3    H142102   5.030   0.134  11.768
 5969TIP3    H242103   4.998   0.251  11.873
 5970TIP3   OH242104   4.990   2.015  10.177
 5970TIP3    H142105   5.096   1.997  10.181
 5970TIP3    H242106   4.980   2.038  10.083
 5971TIP3   OH242107   4.309   1.461  10.142
 5971TIP3    H142108   4.417   1.456  10.146
 5971TIP3    H242109   4.283   1.407  10.061
 5972TIP3   OH242110   4.153   2.004  10.614
 5972TIP3    H142111   4.073   1.943  10.576
 5972TIP3    H242112   4.188   1.939  10.686
 5973TIP3   OH242113   4.269   1.818  10.800
 5973TIP3    H142114   4.188   1.755  10.825
 5973TIP3    H242115   4.320   1.828  10.886
 5974TIP3   OH242116   6.168   1.902  11.061
 5974TIP3    H142117   6.199   1.898  11.154
 5974TIP3    H242118   6.253   1.945  11.019
 5975TIP3   OH242119   6.125   1.873  11.350
 5975TIP3    H142120   6.079   1.781  11.321
 5975TIP3    H242121   6.153   1.846  11.440
 5976TIP3   OH242122   6.089   1.215  10.378
 5976TIP3    H142123   6.180   1.268  10.398
 5976TIP3    H242124   6.082   1.155  10.459
 5977TIP3   OH242125   6.124   1.035  10.615
 5977TIP3    H142126   6.040   0.969  10.630
 5977TIP3    H242127   6.163   1.043  10.705
 5978TIP3   OH242128   6.113   1.311  11.047
 5978TIP3    H142129   6.185   1.232  11.038
 5978TIP3    H242130   6.158   1.393  10.999
 5979TIP3   OH242131   5.973   1.614  11.292
 5979TIP3    H142132   5.900   1.650  11.355
 5979TIP3    H242133   5.911   1.577  11.219
 5980TIP3   OH242134   6.197   0.995  10.198
 5980TIP3    H142135   6.112   1.024  10.146
 5980TIP3    H242136   6.194   1.074  10.265
 5981TIP3   OH242137   5.955   0.683  10.137
 5981TIP3    H142138   5.935   0.758  10.071
 5981TIP3    H242139   5.968   0.600  10.078
 5982TIP3   OH242140   5.912   0.846  10.678
 5982TIP3    H142141   5.889   0.748  10.647
 5982TIP3    H242142   5.874   0.844  10.769
 5983TIP3   OH242143   4.238   1.095  11.068
 5983TIP3    H142144   4.240   1.065  10.974
 5983TIP3    H242145   4.337   1.059  11.095
 5984TIP3   OH242146   6.032   1.039  11.591
 5984TIP3    H142147   6.079   0.965  11.648
 5984TIP3    H242148   6.096   1.125  11.601
 5985TIP3   OH242149   6.122   0.798  11.721
 5985TIP3    H142150   6.029   0.760  11.682
 5985TIP3    H242151   6.195   0.730  11.684
 5986TIP3   OH242152   5.914   0.400   9.991
 5986TIP3    H142153   5.996   0.356  10.040
 5986TIP3    H242154   5.835   0.330  10.010
 5987TIP3   OH242155   5.864   0.603  10.484
 5987TIP3    H142156   5.889   0.502  10.510
 5987TIP3    H242157   5.957   0.630  10.441
 5988TIP3   OH242158   5.965   0.639  11.059
 5988TIP3    H142159   6.072   0.666  11.063
 5988TIP3    H242160   5.939   0.647  11.153
 5989TIP3   OH242161   5.966   0.734  11.307
 5989TIP3    H142162   5.871   0.754  11.345
 5989TIP3    H242163   6.003   0.833  11.283
 5990TIP3   OH242164   4.234   0.565  11.630
 5990TIP3    H142165   4.320   0.544  11.687
 5990TIP3    H242166   4.174   0.479  11.650
 5991TIP3   OH242167   6.244   0.090  11.831
 5991TIP3    H142168   6.339   0.087  11.784
 5991TIP3    H242169   6.204   0.173  11.780
 5992TIP3   OH242170   5.946   0.323  10.532
 5992TIP3    H142171   5.983   0.259  10.603
 5992TIP3    H242172   5.874   0.260  10.488
 5993TIP3   OH242173   4.339   0.392  10.978
 5993TIP3    H142174   4.382   0.294  10.990
 5993TIP3    H242175   4.431   0.448  10.978
 5994TIP3   OH242176   4.162   0.718  11.052
 5994TIP3    H142177   4.226   0.707  10.973
 5994TIP3    H242178   4.235   0.755  11.114
 5995TIP3   OH242179   6.141   0.344  11.681
 5995TIP3    H142180   6.042   0.376  11.704
 5995TIP3    H242181   6.120   0.282  11.603
 5996TIP3   OH242182   6.156   0.304  10.136
 5996TIP3    H142183   6.207   0.256  10.062
 5996TIP3    H242184   6.223   0.384  10.157
 5997TIP3   OH242185   4.180   0.273  10.488
 5997TIP3    H142186   4.081   0.310  10.471
 5997TIP3    H242187   4.233   0.324  10.417
 5998TIP3   OH242188   5.815   1.921  10.653
 5998TIP3    H142189   5.896   1.905  10.590
 5998TIP3    H242190   5.861   1.979  10.723
 5999TIP3   OH242191   4.222   0.176  11.275
 5999TIP3    H142192   4.153   0.186  11.349
 5999TIP3    H242193   4.181   0.252  11.217
 6000TIP3   OH242194   4.440   1.564  11.720
 6000TIP3    H142195   4.393   1.564  11.633
 6000TIP3    H242196   4.361   1.522  11.774
 6001TIP3   OH242197   4.769   1.734  11.350
 6001TIP3    H142198   4.770   1.836  11.321
 6001TIP3    H242199   4.875   1.717  11.349
 6002TIP3   OH242200   5.222   1.852  11.610
 6002TIP3    H142201   5.240   1.833  11.704
 6002TIP3    H242202   5.317   1.894  11.583
 6003TIP3   OH242203   5.470   2.025  11.549
 6003TIP3    H142204   5.552   1.968  11.511
 6003TIP3    H242205   5.515   2.059  11.633
 6004TIP3   OH242206   6.069   0.160  11.456
 6004TIP3    H142207   5.975   0.192  11.421
 6004TIP3    H242208   6.049   0.054  11.462
 6005TIP3   OH242209   4.476   2.064  11.324
 6005TIP3    H142210   4.399   2.124  11.283
 6005TIP3    H242211   4.462   2.086  11.418
 6006TIP3   OH242212   4.748   2.014  11.220
 6006TIP3    H142213   4.649   2.027  11.258
 6006TIP3    H242214   4.741   2.080  11.143
 6007TIP3   OH242215   5.238   1.972  11.154
 6007TIP3    H142216   5.204   2.048  11.094
 6007TIP3    H242217   5.282   2.035  11.223
 6008TIP3   OH242218   5.479   1.838  11.295
 6008TIP3    H142219   5.421   1.868  11.217
 6008TIP3    H242220   5.568   1.894  11.277
 6009TIP3   OH242221   5.792   1.999  11.257
 6009TIP3    H142222   5.809   2.102  11.237
 6009TIP3    H242223   5.821   1.952  11.173
 6010TIP3   OH242224   4.436   1.890  11.025
 6010TIP3    H142225   4.403   1.818  11.091
 6010TIP3    H242226   4.530   1.845  10.996
 6011TIP3   OH242227   4.656   1.756  10.892
 6011TIP3    H142228   4.656   1.653  10.926
 6011TIP3    H242229   4.753   1.789  10.924
 6012TIP3   OH242230   4.918   1.781  10.997
 6012TIP3    H142231   4.954   1.682  10.979
 6012TIP3    H242232   4.927   1.782  11.094
 6013TIP3   OH242233   5.313   0.280  10.879
 6013TIP3    H142234   5.248   0.195  10.888
 6013TIP3    H242235   5.383   0.243  10.814
 6014TIP3   OH242236   5.844   0.119  10.893
 6014TIP3    H142237   5.918   0.138  10.824
 6014TIP3    H242238   5.752   0.149  10.851
 6015TIP3   OH242239   6.100   0.184  10.724
 6015TIP3    H142240   6.162   0.146  10.653
 6015TIP3    H242241   6.150   0.277  10.745
 6016TIP3   OH242242   4.464   0.123  10.683
 6016TIP3    H142243   4.396   0.157  10.614
 6016TIP3    H242244   4.460   0.015  10.667
 6017TIP3   OH242245   4.361   0.122  10.308
 6017TIP3    H142246   4.398   0.165  10.225
 6017TIP3    H242247   4.259   0.154  10.306
 6018TIP3   OH242248   4.975   0.114  10.649
 6018TIP3    H142249   5.060   0.162  10.607
 6018TIP3    H242250   5.007   0.115  10.743
 6019TIP3   OH242251   5.567   0.150  10.777
 6019TIP3    H142252   5.596   0.138  10.685
 6019TIP3    H242253   5.555   0.047  10.805
 6020TIP3   OH242254   5.743   0.184  10.390
 6020TIP3    H142255   5.642   0.220  10.382
 6020TIP3    H242256   5.732   0.079  10.372
 6021TIP3   OH242257   4.346   1.824  10.365
 6021TIP3    H142258   4.250   1.796  10.328
 6021TIP3    H242259   4.351   1.924  10.330
 6022TIP3   OH242260   4.501   0.219  10.091
 6022TIP3    H142261   4.593   0.165  10.082
 6022TIP3    H242262   4.535   0.314  10.122
 6023TIP3   OH242263   5.068   0.311  10.342
 6023TIP3    H142264   5.124   0.245  10.398
 6023TIP3    H242265   5.089   0.403  10.388
 6024TIP3   OH242266   5.284   1.943  10.154
 6024TIP3    H142267   5.390   1.970  10.163
 6024TIP3    H242268   5.291   1.889  10.070
 6025TIP3   OH242269   6.015   1.863  10.473
 6025TIP3    H142270   6.013   1.763  10.435
 6025TIP3    H242271   5.983   1.923  10.397
 6026TIP3   OH242272   4.406   0.091  11.676
 6026TIP3    H142273   4.409  -0.015  11.664
 6026TIP3    H242274   4.498   0.109  11.724
 6027TIP3   OH242275   4.685   0.117  11.795
 6027TIP3    H142276   4.771   0.162  11.755
 6027TIP3    H242277   4.694   0.014  11.762
 6028TIP3   OH242278   4.531   1.926  10.106
 6028TIP3    H142279   4.484   1.958  10.188
 6028TIP3    H242280   4.595   1.849  10.135
 6029TIP3   OH242281   5.569   0.058  11.815
 6029TIP3    H142282   5.525  -0.036  11.837
 6029TIP3    H242283   5.645   0.025  11.753
 6030TIP3   OH242284   6.010   1.812  11.637
 6030TIP3    H142285   5.953   1.726  11.667
 6030TIP3    H242286   5.927   1.873  11.612
 6031TIP3   OH242287   7.548   1.077  10.670
 6031TIP3    H142288   7.541   1.177  10.706
 6031TIP3    H242289   7.471   1.081  10.602
 6032TIP3   OH242290   7.404   0.966  11.007
 6032TIP3    H142291   7.422   0.905  11.087
 6032TIP3    H242292   7.344   0.903  10.949
 6033TIP3   OH242293   6.559   0.982  11.149
 6033TIP3    H142294   6.545   0.899  11.209
 6033TIP3    H242295   6.637   1.034  11.195
 6034TIP3   OH242296   7.811   1.317  10.871
 6034TIP3    H142297   7.820   1.234  10.931
 6034TIP3    H242298   7.803   1.398  10.933
 6035TIP3   OH242299   6.669   1.478  10.971
 6035TIP3    H142300   6.632   1.378  10.960
 6035TIP3    H242301   6.774   1.453  10.964
 6036TIP3   OH242302   6.314   0.734  10.560
 6036TIP3    H142303   6.260   0.813  10.602
 6036TIP3    H242304   6.257   0.722  10.479
 6037TIP3   OH242305   6.360   1.012  10.797
 6037TIP3    H142306   6.410   0.916  10.813
 6037TIP3    H242307   6.425   1.060  10.735
 6038TIP3   OH242308   7.510   1.905  10.848
 6038TIP3    H142309   7.585   1.850  10.795
 6038TIP3    H242310   7.475   1.823  10.900
 6039TIP3   OH242311   7.215   1.313  11.097
 6039TIP3    H142312   7.237   1.239  11.030
 6039TIP3    H242313   7.312   1.322  11.141
 6040TIP3   OH242314   8.177   0.373  11.077
 6040TIP3    H142315   8.198   0.450  11.144
 6040TIP3    H242316   8.234   0.409  11.002
 6041TIP3   OH242317   7.605   0.655  11.108
 6041TIP3    H142318   7.664   0.564  11.109
 6041TIP3    H242319   7.582   0.659  11.013
 6042TIP3   OH242320   6.845   0.440  10.775
 6042TIP3    H142321   6.855   0.530  10.720
 6042TIP3    H242322   6.795   0.375  10.711
 6043TIP3   OH242323   7.689   0.466  10.634
 6043TIP3    H142324   7.741   0.443  10.719
 6043TIP3    H242325   7.757   0.534  10.592
 6044TIP3   OH242326   6.460   0.736  10.891
 6044TIP3    H142327   6.541   0.703  10.947
 6044TIP3    H242328   6.478   0.682  10.809
 6045TIP3   OH242329   7.003   0.884  10.833
 6045TIP3    H142330   7.090   0.831  10.863
 6045TIP3    H242331   6.972   0.824  10.757
 6046TIP3   OH242332   8.240   0.496  11.320
 6046TIP3    H142333   8.165   0.574  11.330
 6046TIP3    H242334   8.249   0.465  11.412
 6047TIP3   OH242335   6.732   0.348  11.199
 6047TIP3    H142336   6.691   0.413  11.130
 6047TIP3    H242337   6.653   0.344  11.266
 6048TIP3   OH242338   7.473   1.357  10.558
 6048TIP3    H142339   7.475   1.362  10.461
 6048TIP3    H242340   7.440   1.458  10.579
 6049TIP3   OH242341   6.974   1.179  11.186
 6049TIP3    H142342   6.912   1.264  11.215
 6049TIP3    H242343   7.058   1.232  11.146
 6050TIP3   OH242344   7.859   0.418  10.846
 6050TIP3    H142345   7.806   0.370  10.917
 6050TIP3    H242346   7.961   0.409  10.877
 6051TIP3   OH242347   6.690   0.550  10.993
 6051TIP3    H142348   6.756   0.622  11.035
 6051TIP3    H242349   6.746   0.520  10.914
 6052TIP3   OH242350   6.824   1.405  11.286
 6052TIP3    H142351   6.817   1.499  11.242
 6052TIP3    H242352   6.730   1.400  11.334
 6053TIP3   OH242353   6.367   1.323  10.391
 6053TIP3    H142354   6.353   1.384  10.311
 6053TIP3    H242355   6.371   1.398  10.461
 6054TIP3   OH242356   7.861   1.548  11.058
 6054TIP3    H142357   7.760   1.564  11.091
 6054TIP3    H242358   7.883   1.646  11.026
 6055TIP3   OH242359   7.932   0.210  11.229
 6055TIP3    H142360   7.864   0.244  11.160
 6055TIP3    H242361   8.009   0.176  11.170
 6056TIP3   OH242362   7.153   0.099  10.903
 6056TIP3    H142363   7.152   0.001  10.942
 6056TIP3    H242364   7.093   0.152  10.968
 6057TIP3   OH242365   7.673   1.724  10.715
 6057TIP3    H142366   7.696   1.629  10.671
 6057TIP3    H242367   7.769   1.773  10.707
 6058TIP3   OH242368   7.779   1.493  10.585
 6058TIP3    H142369   7.777   1.410  10.523
 6058TIP3    H242370   7.829   1.451  10.662
 6059TIP3   OH242371   7.965   1.341  11.454
 6059TIP3    H142372   7.975   1.267  11.381
 6059TIP3    H242373   7.981   1.431  11.404
 6060TIP3   OH242374   7.385   1.019  10.411
 6060TIP3    H142375   7.336   1.113  10.398
 6060TIP3    H242376   7.468   1.024  10.350
 6061TIP3   OH242377   7.446   0.851  10.107
 6061TIP3    H142378   7.533   0.891  10.153
 6061TIP3    H242379   7.479   0.751  10.085
 6062TIP3   OH242380   8.154   0.950  11.225
 6062TIP3    H142381   8.086   1.034  11.217
 6062TIP3    H242382   8.229   0.975  11.156
 6063TIP3   OH242383   7.779   1.012  10.513
 6063TIP3    H142384   7.701   1.042  10.577
 6063TIP3    H242385   7.846   0.958  10.573
 6064TIP3   OH242386   7.754   0.843  11.431
 6064TIP3    H142387   7.723   0.942  11.459
 6064TIP3    H242388   7.697   0.837  11.350
 6065TIP3   OH242389   6.853   1.104  10.703
 6065TIP3    H142390   6.806   1.080  10.616
 6065TIP3    H242391   6.908   1.015  10.722
 6066TIP3   OH242392   6.995   1.456  10.966
 6066TIP3    H142393   7.010   1.439  10.872
 6066TIP3    H242394   7.082   1.410  11.008
 6067TIP3   OH242395   6.863   0.950  11.071
 6067TIP3    H142396   6.905   0.949  10.980
 6067TIP3    H242397   6.915   1.035  11.111
 6068TIP3   OH242398   7.592   1.591  11.136
 6068TIP3    H142399   7.582   1.675  11.195
 6068TIP3    H242400   7.549   1.514  11.192
 6069TIP3   OH242401   7.011   1.441  11.486
 6069TIP3    H142402   6.933   1.495  11.533
 6069TIP3    H242403   6.957   1.410  11.405
 6070TIP3   OH242404   7.648   0.955  10.273
 6070TIP3    H142405   7.689   0.963  10.363
 6070TIP3    H242406   7.713   1.023  10.224
 6071TIP3   OH242407   6.667   1.010  11.424
 6071TIP3    H142408   6.695   1.099  11.468
 6071TIP3    H242409   6.584   0.978  11.479
 6072TIP3   OH242410   7.394   1.668  10.562
 6072TIP3    H142411   7.442   1.705  10.642
 6072TIP3    H242412   7.350   1.755  10.524
 6073TIP3   OH242413   6.811   1.620  11.608
 6073TIP3    H142414   6.796   1.662  11.518
 6073TIP3    H242415   6.709   1.593  11.630
 6074TIP3   OH242416   8.023   0.125  10.215
 6074TIP3    H142417   7.977   0.147  10.300
 6074TIP3    H242418   8.084   0.212  10.203
 6075TIP3   OH242419   6.701   1.004  10.480
 6075TIP3    H142420   6.669   1.076  10.413
 6075TIP3    H242421   6.663   0.913  10.444
 6076TIP3   OH242422   8.199   1.641  10.141
 6076TIP3    H142423   8.246   1.738  10.147
 6076TIP3    H242424   8.282   1.574  10.154
 6077TIP3   OH242425   6.332   1.269  11.369
 6077TIP3    H142426   6.290   1.256  11.281
 6077TIP3    H242427   6.360   1.167  11.391
 6078TIP3   OH242428   6.306   1.563  10.982
 6078TIP3    H142429   6.410   1.543  10.999
 6078TIP3    H242430   6.284   1.635  11.050
 6079TIP3   OH242431   8.284   1.648  11.593
 6079TIP3    H142432   8.293   1.544  11.575
 6079TIP3    H242433   8.185   1.650  11.631
 6080TIP3   OH242434   7.283   1.566  11.499
 6080TIP3    H142435   7.289   1.647  11.563
 6080TIP3    H242436   7.179   1.538  11.498
 6081TIP3   OH242437   7.345   1.985  10.439
 6081TIP3    H142438   7.360   2.028  10.350
 6081TIP3    H242439   7.336   2.076  10.492
 6082TIP3   OH242440   6.642   1.845  10.658
 6082TIP3    H142441   6.677   1.814  10.747
 6082TIP3    H242442   6.544   1.799  10.656
 6083TIP3   OH242443   7.663   1.968  10.156
 6083TIP3    H142444   7.689   1.863  10.139
 6083TIP3    H242445   7.667   1.971  10.253
 6084TIP3   OH242446   7.634   1.894  10.437
 6084TIP3    H142447   7.528   1.901  10.458
 6084TIP3    H242448   7.669   1.823  10.502
 6085TIP3   OH242449   7.924   0.700  11.640
 6085TIP3    H142450   7.885   0.738  11.556
 6085TIP3    H242451   8.001   0.634  11.610
 6086TIP3   OH242452   6.579   1.400  11.434
 6086TIP3    H142453   6.574   1.365  11.528
 6086TIP3    H242454   6.482   1.372  11.403
 6087TIP3   OH242455   6.896   0.214  11.020
 6087TIP3    H142456   6.811   0.240  10.964
 6087TIP3    H242457   6.874   0.276  11.098
 6088TIP3   OH242458   7.311   0.158  11.446
 6088TIP3    H142459   7.377   0.075  11.432
 6088TIP3    H242460   7.248   0.145  11.367
 6089TIP3   OH242461   7.712   0.517  11.428
 6089TIP3    H142462   7.654   0.488  11.506
 6089TIP3    H242463   7.736   0.618  11.450
 6090TIP3   OH242464   7.819   1.101  10.103
 6090TIP3    H142465   7.768   1.109  10.016
 6090TIP3    H242466   7.920   1.100  10.067
 6091TIP3   OH242467   7.307   0.386  10.120
 6091TIP3    H142468   7.260   0.342  10.199
 6091TIP3    H242469   7.258   0.341  10.046
 6092TIP3   OH242470   6.868   0.686  11.168
 6092TIP3    H142471   6.780   0.686  11.223
 6092TIP3    H242472   6.871   0.791  11.139
 6093TIP3   OH242473   6.862   0.693  10.639
 6093TIP3    H142474   6.756   0.674  10.631
 6093TIP3    H242475   6.899   0.672  10.549
 6094TIP3   OH242476   7.509   0.759  10.523
 6094TIP3    H142477   7.464   0.848  10.486
 6094TIP3    H242478   7.571   0.727  10.449
 6095TIP3   OH242479   7.357   0.796  11.654
 6095TIP3    H142480   7.305   0.705  11.679
 6095TIP3    H242481   7.442   0.789  11.714
 6096TIP3   OH242482   7.599   0.701  10.810
 6096TIP3    H142483   7.571   0.795  10.769
 6096TIP3    H242484   7.600   0.639  10.730
 6097TIP3   OH242485   6.581   0.692  11.290
 6097TIP3    H142486   6.641   0.736  11.360
 6097TIP3    H242487   6.549   0.600  11.329
 6098TIP3   OH242488   6.947   0.439  10.020
 6098TIP3    H142489   6.904   0.425  10.108
 6098TIP3    H242490   6.867   0.492   9.973
 6099TIP3   OH242491   6.262   0.435  10.730
 6099TIP3    H142492   6.346   0.409  10.786
 6099TIP3    H242493   6.292   0.399  10.642
 6100TIP3   OH242494   6.366   0.470  10.295
 6100TIP3    H142495   6.450   0.518  10.255
 6100TIP3    H242496   6.301   0.553  10.312
 6101TIP3   OH242497   7.489   0.864  11.255
 6101TIP3    H142498   7.549   0.794  11.201
 6101TIP3    H242499   7.425   0.792  11.301
 6102TIP3   OH242500   7.164   0.416  10.751
 6102TIP3    H142501   7.062   0.385  10.756
 6102TIP3    H242502   7.197   0.395  10.842
 6103TIP3   OH242503   6.570   0.612  10.640
 6103TIP3    H142504   6.475   0.640  10.602
 6103TIP3    H242505   6.588   0.515  10.602
 6104TIP3   OH242506   6.973   0.618  10.406
 6104TIP3    H142507   7.080   0.625  10.417
 6104TIP3    H242508   6.948   0.684  10.330
 6105TIP3   OH242509   7.663   0.319  11.061
 6105TIP3    H142510   7.594   0.334  11.135
 6105TIP3    H242511   7.593   0.276  10.998
 6106TIP3   OH242512   6.842   0.766  10.208
 6106TIP3    H142513   6.749   0.733  10.172
 6106TIP3    H242514   6.905   0.773  10.129
 6107TIP3   OH242515   7.963   2.026  11.731
 6107TIP3    H142516   8.007   2.078  11.654
 6107TIP3    H242517   8.037   2.046  11.800
 6108TIP3   OH242518   6.592   1.243  11.674
 6108TIP3    H142519   6.677   1.262  11.732
 6108TIP3    H242520   6.523   1.201  11.736
 6109TIP3   OH242521   7.293   0.716  10.913
 6109TIP3    H142522   7.369   0.661  10.867
 6109TIP3    H242523   7.273   0.650  10.985
 6110TIP3   OH242524   6.698   0.318  10.576
 6110TIP3    H142525   6.643   0.240  10.622
 6110TIP3    H242526   6.747   0.265  10.504
 6111TIP3   OH242527   7.122   0.537  11.167
 6111TIP3    H142528   7.037   0.603  11.176
 6111TIP3    H242529   7.200   0.593  11.209
 6112TIP3   OH242530   7.190   1.256  10.366
 6112TIP3    H142531   7.114   1.186  10.336
 6112TIP3    H242532   7.151   1.274  10.457
 6113TIP3   OH242533   7.975   1.184  11.238
 6113TIP3    H142534   8.034   1.235  11.171
 6113TIP3    H242535   7.883   1.166  11.191
 6114TIP3   OH242536   7.580   0.424  10.219
 6114TIP3    H142537   7.488   0.458  10.178
 6114TIP3    H242538   7.633   0.516  10.232
 6115TIP3   OH242539   7.306   1.265  11.465
 6115TIP3    H142540   7.301   1.230  11.556
 6115TIP3    H242541   7.300   1.371  11.481
 6116TIP3   OH242542   7.706   0.663  10.323
 6116TIP3    H142543   7.800   0.648  10.369
 6116TIP3    H242544   7.720   0.760  10.283
 6117TIP3   OH242545   6.676   1.179  10.932
 6117TIP3    H142546   6.747   1.164  10.861
 6117TIP3    H242547   6.682   1.090  10.985
 6118TIP3   OH242548   7.438   1.395  10.264
 6118TIP3    H142549   7.395   1.494  10.272
 6118TIP3    H242550   7.349   1.335  10.274
 6119TIP3   OH242551   6.337   0.968  11.449
 6119TIP3    H142552   6.311   0.908  11.527
 6119TIP3    H242553   6.270   0.931  11.381
 6120TIP3   OH242554   7.091   0.946  11.646
 6120TIP3    H142555   7.043   0.887  11.578
 6120TIP3    H242556   7.192   0.908  11.644
 6121TIP3   OH242557   7.634   1.527  11.486
 6121TIP3    H142558   7.536   1.542  11.449
 6121TIP3    H242559   7.621   1.576  11.572
 6122TIP3   OH242560   8.210   0.689  10.326
 6122TIP3    H142561   8.156   0.653  10.247
 6122TIP3    H242562   8.225   0.790  10.297
 6123TIP3   OH242563   8.229   1.297  11.566
 6123TIP3    H142564   8.137   1.333  11.528
 6123TIP3    H242565   8.287   1.283  11.485
 6124TIP3   OH242566   8.052   1.601  10.381
 6124TIP3    H142567   7.957   1.555  10.367
 6124TIP3    H242568   8.096   1.598  10.293
 6125TIP3   OH242569   7.762   1.085  11.055
 6125TIP3    H142570   7.658   1.087  11.032
 6125TIP3    H242571   7.794   0.997  11.004
 6126TIP3   OH242572   6.904   1.546  10.678
 6126TIP3    H142573   6.937   1.643  10.648
 6126TIP3    H242574   6.799   1.554  10.663
 6127TIP3   OH242575   6.478   0.968  10.088
 6127TIP3    H142576   6.534   1.038  10.142
 6127TIP3    H242577   6.379   0.979  10.126
 6128TIP3   OH242578   7.073   1.296  10.624
 6128TIP3    H142579   7.009   1.384  10.635
 6128TIP3    H242580   7.019   1.222  10.677
 6129TIP3   OH242581   7.127   1.746  11.304
 6129TIP3    H142582   7.195   1.823  11.274
 6129TIP3    H242583   7.192   1.693  11.367
 6130TIP3   OH242584   6.933   1.822  10.569
 6130TIP3    H142585   6.831   1.847  10.590
 6130TIP3    H242586   6.983   1.913  10.597
 6131TIP3   OH242587   7.470   1.295  11.234
 6131TIP3    H142588   7.414   1.264  11.313
 6131TIP3    H242589   7.524   1.206  11.216
 6132TIP3   OH242590   7.765   1.443  10.128
 6132TIP3    H142591   7.807   1.405  10.211
 6132TIP3    H242592   7.670   1.394  10.132
 6133TIP3   OH242593   7.812   1.796  11.467
 6133TIP3    H142594   7.718   1.749  11.455
 6133TIP3    H242595   7.822   1.858  11.387
 6134TIP3   OH242596   8.294   1.921  10.133
 6134TIP3    H142597   8.373   1.991  10.137
 6134TIP3    H242598   8.215   1.970  10.183
 6135TIP3   OH242599   6.530   0.383  11.390
 6135TIP3    H142600   6.430   0.410  11.368
 6135TIP3    H242601   6.516   0.292  11.438
 6136TIP3   OH242602   7.872   1.277  10.348
 6136TIP3    H142603   7.840   1.177  10.361
 6136TIP3    H242604   7.978   1.264  10.348
 6137TIP3   OH242605   6.479   1.708  11.240
 6137TIP3    H142606   6.549   1.630  11.249
 6137TIP3    H242607   6.484   1.752  11.328
 6138TIP3   OH242608   6.961   1.483  10.235
 6138TIP3    H142609   7.053   1.449  10.271
 6138TIP3    H242610   6.969   1.588  10.258
 6139TIP3   OH242611   6.589   1.184  10.255
 6139TIP3    H142612   6.510   1.236  10.303
 6139TIP3    H242613   6.650   1.266  10.226
 6140TIP3   OH242614   7.449   0.374  11.314
 6140TIP3    H142615   7.543   0.394  11.357
 6140TIP3    H242616   7.402   0.308  11.379
 6141TIP3   OH242617   7.532   0.306  10.458
 6141TIP3    H142618   7.538   0.364  10.375
 6141TIP3    H242619   7.600   0.359  10.517
 6142TIP3   OH242620   7.301   1.671  10.257
 6142TIP3    H142621   7.227   1.684  10.326
 6142TIP3    H242622   7.330   1.772  10.246
 6143TIP3   OH242623   7.260   0.568  10.506
 6143TIP3    H142624   7.357   0.614  10.510
 6143TIP3    H242625   7.240   0.540  10.599
 6144TIP3   OH242626   7.334   0.677  11.407
 6144TIP3    H142627   7.357   0.712  11.498
 6144TIP3    H242628   7.371   0.576  11.401
 6145TIP3   OH242629   7.302   0.204  10.578
 6145TIP3    H142630   7.289   0.282  10.643
 6145TIP3    H242631   7.396   0.233  10.537
 6146TIP3   OH242632   7.000   1.764  10.308
 6146TIP3    H142633   7.032   1.858  10.267
 6146TIP3    H242634   6.969   1.796  10.397
 6147TIP3   OH242635   6.831   0.400  10.276
 6147TIP3    H142636   6.850   0.474  10.346
 6147TIP3    H242637   6.920   0.343  10.289
 6148TIP3   OH242638   7.981   0.419  11.482
 6148TIP3    H142639   7.882   0.461  11.479
 6148TIP3    H242640   7.979   0.365  11.398
 6149TIP3   OH242641   7.833   0.837  10.912
 6149TIP3    H142642   7.746   0.781  10.888
 6149TIP3    H242643   7.890   0.759  10.957
 6150TIP3   OH242644   6.673   1.454  10.174
 6150TIP3    H142645   6.774   1.474  10.207
 6150TIP3    H242646   6.694   1.443  10.079
 6151TIP3   OH242647   6.497   0.675  10.133
 6151TIP3    H142648   6.512   0.782  10.123
 6151TIP3    H242649   6.422   0.659  10.065
 6152TIP3   OH242650   7.978   1.837  11.059
 6152TIP3    H142651   7.955   1.918  10.996
 6152TIP3    H242652   8.084   1.849  11.068
 6153TIP3   OH242653   6.587   0.161  10.947
 6153TIP3    H142654   6.559   0.140  10.854
 6153TIP3    H242655   6.569   0.062  10.981
 6154TIP3   OH242656   6.425   1.620  10.569
 6154TIP3    H142657   6.338   1.682  10.572
 6154TIP3    H242658   6.466   1.657  10.485
 6155TIP3   OH242659   6.376   1.926  11.667
 6155TIP3    H142660   6.479   1.909  11.685
 6155TIP3    H242661   6.336   1.826  11.666
 6156TIP3   OH242662   6.888   1.797  11.831
 6156TIP3    H142663   6.982   1.761  11.864
 6156TIP3    H242664   6.885   1.751  11.743
 6157TIP3   OH242665   7.347   1.723   9.969
 6157TIP3    H142666   7.256   1.678   9.994
 6157TIP3    H242667   7.415   1.663  10.021
 6158TIP3   OH242668   7.578   1.658  11.733
 6158TIP3    H142669   7.539   1.561  11.764
 6158TIP3    H242670   7.675   1.656  11.775
 6159TIP3   OH242671   7.753   1.720  10.038
 6159TIP3    H142672   7.756   1.618  10.070
 6159TIP3    H242673   7.852   1.736  10.003
 6160TIP3   OH242674   6.325   1.211  11.796
 6160TIP3    H142675   6.306   1.108  11.775
 6160TIP3    H242676   6.284   1.262  11.717
 6161TIP3   OH242677   6.899   1.194  10.035
 6161TIP3    H142678   6.870   1.179  10.127
 6161TIP3    H242679   6.981   1.262  10.048
 6162TIP3   OH242680   7.079   1.240  11.680
 6162TIP3    H142681   7.063   1.296  11.597
 6162TIP3    H242682   7.063   1.136  11.652
 6163TIP3   OH242683   7.706   1.205  11.490
 6163TIP3    H142684   7.806   1.245  11.500
 6163TIP3    H242685   7.652   1.297  11.491
 6164TIP3   OH242686   6.507   0.913  11.744
 6164TIP3    H142687   6.568   0.827  11.756
 6164TIP3    H242688   6.544   0.979  11.814
 6165TIP3   OH242689   6.986   1.051  10.268
 6165TIP3    H142690   6.903   0.999  10.306
 6165TIP3    H242691   7.025   0.977  10.205
 6166TIP3   OH242692   6.866   0.805  11.416
 6166TIP3    H142693   6.798   0.887  11.432
 6166TIP3    H242694   6.943   0.860  11.370
 6167TIP3   OH242695   7.128   0.861  10.076
 6167TIP3    H142696   7.153   0.829   9.986
 6167TIP3    H242697   7.225   0.862  10.118
 6168TIP3   OH242698   7.467   1.137  11.801
 6168TIP3    H142699   7.557   1.091  11.768
 6168TIP3    H242700   7.414   1.052  11.833
 6169TIP3   OH242701   8.073   1.075  19.971
 6169TIP3    H142702   8.119   0.987  19.934
 6169TIP3    H242703   8.154   1.146  19.959
 6170TIP3   OH242704   6.967   0.563  11.544
 6170TIP3    H142705   6.977   0.492  11.471
 6170TIP3    H242706   6.959   0.655  11.491
 6171TIP3   OH242707   6.986   0.361  11.338
 6171TIP3    H142708   7.051   0.411  11.274
 6171TIP3    H242709   6.891   0.374  11.293
 6172TIP3   OH242710   7.114   0.959  11.332
 6172TIP3    H142711   7.219   0.974  11.324
 6172TIP3    H242712   7.074   1.046  11.286
 6173TIP3   OH242713   7.635   0.679  11.816
 6173TIP3    H142714   7.656   0.575  11.806
 6173TIP3    H242715   7.721   0.723  11.773
 6174TIP3   OH242716   7.776   1.042  11.709
 6174TIP3    H142717   7.747   1.092  11.626
 6174TIP3    H242718   7.877   1.012  11.686
 6175TIP3   OH242719   6.771   0.649  11.761
 6175TIP3    H142720   6.690   0.577  11.748
 6175TIP3    H242721   6.837   0.622  11.688
 6176TIP3   OH242722   7.082   0.089  11.288
 6176TIP3    H142723   7.059   0.190  11.318
 6176TIP3    H242724   6.981   0.056  11.284
 6177TIP3   OH242725   7.218   0.540  11.719
 6177TIP3    H142726   7.169   0.516  11.803
 6177TIP3    H242727   7.138   0.520  11.657
 6178TIP3   OH242728   7.531   0.439  11.636
 6178TIP3    H142729   7.425   0.435  11.655
 6178TIP3    H242730   7.569   0.372  11.705
 6179TIP3   OH242731   7.700   0.330  11.853
 6179TIP3    H142732   7.685   0.222  11.854
 6179TIP3    H242733   7.663   0.356  11.942
 6180TIP3   OH242734   6.546   0.454  11.772
 6180TIP3    H142735   6.531   0.374  11.710
 6180TIP3    H242736   6.524   0.406  11.858
 6181TIP3   OH242737   7.048   0.081  11.596
 6181TIP3    H142738   7.044  -0.025  11.613
 6181TIP3    H242739   7.132   0.095  11.538
 6182TIP3   OH242740   7.142   0.188  11.850
 6182TIP3    H142741   7.119   0.151  11.761
 6182TIP3    H242742   7.072   0.268  11.859
 6183TIP3   OH242743   7.047   2.025  10.191
 6183TIP3    H142744   7.153   2.037  10.194
 6183TIP3    H242745   7.019   2.088  10.117
 6184TIP3   OH242746   6.373   1.456  10.142
 6184TIP3    H142747   6.481   1.455  10.154
 6184TIP3    H242748   6.361   1.398  10.061
 6185TIP3   OH242749   6.232   2.004  10.602
 6185TIP3    H142750   6.149   1.946  10.568
 6185TIP3    H242751   6.267   1.944  10.676
 6186TIP3   OH242752   6.327   1.821  10.801
 6186TIP3    H142753   6.261   1.742  10.831
 6186TIP3    H242754   6.395   1.826  10.877
 6187TIP3   OH242755   8.308   1.882  11.111
 6187TIP3    H142756   8.303   1.894  11.207
 6187TIP3    H242757   8.308   1.984  11.085
 6188TIP3   OH242758   8.197   1.862  11.400
 6188TIP3    H142759   8.146   1.779  11.359
 6188TIP3    H242760   8.243   1.814  11.476
 6189TIP3   OH242761   8.044   1.378  11.880
 6189TIP3    H142762   7.946   1.394  11.919
 6189TIP3    H242763   8.085   1.477  11.885
 6190TIP3   OH242764   8.179   1.210  10.377
 6190TIP3    H142765   8.271   1.261  10.388
 6190TIP3    H242766   8.184   1.134  10.446
 6191TIP3   OH242767   8.208   0.994  10.582
 6191TIP3    H142768   8.105   0.966  10.588
 6191TIP3    H242769   8.240   0.977  10.673
 6192TIP3   OH242770   8.193   1.296  11.094
 6192TIP3    H142771   8.284   1.261  11.053
 6192TIP3    H242772   8.199   1.399  11.068
 6193TIP3   OH242773   8.038   1.612  11.311
 6193TIP3    H142774   7.952   1.658  11.350
 6193TIP3    H242775   8.007   1.596  11.218
 6194TIP3   OH242776   8.242   1.001  10.186
 6194TIP3    H142777   8.162   1.027  10.127
 6194TIP3    H242778   8.240   1.087  10.245
 6195TIP3   OH242779   8.073   0.680  10.101
 6195TIP3    H142780   8.010   0.728  10.035
 6195TIP3    H242781   8.065   0.577  10.072
 6196TIP3   OH242782   7.967   0.851  10.660
 6196TIP3    H142783   7.979   0.748  10.637
 6196TIP3    H242784   7.944   0.849  10.756
 6197TIP3   OH242785   6.321   1.100  11.058
 6197TIP3    H142786   6.333   1.070  10.964
 6197TIP3    H242787   6.420   1.078  11.093
 6198TIP3   OH242788   8.067   1.047  11.624
 6198TIP3    H142789   8.141   0.972  11.599
 6198TIP3    H242790   8.120   1.138  11.602
 6199TIP3   OH242791   8.230   0.814  11.618
 6199TIP3    H142792   8.143   0.806  11.677
 6199TIP3    H242793   8.278   0.720  11.639
 6200TIP3   OH242794   7.966   0.405   9.993
 6200TIP3    H142795   8.049   0.352  10.032
 6200TIP3    H242796   7.888   0.334  10.010
 6201TIP3   OH242797   7.972   0.595  10.459
 6201TIP3    H142798   8.005   0.499  10.492
 6201TIP3    H242799   8.064   0.628  10.417
 6202TIP3   OH242800   7.967   0.626  11.045
 6202TIP3    H142801   8.069   0.622  11.010
 6202TIP3    H242802   7.986   0.617  11.141
 6203TIP3   OH242803   8.026   0.703  11.307
 6203TIP3    H142804   7.923   0.734  11.312
 6203TIP3    H242805   8.075   0.796  11.286
 6204TIP3   OH242806   6.310   0.575  11.618
 6204TIP3    H142807   6.395   0.563  11.674
 6204TIP3    H242808   6.253   0.486  11.642
 6205TIP3   OH242809   8.330   0.057  11.850
 6205TIP3    H142810   8.426   0.068  11.808
 6205TIP3    H242811   8.272   0.122  11.792
 6206TIP3   OH242812   8.020   0.310  10.515
 6206TIP3    H142813   8.035   0.245  10.593
 6206TIP3    H242814   7.922   0.275  10.485
 6207TIP3   OH242815   6.413   0.393  10.985
 6207TIP3    H142816   6.460   0.298  10.999
 6207TIP3    H242817   6.499   0.456  10.981
 6208TIP3   OH242818   6.246   0.710  11.062
 6208TIP3    H142819   6.313   0.681  10.990
 6208TIP3    H242820   6.311   0.770  11.115
 6209TIP3   OH242821   8.205   0.261  11.693
 6209TIP3    H142822   8.120   0.321  11.722
 6209TIP3    H242823   8.175   0.238  11.601
 6210TIP3   OH242824   8.234   0.322  10.137
 6210TIP3    H142825   8.254   0.238  10.083
 6210TIP3    H242826   8.319   0.384  10.122
 6211TIP3   OH242827   6.251   0.283  10.493
 6211TIP3    H142828   6.150   0.310  10.473
 6211TIP3    H242829   6.301   0.329  10.417
 6212TIP3   OH242830   7.893   1.904  10.663
 6212TIP3    H142831   7.955   1.889  10.584
 6212TIP3    H242832   7.961   1.951  10.722
 6213TIP3   OH242833   6.302   0.168  11.278
 6213TIP3    H142834   6.234   0.183  11.352
 6213TIP3    H242835   6.256   0.230  11.209
 6214TIP3   OH242836   6.529   1.572  11.691
 6214TIP3    H142837   6.430   1.592  11.656
 6214TIP3    H242838   6.512   1.535  11.780
 6215TIP3   OH242839   6.835   1.744  11.357
 6215TIP3    H142840   6.834   1.844  11.321
 6215TIP3    H242841   6.940   1.720  11.348
 6216TIP3   OH242842   7.288   1.861  11.607
 6216TIP3    H142843   7.299   1.837  11.701
 6216TIP3    H242844   7.387   1.899  11.587
 6217TIP3   OH242845   7.536   2.023  11.573
 6217TIP3    H142846   7.625   1.987  11.533
 6217TIP3    H242847   7.571   2.064  11.659
 6218TIP3   OH242848   8.106   0.139  11.474
 6218TIP3    H142849   8.010   0.165  11.440
 6218TIP3    H242850   8.095   0.032  11.480
 6219TIP3   OH242851   6.538   2.050  11.335
 6219TIP3    H142852   6.472   2.126  11.300
 6219TIP3    H242853   6.524   2.062  11.430
 6220TIP3   OH242854   6.802   2.011  11.223
 6220TIP3    H142855   6.699   2.028  11.249
 6220TIP3    H242856   6.813   2.078  11.148
 6221TIP3   OH242857   7.340   1.972  11.152
 6221TIP3    H142858   7.269   2.019  11.094
 6221TIP3    H242859   7.352   2.049  11.220
 6222TIP3   OH242860   7.549   1.825  11.298
 6222TIP3    H142861   7.476   1.866  11.237
 6222TIP3    H242862   7.631   1.894  11.285
 6223TIP3   OH242863   7.833   1.970  11.256
 6223TIP3    H142864   7.855   2.071  11.236
 6223TIP3    H242865   7.883   1.923  11.179
 6224TIP3   OH242866   6.501   1.880  11.021
 6224TIP3    H142867   6.484   1.817  11.100
 6224TIP3    H242868   6.602   1.849  10.996
 6225TIP3   OH242869   6.745   1.775  10.907
 6225TIP3    H142870   6.733   1.670  10.924
 6225TIP3    H242871   6.843   1.789  10.946
 6226TIP3   OH242872   7.003   1.774  11.033
 6226TIP3    H142873   7.041   1.675  11.021
 6226TIP3    H242874   7.010   1.786  11.130
 6227TIP3   OH242875   7.379   0.308  10.916
 6227TIP3    H142876   7.324   0.216  10.919
 6227TIP3    H242877   7.448   0.284  10.844
 6228TIP3   OH242878   7.906   0.109  10.908
 6228TIP3    H142879   7.961   0.128  10.826
 6228TIP3    H242880   7.816   0.064  10.875
 6229TIP3   OH242881   8.105   0.107  10.697
 6229TIP3    H142882   8.184   0.044  10.667
 6229TIP3    H242883   8.156   0.179  10.753
 6230TIP3   OH242884   6.530   0.121  10.682
 6230TIP3    H142885   6.472   0.141  10.602
 6230TIP3    H242886   6.537   0.013  10.675
 6231TIP3   OH242887   6.445   0.121  10.327
 6231TIP3    H142888   6.471   0.166  10.241
 6231TIP3    H242889   6.339   0.138  10.329
 6232TIP3   OH242890   7.038   0.120  10.653
 6232TIP3    H142891   7.126   0.156  10.608
 6232TIP3    H242892   7.070   0.133  10.746
 6233TIP3   OH242893   7.613   0.164  10.761
 6233TIP3    H142894   7.675   0.179  10.682
 6233TIP3    H242895   7.622   0.058  10.775
 6234TIP3   OH242896   7.789   0.183  10.400
 6234TIP3    H142897   7.687   0.212  10.389
 6234TIP3    H242898   7.788   0.084  10.364
 6235TIP3   OH242899   6.394   1.808  10.354
 6235TIP3    H142900   6.299   1.808  10.308
 6235TIP3    H242901   6.415   1.912  10.346
 6236TIP3   OH242902   6.576   0.207  10.099
 6236TIP3    H142903   6.665   0.154  10.078
 6236TIP3    H242904   6.613   0.300  10.130
 6237TIP3   OH242905   7.142   0.328  10.357
 6237TIP3    H142906   7.188   0.254  10.412
 6237TIP3    H242907   7.176   0.415  10.406
 6238TIP3   OH242908   7.367   1.959  10.153
 6238TIP3    H142909   7.473   1.972  10.141
 6238TIP3    H242910   7.345   1.895  10.077
 6239TIP3   OH242911   8.085   1.881  10.470
 6239TIP3    H142912   8.071   1.782  10.433
 6239TIP3    H242913   8.090   1.944  10.390
 6240TIP3   OH242914   6.478   0.118  11.673
 6240TIP3    H142915   6.487   0.023  11.630
 6240TIP3    H242916   6.574   0.125  11.718
 6241TIP3   OH242917   6.738   0.100  11.797
 6241TIP3    H142918   6.837   0.141  11.799
 6241TIP3    H242919   6.761   0.003  11.755
 6242TIP3   OH242920   6.632   1.950  10.111
 6242TIP3    H142921   6.562   1.974  10.180
 6242TIP3    H242922   6.667   1.854  10.135
 6243TIP3   OH242923   7.659   0.051  11.801
 6243TIP3    H142924   7.636  -0.055  11.810
 6243TIP3    H242925   7.746   0.045  11.747
 6244TIP3   OH242926   8.008   1.713  11.645
 6244TIP3    H142927   7.937   1.725  11.573
 6244TIP3    H242928   8.014   1.815  11.675
 6245TIP3   OH242929   8.314   0.712  10.572
 6245TIP3    H142930   8.308   0.818  10.570
 6245TIP3    H242931   8.274   0.690  10.483
 6246TIP3   OH242932   8.332   1.229  11.330
 6246TIP3    H142933   8.279   1.221  11.244
 6246TIP3    H242934   8.351   1.124  11.351
 6247TIP3   OH242935   8.296   1.553  11.012
 6247TIP3    H142936   8.400   1.550  10.981
 6247TIP3    H242937   8.300   1.634  11.075
 6248TIP3   OH242938   8.281   0.361  10.740
 6248TIP3    H142939   8.375   0.408  10.762
 6248TIP3    H242940   8.283   0.374  10.643
 6249TIP3   OH242941   8.352   0.964  11.423
 6249TIP3    H142942   8.328   0.905  11.503
 6249TIP3    H242943   8.271   0.933  11.364
 6250TIP3   OH242944   8.382   1.157  11.760
 6250TIP3    H142945   8.319   1.126  11.834
 6250TIP3    H242946   8.312   1.206  11.700
 6251TIP3   OH242947   8.259   2.020  10.644
 6251TIP3    H142948   8.195   1.967  10.580
 6251TIP3    H242949   8.283   1.935  10.702
 6252TIP3   OH242950   8.309   1.775  10.797
 6252TIP3    H142951   8.272   1.676  10.810
 6252TIP3    H242952   8.354   1.791  10.884
 6253TIP3   OH242953   8.369   1.039  11.069
 6253TIP3    H142954   8.375   1.024  10.974
 6253TIP3    H242955   8.467   1.081  11.084
 6254TIP3   OH242956   8.279   0.538  11.649
 6254TIP3    H142957   8.381   0.570  11.659
 6254TIP3    H242958   8.279   0.432  11.662
 6255TIP3   OH242959   8.247   0.670  10.983
 6255TIP3    H142960   8.351   0.651  10.971
 6255TIP3    H242961   8.259   0.740  11.056
 6256TIP3   OH242962   8.307   0.330  10.456
 6256TIP3    H142963   8.201   0.321  10.466
 6256TIP3    H242964   8.316   0.331  10.359
 6257TIP3   OH242965   8.273   0.188  11.264
 6257TIP3    H142966   8.209   0.192  11.344
 6257TIP3    H242967   8.231   0.265  11.206
 6258TIP3   OH242968   1.352   3.169  10.676
 6258TIP3    H142969   1.348   3.270  10.709
 6258TIP3    H242970   1.272   3.170  10.611
 6259TIP3   OH242971   1.207   3.023  11.000
 6259TIP3    H142972   1.186   2.961  11.078
 6259TIP3    H242973   1.137   2.987  10.932
 6260TIP3   OH242974   0.370   3.036  11.143
 6260TIP3    H142975   0.365   2.945  11.192
 6260TIP3    H242976   0.430   3.094  11.203
 6261TIP3   OH242977   1.546   3.381  10.869
 6261TIP3    H142978   1.530   3.300  10.931
 6261TIP3    H242979   1.574   3.460  10.929
 6262TIP3   OH242980   0.394   3.531  10.980
 6262TIP3    H142981   0.371   3.427  10.961
 6262TIP3    H242982   0.499   3.522  10.986
 6263TIP3   OH242983   0.160   2.818  10.541
 6263TIP3    H142984   0.128   2.880  10.614
 6263TIP3    H242985   0.067   2.763  10.528
 6264TIP3   OH242986   0.122   3.048  10.802
 6264TIP3    H142987   0.179   2.963  10.834
 6264TIP3    H242988   0.195   3.098  10.747
 6265TIP3   OH242989   1.309   3.997  10.892
 6265TIP3    H142990   1.374   3.930  10.841
 6265TIP3    H242991   1.242   3.926  10.928
 6266TIP3   OH242992   1.005   3.304  11.092
 6266TIP3    H142993   1.046   3.281  11.006
 6266TIP3    H242994   1.091   3.350  11.136
 6267TIP3   OH242995   1.951   2.389  11.110
 6267TIP3    H142996   1.968   2.454  11.187
 6267TIP3    H242997   2.037   2.412  11.056
 6268TIP3   OH242998   1.415   2.717  11.110
 6268TIP3    H142999   1.420   2.611  11.125
 6268TIP3    H243000   1.389   2.714  11.015
 6269TIP3   OH243001   0.638   2.495  10.796
 6269TIP3    H143002   0.658   2.582  10.740
 6269TIP3    H243003   0.591   2.432  10.730
 6270TIP3   OH243004   1.450   2.521  10.650
 6270TIP3    H143005   1.502   2.489  10.732
 6270TIP3    H243006   1.521   2.587  10.612
 6271TIP3   OH243007   0.303   2.807  10.861
 6271TIP3    H143008   0.356   2.738  10.918
 6271TIP3    H243009   0.310   2.754  10.776
 6272TIP3   OH243010   0.726   2.947  10.825
 6272TIP3    H143011   0.824   2.915  10.851
 6272TIP3    H243012   0.702   2.868  10.761
 6273TIP3   OH243013   1.977   2.554  11.332
 6273TIP3    H143014   1.933   2.647  11.297
 6273TIP3    H243015   2.012   2.591  11.417
 6274TIP3   OH243016   0.503   2.394  11.208
 6274TIP3    H143017   0.479   2.450  11.128
 6274TIP3    H243018   0.435   2.440  11.273
 6275TIP3   OH243019   1.263   3.454  10.554
 6275TIP3    H143020   1.252   3.445  10.457
 6275TIP3    H243021   1.224   3.554  10.568
 6276TIP3   OH243022   0.756   3.245  11.225
 6276TIP3    H143023   0.694   3.330  11.248
 6276TIP3    H243024   0.837   3.291  11.176
 6277TIP3   OH243025   1.641   2.483  10.853
 6277TIP3    H143026   1.637   2.394  10.904
 6277TIP3    H243027   1.733   2.527  10.885
 6278TIP3   OH243028   0.453   2.606  11.006
 6278TIP3    H143029   0.518   2.677  11.051
 6278TIP3    H243030   0.517   2.573  10.932
 6279TIP3   OH243031   0.611   3.496  11.297
 6279TIP3    H143032   0.584   3.586  11.252
 6279TIP3    H243033   0.517   3.472  11.342
 6280TIP3   OH243034   0.108   3.413  10.386
 6280TIP3    H143035   0.121   3.457  10.297
 6280TIP3    H243036   0.152   3.485  10.447
 6281TIP3   OH243037   1.659   3.608  11.056
 6281TIP3    H143038   1.556   3.626  11.082
 6281TIP3    H243039   1.682   3.706  11.023
 6282TIP3   OH243040   1.645   2.349  11.187
 6282TIP3    H143041   1.564   2.387  11.132
 6282TIP3    H243042   1.730   2.369  11.132
 6283TIP3   OH243043   0.902   2.119  10.927
 6283TIP3    H143044   0.868   2.021  10.948
 6283TIP3    H243045   0.823   2.178  10.968
 6284TIP3   OH243046   1.470   3.809  10.741
 6284TIP3    H143047   1.484   3.718  10.692
 6284TIP3    H243048   1.561   3.860  10.713
 6285TIP3   OH243049   1.590   3.573  10.588
 6285TIP3    H143050   1.581   3.494  10.523
 6285TIP3    H243051   1.578   3.516  10.669
 6286TIP3   OH243052   1.763   3.420  11.439
 6286TIP3    H143053   1.788   3.344  11.372
 6286TIP3    H243054   1.771   3.508  11.383
 6287TIP3   OH243055   1.187   3.120  10.415
 6287TIP3    H143056   1.122   3.202  10.390
 6287TIP3    H243057   1.272   3.135  10.357
 6288TIP3   OH243058   1.217   2.934  10.126
 6288TIP3    H143059   1.291   2.982  10.183
 6288TIP3    H243060   1.269   2.841  10.110
 6289TIP3   OH243061   1.990   3.035  11.230
 6289TIP3    H143062   1.912   3.109  11.233
 6289TIP3    H243063   2.056   3.081  11.165
 6290TIP3   OH243064   1.574   3.069  10.514
 6290TIP3    H143065   1.500   3.115  10.574
 6290TIP3    H243066   1.646   3.032  10.580
 6291TIP3   OH243067   1.584   2.896  11.426
 6291TIP3    H143068   1.572   2.996  11.461
 6291TIP3    H243069   1.517   2.898  11.350
 6292TIP3   OH243070   0.617   3.188  10.706
 6292TIP3    H143071   0.567   3.148  10.627
 6292TIP3    H243072   0.645   3.098  10.754
 6293TIP3   OH243073   0.779   3.514  10.959
 6293TIP3    H143074   0.795   3.510  10.863
 6293TIP3    H243075   0.859   3.456  10.994
 6294TIP3   OH243076   0.701   3.004  11.085
 6294TIP3    H143077   0.716   3.017  10.988
 6294TIP3    H243078   0.710   3.102  11.124
 6295TIP3   OH243079   1.379   3.652  11.135
 6295TIP3    H143080   1.359   3.726  11.203
 6295TIP3    H243081   1.322   3.569  11.169
 6296TIP3   OH243082   0.773   3.529  11.520
 6296TIP3    H143083   0.686   3.573  11.562
 6296TIP3    H243084   0.737   3.514  11.428
 6297TIP3   OH243085   1.431   3.038  10.282
 6297TIP3    H143086   1.483   3.043  10.369
 6297TIP3    H243087   1.503   3.090  10.224
 6298TIP3   OH243088   0.494   3.100  11.420
 6298TIP3    H143089   0.486   3.192  11.471
 6298TIP3    H243090   0.394   3.066  11.420
 6299TIP3   OH243091   1.169   3.749  10.563
 6299TIP3    H143092   1.206   3.787  10.646
 6299TIP3    H243093   1.115   3.829  10.523
 6300TIP3   OH243094   0.569   3.719  11.609
 6300TIP3    H143095   0.554   3.741  11.514
 6300TIP3    H243096   0.465   3.705  11.636
 6301TIP3   OH243097   1.871   2.092  10.300
 6301TIP3    H143098   1.763   2.087  10.314
 6301TIP3    H243099   1.880   2.193  10.270
 6302TIP3   OH243100   0.473   3.037  10.485
 6302TIP3    H143101   0.449   3.109  10.415
 6302TIP3    H243102   0.459   2.944  10.442
 6303TIP3   OH243103   1.966   3.709  10.121
 6303TIP3    H143104   2.000   3.812  10.128
 6303TIP3    H243105   2.058   3.655  10.135
 6304TIP3   OH243106   0.187   3.294  11.359
 6304TIP3    H143107   0.084   3.299  11.330
 6304TIP3    H243108   0.197   3.193  11.389
 6305TIP3   OH243109   0.139   3.672  10.986
 6305TIP3    H143110   0.220   3.599  10.993
 6305TIP3    H243111   0.153   3.726  11.069
 6306TIP3   OH243112   2.069   3.704  11.615
 6306TIP3    H143113   2.055   3.600  11.594
 6306TIP3    H243114   1.971   3.726  11.651
 6307TIP3   OH243115   1.045   3.641  11.496
 6307TIP3    H143116   1.060   3.728  11.552
 6307TIP3    H243117   0.942   3.614  11.513
 6308TIP3   OH243118   1.098   4.055  10.438
 6308TIP3    H143119   1.126   4.076  10.346
 6308TIP3    H243120   1.117   4.149  10.482
 6309TIP3   OH243121   0.440   3.902  10.647
 6309TIP3    H143122   0.468   3.887  10.742
 6309TIP3    H243123   0.333   3.903  10.657
 6310TIP3   OH243124   1.429   4.039  10.181
 6310TIP3    H143125   1.485   3.958  10.141
 6310TIP3    H243126   1.464   4.038  10.271
 6311TIP3   OH243127   1.409   3.980  10.470
 6311TIP3    H143128   1.302   3.974  10.477
 6311TIP3    H243129   1.439   3.883  10.501
 6312TIP3   OH243130   1.708   2.747  11.655
 6312TIP3    H143131   1.674   2.803  11.577
 6312TIP3    H243132   1.728   2.652  11.612
 6313TIP3   OH243133   0.342   3.531  11.427
 6313TIP3    H143134   0.355   3.498  11.519
 6313TIP3    H243135   0.278   3.451  11.395
 6314TIP3   OH243136   0.656   2.237  11.027
 6314TIP3    H143137   0.562   2.243  10.978
 6314TIP3    H243138   0.625   2.279  11.112
 6315TIP3   OH243139   1.158   2.152  11.352
 6315TIP3    H143140   1.192   2.102  11.433
 6315TIP3    H243141   1.051   2.148  11.361
 6316TIP3   OH243142   1.476   2.626  11.469
 6316TIP3    H143143   1.437   2.598  11.557
 6316TIP3    H243144   1.509   2.727  11.480
 6317TIP3   OH243145   1.612   3.160  10.120
 6317TIP3    H143146   1.572   3.164  10.028
 6317TIP3    H243147   1.715   3.180  10.097
 6318TIP3   OH243148   1.129   2.464  10.128
 6318TIP3    H143149   1.076   2.424  10.207
 6318TIP3    H243150   1.070   2.421  10.059
 6319TIP3   OH243151   0.643   2.738  11.177
 6319TIP3    H143152   0.551   2.751  11.226
 6319TIP3    H243153   0.664   2.839  11.146
 6320TIP3   OH243154   0.666   2.735  10.645
 6320TIP3    H143155   0.557   2.737  10.634
 6320TIP3    H243156   0.697   2.715  10.554
 6321TIP3   OH243157   1.269   2.860  10.551
 6321TIP3    H143158   1.232   2.945  10.499
 6321TIP3    H243159   1.337   2.816  10.486
 6322TIP3   OH243160   1.114   2.865  11.681
 6322TIP3    H143161   1.072   2.774  11.721
 6322TIP3    H243162   1.210   2.864  11.724
 6323TIP3   OH243163   1.370   2.772  10.816
 6323TIP3    H143164   1.350   2.865  10.770
 6323TIP3    H243165   1.377   2.708  10.737
 6324TIP3   OH243166   0.378   2.748  11.301
 6324TIP3    H143167   0.349   2.796  11.382
 6324TIP3    H243168   0.348   2.647  11.319
 6325TIP3   OH243169   0.720   2.424  10.024
 6325TIP3    H143170   0.704   2.446  10.117
 6325TIP3    H243171   0.655   2.489   9.976
 6326TIP3   OH243172   0.135   2.514  10.717
 6326TIP3    H143173   0.172   2.456  10.794
 6326TIP3    H243174   0.139   2.445  10.643
 6327TIP3   OH243175   0.119   2.539  10.253
 6327TIP3    H143176   0.199   2.585  10.205
 6327TIP3    H243177   0.058   2.624  10.270
 6328TIP3   OH243178   1.233   2.880  11.257
 6328TIP3    H143179   1.316   2.836  11.209
 6328TIP3    H243180   1.200   2.798  11.313
 6329TIP3   OH243181   0.953   2.482  10.749
 6329TIP3    H143182   0.854   2.496  10.783
 6329TIP3    H243183   1.003   2.440  10.825
 6330TIP3   OH243184   0.384   2.672  10.630
 6330TIP3    H143185   0.295   2.701  10.578
 6330TIP3    H243186   0.377   2.563  10.623
 6331TIP3   OH243187   0.751   2.655  10.385
 6331TIP3    H143188   0.851   2.690  10.401
 6331TIP3    H243189   0.710   2.735  10.330
 6332TIP3   OH243190   1.397   2.417  11.071
 6332TIP3    H143191   1.331   2.402  11.147
 6332TIP3    H243192   1.354   2.355  11.002
 6333TIP3   OH243193   0.649   2.835  10.190
 6333TIP3    H143194   0.565   2.793  10.141
 6333TIP3    H243195   0.723   2.849  10.120
 6334TIP3   OH243196   1.729   4.149  11.720
 6334TIP3    H143197   1.757   4.204  11.641
 6334TIP3    H243198   1.821   4.157  11.769
 6335TIP3   OH243199   0.458   3.323  11.620
 6335TIP3    H143200   0.526   3.331  11.695
 6335TIP3    H243201   0.371   3.281  11.663
 6336TIP3   OH243202   1.029   2.785  10.905
 6336TIP3    H143203   1.125   2.772  10.865
 6336TIP3    H243204   1.014   2.690  10.945
 6337TIP3   OH243205   0.442   2.388  10.594
 6337TIP3    H143206   0.383   2.303  10.623
 6337TIP3    H243207   0.450   2.371  10.499
 6338TIP3   OH243208   0.900   2.598  11.168
 6338TIP3    H143209   0.810   2.657  11.161
 6338TIP3    H243210   0.967   2.666  11.209
 6339TIP3   OH243211   0.984   3.329  10.366
 6339TIP3    H143212   0.901   3.277  10.324
 6339TIP3    H243213   0.943   3.342  10.456
 6340TIP3   OH243214   1.781   3.246  11.234
 6340TIP3    H143215   1.840   3.307  11.171
 6340TIP3    H243216   1.694   3.231  11.179
 6341TIP3   OH243217   1.406   2.522  10.176
 6341TIP3    H143218   1.298   2.516  10.165
 6341TIP3    H243219   1.419   2.620  10.215
 6342TIP3   OH243220   1.101   3.343  11.487
 6342TIP3    H143221   1.055   3.333  11.573
 6342TIP3    H243222   1.096   3.450  11.475
 6343TIP3   OH243223   1.470   2.748  10.333
 6343TIP3    H143224   1.558   2.719  10.383
 6343TIP3    H243225   1.500   2.842  10.296
 6344TIP3   OH243226   0.451   3.253  10.922
 6344TIP3    H143227   0.496   3.246  10.834
 6344TIP3    H243228   0.486   3.164  10.966
 6345TIP3   OH243229   1.231   3.475  10.276
 6345TIP3    H143230   1.184   3.572  10.281
 6345TIP3    H243231   1.146   3.410  10.290
 6346TIP3   OH243232   0.202   2.997  11.429
 6346TIP3    H143233   0.196   2.996  11.526
 6346TIP3    H243234   0.097   2.994  11.408
 6347TIP3   OH243235   0.873   3.029  11.647
 6347TIP3    H143236   0.799   2.957  11.626
 6347TIP3    H243237   0.949   2.972  11.692
 6348TIP3   OH243238   1.422   3.605  11.504
 6348TIP3    H143239   1.333   3.614  11.454
 6348TIP3    H243240   1.391   3.649  11.590
 6349TIP3   OH243241   2.022   2.748  10.324
 6349TIP3    H143242   1.942   2.724  10.262
 6349TIP3    H243243   2.020   2.856  10.315
 6350TIP3   OH243244   2.032   3.381  11.572
 6350TIP3    H143245   1.936   3.406  11.532
 6350TIP3    H243246   2.097   3.379  11.493
 6351TIP3   OH243247   1.851   3.675  10.372
 6351TIP3    H143248   1.757   3.626  10.370
 6351TIP3    H243249   1.877   3.681  10.276
 6352TIP3   OH243250   1.509   3.153  11.044
 6352TIP3    H143251   1.409   3.126  11.020
 6352TIP3    H243252   1.561   3.069  11.004
 6353TIP3   OH243253   0.674   3.618  10.682
 6353TIP3    H143254   0.707   3.711  10.644
 6353TIP3    H243255   0.572   3.616  10.656
 6354TIP3   OH243256   0.261   3.022  10.138
 6354TIP3    H143257   0.319   3.101  10.176
 6354TIP3    H243258   0.162   3.048  10.162
 6355TIP3   OH243259   0.837   3.370  10.616
 6355TIP3    H143260   0.775   3.458  10.623
 6355TIP3    H243261   0.778   3.297  10.662
 6356TIP3   OH243262   0.923   3.806  11.290
 6356TIP3    H143263   0.982   3.889  11.256
 6356TIP3    H243264   0.989   3.762  11.356
 6357TIP3   OH243265   0.733   3.893  10.580
 6357TIP3    H143266   0.627   3.896  10.598
 6357TIP3    H243267   0.761   3.994  10.597
 6358TIP3   OH243268   1.242   3.395  11.227
 6358TIP3    H143269   1.212   3.348  11.311
 6358TIP3    H243270   1.318   3.329  11.193
 6359TIP3   OH243271   1.570   3.495  10.129
 6359TIP3    H143272   1.576   3.445  10.216
 6359TIP3    H243273   1.464   3.490  10.120
 6360TIP3   OH243274   1.614   3.874  11.458
 6360TIP3    H143275   1.519   3.825  11.460
 6360TIP3    H243276   1.609   3.938  11.379
 6361TIP3   OH243277   2.052   3.992  10.166
 6361TIP3    H143278   2.124   4.067  10.142
 6361TIP3    H243279   1.982   4.055  10.218
 6362TIP3   OH243280   0.307   2.492  11.404
 6362TIP3    H143281   0.276   2.544  11.485
 6362TIP3    H243282   0.297   2.390  11.431
 6363TIP3   OH243283   1.645   3.350  10.360
 6363TIP3    H143284   1.636   3.244  10.348
 6363TIP3    H243285   1.749   3.362  10.344
 6364TIP3   OH243286   0.267   3.795  11.222
 6364TIP3    H143287   0.336   3.715  11.238
 6364TIP3    H243288   0.239   3.818  11.312
 6365TIP3   OH243289   0.737   3.555  10.221
 6365TIP3    H143290   0.827   3.514  10.258
 6365TIP3    H243291   0.746   3.659  10.250
 6366TIP3   OH243292   0.383   3.257  10.284
 6366TIP3    H143293   0.296   3.307  10.319
 6366TIP3    H243294   0.436   3.337  10.242
 6367TIP3   OH243295   1.254   2.450  11.329
 6367TIP3    H143296   1.345   2.468  11.377
 6367TIP3    H243297   1.225   2.351  11.357
 6368TIP3   OH243298   1.352   2.369  10.438
 6368TIP3    H143299   1.377   2.440  10.368
 6368TIP3    H243300   1.404   2.412  10.516
 6369TIP3   OH243301   1.084   3.748  10.258
 6369TIP3    H143302   0.989   3.774  10.297
 6369TIP3    H243303   1.130   3.843  10.248
 6370TIP3   OH243304   1.047   2.612  10.521
 6370TIP3    H143305   1.111   2.696  10.539
 6370TIP3    H243306   1.008   2.588  10.609
 6371TIP3   OH243307   1.128   2.685  11.439
 6371TIP3    H143308   1.159   2.653  11.528
 6371TIP3    H243309   1.167   2.600  11.387
 6372TIP3   OH243310   1.112   2.253  10.563
 6372TIP3    H143311   1.068   2.341  10.603
 6372TIP3    H243312   1.202   2.298  10.524
 6373TIP3   OH243313   0.784   3.837  10.297
 6373TIP3    H143314   0.800   3.935  10.257
 6373TIP3    H243315   0.762   3.865  10.389
 6374TIP3   OH243316   0.615   2.392  10.304
 6374TIP3    H143317   0.636   2.486  10.349
 6374TIP3    H243318   0.705   2.339  10.324
 6375TIP3   OH243319   1.750   2.495  11.515
 6375TIP3    H143320   1.647   2.497  11.488
 6375TIP3    H243321   1.797   2.492  11.427
 6376TIP3   OH243322   1.624   2.886  10.910
 6376TIP3    H143323   1.537   2.825  10.895
 6376TIP3    H243324   1.691   2.818  10.955
 6377TIP3   OH243325   0.453   3.540  10.138
 6377TIP3    H143326   0.542   3.569  10.185
 6377TIP3    H243327   0.497   3.467  10.078
 6378TIP3   OH243328   0.348   2.729  10.130
 6378TIP3    H143329   0.338   2.833  10.157
 6378TIP3    H243330   0.265   2.729  10.066
 6379TIP3   OH243331   1.726   3.928  11.060
 6379TIP3    H143332   1.730   3.990  10.981
 6379TIP3    H243333   1.832   3.922  11.080
 6380TIP3   OH243334   0.367   2.175  10.957
 6380TIP3    H143335   0.359   2.151  10.861
 6380TIP3    H243336   0.338   2.079  10.996
 6381TIP3   OH243337   0.228   3.659  10.513
 6381TIP3    H143338   0.141   3.711  10.540
 6381TIP3    H243339   0.285   3.735  10.470
 6382TIP3   OH243340   0.178   4.008  11.686
 6382TIP3    H143341   0.245   4.012  11.763
 6382TIP3    H243342   0.141   3.911  11.700
 6383TIP3   OH243343   0.682   3.909  11.818
 6383TIP3    H143344   0.770   3.861  11.850
 6383TIP3    H243345   0.656   3.851  11.740
 6384TIP3   OH243346   1.108   3.794   9.964
 6384TIP3    H143347   1.041   3.726  10.005
 6384TIP3    H243348   1.199   3.766  10.007
 6385TIP3   OH243349   1.357   3.730  11.735
 6385TIP3    H143350   1.319   3.634  11.766
 6385TIP3    H243351   1.453   3.731  11.781
 6386TIP3   OH243352   1.551   3.783  10.086
 6386TIP3    H143353   1.580   3.681  10.099
 6386TIP3    H243354   1.618   3.821  10.019
 6387TIP3   OH243355   0.218   3.339  11.831
 6387TIP3    H143356   0.265   3.248  11.860
 6387TIP3    H243357   0.124   3.299  11.793
 6388TIP3   OH243358   0.667   3.298  10.064
 6388TIP3    H143359   0.678   3.256  10.154
 6388TIP3    H243360   0.763   3.339  10.052
 6389TIP3   OH243361   0.865   3.331  11.707
 6389TIP3    H143362   0.849   3.387  11.623
 6389TIP3    H243363   0.869   3.227  11.680
 6390TIP3   OH243364   1.493   3.285  11.486
 6390TIP3    H143365   1.587   3.335  11.481
 6390TIP3    H243366   1.434   3.370  11.511
 6391TIP3   OH243367   0.256   2.992  11.753
 6391TIP3    H143368   0.339   2.925  11.760
 6391TIP3    H243369   0.234   3.012  11.848
 6392TIP3   OH243370   0.769   3.148  10.270
 6392TIP3    H143371   0.700   3.084  10.316
 6392TIP3    H243372   0.815   3.079  10.207
 6393TIP3   OH243373   0.697   2.892  11.436
 6393TIP3    H143374   0.614   2.947  11.473
 6393TIP3    H243375   0.703   2.944  11.352
 6394TIP3   OH243376   0.914   2.946  10.065
 6394TIP3    H143377   0.934   2.915   9.974
 6394TIP3    H243378   1.014   2.943  10.103
 6395TIP3   OH243379   1.250   3.197  11.779
 6395TIP3    H143380   1.326   3.139  11.732
 6395TIP3    H243381   1.209   3.124  11.839
 6396TIP3   OH243382   1.872   3.179  19.999
 6396TIP3    H143383   1.938   3.138  19.933
 6396TIP3    H243384   1.911   3.279  20.002
 6397TIP3   OH243385   0.749   2.629  11.531
 6397TIP3    H143386   0.758   2.551  11.463
 6397TIP3    H243387   0.736   2.718  11.476
 6398TIP3   OH243388   0.769   2.412  11.344
 6398TIP3    H143389   0.803   2.457  11.260
 6398TIP3    H243390   0.663   2.398  11.328
 6399TIP3   OH243391   0.947   3.048  11.308
 6399TIP3    H143392   1.019   3.098  11.253
 6399TIP3    H243393   0.864   3.115  11.295
 6400TIP3   OH243394   1.439   2.748  11.851
 6400TIP3    H143395   1.451   2.642  11.857
 6400TIP3    H243396   1.533   2.779  11.813
 6401TIP3   OH243397   1.564   3.104  11.679
 6401TIP3    H143398   1.531   3.166  11.604
 6401TIP3    H243399   1.669   3.100  11.659
 6402TIP3   OH243400   0.491   2.762  11.688
 6402TIP3    H143401   0.444   2.669  11.708
 6402TIP3    H243402   0.575   2.727  11.638
 6403TIP3   OH243403   0.856   2.131  11.370
 6403TIP3    H143404   0.829   2.235  11.362
 6403TIP3    H243405   0.785   2.086  11.309
 6404TIP3   OH243406   0.969   2.620  11.754
 6404TIP3    H143407   0.912   2.575  11.826
 6404TIP3    H243408   0.905   2.597  11.678
 6405TIP3   OH243409   1.276   2.528  11.656
 6405TIP3    H143410   1.188   2.486  11.695
 6405TIP3    H243411   1.350   2.475  11.710
 6406TIP3   OH243412   1.443   2.367  11.826
 6406TIP3    H143413   1.448   2.261  11.833
 6406TIP3    H243414   1.432   2.398  11.920
 6407TIP3   OH243415   0.323   2.492  11.764
 6407TIP3    H143416   0.354   2.397  11.728
 6407TIP3    H243417   0.289   2.463  11.854
 6408TIP3   OH243418   0.855   2.069  11.662
 6408TIP3    H143419   0.947   2.015  11.657
 6408TIP3    H243420   0.836   2.080  11.567
 6409TIP3   OH243421   0.888   2.278  11.861
 6409TIP3    H143422   0.872   2.190  11.805
 6409TIP3    H243423   0.809   2.346  11.834
 6410TIP3   OH243424   0.836   4.101  10.193
 6410TIP3    H143425   0.942   4.109  10.201
 6410TIP3    H243426   0.816   4.143  10.106
 6411TIP3   OH243427   0.169   3.477  10.120
 6411TIP3    H143428   0.272   3.512  10.122
 6411TIP3    H243429   0.176   3.397  10.057
 6412TIP3   OH243430   0.095   4.067  10.578
 6412TIP3    H143431  -0.004   4.103  10.597
 6412TIP3    H243432   0.115   4.012  10.660
 6413TIP3   OH243433   0.186   3.898  10.798
 6413TIP3    H143434   0.183   3.795  10.822
 6413TIP3    H243435   0.219   3.942  10.881
 6414TIP3   OH243436   2.034   3.963  11.070
 6414TIP3    H143437   2.062   3.981  11.162
 6414TIP3    H243438   2.099   4.029  11.023
 6415TIP3   OH243439   1.967   3.928  11.365
 6415TIP3    H143440   1.922   3.845  11.317
 6415TIP3    H243441   1.995   3.878  11.447
 6416TIP3   OH243442   1.830   3.461  11.853
 6416TIP3    H143443   1.725   3.467  11.870
 6416TIP3    H243444   1.868   3.546  11.903
 6417TIP3   OH243445   1.937   3.300  10.362
 6417TIP3    H143446   2.034   3.340  10.387
 6417TIP3    H243447   1.909   3.247  10.442
 6418TIP3   OH243448   2.000   3.086  10.600
 6418TIP3    H143449   1.904   3.042  10.625
 6418TIP3    H243450   2.049   3.089  10.687
 6419TIP3   OH243451   1.956   3.387  11.064
 6419TIP3    H143452   2.028   3.312  11.041
 6419TIP3    H243453   1.997   3.474  11.022
 6420TIP3   OH243454   1.812   3.685  11.298
 6420TIP3    H143455   1.738   3.730  11.356
 6420TIP3    H243456   1.755   3.660  11.218
 6421TIP3   OH243457   2.052   3.062  10.213
 6421TIP3    H143458   1.979   3.089  10.145
 6421TIP3    H243459   2.042   3.146  10.273
 6422TIP3   OH243460   1.789   2.722  10.140
 6422TIP3    H143461   1.769   2.797  10.073
 6422TIP3    H243462   1.834   2.649  10.083
 6423TIP3   OH243463   1.762   2.927  10.675
 6423TIP3    H143464   1.749   2.825  10.652
 6423TIP3    H243465   1.730   2.926  10.768
 6424TIP3   OH243466   0.164   3.226  11.015
 6424TIP3    H143467   0.165   3.161  10.936
 6424TIP3    H243468   0.259   3.199  11.056
 6425TIP3   OH243469   1.880   3.130  11.613
 6425TIP3    H143470   1.928   3.034  11.625
 6425TIP3    H243471   1.958   3.200  11.589
 6426TIP3   OH243472   1.993   2.858  11.643
 6426TIP3    H143473   1.899   2.826  11.680
 6426TIP3    H243474   2.059   2.774  11.660
 6427TIP3   OH243475   1.767   2.471   9.971
 6427TIP3    H143476   1.828   2.424  10.038
 6427TIP3    H243477   1.670   2.444  10.000
 6428TIP3   OH243478   1.703   2.653  10.483
 6428TIP3    H143479   1.727   2.551  10.506
 6428TIP3    H243480   1.799   2.681  10.448
 6429TIP3   OH243481   1.815   2.694  11.034
 6429TIP3    H143482   1.922   2.714  11.040
 6429TIP3    H243483   1.785   2.708  11.126
 6430TIP3   OH243484   1.821   2.791  11.294
 6430TIP3    H143485   1.738   2.827  11.346
 6430TIP3    H243486   1.874   2.882  11.270
 6431TIP3   OH243487   0.125   2.597  11.591
 6431TIP3    H143488   0.205   2.621  11.653
 6431TIP3    H243489   0.127   2.489  11.595
 6432TIP3   OH243490   2.043   2.135  11.812
 6432TIP3    H143491   2.099   2.067  11.756
 6432TIP3    H243492   2.038   2.224  11.755
 6433TIP3   OH243493   1.802   2.374  10.515
 6433TIP3    H143494   1.844   2.322  10.593
 6433TIP3    H243495   1.747   2.294  10.473
 6434TIP3   OH243496   0.201   2.424  10.979
 6434TIP3    H143497   0.262   2.335  10.991
 6434TIP3    H243498   0.270   2.504  10.998
 6435TIP3   OH243499   0.094   2.761  11.059
 6435TIP3    H143500   0.171   2.761  10.992
 6435TIP3    H243501   0.111   2.851  11.107
 6436TIP3   OH243502   1.956   2.358  11.661
 6436TIP3    H143503   1.879   2.429  11.638
 6436TIP3    H243504   1.964   2.312  11.573
 6437TIP3   OH243505   1.999   2.379  10.154
 6437TIP3    H143506   2.047   2.328  10.082
 6437TIP3    H243507   2.078   2.446  10.181
 6438TIP3   OH243508   0.105   2.359  10.458
 6438TIP3    H143509  -0.002   2.364  10.459
 6438TIP3    H243510   0.119   2.410  10.372
 6439TIP3   OH243511   1.678   3.982  10.660
 6439TIP3    H143512   1.758   3.961  10.598
 6439TIP3    H243513   1.720   4.049  10.725
 6440TIP3   OH243514   0.075   2.164  11.291
 6440TIP3    H143515  -0.014   2.189  11.339
 6440TIP3    H243516   0.062   2.215  11.208
 6441TIP3   OH243517   0.290   3.655  11.694
 6441TIP3    H143518   0.197   3.643  11.649
 6441TIP3    H243519   0.284   3.596  11.774
 6442TIP3   OH243520   0.625   3.813  11.347
 6442TIP3    H143521   0.625   3.912  11.307
 6442TIP3    H243522   0.729   3.792  11.350
 6443TIP3   OH243523   1.070   3.933  11.602
 6443TIP3    H143524   1.078   3.905  11.697
 6443TIP3    H243525   1.165   3.983  11.589
 6444TIP3   OH243526   1.309   4.103  11.564
 6444TIP3    H143527   1.393   4.057  11.521
 6444TIP3    H243528   1.353   4.143  11.647
 6445TIP3   OH243529   1.890   2.140  11.451
 6445TIP3    H143530   1.797   2.167  11.409
 6445TIP3    H243531   1.903   2.041  11.414
 6446TIP3   OH243532   0.353   4.160  11.329
 6446TIP3    H143533   0.256   4.193  11.297
 6446TIP3    H243534   0.330   4.139  11.422
 6447TIP3   OH243535   0.613   4.083  11.223
 6447TIP3    H143536   0.509   4.102  11.250
 6447TIP3    H243537   0.617   4.151  11.148
 6448TIP3   OH243538   1.096   4.039  11.163
 6448TIP3    H143539   1.065   4.107  11.095
 6448TIP3    H243540   1.138   4.110  11.227
 6449TIP3   OH243541   1.342   3.901  11.291
 6449TIP3    H143542   1.269   3.940  11.228
 6449TIP3    H243543   1.424   3.964  11.268
 6450TIP3   OH243544   1.614   4.087  11.256
 6450TIP3    H143545   1.630   4.186  11.220
 6450TIP3    H243546   1.661   4.029  11.184
 6451TIP3   OH243547   0.312   3.995  11.028
 6451TIP3    H143548   0.285   3.939  11.109
 6451TIP3    H243549   0.404   3.945  11.001
 6452TIP3   OH243550   0.525   3.849  10.904
 6452TIP3    H143551   0.502   3.746  10.915
 6452TIP3    H243552   0.622   3.851  10.946
 6453TIP3   OH243553   0.778   3.821  11.051
 6453TIP3    H143554   0.821   3.726  11.034
 6453TIP3    H243555   0.798   3.826  11.148
 6454TIP3   OH243556   1.143   2.269  10.896
 6454TIP3    H143557   1.054   2.209  10.911
 6454TIP3    H243558   1.175   2.231  10.811
 6455TIP3   OH243559   1.745   2.062  10.879
 6455TIP3    H143560   1.815   2.131  10.835
 6455TIP3    H243561   1.650   2.101  10.845
 6456TIP3   OH243562   1.924   2.218  10.721
 6456TIP3    H143563   1.993   2.154  10.672
 6456TIP3    H243564   1.988   2.302  10.743
 6457TIP3   OH243565   0.357   2.122  10.677
 6457TIP3    H143566   0.265   2.108  10.627
 6457TIP3    H243567   0.408   2.030  10.657
 6458TIP3   OH243568   0.145   2.153  10.215
 6458TIP3    H143569   0.219   2.217  10.171
 6458TIP3    H243570   0.149   2.188  10.306
 6459TIP3   OH243571   0.813   2.075  10.666
 6459TIP3    H143572   0.886   2.124  10.613
 6459TIP3    H243573   0.845   2.097  10.757
 6460TIP3   OH243574   1.474   2.130  10.784
 6460TIP3    H143575   1.417   2.141  10.704
 6460TIP3    H243576   1.416   2.055  10.832
 6461TIP3   OH243577   1.609   2.123  10.398
 6461TIP3    H143578   1.525   2.185  10.385
 6461TIP3    H243579   1.567   2.046  10.454
 6462TIP3   OH243580   0.213   3.942  10.294
 6462TIP3    H143581   0.112   3.922  10.320
 6462TIP3    H243582   0.211   4.049  10.304
 6463TIP3   OH243583   0.392   2.289  10.119
 6463TIP3    H143584   0.458   2.217  10.079
 6463TIP3    H243585   0.460   2.333  10.182
 6464TIP3   OH243586   0.968   2.356  10.333
 6464TIP3    H143587   1.003   2.288  10.401
 6464TIP3    H243588   0.969   2.450  10.383
 6465TIP3   OH243589   1.144   4.021  10.159
 6465TIP3    H143590   1.251   4.043  10.157
 6465TIP3    H243591   1.135   3.975  10.072
 6466TIP3   OH243592   1.877   3.941  10.481
 6466TIP3    H143593   1.861   3.842  10.445
 6466TIP3    H243594   1.848   4.003  10.405
 6467TIP3   OH243595   0.266   2.207  11.630
 6467TIP3    H143596   0.218   2.110  11.632
 6467TIP3    H243597   0.359   2.187  11.675
 6468TIP3   OH243598   0.528   2.154  11.802
 6468TIP3    H143599   0.629   2.133  11.773
 6468TIP3    H243600   0.499   2.059  11.840
 6469TIP3   OH243601   0.501   4.045  10.120
 6469TIP3    H143602   0.422   4.005  10.176
 6469TIP3    H243603   0.576   3.971  10.128
 6470TIP3   OH243604   1.497   2.067  11.812
 6470TIP3    H143605   1.523   1.965  11.827
 6470TIP3    H243606   1.586   2.097  11.762
 6471TIP3   OH243607   1.809   3.826  11.647
 6471TIP3    H143608   1.729   3.826  11.581
 6471TIP3    H243609   1.792   3.918  11.692
 6472TIP3   OH243610   3.420   3.172  10.678
 6472TIP3    H143611   3.416   3.270  10.719
 6472TIP3    H243612   3.337   3.180  10.617
 6473TIP3   OH243613   3.294   3.034  10.993
 6473TIP3    H143614   3.293   2.994  11.085
 6473TIP3    H243615   3.216   2.979  10.949
 6474TIP3   OH243616   2.391   3.029  11.152
 6474TIP3    H143617   2.401   2.959  11.224
 6474TIP3    H243618   2.486   3.078  11.154
 6475TIP3   OH243619   3.625   3.377  10.859
 6475TIP3    H143620   3.605   3.296  10.920
 6475TIP3    H243621   3.661   3.451  10.921
 6476TIP3   OH243622   2.539   3.547  10.991
 6476TIP3    H143623   2.499   3.449  10.976
 6476TIP3    H243624   2.641   3.527  10.970
 6477TIP3   OH243625   2.161   2.811  10.563
 6477TIP3    H143626   2.123   2.910  10.579
 6477TIP3    H243627   2.134   2.797  10.469
 6478TIP3   OH243628   2.220   3.071  10.815
 6478TIP3    H143629   2.267   2.974  10.824
 6478TIP3    H243630   2.287   3.127  10.760
 6479TIP3   OH243631   3.366   3.985  10.849
 6479TIP3    H143632   3.444   3.920  10.813
 6479TIP3    H243633   3.314   3.912  10.900
 6480TIP3   OH243634   3.078   3.332  11.094
 6480TIP3    H143635   3.110   3.290  11.010
 6480TIP3    H243636   3.175   3.363  11.129
 6481TIP3   OH243637   4.017   2.388  11.100
 6481TIP3    H143638   4.019   2.449  11.181
 6481TIP3    H243639   4.107   2.422  11.058
 6482TIP3   OH243640   3.465   2.726  11.120
 6482TIP3    H143641   3.495   2.624  11.109
 6482TIP3    H243642   3.427   2.742  11.030
 6483TIP3   OH243643   2.691   2.477  10.779
 6483TIP3    H143644   2.705   2.567  10.726
 6483TIP3    H243645   2.637   2.420  10.712
 6484TIP3   OH243646   3.519   2.518  10.645
 6484TIP3    H143647   3.568   2.481  10.726
 6484TIP3    H243648   3.589   2.591  10.615
 6485TIP3   OH243649   2.295   2.791  10.875
 6485TIP3    H143650   2.361   2.737  10.933
 6485TIP3    H243651   2.329   2.756  10.788
 6486TIP3   OH243652   2.848   2.949  10.832
 6486TIP3    H143653   2.948   2.914  10.841
 6486TIP3    H243654   2.798   2.860  10.799
 6487TIP3   OH243655   4.039   2.551  11.322
 6487TIP3    H143656   4.002   2.650  11.299
 6487TIP3    H243657   4.076   2.573  11.411
 6488TIP3   OH243658   2.593   2.401  11.199
 6488TIP3    H143659   2.536   2.445  11.126
 6488TIP3    H243660   2.521   2.411  11.271
 6489TIP3   OH243661   3.337   3.453  10.557
 6489TIP3    H143662   3.328   3.441  10.461
 6489TIP3    H243663   3.315   3.559  10.567
 6490TIP3   OH243664   2.808   3.248  11.195
 6490TIP3    H143665   2.751   3.334  11.224
 6490TIP3    H243666   2.892   3.296  11.148
 6491TIP3   OH243667   3.710   2.468  10.847
 6491TIP3    H143668   3.722   2.378  10.896
 6491TIP3    H243669   3.806   2.511  10.858
 6492TIP3   OH243670   2.525   2.606  10.988
 6492TIP3    H143671   2.587   2.678  11.031
 6492TIP3    H243672   2.589   2.571  10.915
 6493TIP3   OH243673   2.677   3.490  11.297
 6493TIP3    H143674   2.666   3.577  11.242
 6493TIP3    H243675   2.578   3.486  11.337
 6494TIP3   OH243676   2.222   3.408  10.380
 6494TIP3    H143677   2.230   3.476  10.303
 6494TIP3    H243678   2.235   3.475  10.455
 6495TIP3   OH243679   3.733   3.607  11.068
 6495TIP3    H143680   3.630   3.631  11.086
 6495TIP3    H243681   3.762   3.699  11.027
 6496TIP3   OH243682   3.717   2.351  11.187
 6496TIP3    H143683   3.642   2.396  11.130
 6496TIP3    H243684   3.804   2.367  11.131
 6497TIP3   OH243685   2.973   2.122  10.946
 6497TIP3    H143686   2.944   2.020  10.937
 6497TIP3    H243687   2.875   2.166  10.965
 6498TIP3   OH243688   3.557   3.799  10.744
 6498TIP3    H143689   3.574   3.710  10.690
 6498TIP3    H243690   3.641   3.860  10.712
 6499TIP3   OH243691   3.675   3.562  10.588
 6499TIP3    H143692   3.667   3.486  10.518
 6499TIP3    H243693   3.669   3.500  10.667
 6500TIP3   OH243694   3.838   3.430  11.444
 6500TIP3    H143695   3.857   3.354  11.375
 6500TIP3    H243696   3.852   3.518  11.390
 6501TIP3   OH243697   3.238   3.086  10.409
 6501TIP3    H143698   3.186   3.176  10.384
 6501TIP3    H243699   3.332   3.093  10.359
 6502TIP3   OH243700   3.306   2.939  10.119
 6502TIP3    H143701   3.387   2.982  10.172
 6502TIP3    H243702   3.345   2.839  10.107
 6503TIP3   OH243703   4.061   3.033  11.223
 6503TIP3    H143704   3.994   3.115  11.236
 6503TIP3    H243705   4.133   3.079  11.164
 6504TIP3   OH243706   3.648   3.078  10.524
 6504TIP3    H143707   3.573   3.120  10.585
 6504TIP3    H243708   3.717   3.033  10.587
 6505TIP3   OH243709   3.653   2.915  11.417
 6505TIP3    H143710   3.623   3.008  11.455
 6505TIP3    H243711   3.587   2.914  11.341
 6506TIP3   OH243712   2.695   3.161  10.704
 6506TIP3    H143713   2.672   3.136  10.610
 6506TIP3    H243714   2.756   3.078  10.731
 6507TIP3   OH243715   2.852   3.520  10.965
 6507TIP3    H143716   2.864   3.499  10.870
 6507TIP3    H243717   2.935   3.468  11.007
 6508TIP3   OH243718   2.709   3.018  11.065
 6508TIP3    H143719   2.753   3.011  10.975
 6508TIP3    H243720   2.762   3.103  11.104
 6509TIP3   OH243721   3.455   3.655  11.137
 6509TIP3    H143722   3.428   3.715  11.213
 6509TIP3    H243723   3.433   3.556  11.169
 6510TIP3   OH243724   2.859   3.526  11.515
 6510TIP3    H143725   2.779   3.574  11.564
 6510TIP3    H243726   2.808   3.511  11.429
 6511TIP3   OH243727   3.503   3.050  10.292
 6511TIP3    H143728   3.554   3.053  10.379
 6511TIP3    H243729   3.575   3.101  10.233
 6512TIP3   OH243730   2.519   3.070  11.451
 6512TIP3    H143731   2.525   3.176  11.462
 6512TIP3    H243732   2.419   3.054  11.482
 6513TIP3   OH243733   3.247   3.744  10.563
 6513TIP3    H143734   3.254   3.772  10.656
 6513TIP3    H243735   3.192   3.825  10.524
 6514TIP3   OH243736   2.658   3.714  11.606
 6514TIP3    H143737   2.641   3.759  11.517
 6514TIP3    H243738   2.556   3.694  11.632
 6515TIP3   OH243739   3.906   2.055  10.269
 6515TIP3    H143740   3.808   2.066  10.310
 6515TIP3    H243741   3.918   2.154  10.234
 6516TIP3   OH243742   2.584   3.035  10.470
 6516TIP3    H143743   2.536   3.115  10.422
 6516TIP3    H243744   2.544   2.949  10.427
 6517TIP3   OH243745   4.040   3.710  10.114
 6517TIP3    H143746   4.069   3.813  10.126
 6517TIP3    H243747   4.132   3.659  10.133
 6518TIP3   OH243748   2.184   3.350  11.351
 6518TIP3    H143749   2.134   3.361  11.265
 6518TIP3    H243750   2.215   3.246  11.345
 6519TIP3   OH243751   2.142   3.630  11.004
 6519TIP3    H143752   2.248   3.623  10.999
 6519TIP3    H243753   2.131   3.719  11.056
 6520TIP3   OH243754   4.136   3.693  11.593
 6520TIP3    H143755   4.120   3.590  11.570
 6520TIP3    H243756   4.046   3.710  11.646
 6521TIP3   OH243757   3.135   3.644  11.495
 6521TIP3    H143758   3.143   3.742  11.535
 6521TIP3    H243759   3.035   3.612  11.516
 6522TIP3   OH243760   3.180   4.050  10.437
 6522TIP3    H143761   3.198   4.073  10.343
 6522TIP3    H243762   3.193   4.147  10.479
 6523TIP3   OH243763   2.503   3.916  10.651
 6523TIP3    H143764   2.531   3.891  10.743
 6523TIP3    H243765   2.404   3.876  10.648
 6524TIP3   OH243766   3.506   4.030  10.200
 6524TIP3    H143767   3.563   3.955  10.153
 6524TIP3    H243768   3.522   3.997  10.293
 6525TIP3   OH243769   3.482   3.974  10.469
 6525TIP3    H143770   3.375   3.982  10.481
 6525TIP3    H243771   3.501   3.876  10.502
 6526TIP3   OH243772   3.750   2.737  11.669
 6526TIP3    H143773   3.781   2.812  11.606
 6526TIP3    H243774   3.799   2.650  11.635
 6527TIP3   OH243775   2.424   3.479  11.436
 6527TIP3    H143776   2.421   3.443  11.528
 6527TIP3    H243777   2.328   3.445  11.403
 6528TIP3   OH243778   2.710   2.215  11.016
 6528TIP3    H143779   2.609   2.210  10.985
 6528TIP3    H243780   2.697   2.280  11.093
 6529TIP3   OH243781   3.242   2.158  11.340
 6529TIP3    H143782   3.270   2.086  11.407
 6529TIP3    H243783   3.135   2.161  11.354
 6530TIP3   OH243784   3.551   2.635  11.478
 6530TIP3    H143785   3.536   2.642  11.575
 6530TIP3    H243786   3.597   2.731  11.460
 6531TIP3   OH243787   3.684   3.155  10.117
 6531TIP3    H143788   3.643   3.165  10.026
 6531TIP3    H243789   3.786   3.178  10.098
 6532TIP3   OH243790   3.203   2.468  10.115
 6532TIP3    H143791   3.148   2.445  10.197
 6532TIP3    H243792   3.127   2.443  10.051
 6533TIP3   OH243793   2.732   2.749  11.172
 6533TIP3    H143794   2.637   2.742  11.217
 6533TIP3    H243795   2.721   2.846  11.130
 6534TIP3   OH243796   2.713   2.721  10.640
 6534TIP3    H143797   2.608   2.740  10.622
 6534TIP3    H243798   2.757   2.725  10.550
 6535TIP3   OH243799   3.351   2.862  10.555
 6535TIP3    H143800   3.302   2.940  10.503
 6535TIP3    H243801   3.410   2.818  10.485
 6536TIP3   OH243802   3.200   2.853  11.661
 6536TIP3    H143803   3.157   2.764  11.701
 6536TIP3    H243804   3.279   2.873  11.725
 6537TIP3   OH243805   3.429   2.773  10.824
 6537TIP3    H143806   3.430   2.869  10.779
 6537TIP3    H243807   3.430   2.710  10.745
 6538TIP3   OH243808   2.469   2.749  11.286
 6538TIP3    H143809   2.460   2.797  11.373
 6538TIP3    H243810   2.422   2.653  11.303
 6539TIP3   OH243811   2.834   2.488  10.040
 6539TIP3    H143812   2.782   2.449  10.118
 6539TIP3    H243813   2.754   2.519   9.982
 6540TIP3   OH243814   2.100   2.453  10.744
 6540TIP3    H143815   2.179   2.457  10.809
 6540TIP3    H243816   2.152   2.449  10.659
 6541TIP3   OH243817   2.230   2.529  10.269
 6541TIP3    H143818   2.319   2.577  10.234
 6541TIP3    H243819   2.167   2.616  10.274
 6542TIP3   OH243820   3.334   2.948  11.243
 6542TIP3    H143821   3.396   2.872  11.203
 6542TIP3    H243822   3.273   2.890  11.303
 6543TIP3   OH243823   3.028   2.489  10.755
 6543TIP3    H143824   2.924   2.484  10.773
 6543TIP3    H243825   3.073   2.434  10.827
 6544TIP3   OH243826   2.408   2.668  10.650
 6544TIP3    H143827   2.322   2.698  10.597
 6544TIP3    H243828   2.439   2.575  10.611
 6545TIP3   OH243829   2.850   2.682  10.400
 6545TIP3    H143830   2.956   2.695  10.402
 6545TIP3    H243831   2.813   2.750  10.332
 6546TIP3   OH243832   3.461   2.425  11.055
 6546TIP3    H143833   3.363   2.404  11.086
 6546TIP3    H243834   3.461   2.369  10.972
 6547TIP3   OH243835   2.671   2.818  10.206
 6547TIP3    H143836   2.580   2.791  10.163
 6547TIP3    H243837   2.738   2.809  10.131
 6548TIP3   OH243838   3.816   4.151  11.723
 6548TIP3    H143839   3.842   4.191  11.635
 6548TIP3    H243840   3.906   4.174  11.770
 6549TIP3   OH243841   2.443   3.321  11.673
 6549TIP3    H143842   2.528   3.323  11.732
 6549TIP3    H243843   2.359   3.303  11.734
 6550TIP3   OH243844   3.122   2.787  10.936
 6550TIP3    H143845   3.202   2.780  10.872
 6550TIP3    H243846   3.098   2.684  10.949
 6551TIP3   OH243847   2.522   2.364  10.576
 6551TIP3    H143848   2.455   2.294  10.619
 6551TIP3    H243849   2.571   2.297  10.514
 6552TIP3   OH243850   2.978   2.587  11.187
 6552TIP3    H143851   2.890   2.647  11.169
 6552TIP3    H243852   3.053   2.660  11.181
 6553TIP3   OH243853   3.054   3.325  10.370
 6553TIP3    H143854   2.973   3.266  10.332
 6553TIP3    H243855   3.013   3.344  10.459
 6554TIP3   OH243856   3.858   3.247  11.235
 6554TIP3    H143857   3.915   3.312  11.175
 6554TIP3    H243858   3.772   3.228  11.180
 6555TIP3   OH243859   3.479   2.522  10.184
 6555TIP3    H143860   3.374   2.518  10.170
 6555TIP3    H243861   3.493   2.624  10.215
 6556TIP3   OH243862   3.181   3.344  11.487
 6556TIP3    H143863   3.151   3.337  11.580
 6556TIP3    H243864   3.160   3.447  11.472
 6557TIP3   OH243865   3.542   2.759  10.334
 6557TIP3    H143866   3.630   2.728  10.382
 6557TIP3    H243867   3.571   2.855  10.298
 6558TIP3   OH243868   2.523   3.250  10.922
 6558TIP3    H143869   2.569   3.230  10.835
 6558TIP3    H243870   2.548   3.165  10.974
 6559TIP3   OH243871   3.291   3.480  10.287
 6559TIP3    H143872   3.250   3.579  10.297
 6559TIP3    H243873   3.204   3.419  10.304
 6560TIP3   OH243874   2.200   3.048  11.422
 6560TIP3    H143875   2.163   3.002  11.503
 6560TIP3    H243876   2.127   3.014  11.355
 6561TIP3   OH243877   2.941   3.029  11.628
 6561TIP3    H143878   2.861   2.960  11.615
 6561TIP3    H243879   3.029   2.969  11.641
 6562TIP3   OH243880   3.487   3.603  11.496
 6562TIP3    H143881   3.399   3.628  11.447
 6562TIP3    H243882   3.461   3.647  11.583
 6563TIP3   OH243883   4.092   2.747  10.334
 6563TIP3    H143884   4.013   2.720  10.271
 6563TIP3    H243885   4.097   2.852  10.314
 6564TIP3   OH243886   4.104   3.380  11.567
 6564TIP3    H143887   4.005   3.401  11.533
 6564TIP3    H243888   4.164   3.384  11.485
 6565TIP3   OH243889   3.919   3.674  10.358
 6565TIP3    H143890   3.826   3.626  10.363
 6565TIP3    H243891   3.941   3.674  10.262
 6566TIP3   OH243892   3.592   3.144  11.043
 6566TIP3    H143893   3.489   3.116  11.026
 6566TIP3    H243894   3.641   3.068  10.991
 6567TIP3   OH243895   2.758   3.620  10.686
 6567TIP3    H143896   2.782   3.721  10.659
 6567TIP3    H243897   2.657   3.617  10.656
 6568TIP3   OH243898   2.332   3.028  10.095
 6568TIP3    H143899   2.391   3.089  10.155
 6568TIP3    H243900   2.235   3.039  10.136
 6569TIP3   OH243901   2.915   3.356  10.617
 6569TIP3    H143902   2.865   3.451  10.629
 6569TIP3    H243903   2.862   3.293  10.680
 6570TIP3   OH243904   2.981   3.812  11.307
 6570TIP3    H143905   3.047   3.883  11.265
 6570TIP3    H243906   3.049   3.754  11.363
 6571TIP3   OH243907   2.791   3.889  10.571
 6571TIP3    H143908   2.687   3.911  10.593
 6571TIP3    H243909   2.836   3.982  10.599
 6572TIP3   OH243910   3.324   3.384  11.230
 6572TIP3    H143911   3.283   3.356  11.318
 6572TIP3    H243912   3.378   3.294  11.207
 6573TIP3   OH243913   3.638   3.499  10.133
 6573TIP3    H143914   3.633   3.453  10.221
 6573TIP3    H243915   3.534   3.494  10.110
 6574TIP3   OH243916   3.695   3.881  11.467
 6574TIP3    H143917   3.597   3.839  11.472
 6574TIP3    H243918   3.689   3.947  11.389
 6575TIP3   OH243919   4.124   3.984  10.172
 6575TIP3    H143920   4.195   4.057  10.140
 6575TIP3    H243921   4.057   4.051  10.220
 6576TIP3   OH243922   2.391   2.475  11.406
 6576TIP3    H143923   2.321   2.537  11.454
 6576TIP3    H243924   2.397   2.392  11.467
 6577TIP3   OH243925   3.710   3.368  10.368
 6577TIP3    H143926   3.695   3.264  10.359
 6577TIP3    H243927   3.815   3.373  10.345
 6578TIP3   OH243928   2.328   3.781  11.244
 6578TIP3    H143929   2.401   3.705  11.252
 6578TIP3    H243930   2.335   3.828  11.330
 6579TIP3   OH243931   2.814   3.551  10.233
 6579TIP3    H143932   2.903   3.514  10.273
 6579TIP3    H243933   2.823   3.658  10.252
 6580TIP3   OH243934   2.450   3.243  10.281
 6580TIP3    H143935   2.363   3.292  10.318
 6580TIP3    H243936   2.505   3.326  10.244
 6581TIP3   OH243937   3.336   2.455  11.345
 6581TIP3    H143938   3.429   2.501  11.318
 6581TIP3    H243939   3.320   2.377  11.281
 6582TIP3   OH243940   3.425   2.357  10.435
 6582TIP3    H143941   3.446   2.427  10.364
 6582TIP3    H243942   3.475   2.405  10.511
 6583TIP3   OH243943   3.158   3.746  10.262
 6583TIP3    H143944   3.070   3.754  10.316
 6583TIP3    H243945   3.171   3.849  10.235
 6584TIP3   OH243946   3.127   2.608  10.524
 6584TIP3    H143947   3.177   2.701  10.541
 6584TIP3    H243948   3.086   2.580  10.611
 6585TIP3   OH243949   3.217   2.729  11.396
 6585TIP3    H143950   3.274   2.748  11.478
 6585TIP3    H243951   3.257   2.631  11.374
 6586TIP3   OH243952   3.186   2.254  10.571
 6586TIP3    H143953   3.146   2.339  10.617
 6586TIP3    H243954   3.274   2.299  10.530
 6587TIP3   OH243955   2.857   3.830  10.306
 6587TIP3    H143956   2.880   3.925  10.264
 6587TIP3    H243957   2.827   3.860  10.397
 6588TIP3   OH243958   2.707   2.396  10.288
 6588TIP3    H143959   2.699   2.486  10.339
 6588TIP3    H243960   2.809   2.372  10.307
 6589TIP3   OH243961   3.818   2.489  11.509
 6589TIP3    H143962   3.720   2.520  11.480
 6589TIP3    H243963   3.872   2.478  11.424
 6590TIP3   OH243964   3.693   2.884  10.906
 6590TIP3    H143965   3.608   2.818  10.898
 6590TIP3    H243966   3.763   2.825  10.957
 6591TIP3   OH243967   2.532   3.512  10.171
 6591TIP3    H143968   2.631   3.536  10.202
 6591TIP3    H243969   2.549   3.509  10.075
 6592TIP3   OH243970   2.351   2.737  10.111
 6592TIP3    H143971   2.355   2.845  10.111
 6592TIP3    H243972   2.274   2.717  10.046
 6593TIP3   OH243973   3.808   3.913  11.058
 6593TIP3    H143974   3.805   3.978  10.979
 6593TIP3    H243975   3.916   3.914  11.069
 6594TIP3   OH243976   2.428   2.163  10.965
 6594TIP3    H143977   2.424   2.151  10.867
 6594TIP3    H243978   2.398   2.062  10.993
 6595TIP3   OH243979   2.280   3.688  10.566
 6595TIP3    H143980   2.193   3.750  10.569
 6595TIP3    H243981   2.322   3.726  10.484
 6596TIP3   OH243982   2.211   3.995  11.684
 6596TIP3    H143983   2.278   3.981  11.760
 6596TIP3    H243984   2.171   3.896  11.673
 6597TIP3   OH243985   2.747   3.875  11.837
 6597TIP3    H143986   2.839   3.829  11.863
 6597TIP3    H243987   2.728   3.830  11.751
 6598TIP3   OH243988   3.180   3.785   9.961
 6598TIP3    H143989   3.108   3.715   9.992
 6598TIP3    H243990   3.265   3.750  10.010
 6599TIP3   OH243991   3.438   3.729  11.734
 6599TIP3    H143992   3.396   3.633  11.763
 6599TIP3    H243993   3.532   3.729  11.779
 6600TIP3   OH243994   3.647   3.787  10.105
 6600TIP3    H143995   3.670   3.683  10.102
 6600TIP3    H243996   3.696   3.827  10.027
 6601TIP3   OH243997   2.174   3.320  11.802
 6601TIP3    H143998   2.132   3.222  11.811
 6601TIP3    H243999   2.126   3.352  11.718
 6602TIP3   OH244000   2.744   3.252  10.041
 6602TIP3    H144001   2.753   3.212  10.132
 6602TIP3    H244002   2.826   3.321  10.046
 6603TIP3   OH244003   2.949   3.320  11.711
 6603TIP3    H144004   2.930   3.378  11.631
 6603TIP3    H244005   2.962   3.219  11.677
 6604TIP3   OH244006   3.564   3.302  11.495
 6604TIP3    H144007   3.658   3.358  11.498
 6604TIP3    H244008   3.496   3.385  11.499
 6605TIP3   OH244009   2.331   2.978  11.771
 6605TIP3    H144010   2.416   2.912  11.774
 6605TIP3    H244011   2.350   3.043  11.847
 6606TIP3   OH244012   2.842   3.134  10.268
 6606TIP3    H144013   2.763   3.073  10.307
 6606TIP3    H244014   2.883   3.067  10.201
 6607TIP3   OH244015   2.744   2.902  11.437
 6607TIP3    H144016   2.655   2.957  11.460
 6607TIP3    H244017   2.767   2.952  11.354
 6608TIP3   OH244018   2.987   2.944  10.070
 6608TIP3    H144019   3.004   2.904   9.982
 6608TIP3    H244020   3.086   2.938  10.110
 6609TIP3   OH244021   3.330   3.156  11.794
 6609TIP3    H144022   3.421   3.123  11.754
 6609TIP3    H244023   3.310   3.077  11.858
 6610TIP3   OH244024   3.949   3.156  19.995
 6610TIP3    H144025   3.995   3.118  19.915
 6610TIP3    H244026   3.984   3.258  19.987
 6611TIP3   OH244027   2.808   2.611  11.527
 6611TIP3    H144028   2.827   2.523  11.471
 6611TIP3    H244029   2.703   2.620  11.515
 6612TIP3   OH244030   2.846   2.396  11.342
 6612TIP3    H144031   2.895   2.452  11.270
 6612TIP3    H244032   2.744   2.395  11.307
 6613TIP3   OH244033   2.995   3.034  11.312
 6613TIP3    H144034   3.080   3.095  11.292
 6613TIP3    H244035   2.919   3.110  11.306
 6614TIP3   OH244036   3.463   2.772  11.837
 6614TIP3    H144037   3.496   2.671  11.832
 6614TIP3    H244038   3.556   2.824  11.830
 6615TIP3   OH244039   3.656   3.109  11.683
 6615TIP3    H144040   3.615   3.169  11.611
 6615TIP3    H244041   3.761   3.106  11.659
 6616TIP3   OH244042   2.624   2.718  11.765
 6616TIP3    H144043   2.531   2.662  11.758
 6616TIP3    H244044   2.686   2.668  11.701
 6617TIP3   OH244045   2.941   2.119  11.344
 6617TIP3    H144046   2.902   2.218  11.350
 6617TIP3    H244047   2.860   2.068  11.302
 6618TIP3   OH244048   3.055   2.608  11.734
 6618TIP3    H144049   3.024   2.582  11.824
 6618TIP3    H244050   2.975   2.566  11.682
 6619TIP3   OH244051   3.333   2.512  11.659
 6619TIP3    H144052   3.236   2.545  11.690
 6619TIP3    H244053   3.374   2.468  11.741
 6620TIP3   OH244054   3.516   2.353  11.795
 6620TIP3    H144055   3.534   2.251  11.821
 6620TIP3    H244056   3.500   2.398  11.884
 6621TIP3   OH244057   2.409   2.510  11.760
 6621TIP3    H144058   2.400   2.412  11.718
 6621TIP3    H244059   2.413   2.486  11.856
 6622TIP3   OH244060   2.918   2.093  11.635
 6622TIP3    H144061   2.991   2.016  11.648
 6622TIP3    H244062   2.916   2.097  11.537
 6623TIP3   OH244063   2.964   2.237  11.869
 6623TIP3    H144064   2.936   2.189  11.784
 6623TIP3    H244065   2.895   2.321  11.867
 6624TIP3   OH244066   2.898   4.091  10.192
 6624TIP3    H144067   3.005   4.091  10.197
 6624TIP3    H244068   2.879   4.136  10.106
 6625TIP3   OH244069   2.233   3.549  10.136
 6625TIP3    H144070   2.340   3.529  10.142
 6625TIP3    H244071   2.201   3.487  10.062
 6626TIP3   OH244072   2.099   4.076  10.605
 6626TIP3    H144073   2.012   4.024  10.570
 6626TIP3    H244074   2.127   4.010  10.679
 6627TIP3   OH244075   2.186   3.890  10.800
 6627TIP3    H144076   2.125   3.805  10.825
 6627TIP3    H244077   2.248   3.904  10.878
 6628TIP3   OH244078   4.100   3.969  11.068
 6628TIP3    H144079   4.136   3.979  11.159
 6628TIP3    H244080   4.182   4.008  11.019
 6629TIP3   OH244081   4.049   3.924  11.375
 6629TIP3    H144082   4.003   3.847  11.320
 6629TIP3    H244083   4.072   3.865  11.454
 6630TIP3   OH244084   3.884   3.469  11.861
 6630TIP3    H144085   3.793   3.474  11.914
 6630TIP3    H244086   3.939   3.549  11.905
 6631TIP3   OH244087   4.000   3.293  10.361
 6631TIP3    H144088   4.095   3.333  10.389
 6631TIP3    H244089   3.975   3.228  10.436
 6632TIP3   OH244090   4.058   3.090  10.602
 6632TIP3    H144091   3.966   3.037  10.619
 6632TIP3    H244092   4.093   3.109  10.692
 6633TIP3   OH244093   4.027   3.392  11.064
 6633TIP3    H144094   4.095   3.315  11.035
 6633TIP3    H244095   4.067   3.478  11.019
 6634TIP3   OH244096   3.892   3.684  11.300
 6634TIP3    H144097   3.815   3.730  11.354
 6634TIP3    H244098   3.836   3.654  11.220
 6635TIP3   OH244099   4.123   3.062  10.205
 6635TIP3    H144100   4.046   3.083  10.139
 6635TIP3    H244101   4.112   3.147  10.263
 6636TIP3   OH244102   3.878   2.699  10.143
 6636TIP3    H144103   3.840   2.759  10.069
 6636TIP3    H244104   3.951   2.643  10.094
 6637TIP3   OH244105   3.838   2.917  10.673
 6637TIP3    H144106   3.813   2.817  10.648
 6637TIP3    H244107   3.800   2.918  10.765
 6638TIP3   OH244108   2.168   3.174  11.062
 6638TIP3    H144109   2.177   3.138  10.969
 6638TIP3    H244110   2.261   3.132  11.097
 6639TIP3   OH244111   3.959   3.124  11.614
 6639TIP3    H144112   4.000   3.024  11.612
 6639TIP3    H244113   4.040   3.192  11.593
 6640TIP3   OH244114   4.036   2.825  11.608
 6640TIP3    H144115   3.996   2.796  11.696
 6640TIP3    H244116   4.121   2.758  11.607
 6641TIP3   OH244117   3.851   2.454   9.960
 6641TIP3    H144118   3.912   2.420  10.035
 6641TIP3    H244119   3.753   2.447   9.998
 6642TIP3   OH244120   3.773   2.660  10.489
 6642TIP3    H144121   3.797   2.556  10.504
 6642TIP3    H244122   3.868   2.692  10.454
 6643TIP3   OH244123   3.893   2.711  11.036
 6643TIP3    H144124   4.000   2.727  11.053
 6643TIP3    H244125   3.861   2.716  11.129
 6644TIP3   OH244126   3.896   2.797  11.295
 6644TIP3    H144127   3.809   2.830  11.345
 6644TIP3    H244128   3.947   2.893  11.279
 6645TIP3   OH244129   2.161   2.608  11.649
 6645TIP3    H144130   2.253   2.607  11.701
 6645TIP3    H244131   2.108   2.527  11.689
 6646TIP3   OH244132   4.107   2.071  11.851
 6646TIP3    H144133   4.159   2.002  11.791
 6646TIP3    H244134   4.112   2.158  11.794
 6647TIP3   OH244135   3.873   2.386  10.497
 6647TIP3    H144136   3.915   2.346  10.578
 6647TIP3    H244137   3.815   2.302  10.465
 6648TIP3   OH244138   2.275   2.423  11.015
 6648TIP3    H144139   2.318   2.325  11.011
 6648TIP3    H244140   2.355   2.488  10.988
 6649TIP3   OH244141   2.102   2.770  11.073
 6649TIP3    H144142   2.159   2.738  10.996
 6649TIP3    H244143   2.156   2.858  11.096
 6650TIP3   OH244144   4.089   2.339  11.713
 6650TIP3    H144145   4.010   2.380  11.768
 6650TIP3    H244146   4.041   2.322  11.627
 6651TIP3   OH244147   4.079   2.384  10.145
 6651TIP3    H144148   4.129   2.342  10.069
 6651TIP3    H244149   4.157   2.444  10.184
 6652TIP3   OH244150   2.122   2.345  10.463
 6652TIP3    H144151   2.023   2.382  10.476
 6652TIP3    H244152   2.149   2.392  10.379
 6653TIP3   OH244153   3.750   3.994  10.668
 6653TIP3    H144154   3.830   3.978  10.604
 6653TIP3    H244155   3.787   4.068  10.729
 6654TIP3   OH244156   2.134   2.189  11.291
 6654TIP3    H144157   2.057   2.158  11.353
 6654TIP3    H244158   2.086   2.270  11.245
 6655TIP3   OH244159   2.378   3.643  11.692
 6655TIP3    H144160   2.287   3.687  11.659
 6655TIP3    H244161   2.355   3.609  11.780
 6656TIP3   OH244162   2.688   3.808  11.348
 6656TIP3    H144163   2.694   3.908  11.314
 6656TIP3    H244164   2.793   3.785  11.353
 6657TIP3   OH244165   3.142   3.942  11.613
 6657TIP3    H144166   3.164   3.909  11.703
 6657TIP3    H244167   3.241   3.979  11.588
 6658TIP3   OH244168   3.401   4.072  11.564
 6658TIP3    H144169   3.464   4.066  11.485
 6658TIP3    H244170   3.445   4.149  11.618
 6659TIP3   OH244171   3.973   2.137  11.477
 6659TIP3    H144172   3.893   2.177  11.425
 6659TIP3    H244173   3.991   2.042  11.435
 6660TIP3   OH244174   2.395   4.132  11.323
 6660TIP3    H144175   2.310   4.188  11.290
 6660TIP3    H244176   2.387   4.153  11.418
 6661TIP3   OH244177   2.660   4.080  11.228
 6661TIP3    H144178   2.559   4.099  11.260
 6661TIP3    H244179   2.664   4.148  11.153
 6662TIP3   OH244180   3.174   4.040  11.157
 6662TIP3    H144181   3.130   4.103  11.090
 6662TIP3    H244182   3.203   4.113  11.224
 6663TIP3   OH244183   3.414   3.912  11.304
 6663TIP3    H144184   3.344   3.952  11.240
 6663TIP3    H244185   3.503   3.957  11.269
 6664TIP3   OH244186   3.702   4.067  11.263
 6664TIP3    H144187   3.714   4.161  11.217
 6664TIP3    H244188   3.739   4.003  11.190
 6665TIP3   OH244189   2.353   3.956  11.023
 6665TIP3    H144190   2.323   3.898  11.103
 6665TIP3    H244191   2.452   3.915  11.005
 6666TIP3   OH244192   2.594   3.843  10.898
 6666TIP3    H144193   2.584   3.738  10.920
 6666TIP3    H244194   2.691   3.864  10.939
 6667TIP3   OH244195   2.852   3.851  11.022
 6667TIP3    H144196   2.882   3.752  10.997
 6667TIP3    H244197   2.868   3.848  11.119
 6668TIP3   OH244198   3.240   2.289  10.903
 6668TIP3    H144199   3.163   2.244  10.956
 6668TIP3    H244200   3.254   2.215  10.835
 6669TIP3   OH244201   3.808   2.083  10.884
 6669TIP3    H144202   3.879   2.145  10.835
 6669TIP3    H244203   3.714   2.115  10.847
 6670TIP3   OH244204   3.997   2.233  10.718
 6670TIP3    H144205   4.061   2.159  10.673
 6670TIP3    H244206   4.068   2.314  10.730
 6671TIP3   OH244207   2.406   2.119  10.684
 6671TIP3    H144208   2.313   2.106  10.637
 6671TIP3    H244209   2.449   2.020  10.673
 6672TIP3   OH244210   2.264   2.115  10.253
 6672TIP3    H144211   2.325   2.190  10.208
 6672TIP3    H244212   2.212   2.174  10.319
 6673TIP3   OH244213   2.884   2.081  10.670
 6673TIP3    H144214   2.978   2.114  10.636
 6673TIP3    H244215   2.862   2.153  10.738
 6674TIP3   OH244216   3.533   2.130  10.777
 6674TIP3    H144217   3.486   2.138  10.692
 6674TIP3    H244218   3.477   2.049  10.821
 6675TIP3   OH244219   3.674   2.125  10.406
 6675TIP3    H144220   3.593   2.191  10.391
 6675TIP3    H244221   3.629   2.044  10.456
 6676TIP3   OH244222   2.262   3.885  10.357
 6676TIP3    H144223   2.161   3.885  10.321
 6676TIP3    H244224   2.287   3.989  10.345
 6677TIP3   OH244225   2.440   2.281  10.101
 6677TIP3    H144226   2.516   2.207  10.106
 6677TIP3    H244227   2.485   2.364  10.147
 6678TIP3   OH244228   3.038   2.395  10.340
 6678TIP3    H144229   3.080   2.325  10.403
 6678TIP3    H244230   3.049   2.486  10.392
 6679TIP3   OH244231   3.216   4.018  10.163
 6679TIP3    H144232   3.322   4.045  10.170
 6679TIP3    H244233   3.219   3.970  10.076
 6680TIP3   OH244234   3.946   3.937  10.484
 6680TIP3    H144235   3.942   3.839  10.440
 6680TIP3    H244236   3.930   4.002  10.408
 6681TIP3   OH244237   2.375   2.223  11.636
 6681TIP3    H144238   2.324   2.128  11.638
 6681TIP3    H244239   2.463   2.202  11.691
 6682TIP3   OH244240   2.589   2.138  11.812
 6682TIP3    H144241   2.690   2.109  11.793
 6682TIP3    H244242   2.550   2.049  11.854
 6683TIP3   OH244243   2.478   4.021  10.109
 6683TIP3    H144244   2.413   4.050  10.182
 6683TIP3    H244245   2.532   3.938  10.144
 6684TIP3   OH244246   3.531   2.062  11.819
 6684TIP3    H144247   3.498   2.000  11.893
 6684TIP3    H244248   3.629   2.024  11.799
 6685TIP3   OH244249   3.895   3.851  11.651
 6685TIP3    H144250   3.831   3.853  11.572
 6685TIP3    H244251   3.858   3.937  11.698
 6686TIP3   OH244252   5.490   3.171  10.662
 6686TIP3    H144253   5.479   3.267  10.706
 6686TIP3    H244254   5.409   3.175  10.599
 6687TIP3   OH244255   5.366   3.032  11.002
 6687TIP3    H144256   5.365   2.994  11.094
 6687TIP3    H244257   5.289   2.972  10.961
 6688TIP3   OH244258   4.467   3.016  11.142
 6688TIP3    H144259   4.468   2.937  11.208
 6688TIP3    H244260   4.557   3.068  11.162
 6689TIP3   OH244261   5.702   3.389  10.868
 6689TIP3    H144262   5.683   3.306  10.926
 6689TIP3    H244263   5.724   3.465  10.934
 6690TIP3   OH244264   4.598   3.549  10.996
 6690TIP3    H144265   4.554   3.453  10.974
 6690TIP3    H244266   4.699   3.523  10.975
 6691TIP3   OH244267   4.244   2.814  10.571
 6691TIP3    H144268   4.200   2.910  10.589
 6691TIP3    H244269   4.197   2.789  10.486
 6692TIP3   OH244270   4.293   3.077  10.819
 6692TIP3    H144271   4.345   2.980  10.820
 6692TIP3    H244272   4.360   3.142  10.774
 6693TIP3   OH244273   5.434   3.993  10.850
 6693TIP3    H144274   5.512   3.928  10.813
 6693TIP3    H244275   5.377   3.918  10.896
 6694TIP3   OH244276   5.143   3.335  11.098
 6694TIP3    H144277   5.177   3.282  11.021
 6694TIP3    H244278   5.238   3.370  11.132
 6695TIP3   OH244279   6.106   2.400  11.097
 6695TIP3    H144280   6.113   2.464  11.176
 6695TIP3    H244281   6.199   2.427  11.053
 6696TIP3   OH244282   5.559   2.732  11.107
 6696TIP3    H144283   5.579   2.629  11.122
 6696TIP3    H244284   5.531   2.728  11.013
 6697TIP3   OH244285   4.745   2.489  10.783
 6697TIP3    H144286   4.761   2.575  10.725
 6697TIP3    H244287   4.728   2.411  10.717
 6698TIP3   OH244288   5.598   2.522  10.660
 6698TIP3    H144289   5.653   2.482  10.738
 6698TIP3    H244290   5.671   2.589  10.624
 6699TIP3   OH244291   4.375   2.790  10.874
 6699TIP3    H144292   4.443   2.770  10.947
 6699TIP3    H244293   4.401   2.714  10.810
 6700TIP3   OH244294   4.940   2.958  10.833
 6700TIP3    H144295   5.040   2.929  10.859
 6700TIP3    H244296   4.902   2.861  10.809
 6701TIP3   OH244297   6.128   2.561  11.333
 6701TIP3    H144298   6.083   2.654  11.305
 6701TIP3    H244299   6.131   2.577  11.429
 6702TIP3   OH244300   4.639   2.385  11.215
 6702TIP3    H144301   4.610   2.447  11.142
 6702TIP3    H244302   4.574   2.419  11.286
 6703TIP3   OH244303   5.400   3.461  10.546
 6703TIP3    H144304   5.383   3.466  10.450
 6703TIP3    H244305   5.382   3.563  10.572
 6704TIP3   OH244306   4.883   3.238  11.188
 6704TIP3    H144307   4.828   3.323  11.222
 6704TIP3    H244308   4.970   3.287  11.148
 6705TIP3   OH244309   5.792   2.466  10.860
 6705TIP3    H144310   5.801   2.374  10.906
 6705TIP3    H244311   5.887   2.509  10.875
 6706TIP3   OH244312   4.601   2.611  11.003
 6706TIP3    H144313   4.681   2.669  11.046
 6706TIP3    H244314   4.653   2.574  10.924
 6707TIP3   OH244315   4.753   3.484  11.297
 6707TIP3    H144316   4.737   3.567  11.239
 6707TIP3    H244317   4.654   3.476  11.340
 6708TIP3   OH244318   4.285   3.402  10.392
 6708TIP3    H144319   4.282   3.462  10.310
 6708TIP3    H244320   4.292   3.478  10.461
 6709TIP3   OH244321   5.808   3.609  11.064
 6709TIP3    H144322   5.708   3.638  11.090
 6709TIP3    H244323   5.838   3.700  11.022
 6710TIP3   OH244324   5.800   2.321  11.191
 6710TIP3    H144325   5.716   2.333  11.131
 6710TIP3    H244326   5.878   2.355  11.132
 6711TIP3   OH244327   5.037   2.118  10.928
 6711TIP3    H144328   5.006   2.019  10.952
 6711TIP3    H244329   4.944   2.170  10.953
 6712TIP3   OH244330   5.625   3.803  10.740
 6712TIP3    H144331   5.644   3.706  10.701
 6712TIP3    H244332   5.713   3.857  10.709
 6713TIP3   OH244333   5.734   3.567  10.595
 6713TIP3    H144334   5.719   3.499  10.521
 6713TIP3    H244335   5.728   3.499  10.671
 6714TIP3   OH244336   5.907   3.419  11.451
 6714TIP3    H144337   5.936   3.344  11.384
 6714TIP3    H244338   5.920   3.507  11.395
 6715TIP3   OH244339   5.322   3.105  10.407
 6715TIP3    H144340   5.262   3.196  10.398
 6715TIP3    H244341   5.403   3.118  10.344
 6716TIP3   OH244342   5.385   2.889  10.122
 6716TIP3    H144343   5.452   2.951  10.173
 6716TIP3    H244344   5.449   2.808  10.095
 6717TIP3   OH244345   6.132   3.028  11.226
 6717TIP3    H144346   6.071   3.115  11.236
 6717TIP3    H244347   6.202   3.066  11.159
 6718TIP3   OH244348   5.718   3.069  10.520
 6718TIP3    H144349   5.641   3.111  10.577
 6718TIP3    H244350   5.789   3.032  10.586
 6719TIP3   OH244351   5.691   2.923  11.415
 6719TIP3    H144352   5.687   3.025  11.444
 6719TIP3    H244353   5.626   2.926  11.338
 6720TIP3   OH244354   4.774   3.159  10.706
 6720TIP3    H144355   4.745   3.130  10.615
 6720TIP3    H244356   4.844   3.081  10.731
 6721TIP3   OH244357   4.921   3.518  10.958
 6721TIP3    H144358   4.938   3.502  10.863
 6721TIP3    H244359   5.006   3.470  11.000
 6722TIP3   OH244360   4.792   3.003  11.061
 6722TIP3    H144361   4.843   3.010  10.975
 6722TIP3    H244362   4.837   3.086  11.111
 6723TIP3   OH244363   5.532   3.659  11.132
 6723TIP3    H144364   5.499   3.717  11.208
 6723TIP3    H244365   5.511   3.559  11.161
 6724TIP3   OH244366   4.921   3.520  11.516
 6724TIP3    H144367   4.850   3.581  11.564
 6724TIP3    H244368   4.873   3.512  11.428
 6725TIP3   OH244369   5.582   3.027  10.285
 6725TIP3    H144370   5.631   3.040  10.373
 6725TIP3    H244371   5.652   3.079  10.225
 6726TIP3   OH244372   4.606   3.076  11.427
 6726TIP3    H144373   4.620   3.174  11.460
 6726TIP3    H244374   4.510   3.051  11.466
 6727TIP3   OH244375   5.317   3.764  10.560
 6727TIP3    H144376   5.347   3.795  10.649
 6727TIP3    H244377   5.272   3.852  10.522
 6728TIP3   OH244378   4.738   3.726  11.609
 6728TIP3    H144379   4.720   3.762  11.518
 6728TIP3    H244380   4.637   3.697  11.632
 6729TIP3   OH244381   6.019   2.097  10.289
 6729TIP3    H144382   5.916   2.097  10.316
 6729TIP3    H244383   6.032   2.200  10.270
 6730TIP3   OH244384   4.665   3.040  10.464
 6730TIP3    H144385   4.624   3.128  10.423
 6730TIP3    H244386   4.620   2.962  10.411
 6731TIP3   OH244387   6.110   3.717  10.126
 6731TIP3    H144388   6.147   3.818  10.133
 6731TIP3    H244389   6.200   3.659  10.131
 6732TIP3   OH244390   4.258   3.342  11.353
 6732TIP3    H144391   4.221   3.334  11.262
 6732TIP3    H244392   4.290   3.240  11.366
 6733TIP3   OH244393   4.221   3.632  10.998
 6733TIP3    H144394   4.324   3.627  11.025
 6733TIP3    H244395   4.186   3.713  11.053
 6734TIP3   OH244396   6.213   3.711  11.601
 6734TIP3    H144397   6.203   3.608  11.579
 6734TIP3    H244398   6.117   3.731  11.642
 6735TIP3   OH244399   5.199   3.641  11.491
 6735TIP3    H144400   5.213   3.732  11.538
 6735TIP3    H244401   5.094   3.616  11.508
 6736TIP3   OH244402   5.257   4.051  10.431
 6736TIP3    H144403   5.284   4.074  10.339
 6736TIP3    H244404   5.270   4.148  10.474
 6737TIP3   OH244405   4.575   3.920  10.655
 6737TIP3    H144406   4.605   3.892  10.746
 6737TIP3    H244407   4.476   3.880  10.653
 6738TIP3   OH244408   5.588   4.026  10.189
 6738TIP3    H144409   5.650   3.949  10.147
 6738TIP3    H244410   5.611   4.007  10.283
 6739TIP3   OH244411   5.558   3.979  10.466
 6739TIP3    H144412   5.452   3.985  10.474
 6739TIP3    H244413   5.575   3.879  10.496
 6740TIP3   OH244414   5.861   2.752  11.646
 6740TIP3    H144415   5.804   2.786  11.570
 6740TIP3    H244416   5.886   2.652  11.618
 6741TIP3   OH244417   4.500   3.469  11.431
 6741TIP3    H144418   4.501   3.429  11.523
 6741TIP3    H244419   4.403   3.438  11.401
 6742TIP3   OH244420   4.786   2.235  11.019
 6742TIP3    H144421   4.687   2.225  10.982
 6742TIP3    H244422   4.761   2.285  11.102
 6743TIP3   OH244423   5.317   2.167  11.341
 6743TIP3    H144424   5.360   2.110  11.414
 6743TIP3    H244425   5.212   2.160  11.363
 6744TIP3   OH244426   5.631   2.624  11.471
 6744TIP3    H144427   5.556   2.595  11.539
 6744TIP3    H244428   5.591   2.717  11.440
 6745TIP3   OH244429   5.759   3.160  10.122
 6745TIP3    H144430   5.713   3.167  10.031
 6745TIP3    H244431   5.862   3.180  10.100
 6746TIP3   OH244432   5.280   2.453  10.133
 6746TIP3    H144433   5.229   2.408  10.210
 6746TIP3    H244434   5.200   2.449  10.070
 6747TIP3   OH244435   4.797   2.736  11.163
 6747TIP3    H144436   4.711   2.738  11.222
 6747TIP3    H244437   4.799   2.841  11.139
 6748TIP3   OH244438   4.765   2.764  10.660
 6748TIP3    H144439   4.756   2.870  10.646
 6748TIP3    H244440   4.824   2.736  10.581
 6749TIP3   OH244441   5.411   2.863  10.537
 6749TIP3    H144442   5.379   2.952  10.487
 6749TIP3    H244443   5.481   2.823  10.473
 6750TIP3   OH244444   5.275   2.869  11.664
 6750TIP3    H144445   5.227   2.774  11.684
 6750TIP3    H244446   5.359   2.863  11.724
 6751TIP3   OH244447   5.522   2.779  10.819
 6751TIP3    H144448   5.506   2.872  10.775
 6751TIP3    H244449   5.515   2.714  10.741
 6752TIP3   OH244450   4.531   2.751  11.298
 6752TIP3    H144451   4.560   2.785  11.386
 6752TIP3    H244452   4.488   2.655  11.318
 6753TIP3   OH244453   4.908   2.469  10.006
 6753TIP3    H144454   4.857   2.468  10.091
 6753TIP3    H244455   4.853   2.538   9.952
 6754TIP3   OH244456   4.177   2.477  10.739
 6754TIP3    H144457   4.234   2.464  10.821
 6754TIP3    H244458   4.186   2.584  10.729
 6755TIP3   OH244459   4.314   2.523  10.269
 6755TIP3    H144460   4.400   2.572  10.230
 6755TIP3    H244461   4.254   2.610  10.280
 6756TIP3   OH244462   5.415   2.935  11.250
 6756TIP3    H144463   5.472   2.861  11.201
 6756TIP3    H244464   5.348   2.872  11.304
 6757TIP3   OH244465   5.104   2.494  10.760
 6757TIP3    H144466   5.015   2.511  10.811
 6757TIP3    H244467   5.168   2.441  10.822
 6758TIP3   OH244468   4.457   2.598  10.623
 6758TIP3    H144469   4.401   2.685  10.595
 6758TIP3    H244470   4.557   2.635  10.633
 6759TIP3   OH244471   4.881   2.670  10.420
 6759TIP3    H144472   4.987   2.670  10.420
 6759TIP3    H244473   4.855   2.734  10.343
 6760TIP3   OH244474   5.559   2.405  11.063
 6760TIP3    H144475   5.480   2.411  11.127
 6760TIP3    H244476   5.514   2.356  10.986
 6761TIP3   OH244477   4.762   2.813  10.200
 6761TIP3    H144478   4.663   2.803  10.164
 6761TIP3    H244479   4.822   2.802  10.120
 6762TIP3   OH244480   5.899   4.131  11.722
 6762TIP3    H144481   5.946   4.162  11.638
 6762TIP3    H244482   5.974   4.161  11.784
 6763TIP3   OH244483   4.522   3.321  11.664
 6763TIP3    H144484   4.609   3.328  11.721
 6763TIP3    H244485   4.446   3.289  11.726
 6764TIP3   OH244486   5.192   2.795  10.924
 6764TIP3    H144487   5.280   2.762  10.878
 6764TIP3    H244488   5.166   2.710  10.977
 6765TIP3   OH244489   4.675   2.294  10.591
 6765TIP3    H144490   4.705   2.192  10.607
 6765TIP3    H244491   4.739   2.313  10.514
 6766TIP3   OH244492   5.052   2.595  11.175
 6766TIP3    H144493   4.965   2.658  11.178
 6766TIP3    H244494   5.124   2.655  11.221
 6767TIP3   OH244495   5.129   3.342  10.372
 6767TIP3    H144496   5.057   3.275  10.332
 6767TIP3    H244497   5.085   3.354  10.461
 6768TIP3   OH244498   5.938   3.257  11.239
 6768TIP3    H144499   5.992   3.315  11.172
 6768TIP3    H244500   5.842   3.249  11.196
 6769TIP3   OH244501   5.558   2.532  10.173
 6769TIP3    H144502   5.451   2.529  10.171
 6769TIP3    H244503   5.578   2.628  10.216
 6770TIP3   OH244504   5.235   3.344  11.464
 6770TIP3    H144505   5.239   3.313  11.556
 6770TIP3    H244506   5.226   3.451  11.475
 6771TIP3   OH244507   5.609   2.746  10.346
 6771TIP3    H144508   5.705   2.716  10.380
 6771TIP3    H244509   5.628   2.846  10.314
 6772TIP3   OH244510   4.594   3.257  10.917
 6772TIP3    H144511   4.652   3.241  10.835
 6772TIP3    H244512   4.620   3.174  10.971
 6773TIP3   OH244513   5.371   3.480  10.265
 6773TIP3    H144514   5.333   3.581  10.274
 6773TIP3    H244515   5.282   3.422  10.284
 6774TIP3   OH244516   4.283   3.034  11.439
 6774TIP3    H144517   4.259   2.996  11.528
 6774TIP3    H244518   4.207   2.989  11.385
 6775TIP3   OH244519   5.005   3.017  11.654
 6775TIP3    H144520   4.959   2.958  11.585
 6775TIP3    H244521   5.105   2.977  11.653
 6776TIP3   OH244522   5.565   3.607  11.489
 6776TIP3    H144523   5.472   3.631  11.446
 6776TIP3    H244524   5.544   3.647  11.578
 6777TIP3   OH244525   6.178   2.746  10.308
 6777TIP3    H144526   6.092   2.728  10.250
 6777TIP3    H244527   6.175   2.853  10.309
 6778TIP3   OH244528   6.179   3.392  11.574
 6778TIP3    H144529   6.079   3.402  11.538
 6778TIP3    H244530   6.239   3.387  11.492
 6779TIP3   OH244531   5.993   3.671  10.369
 6779TIP3    H144532   5.893   3.636  10.368
 6779TIP3    H244533   6.017   3.686  10.275
 6780TIP3   OH244534   5.664   3.143  11.046
 6780TIP3    H144535   5.564   3.113  11.021
 6780TIP3    H244536   5.720   3.064  11.004
 6781TIP3   OH244537   4.832   3.621  10.681
 6781TIP3    H144538   4.865   3.718  10.649
 6781TIP3    H244539   4.731   3.625  10.649
 6782TIP3   OH244540   4.406   3.023  10.098
 6782TIP3    H144541   4.464   3.097  10.144
 6782TIP3    H244542   4.309   3.034  10.139
 6783TIP3   OH244543   4.990   3.365  10.622
 6783TIP3    H144544   4.938   3.458  10.632
 6783TIP3    H244545   4.932   3.298  10.678
 6784TIP3   OH244546   5.060   3.820  11.294
 6784TIP3    H144547   5.129   3.890  11.255
 6784TIP3    H244548   5.124   3.766  11.356
 6785TIP3   OH244549   4.864   3.895  10.580
 6785TIP3    H144550   4.760   3.915  10.598
 6785TIP3    H244551   4.909   3.990  10.604
 6786TIP3   OH244552   5.398   3.374  11.224
 6786TIP3    H144553   5.349   3.345  11.308
 6786TIP3    H244554   5.451   3.283  11.204
 6787TIP3   OH244555   5.684   3.488  10.101
 6787TIP3    H144556   5.721   3.462  10.190
 6787TIP3    H244557   5.581   3.469  10.122
 6788TIP3   OH244558   5.764   3.867  11.447
 6788TIP3    H144559   5.662   3.835  11.437
 6788TIP3    H244560   5.774   3.940  11.374
 6789TIP3   OH244561   6.204   3.989  10.168
 6789TIP3    H144562   6.274   4.068  10.150
 6789TIP3    H244563   6.131   4.047  10.220
 6790TIP3   OH244564   4.464   2.479  11.428
 6790TIP3    H144565   4.419   2.539  11.498
 6790TIP3    H244566   4.430   2.382  11.453
 6791TIP3   OH244567   5.783   3.380  10.336
 6791TIP3    H144568   5.755   3.278  10.322
 6791TIP3    H244569   5.889   3.368  10.346
 6792TIP3   OH244570   4.403   3.784  11.240
 6792TIP3    H144571   4.478   3.709  11.248
 6792TIP3    H244572   4.404   3.826  11.328
 6793TIP3   OH244573   4.881   3.556  10.234
 6793TIP3    H144574   4.978   3.521  10.262
 6793TIP3    H244575   4.888   3.661  10.260
 6794TIP3   OH244576   4.524   3.245  10.277
 6794TIP3    H144577   4.445   3.300  10.319
 6794TIP3    H244578   4.580   3.326  10.238
 6795TIP3   OH244579   5.381   2.473  11.332
 6795TIP3    H144580   5.480   2.486  11.365
 6795TIP3    H244581   5.361   2.369  11.353
 6796TIP3   OH244582   5.544   2.345  10.449
 6796TIP3    H144583   5.547   2.417  10.376
 6796TIP3    H244584   5.559   2.406  10.530
 6797TIP3   OH244585   5.225   3.754  10.263
 6797TIP3    H144586   5.147   3.775  10.327
 6797TIP3    H244587   5.249   3.854  10.235
 6798TIP3   OH244588   5.189   2.608  10.520
 6798TIP3    H144589   5.255   2.692  10.528
 6798TIP3    H244590   5.161   2.586  10.612
 6799TIP3   OH244591   5.268   2.748  11.406
 6799TIP3    H144592   5.270   2.781  11.499
 6799TIP3    H244593   5.301   2.645  11.409
 6800TIP3   OH244594   5.255   2.256  10.568
 6800TIP3    H144595   5.207   2.338  10.614
 6800TIP3    H244596   5.348   2.301  10.539
 6801TIP3   OH244597   4.919   3.842  10.315
 6801TIP3    H144598   4.953   3.935  10.273
 6801TIP3    H244599   4.895   3.878  10.405
 6802TIP3   OH244600   4.774   2.408  10.301
 6802TIP3    H144601   4.798   2.499  10.347
 6802TIP3    H244602   4.871   2.364  10.290
 6803TIP3   OH244603   5.909   2.497  11.517
 6803TIP3    H144604   5.804   2.520  11.505
 6803TIP3    H244605   5.943   2.496  11.425
 6804TIP3   OH244606   5.784   2.888  10.908
 6804TIP3    H144607   5.699   2.823  10.895
 6804TIP3    H244608   5.856   2.824  10.952
 6805TIP3   OH244609   4.599   3.519  10.178
 6805TIP3    H144610   4.698   3.544  10.212
 6805TIP3    H244611   4.620   3.508  10.083
 6806TIP3   OH244612   4.447   2.732  10.139
 6806TIP3    H144613   4.441   2.840  10.136
 6806TIP3    H244614   4.377   2.705  10.070
 6807TIP3   OH244615   5.895   3.912  11.056
 6807TIP3    H144616   5.889   3.989  10.987
 6807TIP3    H244617   6.003   3.917  11.071
 6808TIP3   OH244618   4.509   2.166  10.965
 6808TIP3    H144619   4.485   2.142  10.872
 6808TIP3    H244620   4.483   2.072  11.009
 6809TIP3   OH244621   4.343   3.685  10.570
 6809TIP3    H144622   4.260   3.751  10.569
 6809TIP3    H244623   4.392   3.721  10.491
 6810TIP3   OH244624   4.296   3.996  11.693
 6810TIP3    H144625   4.382   3.979  11.748
 6810TIP3    H244626   4.266   3.896  11.669
 6811TIP3   OH244627   4.826   3.875  11.839
 6811TIP3    H144628   4.919   3.829  11.862
 6811TIP3    H244629   4.809   3.838  11.748
 6812TIP3   OH244630   5.269   3.772   9.964
 6812TIP3    H144631   5.190   3.707   9.989
 6812TIP3    H244632   5.344   3.735  10.025
 6813TIP3   OH244633   5.502   3.722  11.729
 6813TIP3    H144634   5.470   3.625  11.764
 6813TIP3    H244635   5.598   3.728  11.773
 6814TIP3   OH244636   5.733   3.783  10.097
 6814TIP3    H144637   5.734   3.677  10.081
 6814TIP3    H244638   5.784   3.826  10.019
 6815TIP3   OH244639   4.261   3.323  11.790
 6815TIP3    H144640   4.232   3.222  11.804
 6815TIP3    H244641   4.201   3.347  11.710
 6816TIP3   OH244642   4.787   3.292  10.019
 6816TIP3    H144643   4.792   3.256  10.110
 6816TIP3    H244644   4.854   3.375  10.027
 6817TIP3   OH244645   5.017   3.318  11.686
 6817TIP3    H144646   4.994   3.380  11.608
 6817TIP3    H244647   5.007   3.217  11.651
 6818TIP3   OH244648   5.644   3.285  11.484
 6818TIP3    H144649   5.742   3.332  11.489
 6818TIP3    H244650   5.587   3.374  11.496
 6819TIP3   OH244651   4.375   2.983  11.747
 6819TIP3    H144652   4.454   2.915  11.729
 6819TIP3    H244653   4.421   3.046  11.814
 6820TIP3   OH244654   4.935   3.150  10.262
 6820TIP3    H144655   4.876   3.082  10.316
 6820TIP3    H244656   4.982   3.080  10.200
 6821TIP3   OH244657   4.809   2.872  11.442
 6821TIP3    H144658   4.735   2.949  11.450
 6821TIP3    H244659   4.885   2.922  11.391
 6822TIP3   OH244660   5.059   2.945  10.066
 6822TIP3    H144661   5.067   2.927   9.971
 6822TIP3    H244662   5.159   2.924  10.096
 6823TIP3   OH244663   5.409   3.197  11.794
 6823TIP3    H144664   5.468   3.136  11.735
 6823TIP3    H244665   5.339   3.125  11.829
 6824TIP3   OH244666   6.023   3.164  20.014
 6824TIP3    H144667   6.038   3.121  19.927
 6824TIP3    H244668   6.056   3.266  20.000
 6825TIP3   OH244669   4.881   2.608  11.547
 6825TIP3    H144670   4.892   2.530  11.479
 6825TIP3    H244671   4.853   2.694  11.493
 6826TIP3   OH244672   4.912   2.405  11.336
 6826TIP3    H144673   4.962   2.456  11.264
 6826TIP3    H244674   4.809   2.398  11.305
 6827TIP3   OH244675   5.049   3.046  11.338
 6827TIP3    H144676   5.147   3.087  11.322
 6827TIP3    H244677   4.986   3.123  11.301
 6828TIP3   OH244678   5.546   2.769  11.850
 6828TIP3    H144679   5.574   2.669  11.833
 6828TIP3    H244680   5.639   2.819  11.833
 6829TIP3   OH244681   5.720   3.114  11.689
 6829TIP3    H144682   5.680   3.172  11.614
 6829TIP3    H244683   5.822   3.102  11.662
 6830TIP3   OH244684   4.663   2.741  11.738
 6830TIP3    H144685   4.593   2.662  11.755
 6830TIP3    H244686   4.740   2.687  11.691
 6831TIP3   OH244687   5.022   2.135  11.356
 6831TIP3    H144688   4.979   2.234  11.349
 6831TIP3    H244689   4.948   2.078  11.310
 6832TIP3   OH244690   5.130   2.619  11.725
 6832TIP3    H144691   5.101   2.586  11.814
 6832TIP3    H244692   5.043   2.597  11.669
 6833TIP3   OH244693   5.431   2.538  11.648
 6833TIP3    H144694   5.327   2.533  11.674
 6833TIP3    H244695   5.479   2.474  11.714
 6834TIP3   OH244696   5.580   2.361  11.814
 6834TIP3    H144697   5.582   2.252  11.816
 6834TIP3    H244698   5.572   2.387  11.908
 6835TIP3   OH244699   4.478   2.490  11.768
 6835TIP3    H144700   4.460   2.404  11.712
 6835TIP3    H244701   4.440   2.460  11.854
 6836TIP3   OH244702   5.006   2.097  11.640
 6836TIP3    H144703   5.072   2.013  11.635
 6836TIP3    H244704   5.012   2.130  11.547
 6837TIP3   OH244705   5.015   2.210  11.886
 6837TIP3    H144706   5.020   2.155  11.801
 6837TIP3    H244707   4.972   2.300  11.856
 6838TIP3   OH244708   4.979   4.095  10.186
 6838TIP3    H144709   5.085   4.097  10.184
 6838TIP3    H244710   4.951   4.158  10.112
 6839TIP3   OH244711   4.304   3.531  10.142
 6839TIP3    H144712   4.412   3.524  10.152
 6839TIP3    H244713   4.289   3.463  10.069
 6840TIP3   OH244714   4.172   4.076  10.599
 6840TIP3    H144715   4.083   4.026  10.567
 6840TIP3    H244716   4.197   4.014  10.676
 6841TIP3   OH244717   4.253   3.892  10.804
 6841TIP3    H144718   4.202   3.802  10.829
 6841TIP3    H244719   4.322   3.906  10.879
 6842TIP3   OH244720   6.184   3.985  11.065
 6842TIP3    H144721   6.204   3.996  11.160
 6842TIP3    H244722   6.281   4.005  11.028
 6843TIP3   OH244723   6.110   3.947  11.355
 6843TIP3    H144724   6.078   3.850  11.323
 6843TIP3    H244725   6.159   3.917  11.438
 6844TIP3   OH244726   5.975   3.443  11.866
 6844TIP3    H144727   5.874   3.457  11.892
 6844TIP3    H244728   6.014   3.544  11.871
 6845TIP3   OH244729   6.071   3.296  10.379
 6845TIP3    H144730   6.168   3.340  10.399
 6845TIP3    H244731   6.057   3.230  10.454
 6846TIP3   OH244732   6.138   3.079  10.600
 6846TIP3    H144733   6.047   3.026  10.617
 6846TIP3    H244734   6.183   3.078  10.689
 6847TIP3   OH244735   6.102   3.378  11.054
 6847TIP3    H144736   6.179   3.303  11.041
 6847TIP3    H244737   6.149   3.467  11.019
 6848TIP3   OH244738   5.965   3.681  11.303
 6848TIP3    H144739   5.891   3.738  11.351
 6848TIP3    H244740   5.915   3.652  11.220
 6849TIP3   OH244741   6.199   3.060  10.214
 6849TIP3    H144742   6.119   3.086  10.152
 6849TIP3    H244743   6.194   3.144  10.275
 6850TIP3   OH244744   5.948   2.728  10.126
 6850TIP3    H144745   5.915   2.782  10.047
 6850TIP3    H244746   5.993   2.645  10.081
 6851TIP3   OH244747   5.912   2.917  10.670
 6851TIP3    H144748   5.889   2.816  10.647
 6851TIP3    H244749   5.884   2.922  10.765
 6852TIP3   OH244750   4.248   3.182  11.068
 6852TIP3    H144751   4.249   3.148  10.975
 6852TIP3    H244752   4.342   3.137  11.094
 6853TIP3   OH244753   6.026   3.127  11.606
 6853TIP3    H144754   6.067   3.027  11.603
 6853TIP3    H244755   6.107   3.187  11.574
 6854TIP3   OH244756   6.136   2.850  11.622
 6854TIP3    H144757   6.034   2.824  11.645
 6854TIP3    H244758   6.190   2.761  11.647
 6855TIP3   OH244759   5.926   2.462   9.969
 6855TIP3    H144760   5.988   2.417  10.037
 6855TIP3    H244761   5.829   2.454  10.008
 6856TIP3   OH244762   5.848   2.647  10.488
 6856TIP3    H144763   5.872   2.544  10.510
 6856TIP3    H244764   5.942   2.676  10.452
 6857TIP3   OH244765   5.975   2.705  11.038
 6857TIP3    H144766   6.083   2.719  11.048
 6857TIP3    H244767   5.948   2.708  11.131
 6858TIP3   OH244768   5.958   2.792  11.295
 6858TIP3    H144769   5.855   2.825  11.305
 6858TIP3    H244770   6.008   2.884  11.274
 6859TIP3   OH244771   4.231   2.594  11.638
 6859TIP3    H144772   4.320   2.599  11.692
 6859TIP3    H244773   4.173   2.520  11.687
 6860TIP3   OH244774   6.186   2.082  11.842
 6860TIP3    H144775   6.227   2.026  11.767
 6860TIP3    H244776   6.166   2.175  11.795
 6861TIP3   OH244777   5.953   2.372  10.520
 6861TIP3    H144778   5.999   2.317  10.594
 6861TIP3    H244779   5.895   2.295  10.480
 6862TIP3   OH244780   4.357   2.437  10.952
 6862TIP3    H144781   4.399   2.340  10.970
 6862TIP3    H244782   4.442   2.499  10.970
 6863TIP3   OH244783   4.178   2.768  11.064
 6863TIP3    H144784   4.243   2.747  10.988
 6863TIP3    H244785   4.221   2.860  11.095
 6864TIP3   OH244786   6.092   2.324  11.702
 6864TIP3    H144787   6.013   2.396  11.691
 6864TIP3    H244788   6.109   2.306  11.607
 6865TIP3   OH244789   6.142   2.377  10.159
 6865TIP3    H144790   6.196   2.320  10.094
 6865TIP3    H244791   6.219   2.447  10.186
 6866TIP3   OH244792   4.200   2.346  10.459
 6866TIP3    H144793   4.097   2.373  10.473
 6866TIP3    H244794   4.217   2.399  10.376
 6867TIP3   OH244795   5.822   3.996  10.663
 6867TIP3    H144796   5.901   3.977  10.600
 6867TIP3    H244797   5.870   4.054  10.734
 6868TIP3   OH244798   4.199   2.194  11.289
 6868TIP3    H144799   4.136   2.163  11.363
 6868TIP3    H244800   4.137   2.267  11.245
 6869TIP3   OH244801   4.464   3.642  11.684
 6869TIP3    H144802   4.368   3.667  11.646
 6869TIP3    H244803   4.443   3.564  11.747
 6870TIP3   OH244804   4.771   3.817  11.354
 6870TIP3    H144805   4.767   3.915  11.314
 6870TIP3    H244806   4.877   3.798  11.350
 6871TIP3   OH244807   5.220   3.947  11.596
 6871TIP3    H144808   5.235   3.912  11.687
 6871TIP3    H244809   5.321   3.974  11.571
 6872TIP3   OH244810   5.474   4.096  11.542
 6872TIP3    H144811   5.564   4.061  11.504
 6872TIP3    H244812   5.506   4.139  11.628
 6873TIP3   OH244813   6.042   2.131  11.478
 6873TIP3    H144814   5.976   2.180  11.418
 6873TIP3    H244815   6.038   2.031  11.443
 6874TIP3   OH244816   4.474   4.137  11.329
 6874TIP3    H144817   4.399   4.206  11.296
 6874TIP3    H244818   4.467   4.151  11.424
 6875TIP3   OH244819   4.730   4.077  11.226
 6875TIP3    H144820   4.631   4.106  11.257
 6875TIP3    H244821   4.742   4.140  11.149
 6876TIP3   OH244822   5.254   4.048  11.149
 6876TIP3    H144823   5.190   4.113  11.098
 6876TIP3    H244824   5.284   4.116  11.220
 6877TIP3   OH244825   5.487   3.901  11.294
 6877TIP3    H144826   5.418   3.944  11.230
 6877TIP3    H244827   5.573   3.959  11.269
 6878TIP3   OH244828   5.786   4.071  11.258
 6878TIP3    H144829   5.799   4.171  11.225
 6878TIP3    H244830   5.829   4.016  11.182
 6879TIP3   OH244831   4.423   3.953  11.020
 6879TIP3    H144832   4.401   3.893  11.100
 6879TIP3    H244833   4.523   3.919  10.998
 6880TIP3   OH244834   4.666   3.845  10.900
 6880TIP3    H144835   4.652   3.741  10.922
 6880TIP3    H244836   4.764   3.861  10.939
 6881TIP3   OH244837   4.921   3.842  11.034
 6881TIP3    H144838   4.952   3.741  11.021
 6881TIP3    H244839   4.942   3.854  11.129
 6882TIP3   OH244840   5.309   2.289  10.901
 6882TIP3    H144841   5.224   2.256  10.951
 6882TIP3    H244842   5.323   2.207  10.842
 6883TIP3   OH244843   5.891   2.072  10.877
 6883TIP3    H144844   5.964   2.135  10.834
 6883TIP3    H244845   5.799   2.113  10.839
 6884TIP3   OH244846   6.076   2.219  10.724
 6884TIP3    H144847   6.148   2.158  10.674
 6884TIP3    H244848   6.137   2.307  10.743
 6885TIP3   OH244849   4.430   2.105  10.701
 6885TIP3    H144850   4.344   2.072  10.650
 6885TIP3    H244851   4.501   2.030  10.674
 6886TIP3   OH244852   4.333   2.097  10.264
 6886TIP3    H144853   4.392   2.166  10.210
 6886TIP3    H244854   4.271   2.160  10.317
 6887TIP3   OH244855   4.930   2.101  10.647
 6887TIP3    H144856   5.022   2.091  10.598
 6887TIP3    H244857   4.965   2.113  10.738
 6888TIP3   OH244858   5.614   2.141  10.776
 6888TIP3    H144859   5.564   2.156  10.692
 6888TIP3    H244860   5.558   2.061  10.820
 6889TIP3   OH244861   5.762   2.119  10.404
 6889TIP3    H144862   5.681   2.190  10.407
 6889TIP3    H244863   5.721   2.042  10.462
 6890TIP3   OH244864   4.324   3.881  10.361
 6890TIP3    H144865   4.227   3.883  10.320
 6890TIP3    H244866   4.348   3.984  10.351
 6891TIP3   OH244867   4.508   2.250  10.116
 6891TIP3    H144868   4.594   2.190  10.094
 6891TIP3    H244869   4.551   2.342  10.145
 6892TIP3   OH244870   5.107   2.352  10.333
 6892TIP3    H144871   5.158   2.288  10.396
 6892TIP3    H244872   5.109   2.444  10.383
 6893TIP3   OH244873   5.300   4.021  10.162
 6893TIP3    H144874   5.406   4.040  10.163
 6893TIP3    H244875   5.293   3.978  10.073
 6894TIP3   OH244876   6.021   3.935  10.479
 6894TIP3    H144877   6.015   3.837  10.435
 6894TIP3    H244878   5.992   4.003  10.409
 6895TIP3   OH244879   4.434   2.215  11.625
 6895TIP3    H144880   4.386   2.121  11.624
 6895TIP3    H244881   4.522   2.199  11.679
 6896TIP3   OH244882   4.671   2.151  11.802
 6896TIP3    H144883   4.774   2.128  11.790
 6896TIP3    H244884   4.630   2.055  11.832
 6897TIP3   OH244885   4.563   4.033  10.107
 6897TIP3    H144886   4.494   4.061  10.176
 6897TIP3    H244887   4.594   3.936  10.134
 6898TIP3   OH244888   5.601   2.066  11.796
 6898TIP3    H144889   5.601   2.031  11.889
 6898TIP3    H244890   5.704   2.042  11.769
 6899TIP3   OH244891   5.953   3.840  11.650
 6899TIP3    H144892   5.879   3.835  11.579
 6899TIP3    H244893   5.936   3.939  11.685
 6900TIP3   OH244894   7.561   3.163  10.674
 6900TIP3    H144895   7.557   3.258  10.718
 6900TIP3    H244896   7.479   3.174  10.612
 6901TIP3   OH244897   7.403   3.050  11.001
 6901TIP3    H144898   7.426   2.997  11.084
 6901TIP3    H244899   7.329   2.988  10.958
 6902TIP3   OH244900   6.549   3.031  11.151
 6902TIP3    H144901   6.560   2.947  11.211
 6902TIP3    H244902   6.635   3.088  11.173
 6903TIP3   OH244903   7.835   3.405  10.874
 6903TIP3    H144904   7.819   3.319  10.930
 6903TIP3    H244905   7.826   3.484  10.939
 6904TIP3   OH244906   6.668   3.552  10.976
 6904TIP3    H144907   6.632   3.451  10.967
 6904TIP3    H244908   6.773   3.528  10.972
 6905TIP3   OH244909   6.310   2.807  10.554
 6905TIP3    H144910   6.271   2.905  10.570
 6905TIP3    H244911   6.273   2.786  10.464
 6906TIP3   OH244912   6.357   3.075  10.812
 6906TIP3    H144913   6.413   2.982  10.827
 6906TIP3    H244914   6.427   3.137  10.766
 6907TIP3   OH244915   7.495   3.972  10.877
 6907TIP3    H144916   7.565   3.909  10.828
 6907TIP3    H244917   7.436   3.897  10.918
 6908TIP3   OH244918   7.226   3.336  11.099
 6908TIP3    H144919   7.248   3.278  11.022
 6908TIP3    H244920   7.325   3.367  11.126
 6909TIP3   OH244921   8.196   2.439  11.089
 6909TIP3    H144922   8.194   2.501  11.167
 6909TIP3    H244923   8.273   2.484  11.036
 6910TIP3   OH244924   7.611   2.730  11.124
 6910TIP3    H144925   7.655   2.635  11.140
 6910TIP3    H244926   7.583   2.722  11.030
 6911TIP3   OH244927   6.832   2.487  10.776
 6911TIP3    H144928   6.847   2.578  10.725
 6911TIP3    H244929   6.785   2.428  10.707
 6912TIP3   OH244930   7.699   2.516  10.638
 6912TIP3    H144931   7.755   2.507  10.722
 6912TIP3    H244932   7.742   2.599  10.595
 6913TIP3   OH244933   6.458   2.805  10.867
 6913TIP3    H144934   6.525   2.753  10.926
 6913TIP3    H244935   6.483   2.758  10.782
 6914TIP3   OH244936   7.007   2.947  10.830
 6914TIP3    H144937   7.090   2.892  10.869
 6914TIP3    H244938   6.955   2.869  10.783
 6915TIP3   OH244939   8.181   2.526  11.373
 6915TIP3    H144940   8.133   2.614  11.335
 6915TIP3    H244941   8.262   2.570  11.421
 6916TIP3   OH244942   6.731   2.399  11.206
 6916TIP3    H144943   6.688   2.452  11.131
 6916TIP3    H244944   6.659   2.427  11.276
 6917TIP3   OH244945   7.472   3.443  10.563
 6917TIP3    H144946   7.462   3.442  10.465
 6917TIP3    H244947   7.438   3.543  10.580
 6918TIP3   OH244948   6.962   3.244  11.187
 6918TIP3    H144949   6.901   3.329  11.217
 6918TIP3    H244950   7.046   3.297  11.146
 6919TIP3   OH244951   7.842   2.475  10.866
 6919TIP3    H144952   7.820   2.394  10.926
 6919TIP3    H244953   7.948   2.472  10.858
 6920TIP3   OH244954   6.676   2.614  11.000
 6920TIP3    H144955   6.747   2.678  11.047
 6920TIP3    H244956   6.734   2.584  10.922
 6921TIP3   OH244957   6.824   3.486  11.287
 6921TIP3    H144958   6.818   3.588  11.258
 6921TIP3    H244959   6.724   3.479  11.326
 6922TIP3   OH244960   6.362   3.401  10.392
 6922TIP3    H144961   6.362   3.469  10.316
 6922TIP3    H244962   6.376   3.469  10.466
 6923TIP3   OH244963   7.864   3.628  11.061
 6923TIP3    H144964   7.763   3.644  11.091
 6923TIP3    H244965   7.885   3.726  11.027
 6924TIP3   OH244966   7.900   2.372  11.181
 6924TIP3    H144967   7.816   2.419  11.137
 6924TIP3    H244968   7.983   2.407  11.128
 6925TIP3   OH244969   7.112   2.110  10.932
 6925TIP3    H144970   7.087   2.006  10.940
 6925TIP3    H244971   7.015   2.153  10.958
 6926TIP3   OH244972   7.671   3.793  10.731
 6926TIP3    H144973   7.689   3.699  10.684
 6926TIP3    H244974   7.770   3.835  10.719
 6927TIP3   OH244975   7.797   3.573  10.586
 6927TIP3    H144976   7.785   3.499  10.517
 6927TIP3    H244977   7.838   3.516  10.660
 6928TIP3   OH244978   7.972   3.414  11.443
 6928TIP3    H144979   7.964   3.344  11.368
 6928TIP3    H244980   7.989   3.505  11.394
 6929TIP3   OH244981   7.390   3.094  10.403
 6929TIP3    H144982   7.339   3.190  10.397
 6929TIP3    H244983   7.475   3.108  10.346
 6930TIP3   OH244984   7.439   2.945  10.108
 6930TIP3    H144985   7.522   2.971  10.169
 6930TIP3    H244986   7.468   2.846  10.083
 6931TIP3   OH244987   8.151   3.011  11.237
 6931TIP3    H144988   8.087   3.095  11.220
 6931TIP3    H244989   8.229   3.028  11.171
 6932TIP3   OH244990   7.787   3.097  10.515
 6932TIP3    H144991   7.707   3.133  10.573
 6932TIP3    H244992   7.853   3.056  10.584
 6933TIP3   OH244993   7.759   2.905  11.423
 6933TIP3    H144994   7.740   3.004  11.456
 6933TIP3    H244995   7.687   2.906  11.350
 6934TIP3   OH244996   6.843   3.158  10.701
 6934TIP3    H144997   6.809   3.128  10.611
 6934TIP3    H244998   6.912   3.079  10.720
 6935TIP3   OH244999   6.988   3.530  10.955
 6935TIP3    H145000   7.000   3.512  10.860
 6935TIP3    H245001   7.076   3.485  10.995
 6936TIP3   OH245002   6.873   3.004  11.067
 6936TIP3    H145003   6.910   3.007  10.975
 6936TIP3    H245004   6.921   3.091  11.108
 6937TIP3   OH245005   7.590   3.659  11.139
 6937TIP3    H145006   7.571   3.717  11.218
 6937TIP3    H245007   7.566   3.559  11.170
 6938TIP3   OH245008   7.003   3.519  11.509
 6938TIP3    H145009   6.929   3.581  11.556
 6938TIP3    H245010   6.951   3.508  11.423
 6939TIP3   OH245011   7.648   3.025  10.278
 6939TIP3    H145012   7.697   3.035  10.366
 6939TIP3    H245013   7.709   3.095  10.224
 6940TIP3   OH245014   6.662   3.069  11.442
 6940TIP3    H145015   6.687   3.165  11.477
 6940TIP3    H245016   6.567   3.055  11.485
 6941TIP3   OH245017   7.396   3.748  10.557
 6941TIP3    H145018   7.444   3.771  10.641
 6941TIP3    H245019   7.336   3.833  10.540
 6942TIP3   OH245020   6.819   3.710  11.617
 6942TIP3    H145021   6.782   3.796  11.567
 6942TIP3    H245022   6.723   3.670  11.643
 6943TIP3   OH245023   8.059   2.060  10.252
 6943TIP3    H145024   7.954   2.079  10.275
 6943TIP3    H245025   8.100   2.157  10.268
 6944TIP3   OH245026   6.734   3.040  10.459
 6944TIP3    H145027   6.681   3.120  10.413
 6944TIP3    H245028   6.687   2.954  10.426
 6945TIP3   OH245029   8.216   3.694  10.135
 6945TIP3    H145030   8.227   3.802  10.139
 6945TIP3    H245031   8.316   3.661  10.147
 6946TIP3   OH245032   6.323   3.341  11.351
 6946TIP3    H145033   6.261   3.332  11.273
 6946TIP3    H245034   6.370   3.244  11.354
 6947TIP3   OH245035   6.300   3.619  11.012
 6947TIP3    H145036   6.404   3.604  11.004
 6947TIP3    H245037   6.298   3.704  11.070
 6948TIP3   OH245038   8.275   3.717  11.595
 6948TIP3    H145039   8.267   3.615  11.572
 6948TIP3    H245040   8.190   3.727  11.655
 6949TIP3   OH245041   7.284   3.639  11.482
 6949TIP3    H145042   7.302   3.714  11.549
 6949TIP3    H245043   7.180   3.611  11.496
 6950TIP3   OH245044   7.336   4.052  10.436
 6950TIP3    H145045   7.350   4.073  10.342
 6950TIP3    H245046   7.343   4.151  10.474
 6951TIP3   OH245047   6.646   3.905  10.664
 6951TIP3    H145048   6.677   3.887  10.758
 6951TIP3    H245049   6.549   3.860  10.663
 6952TIP3   OH245050   7.651   4.034  10.170
 6952TIP3    H145051   7.697   3.941  10.137
 6952TIP3    H245052   7.670   4.030  10.266
 6953TIP3   OH245053   7.630   3.971  10.449
 6953TIP3    H145054   7.524   3.972  10.469
 6953TIP3    H245055   7.664   3.890  10.503
 6954TIP3   OH245056   7.927   2.793  11.640
 6954TIP3    H145057   7.872   2.830  11.562
 6954TIP3    H245058   7.941   2.692  11.613
 6955TIP3   OH245059   6.567   3.475  11.415
 6955TIP3    H145060   6.566   3.460  11.512
 6955TIP3    H245061   6.468   3.444  11.391
 6956TIP3   OH245062   6.867   2.225  11.024
 6956TIP3    H145063   6.772   2.221  10.983
 6956TIP3    H245064   6.844   2.284  11.104
 6957TIP3   OH245065   7.385   2.160  11.371
 6957TIP3    H145066   7.426   2.115  11.452
 6957TIP3    H245067   7.279   2.154  11.385
 6958TIP3   OH245068   7.704   2.583  11.445
 6958TIP3    H145069   7.644   2.545  11.519
 6958TIP3    H245070   7.691   2.688  11.454
 6959TIP3   OH245071   7.808   3.172  10.110
 6959TIP3    H145072   7.762   3.187  10.022
 6959TIP3    H245073   7.910   3.174  10.084
 6960TIP3   OH245074   7.340   2.473  10.110
 6960TIP3    H145075   7.288   2.431  10.188
 6960TIP3    H245076   7.276   2.440  10.039
 6961TIP3   OH245077   6.878   2.737  11.166
 6961TIP3    H145078   6.794   2.744  11.226
 6961TIP3    H245079   6.881   2.838  11.131
 6962TIP3   OH245080   6.851   2.742  10.652
 6962TIP3    H145081   6.745   2.739  10.630
 6962TIP3    H245082   6.896   2.724  10.563
 6963TIP3   OH245083   7.494   2.859  10.548
 6963TIP3    H145084   7.451   2.943  10.499
 6963TIP3    H245085   7.555   2.815  10.478
 6964TIP3   OH245086   7.336   2.853  11.656
 6964TIP3    H145087   7.290   2.761  11.686
 6964TIP3    H245088   7.410   2.868  11.725
 6965TIP3   OH245089   7.580   2.800  10.831
 6965TIP3    H145090   7.565   2.889  10.778
 6965TIP3    H245091   7.580   2.729  10.759
 6966TIP3   OH245092   6.615   2.762  11.287
 6966TIP3    H145093   6.637   2.817  11.367
 6966TIP3    H245094   6.587   2.666  11.324
 6967TIP3   OH245095   6.966   2.508  10.034
 6967TIP3    H145096   6.925   2.452  10.108
 6967TIP3    H245097   6.889   2.509   9.967
 6968TIP3   OH245098   6.253   2.453  10.747
 6968TIP3    H145099   6.328   2.453  10.816
 6968TIP3    H245100   6.310   2.451  10.665
 6969TIP3   OH245101   6.376   2.530  10.266
 6969TIP3    H145102   6.465   2.577  10.234
 6969TIP3    H245103   6.311   2.616  10.269
 6970TIP3   OH245104   7.494   2.951  11.262
 6970TIP3    H145105   7.549   2.878  11.209
 6970TIP3    H245106   7.427   2.889  11.312
 6971TIP3   OH245107   7.153   2.504  10.755
 6971TIP3    H145108   7.050   2.492  10.780
 6971TIP3    H245109   7.206   2.435  10.814
 6972TIP3   OH245110   6.552   2.660  10.647
 6972TIP3    H145111   6.468   2.690  10.590
 6972TIP3    H245112   6.584   2.565  10.610
 6973TIP3   OH245113   6.959   2.677  10.410
 6973TIP3    H145114   7.063   2.697  10.407
 6973TIP3    H245115   6.918   2.752  10.349
 6974TIP3   OH245116   7.624   2.412  11.073
 6974TIP3    H145117   7.548   2.399  11.142
 6974TIP3    H245118   7.577   2.378  10.992
 6975TIP3   OH245119   6.821   2.819  10.186
 6975TIP3    H145120   6.727   2.792  10.148
 6975TIP3    H245121   6.889   2.764  10.129
 6976TIP3   OH245122   7.976   4.114  11.727
 6976TIP3    H145123   8.024   4.147  11.645
 6976TIP3    H245124   8.056   4.118  11.790
 6977TIP3   OH245125   6.592   3.332  11.678
 6977TIP3    H145126   6.663   3.373  11.741
 6977TIP3    H245127   6.508   3.311  11.736
 6978TIP3   OH245128   7.268   2.796  10.927
 6978TIP3    H145129   7.353   2.769  10.874
 6978TIP3    H245130   7.247   2.705  10.973
 6979TIP3   OH245131   6.669   2.362  10.577
 6979TIP3    H145132   6.601   2.291  10.619
 6979TIP3    H245133   6.720   2.294  10.519
 6980TIP3   OH245134   7.140   2.605  11.173
 6980TIP3    H145135   7.050   2.665  11.176
 6980TIP3    H245136   7.208   2.662  11.225
 6981TIP3   OH245137   7.192   3.333  10.373
 6981TIP3    H145138   7.114   3.270  10.337
 6981TIP3    H245139   7.152   3.347  10.464
 6982TIP3   OH245140   7.986   3.264  11.212
 6982TIP3    H145141   8.051   3.303  11.143
 6982TIP3    H245142   7.897   3.240  11.160
 6983TIP3   OH245143   7.620   2.531  10.157
 6983TIP3    H145144   7.514   2.521  10.168
 6983TIP3    H245145   7.640   2.614  10.218
 6984TIP3   OH245146   7.352   3.346  11.494
 6984TIP3    H145147   7.285   3.319  11.566
 6984TIP3    H245148   7.338   3.452  11.492
 6985TIP3   OH245149   7.692   2.740  10.331
 6985TIP3    H145150   7.790   2.726  10.369
 6985TIP3    H245151   7.698   2.840  10.297
 6986TIP3   OH245152   6.667   3.260  10.911
 6986TIP3    H145153   6.728   3.238  10.832
 6986TIP3    H245154   6.680   3.174  10.965
 6987TIP3   OH245155   7.425   3.486  10.295
 6987TIP3    H145156   7.377   3.582  10.295
 6987TIP3    H245157   7.339   3.421  10.304
 6988TIP3   OH245158   6.328   3.057  11.459
 6988TIP3    H145159   6.309   2.995  11.538
 6988TIP3    H245160   6.267   3.008  11.392
 6989TIP3   OH245161   7.090   3.018  11.641
 6989TIP3    H145162   7.041   2.966  11.570
 6989TIP3    H245163   7.187   2.972  11.642
 6990TIP3   OH245164   7.645   3.608  11.487
 6990TIP3    H145165   7.554   3.593  11.439
 6990TIP3    H245166   7.607   3.640  11.573
 6991TIP3   OH245167   8.234   2.726  10.322
 6991TIP3    H145168   8.161   2.693  10.256
 6991TIP3    H245169   8.239   2.828  10.294
 6992TIP3   OH245170   8.226   3.375  11.573
 6992TIP3    H145171   8.129   3.405  11.541
 6992TIP3    H245172   8.284   3.368  11.490
 6993TIP3   OH245173   8.062   3.674  10.364
 6993TIP3    H145174   7.965   3.632  10.353
 6993TIP3    H245175   8.110   3.656  10.278
 6994TIP3   OH245176   7.754   3.167  11.045
 6994TIP3    H145177   7.653   3.163  11.017
 6994TIP3    H245178   7.791   3.082  10.994
 6995TIP3   OH245179   6.906   3.618  10.696
 6995TIP3    H145180   6.933   3.721  10.683
 6995TIP3    H245181   6.809   3.617  10.655
 6996TIP3   OH245182   6.475   3.025  10.090
 6996TIP3    H145183   6.537   3.089  10.143
 6996TIP3    H245184   6.379   3.032  10.137
 6997TIP3   OH245185   7.072   3.365  10.631
 6997TIP3    H145186   7.009   3.453  10.638
 6997TIP3    H245187   7.017   3.292  10.682
 6998TIP3   OH245188   7.128   3.819  11.305
 6998TIP3    H145189   7.188   3.894  11.264
 6998TIP3    H245190   7.195   3.774  11.369
 6999TIP3   OH245191   6.932   3.896  10.569
 6999TIP3    H145192   6.829   3.908  10.594
 6999TIP3    H245193   6.969   3.995  10.587
 7000TIP3   OH245194   7.478   3.373  11.233
 7000TIP3    H145195   7.426   3.346  11.317
 7000TIP3    H245196   7.527   3.280  11.212
 7001TIP3   OH245197   7.769   3.512  10.133
 7001TIP3    H145198   7.811   3.457  10.208
 7001TIP3    H245199   7.670   3.476  10.137
 7002TIP3   OH245200   7.812   3.879  11.476
 7002TIP3    H145201   7.726   3.814  11.471
 7002TIP3    H245202   7.810   3.934  11.391
 7003TIP3   OH245203   8.284   3.989  10.132
 7003TIP3    H145204   8.358   4.067  10.133
 7003TIP3    H245205   8.198   4.041  10.168
 7004TIP3   OH245206   6.536   2.492  11.391
 7004TIP3    H145207   6.446   2.550  11.398
 7004TIP3    H245208   6.505   2.400  11.433
 7005TIP3   OH245209   7.866   3.359  10.347
 7005TIP3    H145210   7.832   3.263  10.374
 7005TIP3    H245211   7.973   3.346  10.352
 7006TIP3   OH245212   6.471   3.787  11.250
 7006TIP3    H145213   6.548   3.714  11.251
 7006TIP3    H245214   6.493   3.835  11.336
 7007TIP3   OH245215   6.960   3.555  10.237
 7007TIP3    H145216   7.051   3.517  10.271
 7007TIP3    H245217   6.967   3.660  10.266
 7008TIP3   OH245218   6.598   3.248  10.285
 7008TIP3    H145219   6.500   3.286  10.307
 7008TIP3    H245220   6.644   3.339  10.253
 7009TIP3   OH245221   7.466   2.455  11.336
 7009TIP3    H145222   7.568   2.468  11.361
 7009TIP3    H245223   7.446   2.353  11.362
 7010TIP3   OH245224   7.550   2.392  10.445
 7010TIP3    H145225   7.577   2.458  10.374
 7010TIP3    H245226   7.619   2.422  10.517
 7011TIP3   OH245227   7.289   3.751  10.243
 7011TIP3    H145228   7.210   3.759  10.309
 7011TIP3    H245229   7.330   3.849  10.245
 7012TIP3   OH245230   7.293   2.612  10.532
 7012TIP3    H145231   7.334   2.709  10.548
 7012TIP3    H245232   7.247   2.585  10.617
 7013TIP3   OH245233   7.344   2.734  11.406
 7013TIP3    H145234   7.348   2.772  11.498
 7013TIP3    H245235   7.389   2.636  11.413
 7014TIP3   OH245236   7.321   2.256  10.564
 7014TIP3    H145237   7.282   2.330  10.625
 7014TIP3    H245238   7.414   2.305  10.536
 7015TIP3   OH245239   7.002   3.831  10.315
 7015TIP3    H145240   7.029   3.922  10.266
 7015TIP3    H245241   6.972   3.871  10.402
 7016TIP3   OH245242   6.861   2.398  10.283
 7016TIP3    H145243   6.854   2.485  10.339
 7016TIP3    H245244   6.959   2.366  10.306
 7017TIP3   OH245245   7.953   2.485  11.546
 7017TIP3    H145246   7.862   2.503  11.494
 7017TIP3    H245247   8.029   2.500  11.478
 7018TIP3   OH245248   7.835   2.934  10.897
 7018TIP3    H145249   7.746   2.874  10.889
 7018TIP3    H245250   7.893   2.863  10.953
 7019TIP3   OH245251   6.679   3.508  10.177
 7019TIP3    H145252   6.774   3.529  10.223
 7019TIP3    H245253   6.720   3.479  10.091
 7020TIP3   OH245254   6.511   2.736  10.114
 7020TIP3    H145255   6.503   2.842  10.117
 7020TIP3    H245256   6.433   2.709  10.051
 7021TIP3   OH245257   7.991   3.919  11.064
 7021TIP3    H145258   7.972   3.999  11.000
 7021TIP3    H245259   8.097   3.924  11.075
 7022TIP3   OH245260   6.577   2.164  10.966
 7022TIP3    H145261   6.578   2.152  10.868
 7022TIP3    H245262   6.546   2.066  10.993
 7023TIP3   OH245263   6.422   3.686  10.572
 7023TIP3    H145264   6.338   3.753  10.572
 7023TIP3    H245265   6.467   3.719  10.490
 7024TIP3   OH245266   6.340   4.005  11.686
 7024TIP3    H145267   6.443   4.001  11.656
 7024TIP3    H245268   6.313   3.902  11.671
 7025TIP3   OH245269   6.889   3.870  11.845
 7025TIP3    H145270   6.981   3.816  11.853
 7025TIP3    H245271   6.851   3.825  11.763
 7026TIP3   OH245272   7.345   3.784   9.957
 7026TIP3    H145273   7.284   3.722  10.013
 7026TIP3    H245274   7.440   3.766   9.998
 7027TIP3   OH245275   7.578   3.733  11.732
 7027TIP3    H145276   7.546   3.633  11.758
 7027TIP3    H245277   7.677   3.733  11.771
 7028TIP3   OH245278   7.744   3.787  10.048
 7028TIP3    H145279   7.768   3.688  10.081
 7028TIP3    H245280   7.835   3.825  10.006
 7029TIP3   OH245281   6.327   3.308  11.800
 7029TIP3    H145282   6.289   3.209  11.804
 7029TIP3    H245283   6.280   3.343  11.717
 7030TIP3   OH245284   6.865   3.311  10.022
 7030TIP3    H145285   6.834   3.266  10.105
 7030TIP3    H245286   6.967   3.330  10.043
 7031TIP3   OH245287   7.102   3.313  11.679
 7031TIP3    H145288   7.056   3.372  11.606
 7031TIP3    H245289   7.088   3.209  11.651
 7032TIP3   OH245290   7.728   3.268  11.484
 7032TIP3    H145291   7.824   3.315  11.496
 7032TIP3    H245292   7.666   3.353  11.500
 7033TIP3   OH245293   6.426   2.982  11.765
 7033TIP3    H145294   6.515   2.928  11.783
 7033TIP3    H245295   6.379   2.990  11.852
 7034TIP3   OH245296   6.981   3.136  10.272
 7034TIP3    H145297   6.910   3.071  10.318
 7034TIP3    H245298   7.026   3.069  10.208
 7035TIP3   OH245299   6.887   2.889  11.411
 7035TIP3    H145300   6.811   2.963  11.427
 7035TIP3    H245301   6.964   2.946  11.367
 7036TIP3   OH245302   7.136   2.950  10.068
 7036TIP3    H145303   7.160   2.918   9.977
 7036TIP3    H245304   7.235   2.945  10.110
 7037TIP3   OH245305   7.449   3.182  11.826
 7037TIP3    H145306   7.537   3.154  11.778
 7037TIP3    H245307   7.432   3.092  11.878
 7038TIP3   OH245308   8.073   3.149  19.985
 7038TIP3    H145309   8.138   3.069  19.962
 7038TIP3    H245310   8.132   3.230  19.948
 7039TIP3   OH245311   6.944   2.642  11.541
 7039TIP3    H145312   6.964   2.566  11.475
 7039TIP3    H245313   6.934   2.730  11.483
 7040TIP3   OH245314   6.994   2.411  11.337
 7040TIP3    H145315   7.051   2.467  11.271
 7040TIP3    H245316   6.895   2.411  11.296
 7041TIP3   OH245317   7.124   3.057  11.333
 7041TIP3    H145318   7.222   3.091  11.311
 7041TIP3    H245319   7.064   3.133  11.289
 7042TIP3   OH245320   7.678   2.752  11.814
 7042TIP3    H145321   7.703   2.654  11.784
 7042TIP3    H245322   7.770   2.802  11.792
 7043TIP3   OH245323   7.759   3.101  11.700
 7043TIP3    H145324   7.716   3.143  11.618
 7043TIP3    H245325   7.862   3.084  11.671
 7044TIP3   OH245326   6.777   2.704  11.758
 7044TIP3    H145327   6.685   2.652  11.740
 7044TIP3    H245328   6.840   2.676  11.682
 7045TIP3   OH245329   7.086   2.128  11.346
 7045TIP3    H145330   7.059   2.233  11.353
 7045TIP3    H245331   7.000   2.091  11.300
 7046TIP3   OH245332   7.208   2.600  11.736
 7046TIP3    H145333   7.157   2.585  11.820
 7046TIP3    H245334   7.128   2.591  11.673
 7047TIP3   OH245335   7.512   2.493  11.661
 7047TIP3    H145336   7.410   2.515  11.680
 7047TIP3    H245337   7.547   2.461  11.749
 7048TIP3   OH245338   7.701   2.379  11.845
 7048TIP3    H145339   7.684   2.273  11.840
 7048TIP3    H245340   7.679   2.402  11.939
 7049TIP3   OH245341   6.540   2.508  11.765
 7049TIP3    H145342   6.532   2.419  11.710
 7049TIP3    H245343   6.532   2.465  11.855
 7050TIP3   OH245344   7.039   2.042  11.626
 7050TIP3    H145345   7.117   1.970  11.643
 7050TIP3    H245346   7.047   2.050  11.529
 7051TIP3   OH245347   7.114   2.209  11.875
 7051TIP3    H145348   7.092   2.161  11.789
 7051TIP3    H245349   7.084   2.309  11.855
 7052TIP3   OH245350   7.041   4.076  10.176
 7052TIP3    H145351   7.147   4.085  10.188
 7052TIP3    H245352   7.017   4.153  10.114
 7053TIP3   OH245353   6.385   3.533  10.135
 7053TIP3    H145354   6.492   3.521  10.153
 7053TIP3    H245355   6.368   3.461  10.066
 7054TIP3   OH245356   6.234   4.076  10.607
 7054TIP3    H145357   6.148   4.018  10.576
 7054TIP3    H245358   6.270   4.012  10.679
 7055TIP3   OH245359   6.331   3.892  10.792
 7055TIP3    H145360   6.259   3.821  10.824
 7055TIP3    H245361   6.395   3.903  10.870
 7056TIP3   OH245362   8.312   3.937  11.094
 7056TIP3    H145363   8.321   3.946  11.191
 7056TIP3    H245364   8.307   4.040  11.070
 7057TIP3   OH245365   8.212   3.915  11.383
 7057TIP3    H145366   8.152   3.842  11.334
 7057TIP3    H245367   8.239   3.853  11.460
 7058TIP3   OH245368   8.043   3.469  11.869
 7058TIP3    H145369   7.948   3.478  11.913
 7058TIP3    H245370   8.089   3.561  11.895
 7059TIP3   OH245371   8.177   3.279  10.367
 7059TIP3    H145372   8.274   3.322  10.375
 7059TIP3    H245373   8.182   3.203  10.437
 7060TIP3   OH245374   8.224   3.055  10.567
 7060TIP3    H145375   8.119   3.037  10.587
 7060TIP3    H245376   8.264   3.053  10.657
 7061TIP3   OH245377   8.236   3.342  11.087
 7061TIP3    H145378   8.323   3.320  11.034
 7061TIP3    H245379   8.242   3.451  11.082
 7062TIP3   OH245380   8.039   3.686  11.305
 7062TIP3    H145381   7.951   3.721  11.350
 7062TIP3    H245382   8.005   3.667  11.214
 7063TIP3   OH245383   8.241   3.059  10.192
 7063TIP3    H145384   8.164   3.097  10.135
 7063TIP3    H245385   8.245   3.139  10.257
 7064TIP3   OH245386   8.072   2.687  10.112
 7064TIP3    H145387   8.111   2.773  10.066
 7064TIP3    H245388   8.084   2.612  10.045
 7065TIP3   OH245389   7.974   2.945  10.664
 7065TIP3    H145390   7.948   2.846  10.636
 7065TIP3    H245391   7.940   2.947  10.757
 7066TIP3   OH245392   6.319   3.176  11.071
 7066TIP3    H145393   6.328   3.141  10.978
 7066TIP3    H245394   6.415   3.141  11.105
 7067TIP3   OH245395   8.064   3.115  11.607
 7067TIP3    H145396   8.146   3.048  11.587
 7067TIP3    H245397   8.115   3.209  11.595
 7068TIP3   OH245398   8.226   2.870  11.633
 7068TIP3    H145399   8.118   2.871  11.639
 7068TIP3    H245400   8.248   2.771  11.670
 7069TIP3   OH245401   7.975   2.399   9.969
 7069TIP3    H145402   8.053   2.365  10.029
 7069TIP3    H245403   7.901   2.437  10.030
 7070TIP3   OH245404   7.953   2.675  10.484
 7070TIP3    H145405   7.951   2.569  10.497
 7070TIP3    H245406   8.059   2.692  10.486
 7071TIP3   OH245407   7.970   2.735  11.043
 7071TIP3    H145408   8.076   2.718  11.026
 7071TIP3    H245409   7.966   2.718  11.140
 7072TIP3   OH245410   8.009   2.774  11.326
 7072TIP3    H145411   7.913   2.819  11.343
 7072TIP3    H245412   8.069   2.861  11.306
 7073TIP3   OH245413   6.282   2.585  11.650
 7073TIP3    H145414   6.381   2.572  11.688
 7073TIP3    H245415   6.224   2.519  11.706
 7074TIP3   OH245416   8.255   2.083  11.825
 7074TIP3    H145417   8.311   2.028  11.759
 7074TIP3    H245418   8.241   2.175  11.773
 7075TIP3   OH245419   7.983   2.384  10.491
 7075TIP3    H145420   8.019   2.343  10.576
 7075TIP3    H245421   7.933   2.297  10.457
 7076TIP3   OH245422   6.425   2.427  11.018
 7076TIP3    H145423   6.472   2.331  11.012
 7076TIP3    H245424   6.501   2.497  10.996
 7077TIP3   OH245425   6.258   2.767  11.058
 7077TIP3    H145426   6.318   2.746  10.979
 7077TIP3    H245427   6.306   2.856  11.087
 7078TIP3   OH245428   8.197   2.331  11.690
 7078TIP3    H145429   8.109   2.384  11.724
 7078TIP3    H245430   8.160   2.299  11.604
 7079TIP3   OH245431   8.247   2.331  10.127
 7079TIP3    H145432   8.311   2.248  10.106
 7079TIP3    H245433   8.298   2.411  10.084
 7080TIP3   OH245434   6.274   2.351  10.463
 7080TIP3    H145435   6.173   2.383  10.469
 7080TIP3    H245436   6.302   2.396  10.378
 7081TIP3   OH245437   7.894   3.966  10.655
 7081TIP3    H145438   7.959   3.950  10.578
 7081TIP3    H245439   7.954   4.024  10.713
 7082TIP3   OH245440   6.284   2.196  11.294
 7082TIP3    H145441   6.203   2.140  11.331
 7082TIP3    H245442   6.235   2.268  11.237
 7083TIP3   OH245443   6.537   3.647  11.701
 7083TIP3    H145444   6.475   3.716  11.656
 7083TIP3    H245445   6.498   3.649  11.790
 7084TIP3   OH245446   6.830   3.798  11.331
 7084TIP3    H145447   6.819   3.905  11.340
 7084TIP3    H245448   6.936   3.789  11.351
 7085TIP3   OH245449   7.295   3.946  11.650
 7085TIP3    H145450   7.317   3.929  11.745
 7085TIP3    H245451   7.395   3.967  11.616
 7086TIP3   OH245452   7.545   4.081  11.568
 7086TIP3    H145453   7.628   4.045  11.520
 7086TIP3    H245454   7.586   4.155  11.627
 7087TIP3   OH245455   8.074   2.146  11.497
 7087TIP3    H145456   7.990   2.189  11.451
 7087TIP3    H245457   8.084   2.052  11.451
 7088TIP3   OH245458   6.556   4.145  11.272
 7088TIP3    H145459   6.470   4.209  11.270
 7088TIP3    H245460   6.557   4.105  11.363
 7089TIP3   OH245461   6.840   4.090  11.235
 7089TIP3    H145462   6.734   4.103  11.259
 7089TIP3    H245463   6.839   4.151  11.156
 7090TIP3   OH245464   7.340   4.044  11.152
 7090TIP3    H145465   7.270   4.093  11.095
 7090TIP3    H245466   7.360   4.120  11.219
 7091TIP3   OH245467   7.547   3.904  11.308
 7091TIP3    H145468   7.477   3.935  11.239
 7091TIP3    H245469   7.628   3.971  11.286
 7092TIP3   OH245470   7.829   4.047  11.261
 7092TIP3    H145471   7.839   4.146  11.228
 7092TIP3    H245472   7.890   3.992  11.198
 7093TIP3   OH245473   6.498   3.950  11.015
 7093TIP3    H145474   6.478   3.896  11.099
 7093TIP3    H245475   6.600   3.918  11.000
 7094TIP3   OH245476   6.744   3.847  10.911
 7094TIP3    H145477   6.736   3.740  10.923
 7094TIP3    H245478   6.844   3.864  10.944
 7095TIP3   OH245479   6.999   3.859  11.031
 7095TIP3    H145480   7.043   3.763  11.016
 7095TIP3    H245481   6.981   3.854  11.127
 7096TIP3   OH245482   7.355   2.290  10.848
 7096TIP3    H145483   7.283   2.246  10.908
 7096TIP3    H245484   7.421   2.208  10.835
 7097TIP3   OH245485   7.938   2.097  10.914
 7097TIP3    H145486   7.988   2.159  10.849
 7097TIP3    H245487   7.836   2.121  10.890
 7098TIP3   OH245488   8.085   2.239  10.714
 7098TIP3    H145489   8.161   2.166  10.690
 7098TIP3    H245490   8.150   2.317  10.748
 7099TIP3   OH245491   6.557   2.118  10.688
 7099TIP3    H145492   6.465   2.104  10.641
 7099TIP3    H245493   6.598   2.017  10.680
 7100TIP3   OH245494   6.399   2.115  10.245
 7100TIP3    H145495   6.465   2.187  10.202
 7100TIP3    H245496   6.354   2.173  10.317
 7101TIP3   OH245497   7.030   2.071  10.666
 7101TIP3    H145498   7.109   2.118  10.619
 7101TIP3    H245499   7.043   2.108  10.756
 7102TIP3   OH245500   7.653   2.158  10.828
 7102TIP3    H145501   7.637   2.166  10.733
 7102TIP3    H245502   7.607   2.060  10.847
 7103TIP3   OH245503   7.814   2.131  10.393
 7103TIP3    H145504   7.732   2.191  10.424
 7103TIP3    H245505   7.780   2.032  10.415
 7104TIP3   OH245506   6.399   3.878  10.359
 7104TIP3    H145507   6.305   3.880  10.312
 7104TIP3    H245508   6.422   3.981  10.356
 7105TIP3   OH245509   6.604   2.266  10.105
 7105TIP3    H145510   6.684   2.196  10.117
 7105TIP3    H245511   6.637   2.350  10.155
 7106TIP3   OH245512   7.206   2.387  10.350
 7106TIP3    H145513   7.263   2.332  10.417
 7106TIP3    H245514   7.225   2.485  10.386
 7107TIP3   OH245515   7.362   4.030  10.155
 7107TIP3    H145516   7.470   4.046  10.146
 7107TIP3    H245517   7.345   3.977  10.073
 7108TIP3   OH245518   8.095   3.959  10.455
 7108TIP3    H145519   8.090   3.856  10.426
 7108TIP3    H245520   8.083   4.010  10.371
 7109TIP3   OH245521   6.523   2.221  11.642
 7109TIP3    H145522   6.466   2.130  11.638
 7109TIP3    H245523   6.611   2.190  11.692
 7110TIP3   OH245524   6.757   2.122  11.801
 7110TIP3    H145525   6.859   2.126  11.769
 7110TIP3    H245526   6.763   2.026  11.843
 7111TIP3   OH245527   6.635   4.012  10.113
 7111TIP3    H145528   6.565   4.041  10.182
 7111TIP3    H245529   6.684   3.926  10.150
 7112TIP3   OH245530   7.666   2.075  11.825
 7112TIP3    H145531   7.674   2.015  11.907
 7112TIP3    H245532   7.760   2.050  11.784
 7113TIP3   OH245533   8.017   3.817  11.658
 7113TIP3    H145534   7.961   3.827  11.574
 7113TIP3    H245535   8.000   3.915  11.694
 7114TIP3   OH245536   8.325   2.770  10.561
 7114TIP3    H145537   8.302   2.875  10.559
 7114TIP3    H245538   8.304   2.743  10.467
 7115TIP3   OH245539   8.342   3.303  11.336
 7115TIP3    H145540   8.290   3.299  11.251
 7115TIP3    H245541   8.337   3.202  11.369
 7116TIP3   OH245542   8.297   3.620  11.013
 7116TIP3    H145543   8.395   3.618  10.971
 7116TIP3    H245544   8.311   3.705  11.071
 7117TIP3   OH245545   8.288   2.449  10.717
 7117TIP3    H145546   8.385   2.490  10.734
 7117TIP3    H245547   8.286   2.456  10.620
 7118TIP3   OH245548   8.354   3.018  11.434
 7118TIP3    H145549   8.330   2.952  11.509
 7118TIP3    H245550   8.272   2.996  11.374
 7119TIP3   OH245551   8.405   3.233  11.747
 7119TIP3    H145552   8.344   3.156  11.785
 7119TIP3    H245553   8.334   3.290  11.694
 7120TIP3   OH245554   8.258   4.093  10.645
 7120TIP3    H145555   8.195   4.051  10.575
 7120TIP3    H245556   8.278   4.003  10.697
 7121TIP3   OH245557   8.311   3.848  10.787
 7121TIP3    H145558   8.254   3.761  10.808
 7121TIP3    H245559   8.356   3.869  10.874
 7122TIP3   OH245560   8.386   3.062  11.080
 7122TIP3    H145561   8.362   3.092  10.990
 7122TIP3    H245562   8.472   3.126  11.096
 7123TIP3   OH245563   8.302   2.600  11.698
 7123TIP3    H145564   8.408   2.606  11.685
 7123TIP3    H245565   8.284   2.494  11.698
 7124TIP3   OH245566   8.258   2.756  11.010
 7124TIP3    H145567   8.363   2.730  11.020
 7124TIP3    H245568   8.270   2.860  11.015
 7125TIP3   OH245569   8.262   2.385  10.409
 7125TIP3    H145570   8.156   2.404  10.423
 7125TIP3    H245571   8.269   2.388  10.312
 7126TIP3   OH245572   8.213   2.170  11.253
 7126TIP3    H145573   8.202   2.185  11.349
 7126TIP3    H245574   8.173   2.261  11.215
 7127TIP3   OH245575   1.348   5.238  10.669
 7127TIP3    H145576   1.341   5.336  10.709
 7127TIP3    H245577   1.270   5.246  10.602
 7128TIP3   OH245578   1.213   5.122  11.014
 7128TIP3    H145579   1.221   5.072  11.102
 7128TIP3    H245580   1.144   5.058  10.968
 7129TIP3   OH245581   0.369   5.114  11.175
 7129TIP3    H145582   0.353   5.018  11.216
 7129TIP3    H245583   0.432   5.156  11.245
 7130TIP3   OH245584   1.554   5.451  10.859
 7130TIP3    H145585   1.532   5.371  10.921
 7130TIP3    H245586   1.573   5.532  10.920
 7131TIP3   OH245587   0.378   5.603  10.960
 7131TIP3    H145588   0.356   5.500  10.939
 7131TIP3    H245589   0.482   5.601  10.980
 7132TIP3   OH245590   0.150   4.869  10.496
 7132TIP3    H145591   0.146   4.950  10.557
 7132TIP3    H245592   0.043   4.847  10.495
 7133TIP3   OH245593   0.151   5.144  10.798
 7133TIP3    H145594   0.172   5.043  10.829
 7133TIP3    H245595   0.071   5.134  10.735
 7134TIP3   OH245596   1.298   6.059  10.885
 7134TIP3    H145597   1.371   5.999  10.835
 7134TIP3    H245598   1.243   5.977  10.923
 7135TIP3   OH245599   1.012   5.451  11.077
 7135TIP3    H145600   1.038   5.369  11.019
 7135TIP3    H245601   1.107   5.469  11.122
 7136TIP3   OH245602   1.956   4.477  11.099
 7136TIP3    H145603   1.962   4.540  11.178
 7136TIP3    H245604   2.047   4.502  11.054
 7137TIP3   OH245605   1.428   4.807  11.119
 7137TIP3    H145606   1.440   4.700  11.133
 7137TIP3    H245607   1.388   4.806  11.029
 7138TIP3   OH245608   0.640   4.572  10.796
 7138TIP3    H145609   0.643   4.663  10.744
 7138TIP3    H245610   0.592   4.507  10.731
 7139TIP3   OH245611   1.451   4.586  10.647
 7139TIP3    H145612   1.506   4.560  10.728
 7139TIP3    H245613   1.510   4.666  10.614
 7140TIP3   OH245614   0.323   4.903  10.838
 7140TIP3    H145615   0.373   4.835  10.900
 7140TIP3    H245616   0.303   4.833  10.768
 7141TIP3   OH245617   0.794   5.030  10.829
 7141TIP3    H145618   0.886   4.982  10.856
 7141TIP3    H245619   0.743   4.947  10.790
 7142TIP3   OH245620   1.974   4.630  11.340
 7142TIP3    H145621   1.937   4.725  11.304
 7142TIP3    H245622   1.982   4.657  11.434
 7143TIP3   OH245623   0.513   4.484  11.203
 7143TIP3    H145624   0.480   4.529  11.119
 7143TIP3    H245625   0.447   4.531  11.266
 7144TIP3   OH245626   1.246   5.510  10.553
 7144TIP3    H145627   1.245   5.512  10.455
 7144TIP3    H245628   1.217   5.612  10.572
 7145TIP3   OH245629   0.781   5.324  11.204
 7145TIP3    H145630   0.712   5.399  11.234
 7145TIP3    H245631   0.854   5.386  11.157
 7146TIP3   OH245632   1.643   4.566  10.849
 7146TIP3    H145633   1.627   4.475  10.893
 7146TIP3    H245634   1.741   4.591  10.881
 7147TIP3   OH245635   0.444   4.693  10.988
 7147TIP3    H145636   0.510   4.752  11.045
 7147TIP3    H245637   0.515   4.656  10.922
 7148TIP3   OH245638   0.608   5.556  11.283
 7148TIP3    H145639   0.603   5.641  11.226
 7148TIP3    H245640   0.510   5.555  11.323
 7149TIP3   OH245641   0.128   5.469  10.401
 7149TIP3    H145642   0.119   5.514  10.312
 7149TIP3    H245643   0.156   5.552  10.457
 7150TIP3   OH245644   1.659   5.677  11.063
 7150TIP3    H145645   1.555   5.699  11.081
 7150TIP3    H245646   1.687   5.772  11.025
 7151TIP3   OH245647   1.638   4.415  11.180
 7151TIP3    H145648   1.552   4.453  11.130
 7151TIP3    H245649   1.718   4.443  11.121
 7152TIP3   OH245650   0.896   4.197  10.930
 7152TIP3    H145651   0.861   4.096  10.935
 7152TIP3    H245652   0.806   4.248  10.962
 7153TIP3   OH245653   1.472   5.877  10.735
 7153TIP3    H145654   1.486   5.786  10.684
 7153TIP3    H245655   1.565   5.926  10.713
 7154TIP3   OH245656   1.580   5.639  10.586
 7154TIP3    H145657   1.574   5.564  10.517
 7154TIP3    H245658   1.561   5.579  10.665
 7155TIP3   OH245659   1.762   5.493  11.454
 7155TIP3    H145660   1.790   5.413  11.392
 7155TIP3    H245661   1.764   5.576  11.392
 7156TIP3   OH245662   1.187   5.181  10.418
 7156TIP3    H145663   1.138   5.276  10.400
 7156TIP3    H245664   1.276   5.185  10.361
 7157TIP3   OH245665   1.213   5.013  10.122
 7157TIP3    H145666   1.291   5.060  10.175
 7157TIP3    H245667   1.260   4.916  10.108
 7158TIP3   OH245668   2.000   5.111  11.234
 7158TIP3    H145669   1.923   5.185  11.234
 7158TIP3    H245670   2.062   5.150  11.162
 7159TIP3   OH245671   1.575   5.148  10.515
 7159TIP3    H145672   1.496   5.184  10.573
 7159TIP3    H245673   1.646   5.109  10.582
 7160TIP3   OH245674   1.580   5.000  11.408
 7160TIP3    H145675   1.540   5.089  11.447
 7160TIP3    H245676   1.506   4.983  11.339
 7161TIP3   OH245677   0.657   5.216  10.673
 7161TIP3    H145678   0.679   5.218  10.578
 7161TIP3    H245679   0.735   5.152  10.712
 7162TIP3   OH245680   0.762   5.579  10.954
 7162TIP3    H145681   0.786   5.595  10.860
 7162TIP3    H245682   0.855   5.544  10.993
 7163TIP3   OH245683   0.677   5.094  11.065
 7163TIP3    H145684   0.733   5.099  10.981
 7163TIP3    H245685   0.718   5.173  11.120
 7164TIP3   OH245686   1.375   5.735  11.128
 7164TIP3    H145687   1.366   5.807  11.200
 7164TIP3    H245688   1.328   5.650  11.170
 7165TIP3   OH245689   0.769   5.607  11.518
 7165TIP3    H145690   0.683   5.643  11.567
 7165TIP3    H245691   0.725   5.587  11.431
 7166TIP3   OH245692   1.433   5.109  10.284
 7166TIP3    H145693   1.492   5.119  10.368
 7166TIP3    H245694   1.497   5.161  10.219
 7167TIP3   OH245695   0.482   5.181  11.412
 7167TIP3    H145696   0.477   5.263  11.476
 7167TIP3    H245697   0.388   5.136  11.434
 7168TIP3   OH245698   1.174   5.821  10.562
 7168TIP3    H145699   1.211   5.872  10.639
 7168TIP3    H245700   1.130   5.898  10.509
 7169TIP3   OH245701   0.562   5.786  11.622
 7169TIP3    H145702   0.552   5.826  11.531
 7169TIP3    H245703   0.460   5.776  11.650
 7170TIP3   OH245704   1.865   4.160  10.291
 7170TIP3    H145705   1.760   4.160  10.320
 7170TIP3    H245706   1.878   4.264  10.274
 7171TIP3   OH245707   0.449   5.111  10.492
 7171TIP3    H145708   0.449   5.184  10.419
 7171TIP3    H245709   0.456   5.018  10.445
 7172TIP3   OH245710   1.957   5.782  10.111
 7172TIP3    H145711   1.988   5.885  10.124
 7172TIP3    H245712   2.047   5.727  10.131
 7173TIP3   OH245713   0.176   5.379  11.358
 7173TIP3    H145714   0.069   5.382  11.345
 7173TIP3    H245715   0.197   5.275  11.347
 7174TIP3   OH245716   0.129   5.762  10.987
 7174TIP3    H145717   0.216   5.699  10.990
 7174TIP3    H245718   0.136   5.808  11.075
 7175TIP3   OH245719   2.070   5.775  11.609
 7175TIP3    H145720   2.050   5.675  11.582
 7175TIP3    H245721   1.972   5.800  11.645
 7176TIP3   OH245722   1.044   5.717  11.498
 7176TIP3    H145723   1.060   5.799  11.559
 7176TIP3    H245724   0.937   5.694  11.508
 7177TIP3   OH245725   1.101   6.115  10.437
 7177TIP3    H145726   1.129   6.148  10.349
 7177TIP3    H245727   1.112   6.207  10.488
 7178TIP3   OH245728   0.442   5.975  10.653
 7178TIP3    H145729   0.458   5.955  10.748
 7178TIP3    H245730   0.336   5.966  10.647
 7179TIP3   OH245731   1.427   6.114  10.191
 7179TIP3    H145732   1.484   6.029  10.158
 7179TIP3    H245733   1.452   6.113  10.286
 7180TIP3   OH245734   1.404   6.044  10.466
 7180TIP3    H145735   1.298   6.038  10.471
 7180TIP3    H245736   1.432   5.949  10.502
 7181TIP3   OH245737   1.713   4.827  11.644
 7181TIP3    H145738   1.652   4.874  11.574
 7181TIP3    H245739   1.718   4.727  11.608
 7182TIP3   OH245740   0.360   5.582  11.437
 7182TIP3    H145741   0.377   5.521  11.516
 7182TIP3    H245742   0.278   5.525  11.397
 7183TIP3   OH245743   0.647   4.312  11.022
 7183TIP3    H145744   0.544   4.313  10.990
 7183TIP3    H245745   0.632   4.364  11.107
 7184TIP3   OH245746   1.178   4.236  11.343
 7184TIP3    H145747   1.211   4.168  11.412
 7184TIP3    H245748   1.070   4.237  11.355
 7185TIP3   OH245749   1.444   4.692  11.482
 7185TIP3    H145750   1.391   4.640  11.555
 7185TIP3    H245751   1.381   4.776  11.469
 7186TIP3   OH245752   1.615   5.235  10.120
 7186TIP3    H145753   1.571   5.238  10.029
 7186TIP3    H245754   1.716   5.259  10.093
 7187TIP3   OH245755   1.114   4.545  10.127
 7187TIP3    H145756   1.055   4.510  10.203
 7187TIP3    H245757   1.063   4.499  10.054
 7188TIP3   OH245758   0.640   4.821  11.153
 7188TIP3    H145759   0.561   4.830  11.219
 7188TIP3    H245760   0.659   4.926  11.132
 7189TIP3   OH245761   0.635   4.836  10.681
 7189TIP3    H145762   0.538   4.796  10.651
 7189TIP3    H245763   0.681   4.846  10.593
 7190TIP3   OH245764   1.267   4.932  10.548
 7190TIP3    H145765   1.228   5.020  10.503
 7190TIP3    H245766   1.329   4.893  10.477
 7191TIP3   OH245767   1.125   4.936  11.654
 7191TIP3    H145768   1.074   4.849  11.686
 7191TIP3    H245769   1.209   4.938  11.714
 7192TIP3   OH245770   1.361   4.853  10.814
 7192TIP3    H145771   1.353   4.948  10.768
 7192TIP3    H245772   1.356   4.789  10.736
 7193TIP3   OH245773   0.376   4.822  11.296
 7193TIP3    H145774   0.402   4.866  11.381
 7193TIP3    H245775   0.333   4.728  11.325
 7194TIP3   OH245776   0.756   4.543  10.009
 7194TIP3    H145777   0.725   4.521  10.099
 7194TIP3    H245778   0.686   4.619   9.984
 7195TIP3   OH245779   0.125   4.613  10.739
 7195TIP3    H145780   0.164   4.549  10.808
 7195TIP3    H245781   0.107   4.549  10.664
 7196TIP3   OH245782   0.119   4.612  10.252
 7196TIP3    H145783   0.198   4.667  10.211
 7196TIP3    H245784   0.045   4.688  10.262
 7197TIP3   OH245785   1.262   4.995  11.252
 7197TIP3    H145786   1.331   4.923  11.215
 7197TIP3    H245787   1.196   4.931  11.305
 7198TIP3   OH245788   0.947   4.585  10.764
 7198TIP3    H145789   0.844   4.585  10.788
 7198TIP3    H245790   0.991   4.525  10.835
 7199TIP3   OH245791   0.376   4.743  10.604
 7199TIP3    H145792   0.289   4.765  10.548
 7199TIP3    H245793   0.376   4.634  10.605
 7200TIP3   OH245794   0.732   4.791  10.418
 7200TIP3    H145795   0.837   4.771  10.418
 7200TIP3    H245796   0.714   4.819  10.324
 7201TIP3   OH245797   1.393   4.507  11.072
 7201TIP3    H145798   1.326   4.490  11.147
 7201TIP3    H245799   1.357   4.435  11.007
 7202TIP3   OH245800   0.688   4.848  10.144
 7202TIP3    H145801   0.584   4.855  10.123
 7202TIP3    H245802   0.735   4.921  10.088
 7203TIP3   OH245803   1.740   6.216  11.715
 7203TIP3    H145804   1.779   6.245  11.628
 7203TIP3    H245805   1.824   6.243  11.770
 7204TIP3   OH245806   0.466   5.389  11.608
 7204TIP3    H145807   0.543   5.402  11.675
 7204TIP3    H245808   0.381   5.376  11.664
 7205TIP3   OH245809   1.043   4.886  10.933
 7205TIP3    H145810   1.131   4.857  10.885
 7205TIP3    H245811   1.011   4.795  10.971
 7206TIP3   OH245812   0.444   4.462  10.600
 7206TIP3    H145813   0.387   4.380  10.639
 7206TIP3    H245814   0.455   4.429  10.508
 7207TIP3   OH245815   0.895   4.674  11.173
 7207TIP3    H145816   0.806   4.735  11.167
 7207TIP3    H245817   0.966   4.742  11.211
 7208TIP3   OH245818   0.982   5.398  10.362
 7208TIP3    H145819   0.899   5.339  10.332
 7208TIP3    H245820   0.945   5.424  10.452
 7209TIP3   OH245821   1.799   5.338  11.234
 7209TIP3    H145822   1.849   5.400  11.166
 7209TIP3    H245823   1.706   5.321  11.189
 7210TIP3   OH245824   1.391   4.590  10.178
 7210TIP3    H145825   1.284   4.595  10.167
 7210TIP3    H245826   1.415   4.688  10.215
 7211TIP3   OH245827   1.082   5.418  11.477
 7211TIP3    H145828   1.033   5.386  11.558
 7211TIP3    H245829   1.076   5.524  11.488
 7212TIP3   OH245830   1.473   4.824  10.322
 7212TIP3    H145831   1.560   4.804  10.376
 7212TIP3    H245832   1.488   4.925  10.293
 7213TIP3   OH245833   0.468   5.307  10.904
 7213TIP3    H145834   0.553   5.369  10.890
 7213TIP3    H245835   0.494   5.255  10.986
 7214TIP3   OH245836   1.233   5.557  10.271
 7214TIP3    H145837   1.188   5.656  10.274
 7214TIP3    H245838   1.146   5.497  10.286
 7215TIP3   OH245839   0.192   5.064  11.408
 7215TIP3    H145840   0.190   5.034  11.502
 7215TIP3    H245841   0.086   5.073  11.395
 7216TIP3   OH245842   0.862   5.105  11.640
 7216TIP3    H145843   0.802   5.038  11.586
 7216TIP3    H245844   0.955   5.050  11.650
 7217TIP3   OH245845   1.416   5.674  11.506
 7217TIP3    H145846   1.327   5.691  11.455
 7217TIP3    H245847   1.388   5.721  11.590
 7218TIP3   OH245848   2.014   4.801  10.336
 7218TIP3    H145849   1.936   4.786  10.270
 7218TIP3    H245850   2.030   4.907  10.319
 7219TIP3   OH245851   2.034   5.462  11.571
 7219TIP3    H145852   1.932   5.470  11.539
 7219TIP3    H245853   2.090   5.462  11.487
 7220TIP3   OH245854   1.862   5.743  10.362
 7220TIP3    H145855   1.768   5.695  10.369
 7220TIP3    H245856   1.873   5.753  10.265
 7221TIP3   OH245857   1.510   5.217  11.041
 7221TIP3    H145858   1.408   5.189  11.025
 7221TIP3    H245859   1.562   5.141  10.991
 7222TIP3   OH245860   0.674   5.681  10.699
 7222TIP3    H145861   0.714   5.779  10.679
 7222TIP3    H245862   0.575   5.690  10.664
 7223TIP3   OH245863   0.260   5.113  10.119
 7223TIP3    H145864   0.315   5.195  10.155
 7223TIP3    H245865   0.165   5.124  10.163
 7224TIP3   OH245866   0.846   5.443  10.608
 7224TIP3    H145867   0.792   5.536  10.617
 7224TIP3    H245868   0.815   5.389  10.687
 7225TIP3   OH245869   0.921   5.875  11.280
 7225TIP3    H145870   0.979   5.959  11.247
 7225TIP3    H245871   0.987   5.832  11.347
 7226TIP3   OH245872   0.732   5.957  10.582
 7226TIP3    H145873   0.627   5.976  10.598
 7226TIP3    H245874   0.773   6.053  10.605
 7227TIP3   OH245875   1.255   5.462  11.228
 7227TIP3    H145876   1.203   5.421  11.305
 7227TIP3    H245877   1.311   5.376  11.201
 7228TIP3   OH245878   1.560   5.570  10.118
 7228TIP3    H145879   1.573   5.518  10.203
 7228TIP3    H245880   1.453   5.563  10.116
 7229TIP3   OH245881   1.615   5.943  11.460
 7229TIP3    H145882   1.515   5.903  11.463
 7229TIP3    H245883   1.612   6.008  11.381
 7230TIP3   OH245884   2.039   6.065  10.161
 7230TIP3    H145885   2.122   6.130  10.143
 7230TIP3    H245886   1.974   6.132  10.212
 7231TIP3   OH245887   0.293   4.573  11.402
 7231TIP3    H145888   0.259   4.607  11.489
 7231TIP3    H245889   0.265   4.469  11.407
 7232TIP3   OH245890   1.639   5.429  10.344
 7232TIP3    H145891   1.629   5.323  10.344
 7232TIP3    H245892   1.747   5.436  10.342
 7233TIP3   OH245893   0.248   5.855  11.230
 7233TIP3    H145894   0.333   5.796  11.252
 7233TIP3    H245895   0.221   5.893  11.317
 7234TIP3   OH245896   0.735   5.628  10.217
 7234TIP3    H145897   0.829   5.592  10.245
 7234TIP3    H245898   0.744   5.732  10.242
 7235TIP3   OH245899   0.386   5.339  10.292
 7235TIP3    H145900   0.293   5.386  10.320
 7235TIP3    H245901   0.435   5.420  10.245
 7236TIP3   OH245902   1.251   4.520  11.320
 7236TIP3    H145903   1.342   4.544  11.362
 7236TIP3    H245904   1.231   4.418  11.350
 7237TIP3   OH245905   1.353   4.455  10.430
 7237TIP3    H145906   1.383   4.518  10.355
 7237TIP3    H245907   1.403   4.502  10.507
 7238TIP3   OH245908   1.080   5.822  10.255
 7238TIP3    H145909   0.987   5.853  10.294
 7238TIP3    H245910   1.128   5.918  10.244
 7239TIP3   OH245911   1.043   4.669  10.524
 7239TIP3    H145912   1.111   4.752  10.536
 7239TIP3    H245913   1.005   4.651  10.615
 7240TIP3   OH245914   1.141   4.795  11.406
 7240TIP3    H145915   1.155   4.820  11.499
 7240TIP3    H245916   1.163   4.689  11.400
 7241TIP3   OH245917   1.117   4.328  10.559
 7241TIP3    H145918   1.074   4.415  10.601
 7241TIP3    H245919   1.203   4.375  10.516
 7242TIP3   OH245920   0.784   5.908  10.297
 7242TIP3    H145921   0.800   6.007  10.260
 7242TIP3    H245922   0.769   5.932  10.391
 7243TIP3   OH245923   0.636   4.474  10.290
 7243TIP3    H145924   0.631   4.567  10.336
 7243TIP3    H245925   0.736   4.438  10.308
 7244TIP3   OH245926   1.736   4.578  11.501
 7244TIP3    H145927   1.631   4.594  11.483
 7244TIP3    H245928   1.775   4.568  11.411
 7245TIP3   OH245929   1.624   4.957  10.899
 7245TIP3    H145930   1.542   4.888  10.891
 7245TIP3    H245931   1.694   4.900  10.952
 7246TIP3   OH245932   0.450   5.604  10.142
 7246TIP3    H145933   0.537   5.635  10.192
 7246TIP3    H245934   0.498   5.541  10.078
 7247TIP3   OH245935   0.359   4.815  10.138
 7247TIP3    H145936   0.340   4.915  10.168
 7247TIP3    H245937   0.277   4.809  10.072
 7248TIP3   OH245938   1.730   5.985  11.060
 7248TIP3    H145939   1.741   6.057  10.987
 7248TIP3    H245940   1.836   5.975  11.080
 7249TIP3   OH245941   0.364   4.259  10.953
 7249TIP3    H145942   0.362   4.223  10.861
 7249TIP3    H245943   0.332   4.167  10.998
 7250TIP3   OH245944   0.232   5.729  10.532
 7250TIP3    H145945   0.140   5.781  10.541
 7250TIP3    H245946   0.292   5.797  10.481
 7251TIP3   OH245947   0.176   6.076  11.682
 7251TIP3    H145948   0.248   6.076  11.755
 7251TIP3    H245949   0.134   5.981  11.699
 7252TIP3   OH245950   0.677   5.976  11.829
 7252TIP3    H145951   0.757   5.920  11.868
 7252TIP3    H245952   0.655   5.924  11.747
 7253TIP3   OH245953   1.111   5.866   9.967
 7253TIP3    H145954   1.048   5.806  10.024
 7253TIP3    H245955   1.206   5.839  10.004
 7254TIP3   OH245956   1.353   5.804  11.735
 7254TIP3    H145957   1.318   5.707  11.769
 7254TIP3    H245958   1.451   5.808  11.777
 7255TIP3   OH245959   1.563   5.860  10.104
 7255TIP3    H145960   1.583   5.754  10.093
 7255TIP3    H245961   1.606   5.904  10.024
 7256TIP3   OH245962   0.219   5.419  11.774
 7256TIP3    H145963   0.233   5.336  11.834
 7256TIP3    H245964   0.112   5.404  11.762
 7257TIP3   OH245965   0.670   5.354  10.065
 7257TIP3    H145966   0.679   5.315  10.156
 7257TIP3    H245967   0.762   5.405  10.055
 7258TIP3   OH245968   0.855   5.405  11.700
 7258TIP3    H145969   0.823   5.459  11.621
 7258TIP3    H245970   0.838   5.300  11.679
 7259TIP3   OH245971   1.489   5.366  11.489
 7259TIP3    H145972   1.583   5.422  11.488
 7259TIP3    H245973   1.424   5.451  11.499
 7260TIP3   OH245974   0.221   5.026  11.739
 7260TIP3    H145975   0.328   5.029  11.751
 7260TIP3    H245976   0.189   5.080  11.818
 7261TIP3   OH245977   0.745   5.181  10.271
 7261TIP3    H145978   0.681   5.097  10.286
 7261TIP3    H245979   0.815   5.140  10.207
 7262TIP3   OH245980   0.682   4.968  11.446
 7262TIP3    H145981   0.614   5.052  11.448
 7262TIP3    H245982   0.760   5.006  11.387
 7263TIP3   OH245983   0.912   5.026  10.069
 7263TIP3    H145984   0.928   4.966   9.989
 7263TIP3    H245985   1.012   5.020  10.109
 7264TIP3   OH245986   1.257   5.276  11.788
 7264TIP3    H145987   1.322   5.218  11.731
 7264TIP3    H245988   1.206   5.199  11.835
 7265TIP3   OH245989   1.869   5.247  19.985
 7265TIP3    H145990   1.946   5.193  19.938
 7265TIP3    H245991   1.911   5.344  19.979
 7266TIP3   OH245992   0.741   4.693  11.522
 7266TIP3    H145993   0.745   4.622  11.447
 7266TIP3    H245994   0.727   4.788  11.479
 7267TIP3   OH245995   0.771   4.476  11.334
 7267TIP3    H145996   0.831   4.535  11.271
 7267TIP3    H245997   0.678   4.473  11.286
 7268TIP3   OH245998   0.925   5.095  11.322
 7268TIP3    H145999   1.025   5.126  11.331
 7268TIP3    H246000   0.876   5.184  11.291
 7269TIP3   OH246001   1.404   4.830  11.829
 7269TIP3    H146002   1.432   4.728  11.829
 7269TIP3    H246003   1.496   4.881  11.814
 7270TIP3   OH246004   1.576   5.185  11.687
 7270TIP3    H146005   1.538   5.243  11.611
 7270TIP3    H246006   1.680   5.179  11.660
 7271TIP3   OH246007   0.591   4.739  11.753
 7271TIP3    H146008   0.485   4.716  11.752
 7271TIP3    H246009   0.625   4.717  11.662
 7272TIP3   OH246010   0.878   4.205  11.326
 7272TIP3    H146011   0.839   4.305  11.341
 7272TIP3    H246012   0.786   4.155  11.306
 7273TIP3   OH246013   0.966   4.688  11.735
 7273TIP3    H146014   0.904   4.659  11.811
 7273TIP3    H246015   0.895   4.674  11.662
 7274TIP3   OH246016   1.260   4.599  11.667
 7274TIP3    H146017   1.157   4.603  11.696
 7274TIP3    H246018   1.307   4.550  11.743
 7275TIP3   OH246019   1.448   4.441  11.830
 7275TIP3    H146020   1.451   4.333  11.825
 7275TIP3    H246021   1.444   4.456  11.927
 7276TIP3   OH246022   0.329   4.569  11.770
 7276TIP3    H146023   0.353   4.479  11.722
 7276TIP3    H246024   0.309   4.528  11.859
 7277TIP3   OH246025   0.865   4.176  11.605
 7277TIP3    H146026   0.948   4.112  11.624
 7277TIP3    H246027   0.859   4.167  11.507
 7278TIP3   OH246028   0.890   4.277  11.865
 7278TIP3    H146029   0.871   4.242  11.773
 7278TIP3    H246030   0.856   4.379  11.858
 7279TIP3   OH246031   0.825   6.176  10.189
 7279TIP3    H146032   0.931   6.179  10.205
 7279TIP3    H246033   0.820   6.210  10.098
 7280TIP3   OH246034   0.167   5.557  10.136
 7280TIP3    H146035   0.271   5.588  10.140
 7280TIP3    H246036   0.169   5.491  10.059
 7281TIP3   OH246037   0.089   6.125  10.577
 7281TIP3    H146038  -0.005   6.173  10.598
 7281TIP3    H246039   0.112   6.082  10.665
 7282TIP3   OH246040   0.183   5.983  10.798
 7282TIP3    H146041   0.155   5.879  10.803
 7282TIP3    H246042   0.229   5.998  10.885
 7283TIP3   OH246043   2.024   6.048  11.065
 7283TIP3    H146044   2.065   6.049  11.154
 7283TIP3    H246045   2.110   6.067  11.009
 7284TIP3   OH246046   1.952   6.004  11.362
 7284TIP3    H146047   1.915   5.915  11.317
 7284TIP3    H246048   1.985   5.961  11.446
 7285TIP3   OH246049   1.827   5.526  11.855
 7285TIP3    H146050   1.726   5.531  11.888
 7285TIP3    H246051   1.867   5.618  11.892
 7286TIP3   OH246052   1.928   5.369  10.368
 7286TIP3    H146053   2.023   5.414  10.390
 7286TIP3    H246054   1.910   5.309  10.447
 7287TIP3   OH246055   1.999   5.156  10.603
 7287TIP3    H146056   1.907   5.105  10.631
 7287TIP3    H246057   2.053   5.163  10.688
 7288TIP3   OH246058   1.964   5.455  11.045
 7288TIP3    H146059   2.037   5.377  11.031
 7288TIP3    H246060   2.010   5.541  11.003
 7289TIP3   OH246061   1.816   5.754  11.293
 7289TIP3    H146062   1.737   5.799  11.344
 7289TIP3    H246063   1.763   5.715  11.214
 7290TIP3   OH246064   2.043   5.129  10.200
 7290TIP3    H146065   1.967   5.149  10.134
 7290TIP3    H246066   2.022   5.206  10.265
 7291TIP3   OH246067   1.792   4.796  10.138
 7291TIP3    H146068   1.763   4.869  10.071
 7291TIP3    H246069   1.854   4.734  10.082
 7292TIP3   OH246070   1.766   4.996  10.670
 7292TIP3    H146071   1.745   4.895  10.646
 7292TIP3    H246072   1.734   4.995  10.764
 7293TIP3   OH246073   0.176   5.294  11.033
 7293TIP3    H146074   0.183   5.239  10.949
 7293TIP3    H246075   0.263   5.260  11.082
 7294TIP3   OH246076   1.884   5.207  11.613
 7294TIP3    H146077   1.938   5.115  11.627
 7294TIP3    H246078   1.961   5.281  11.598
 7295TIP3   OH246079   1.992   4.914  11.652
 7295TIP3    H146080   1.890   4.878  11.646
 7295TIP3    H246081   2.049   4.822  11.667
 7296TIP3   OH246082   1.772   4.546   9.966
 7296TIP3    H146083   1.835   4.504  10.035
 7296TIP3    H246084   1.675   4.522   9.999
 7297TIP3   OH246085   1.697   4.733  10.476
 7297TIP3    H146086   1.718   4.632  10.506
 7297TIP3    H246087   1.795   4.756  10.445
 7298TIP3   OH246088   1.815   4.775  11.038
 7298TIP3    H146089   1.921   4.798  11.046
 7298TIP3    H246090   1.784   4.789  11.130
 7299TIP3   OH246091   1.822   4.870  11.294
 7299TIP3    H146092   1.733   4.902  11.341
 7299TIP3    H246093   1.869   4.965  11.275
 7300TIP3   OH246094   0.125   4.666  11.606
 7300TIP3    H146095   0.204   4.698  11.668
 7300TIP3    H246096   0.132   4.561  11.614
 7301TIP3   OH246097   2.065   4.234  11.823
 7301TIP3    H146098   2.095   4.151  11.768
 7301TIP3    H246099   2.050   4.311  11.755
 7302TIP3   OH246100   1.804   4.452  10.517
 7302TIP3    H146101   1.845   4.398  10.594
 7302TIP3    H246102   1.750   4.372  10.474
 7303TIP3   OH246103   0.179   4.509  11.009
 7303TIP3    H146104   0.245   4.424  11.013
 7303TIP3    H246105   0.244   4.593  11.019
 7304TIP3   OH246106   0.096   4.844  11.027
 7304TIP3    H146107   0.183   4.838  10.971
 7304TIP3    H246108   0.118   4.921  11.090
 7305TIP3   OH246109   1.987   4.459  11.666
 7305TIP3    H146110   1.909   4.507  11.721
 7305TIP3    H246111   1.932   4.434  11.586
 7306TIP3   OH246112   2.000   4.458  10.154
 7306TIP3    H146113   2.047   4.396  10.088
 7306TIP3    H246114   2.083   4.520  10.180
 7307TIP3   OH246115   0.108   4.436  10.464
 7307TIP3    H146116   0.001   4.426  10.460
 7307TIP3    H246117   0.123   4.487  10.378
 7308TIP3   OH246118   1.678   6.063  10.667
 7308TIP3    H146119   1.749   6.054  10.594
 7308TIP3    H246120   1.720   6.135  10.727
 7309TIP3   OH246121   0.073   4.242  11.299
 7309TIP3    H146122  -0.030   4.219  11.321
 7309TIP3    H246123   0.056   4.304  11.222
 7310TIP3   OH246124   0.267   5.696  11.712
 7310TIP3    H146125   0.211   5.686  11.632
 7310TIP3    H246126   0.285   5.590  11.731
 7311TIP3   OH246127   0.624   5.895  11.350
 7311TIP3    H146128   0.618   5.993  11.310
 7311TIP3    H246129   0.729   5.874  11.343
 7312TIP3   OH246130   1.077   6.023  11.596
 7312TIP3    H146131   1.082   5.994  11.690
 7312TIP3    H246132   1.177   6.058  11.579
 7313TIP3   OH246133   1.324   6.182  11.551
 7313TIP3    H146134   1.413   6.149  11.509
 7313TIP3    H246135   1.360   6.207  11.642
 7314TIP3   OH246136   1.892   4.213  11.466
 7314TIP3    H146137   1.807   4.253  11.420
 7314TIP3    H246138   1.899   4.113  11.428
 7315TIP3   OH246139   0.348   6.214  11.340
 7315TIP3    H146140   0.260   6.263  11.303
 7315TIP3    H246141   0.323   6.210  11.434
 7316TIP3   OH246142   0.600   6.157  11.224
 7316TIP3    H146143   0.497   6.173  11.253
 7316TIP3    H246144   0.603   6.221  11.147
 7317TIP3   OH246145   1.089   6.104  11.162
 7317TIP3    H146146   1.055   6.164  11.089
 7317TIP3    H246147   1.123   6.180  11.224
 7318TIP3   OH246148   1.338   5.972  11.294
 7318TIP3    H146149   1.266   6.012  11.231
 7318TIP3    H246150   1.421   6.036  11.275
 7319TIP3   OH246151   1.614   6.142  11.260
 7319TIP3    H146152   1.634   6.245  11.237
 7319TIP3    H246153   1.663   6.094  11.184
 7320TIP3   OH246154   0.318   6.067  11.042
 7320TIP3    H146155   0.283   6.012  11.121
 7320TIP3    H246156   0.402   6.007  11.011
 7321TIP3   OH246157   0.514   5.907  10.909
 7321TIP3    H146158   0.481   5.808  10.924
 7321TIP3    H246159   0.618   5.904  10.938
 7322TIP3   OH246160   0.783   5.901  11.015
 7322TIP3    H146161   0.836   5.809  11.011
 7322TIP3    H246162   0.799   5.928  11.108
 7323TIP3   OH246163   1.147   4.354  10.907
 7323TIP3    H146164   1.059   4.314  10.948
 7323TIP3    H246165   1.166   4.280  10.840
 7324TIP3   OH246166   1.745   4.145  10.877
 7324TIP3    H146167   1.817   4.210  10.834
 7324TIP3    H246168   1.652   4.181  10.837
 7325TIP3   OH246169   1.926   4.288  10.715
 7325TIP3    H146170   1.997   4.223  10.670
 7325TIP3    H246171   1.990   4.372  10.737
 7326TIP3   OH246172   0.366   4.194  10.683
 7326TIP3    H146173   0.282   4.188  10.623
 7326TIP3    H246174   0.416   4.101  10.664
 7327TIP3   OH246175   0.114   4.231  10.219
 7327TIP3    H146176   0.184   4.287  10.163
 7327TIP3    H246177   0.133   4.278  10.304
 7328TIP3   OH246178   0.814   4.182  10.659
 7328TIP3    H146179   0.906   4.222  10.627
 7328TIP3    H246180   0.824   4.202  10.754
 7329TIP3   OH246181   1.477   4.203  10.775
 7329TIP3    H146182   1.413   4.214  10.699
 7329TIP3    H246183   1.424   4.132  10.830
 7330TIP3   OH246184   1.607   4.198  10.396
 7330TIP3    H146185   1.526   4.266  10.386
 7330TIP3    H246186   1.564   4.124  10.455
 7331TIP3   OH246187   0.210   6.010  10.296
 7331TIP3    H146188   0.111   6.009  10.329
 7331TIP3    H246189   0.221   6.117  10.281
 7332TIP3   OH246190   0.380   4.361  10.105
 7332TIP3    H146191   0.440   4.296  10.054
 7332TIP3    H246192   0.449   4.398  10.170
 7333TIP3   OH246193   0.955   4.454  10.341
 7333TIP3    H146194   0.990   4.381  10.403
 7333TIP3    H246195   0.981   4.543  10.390
 7334TIP3   OH246196   1.141   6.090  10.158
 7334TIP3    H146197   1.247   6.116  10.162
 7334TIP3    H246198   1.138   6.043  10.070
 7335TIP3   OH246199   1.867   6.010  10.481
 7335TIP3    H146200   1.861   5.910  10.443
 7335TIP3    H246201   1.852   6.072  10.402
 7336TIP3   OH246202   0.290   4.282  11.637
 7336TIP3    H146203   0.234   4.190  11.639
 7336TIP3    H246204   0.386   4.250  11.671
 7337TIP3   OH246205   0.543   4.206  11.812
 7337TIP3    H146206   0.646   4.190  11.790
 7337TIP3    H246207   0.519   4.107  11.844
 7338TIP3   OH246208   0.502   6.100  10.110
 7338TIP3    H146209   0.420   6.074  10.168
 7338TIP3    H246210   0.577   6.032  10.142
 7339TIP3   OH246211   1.442   4.141  11.811
 7339TIP3    H146212   1.438   4.070  11.885
 7339TIP3    H246213   1.543   4.122  11.783
 7340TIP3   OH246214   1.814   5.912  11.651
 7340TIP3    H146215   1.746   5.915  11.574
 7340TIP3    H246216   1.795   6.010  11.687
 7341TIP3   OH246217   3.423   5.244  10.670
 7341TIP3    H146218   3.412   5.338  10.715
 7341TIP3    H246219   3.336   5.243  10.614
 7342TIP3   OH246220   3.277   5.108  11.003
 7342TIP3    H146221   3.278   5.066  11.093
 7342TIP3    H246222   3.213   5.041  10.953
 7343TIP3   OH246223   2.408   5.112  11.148
 7343TIP3    H146224   2.402   5.031  11.213
 7343TIP3    H246225   2.490   5.166  11.184
 7344TIP3   OH246226   3.628   5.456  10.861
 7344TIP3    H146227   3.612   5.376  10.924
 7344TIP3    H246228   3.661   5.532  10.922
 7345TIP3   OH246229   2.519   5.623  10.982
 7345TIP3    H146230   2.482   5.524  10.965
 7345TIP3    H246231   2.624   5.599  10.977
 7346TIP3   OH246232   2.163   4.884  10.563
 7346TIP3    H146233   2.115   4.979  10.574
 7346TIP3    H246234   2.102   4.841  10.493
 7347TIP3   OH246235   2.221   5.154  10.805
 7347TIP3    H146236   2.272   5.059  10.819
 7347TIP3    H246237   2.295   5.214  10.761
 7348TIP3   OH246238   3.363   6.061  10.842
 7348TIP3    H146239   3.434   5.995  10.797
 7348TIP3    H246240   3.332   5.996  10.913
 7349TIP3   OH246241   3.070   5.412  11.097
 7349TIP3    H146242   3.103   5.359  11.020
 7349TIP3    H246243   3.166   5.443  11.134
 7350TIP3   OH246244   4.030   4.470  11.106
 7350TIP3    H146245   4.028   4.543  11.178
 7350TIP3    H246246   4.121   4.500  11.062
 7351TIP3   OH246247   3.485   4.809  11.120
 7351TIP3    H146248   3.497   4.704  11.132
 7351TIP3    H246249   3.436   4.814  11.033
 7352TIP3   OH246250   2.685   4.558  10.780
 7352TIP3    H146251   2.701   4.648  10.726
 7352TIP3    H246252   2.640   4.496  10.711
 7353TIP3   OH246253   3.517   4.599  10.659
 7353TIP3    H146254   3.585   4.553  10.724
 7353TIP3    H246255   3.583   4.666  10.613
 7354TIP3   OH246256   2.310   4.875  10.879
 7354TIP3    H146257   2.377   4.812  10.929
 7354TIP3    H246258   2.325   4.836  10.789
 7355TIP3   OH246259   2.846   5.015  10.833
 7355TIP3    H146260   2.937   4.968  10.860
 7355TIP3    H246261   2.796   4.936  10.786
 7356TIP3   OH246262   4.040   4.627  11.346
 7356TIP3    H146263   4.006   4.722  11.308
 7356TIP3    H246264   4.061   4.661  11.436
 7357TIP3   OH246265   2.582   4.478  11.203
 7357TIP3    H146266   2.533   4.528  11.127
 7357TIP3    H246267   2.512   4.502  11.275
 7358TIP3   OH246268   3.335   5.520  10.559
 7358TIP3    H146269   3.334   5.513  10.463
 7358TIP3    H246270   3.303   5.621  10.574
 7359TIP3   OH246271   2.812   5.314  11.180
 7359TIP3    H146272   2.754   5.397  11.217
 7359TIP3    H246273   2.897   5.367  11.144
 7360TIP3   OH246274   3.741   4.517  10.823
 7360TIP3    H146275   3.703   4.450  10.889
 7360TIP3    H246276   3.825   4.557  10.869
 7361TIP3   OH246277   2.520   4.678  10.993
 7361TIP3    H146278   2.589   4.743  11.041
 7361TIP3    H246279   2.581   4.646  10.917
 7362TIP3   OH246280   2.680   5.559  11.295
 7362TIP3    H146281   2.661   5.643  11.238
 7362TIP3    H246282   2.585   5.551  11.342
 7363TIP3   OH246283   2.222   5.486  10.381
 7363TIP3    H146284   2.221   5.545  10.298
 7363TIP3    H246285   2.232   5.562  10.450
 7364TIP3   OH246286   3.733   5.685  11.066
 7364TIP3    H146287   3.630   5.707  11.088
 7364TIP3    H246288   3.758   5.778  11.024
 7365TIP3   OH246289   3.724   4.412  11.173
 7365TIP3    H146290   3.655   4.428  11.098
 7365TIP3    H246291   3.815   4.441  11.130
 7366TIP3   OH246292   2.959   4.190  10.930
 7366TIP3    H146293   2.934   4.090  10.951
 7366TIP3    H246294   2.863   4.238  10.955
 7367TIP3   OH246295   3.550   5.877  10.726
 7367TIP3    H146296   3.571   5.786  10.677
 7367TIP3    H246297   3.640   5.933  10.704
 7368TIP3   OH246298   3.654   5.638  10.589
 7368TIP3    H146299   3.649   5.564  10.518
 7368TIP3    H246300   3.648   5.575  10.667
 7369TIP3   OH246301   3.838   5.496  11.448
 7369TIP3    H146302   3.865   5.414  11.386
 7369TIP3    H246303   3.849   5.578  11.386
 7370TIP3   OH246304   3.244   5.166  10.408
 7370TIP3    H146305   3.196   5.259  10.388
 7370TIP3    H246306   3.337   5.172  10.359
 7371TIP3   OH246307   3.301   5.008  10.120
 7371TIP3    H146308   3.383   5.049  10.174
 7371TIP3    H246309   3.337   4.908  10.104
 7372TIP3   OH246310   4.070   5.105  11.237
 7372TIP3    H146311   3.994   5.181  11.234
 7372TIP3    H246312   4.138   5.144  11.171
 7373TIP3   OH246313   3.650   5.146  10.521
 7373TIP3    H146314   3.573   5.189  10.579
 7373TIP3    H246315   3.720   5.105  10.585
 7374TIP3   OH246316   3.628   4.969  11.425
 7374TIP3    H146317   3.623   5.068  11.461
 7374TIP3    H246318   3.557   4.979  11.353
 7375TIP3   OH246319   2.698   5.231  10.705
 7375TIP3    H146320   2.666   5.202  10.615
 7375TIP3    H246321   2.768   5.150  10.725
 7376TIP3   OH246322   2.851   5.604  10.960
 7376TIP3    H146323   2.857   5.589  10.864
 7376TIP3    H246324   2.934   5.548  10.993
 7377TIP3   OH246325   2.715   5.069  11.073
 7377TIP3    H146326   2.753   5.074  10.981
 7377TIP3    H246327   2.763   5.155  11.114
 7378TIP3   OH246328   3.451   5.728  11.139
 7378TIP3    H146329   3.425   5.788  11.216
 7378TIP3    H246330   3.431   5.629  11.171
 7379TIP3   OH246331   2.861   5.607  11.507
 7379TIP3    H146332   2.782   5.657  11.556
 7379TIP3    H246333   2.811   5.590  11.422
 7380TIP3   OH246334   3.507   5.118  10.291
 7380TIP3    H146335   3.562   5.125  10.377
 7380TIP3    H246336   3.576   5.166  10.227
 7381TIP3   OH246337   2.517   5.170  11.421
 7381TIP3    H146338   2.539   5.250  11.481
 7381TIP3    H246339   2.432   5.127  11.466
 7382TIP3   OH246340   3.233   5.845  10.556
 7382TIP3    H146341   3.254   5.871  10.647
 7382TIP3    H246342   3.201   5.937  10.515
 7383TIP3   OH246343   2.658   5.781  11.616
 7383TIP3    H146344   2.640   5.835  11.533
 7383TIP3    H246345   2.556   5.750  11.634
 7384TIP3   OH246346   3.946   4.161  10.299
 7384TIP3    H146347   3.840   4.161  10.318
 7384TIP3    H246348   3.960   4.265  10.277
 7385TIP3   OH246349   2.592   5.108  10.468
 7385TIP3    H146350   2.541   5.190  10.425
 7385TIP3    H246351   2.544   5.024  10.429
 7386TIP3   OH246352   4.028   5.785  10.121
 7386TIP3    H146353   4.050   5.891  10.132
 7386TIP3    H246354   4.124   5.740  10.132
 7387TIP3   OH246355   2.189   5.415  11.352
 7387TIP3    H146356   2.145   5.405  11.264
 7387TIP3    H246357   2.231   5.316  11.362
 7388TIP3   OH246358   2.154   5.702  10.997
 7388TIP3    H146359   2.259   5.690  10.994
 7388TIP3    H246360   2.145   5.778  11.064
 7389TIP3   OH246361   4.138   5.785  11.612
 7389TIP3    H146362   4.126   5.683  11.587
 7389TIP3    H246363   4.037   5.807  11.645
 7390TIP3   OH246364   3.131   5.726  11.495
 7390TIP3    H146365   3.137   5.816  11.546
 7390TIP3    H246366   3.026   5.697  11.505
 7391TIP3   OH246367   3.182   6.129  10.448
 7391TIP3    H146368   3.232   6.166  10.369
 7391TIP3    H246369   3.184   6.221  10.500
 7392TIP3   OH246370   2.498   6.002  10.660
 7392TIP3    H146371   2.532   5.974  10.750
 7392TIP3    H246372   2.402   5.952  10.660
 7393TIP3   OH246373   3.506   6.105  10.185
 7393TIP3    H146374   3.559   6.018  10.151
 7393TIP3    H246375   3.541   6.105  10.277
 7394TIP3   OH246376   3.477   6.029  10.456
 7394TIP3    H146377   3.377   6.048  10.483
 7394TIP3    H246378   3.493   5.929  10.489
 7395TIP3   OH246379   3.798   4.827  11.640
 7395TIP3    H146380   3.742   4.864  11.564
 7395TIP3    H246381   3.809   4.722  11.617
 7396TIP3   OH246382   2.429   5.558  11.439
 7396TIP3    H146383   2.430   5.514  11.530
 7396TIP3    H246384   2.335   5.518  11.406
 7397TIP3   OH246385   2.715   4.301  11.030
 7397TIP3    H146386   2.617   4.296  10.989
 7397TIP3    H246387   2.688   4.352  11.113
 7398TIP3   OH246388   3.250   4.240  11.345
 7398TIP3    H146389   3.278   4.197  11.430
 7398TIP3    H246390   3.142   4.244  11.349
 7399TIP3   OH246391   3.551   4.679  11.459
 7399TIP3    H146392   3.488   4.669  11.539
 7399TIP3    H246393   3.579   4.783  11.461
 7400TIP3   OH246394   3.684   5.228  10.120
 7400TIP3    H146395   3.643   5.237  10.027
 7400TIP3    H246396   3.787   5.248  10.095
 7401TIP3   OH246397   3.202   4.546  10.123
 7401TIP3    H146398   3.153   4.518  10.206
 7401TIP3    H246399   3.134   4.507  10.058
 7402TIP3   OH246400   2.722   4.798  11.166
 7402TIP3    H146401   2.635   4.814  11.221
 7402TIP3    H246402   2.735   4.898  11.129
 7403TIP3   OH246403   2.707   4.803  10.641
 7403TIP3    H146404   2.602   4.808  10.623
 7403TIP3    H246405   2.749   4.795  10.550
 7404TIP3   OH246406   3.342   4.929  10.554
 7404TIP3    H146407   3.301   5.015  10.506
 7404TIP3    H246408   3.406   4.888  10.486
 7405TIP3   OH246409   3.211   4.930  11.670
 7405TIP3    H146410   3.169   4.842  11.712
 7405TIP3    H246411   3.294   4.944  11.729
 7406TIP3   OH246412   3.429   4.854  10.833
 7406TIP3    H146413   3.435   4.936  10.770
 7406TIP3    H246414   3.433   4.771  10.772
 7407TIP3   OH246415   2.455   4.835  11.284
 7407TIP3    H146416   2.484   4.875  11.370
 7407TIP3    H246417   2.418   4.739  11.309
 7408TIP3   OH246418   2.825   4.558  10.037
 7408TIP3    H146419   2.772   4.525  10.117
 7408TIP3    H246420   2.748   4.584   9.975
 7409TIP3   OH246421   2.099   4.522  10.745
 7409TIP3    H146422   2.176   4.529  10.811
 7409TIP3    H246423   2.153   4.522  10.661
 7410TIP3   OH246424   2.231   4.603  10.266
 7410TIP3    H146425   2.307   4.665  10.224
 7410TIP3    H246426   2.159   4.682  10.288
 7411TIP3   OH246427   3.329   5.015  11.257
 7411TIP3    H146428   3.392   4.939  11.217
 7411TIP3    H246429   3.270   4.952  11.319
 7412TIP3   OH246430   3.023   4.561  10.760
 7412TIP3    H146431   2.918   4.562  10.776
 7412TIP3    H246432   3.062   4.535  10.847
 7413TIP3   OH246433   2.399   4.734  10.647
 7413TIP3    H146434   2.320   4.770  10.589
 7413TIP3    H246435   2.429   4.640  10.610
 7414TIP3   OH246436   2.841   4.760  10.404
 7414TIP3    H146437   2.946   4.771  10.396
 7414TIP3    H246438   2.801   4.822  10.333
 7415TIP3   OH246439   3.484   4.487  11.038
 7415TIP3    H146440   3.425   4.488  11.120
 7415TIP3    H246441   3.424   4.423  10.980
 7416TIP3   OH246442   2.684   4.894  10.208
 7416TIP3    H146443   2.593   4.870  10.163
 7416TIP3    H246444   2.754   4.906  10.134
 7417TIP3   OH246445   3.816   6.218  11.722
 7417TIP3    H146446   3.849   6.257  11.637
 7417TIP3    H246447   3.901   6.245  11.776
 7418TIP3   OH246448   2.449   5.393  11.667
 7418TIP3    H146449   2.533   5.409  11.726
 7418TIP3    H246450   2.369   5.374  11.731
 7419TIP3   OH246451   3.128   4.860  10.926
 7419TIP3    H146452   3.214   4.837  10.873
 7419TIP3    H246453   3.113   4.772  10.977
 7420TIP3   OH246454   2.522   4.434  10.579
 7420TIP3    H146455   2.464   4.360  10.627
 7420TIP3    H246456   2.572   4.371  10.515
 7421TIP3   OH246457   2.987   4.672  11.171
 7421TIP3    H146458   2.896   4.731  11.172
 7421TIP3    H246459   3.055   4.732  11.222
 7422TIP3   OH246460   3.056   5.408  10.370
 7422TIP3    H146461   2.981   5.342  10.330
 7422TIP3    H246462   3.010   5.420  10.459
 7423TIP3   OH246463   3.865   5.327  11.237
 7423TIP3    H146464   3.915   5.382  11.165
 7423TIP3    H246465   3.766   5.325  11.202
 7424TIP3   OH246466   3.482   4.599  10.176
 7424TIP3    H146467   3.375   4.600  10.171
 7424TIP3    H246468   3.503   4.696  10.213
 7425TIP3   OH246469   3.169   5.430  11.466
 7425TIP3    H146470   3.161   5.394  11.557
 7425TIP3    H246471   3.159   5.536  11.480
 7426TIP3   OH246472   3.541   4.827  10.330
 7426TIP3    H146473   3.633   4.799  10.375
 7426TIP3    H246474   3.562   4.927  10.301
 7427TIP3   OH246475   2.527   5.325  10.927
 7427TIP3    H146476   2.598   5.302  10.856
 7427TIP3    H246477   2.525   5.234  10.977
 7428TIP3   OH246478   3.274   5.578  10.253
 7428TIP3    H146479   3.221   5.673  10.262
 7428TIP3    H246480   3.201   5.512  10.293
 7429TIP3   OH246481   2.203   5.107  11.457
 7429TIP3    H146482   2.175   5.055  11.538
 7429TIP3    H246483   2.136   5.067  11.390
 7430TIP3   OH246484   2.937   5.103  11.646
 7430TIP3    H146485   2.884   5.030  11.593
 7430TIP3    H246486   3.038   5.068  11.638
 7431TIP3   OH246487   3.489   5.680  11.494
 7431TIP3    H146488   3.394   5.687  11.453
 7431TIP3    H246489   3.467   5.724  11.581
 7432TIP3   OH246490   4.091   4.812  10.335
 7432TIP3    H146491   4.013   4.796  10.270
 7432TIP3    H246492   4.104   4.918  10.322
 7433TIP3   OH246493   4.105   5.465  11.570
 7433TIP3    H146494   4.005   5.481  11.536
 7433TIP3    H246495   4.160   5.452  11.486
 7434TIP3   OH246496   3.915   5.741  10.367
 7434TIP3    H146497   3.815   5.704  10.367
 7434TIP3    H246498   3.937   5.752  10.272
 7435TIP3   OH246499   3.587   5.214  11.045
 7435TIP3    H146500   3.485   5.184  11.034
 7435TIP3    H246501   3.636   5.138  10.992
 7436TIP3   OH246502   2.761   5.688  10.683
 7436TIP3    H146503   2.800   5.786  10.664
 7436TIP3    H246504   2.661   5.699  10.652
 7437TIP3   OH246505   2.331   5.109  10.087
 7437TIP3    H146506   2.389   5.174  10.143
 7437TIP3    H246507   2.235   5.115  10.130
 7438TIP3   OH246508   2.914   5.440  10.613
 7438TIP3    H146509   2.862   5.532  10.631
 7438TIP3    H246510   2.865   5.370  10.673
 7439TIP3   OH246511   2.983   5.892  11.299
 7439TIP3    H146512   3.050   5.961  11.256
 7439TIP3    H246513   3.048   5.841  11.362
 7440TIP3   OH246514   2.784   5.976  10.564
 7440TIP3    H146515   2.683   5.987  10.598
 7440TIP3    H246516   2.829   6.067  10.600
 7441TIP3   OH246517   3.326   5.442  11.233
 7441TIP3    H146518   3.270   5.415  11.314
 7441TIP3    H246519   3.379   5.350  11.215
 7442TIP3   OH246520   3.633   5.574  10.124
 7442TIP3    H146521   3.645   5.524  10.211
 7442TIP3    H246522   3.528   5.563  10.118
 7443TIP3   OH246523   3.685   5.942  11.456
 7443TIP3    H146524   3.586   5.900  11.444
 7443TIP3    H246525   3.693   6.013  11.382
 7444TIP3   OH246526   4.118   6.060  10.167
 7444TIP3    H146527   4.193   6.130  10.137
 7444TIP3    H246528   4.052   6.127  10.218
 7445TIP3   OH246529   2.390   4.555  11.408
 7445TIP3    H146530   2.322   4.607  11.466
 7445TIP3    H246531   2.405   4.464  11.458
 7446TIP3   OH246532   3.713   5.425  10.345
 7446TIP3    H146533   3.714   5.319  10.339
 7446TIP3    H246534   3.818   5.442  10.341
 7447TIP3   OH246535   2.329   5.858  11.241
 7447TIP3    H146536   2.395   5.776  11.254
 7447TIP3    H246537   2.331   5.901  11.329
 7448TIP3   OH246538   2.815   5.632  10.242
 7448TIP3    H146539   2.905   5.601  10.286
 7448TIP3    H246540   2.818   5.740  10.257
 7449TIP3   OH246541   2.444   5.332  10.263
 7449TIP3    H146542   2.367   5.382  10.315
 7449TIP3    H246543   2.509   5.412  10.239
 7450TIP3   OH246544   3.328   4.566  11.289
 7450TIP3    H146545   3.402   4.597  11.354
 7450TIP3    H246546   3.297   4.470  11.321
 7451TIP3   OH246547   3.422   4.445  10.439
 7451TIP3    H146548   3.451   4.517  10.371
 7451TIP3    H246549   3.477   4.478  10.518
 7452TIP3   OH246550   3.137   5.841  10.264
 7452TIP3    H146551   3.066   5.873  10.329
 7452TIP3    H246552   3.194   5.931  10.253
 7453TIP3   OH246553   3.132   4.679  10.531
 7453TIP3    H146554   3.189   4.770  10.543
 7453TIP3    H246555   3.099   4.654  10.621
 7454TIP3   OH246556   3.196   4.819  11.414
 7454TIP3    H146557   3.203   4.842  11.510
 7454TIP3    H246558   3.242   4.723  11.403
 7455TIP3   OH246559   3.175   4.326  10.566
 7455TIP3    H146560   3.122   4.401  10.616
 7455TIP3    H246561   3.264   4.381  10.536
 7456TIP3   OH246562   2.836   5.932  10.285
 7456TIP3    H146563   2.892   6.017  10.258
 7456TIP3    H246564   2.807   5.958  10.376
 7457TIP3   OH246565   2.705   4.465  10.288
 7457TIP3    H146566   2.701   4.553  10.342
 7457TIP3    H246567   2.809   4.441  10.298
 7458TIP3   OH246568   3.817   4.556  11.531
 7458TIP3    H146569   3.713   4.556  11.503
 7458TIP3    H246570   3.865   4.573  11.446
 7459TIP3   OH246571   3.699   4.949  10.904
 7459TIP3    H146572   3.611   4.888  10.914
 7459TIP3    H246573   3.772   4.895  10.958
 7460TIP3   OH246574   2.533   5.629  10.154
 7460TIP3    H146575   2.635   5.628  10.190
 7460TIP3    H246576   2.550   5.586  10.067
 7461TIP3   OH246577   2.350   4.816  10.120
 7461TIP3    H146578   2.357   4.924  10.115
 7461TIP3    H246579   2.281   4.797  10.047
 7462TIP3   OH246580   3.800   5.990  11.053
 7462TIP3    H146581   3.798   6.067  10.984
 7462TIP3    H246582   3.907   5.981  11.059
 7463TIP3   OH246583   2.430   4.234  10.965
 7463TIP3    H146584   2.427   4.222  10.868
 7463TIP3    H246585   2.397   4.136  10.994
 7464TIP3   OH246586   2.283   5.777  10.571
 7464TIP3    H146587   2.190   5.830  10.565
 7464TIP3    H246588   2.328   5.810  10.489
 7465TIP3   OH246589   2.208   6.054  11.693
 7465TIP3    H146590   2.278   6.043  11.766
 7465TIP3    H246591   2.176   5.954  11.676
 7466TIP3   OH246592   2.753   5.951  11.845
 7466TIP3    H146593   2.846   5.908  11.872
 7466TIP3    H246594   2.735   5.905  11.759
 7467TIP3   OH246595   3.180   5.869   9.971
 7467TIP3    H146596   3.115   5.795  10.010
 7467TIP3    H246597   3.271   5.840  10.016
 7468TIP3   OH246598   3.441   5.799  11.736
 7468TIP3    H146599   3.402   5.702  11.767
 7468TIP3    H246600   3.534   5.804  11.786
 7469TIP3   OH246601   3.645   5.859  10.101
 7469TIP3    H146602   3.660   5.752  10.094
 7469TIP3    H246603   3.694   5.898  10.021
 7470TIP3   OH246604   2.179   5.390  11.805
 7470TIP3    H146605   2.128   5.295  11.811
 7470TIP3    H246606   2.142   5.429  11.719
 7471TIP3   OH246607   2.749   5.335  10.044
 7471TIP3    H146608   2.753   5.301  10.137
 7471TIP3    H246609   2.834   5.401  10.048
 7472TIP3   OH246610   2.935   5.394  11.690
 7472TIP3    H146611   2.918   5.444  11.604
 7472TIP3    H246612   2.926   5.289  11.667
 7473TIP3   OH246613   3.562   5.360  11.492
 7473TIP3    H146614   3.656   5.413  11.492
 7473TIP3    H246615   3.496   5.444  11.497
 7474TIP3   OH246616   2.345   5.056  11.756
 7474TIP3    H146617   2.405   4.974  11.788
 7474TIP3    H246618   2.363   5.128  11.827
 7475TIP3   OH246619   2.849   5.210  10.271
 7475TIP3    H146620   2.769   5.155  10.310
 7475TIP3    H246621   2.888   5.143  10.203
 7476TIP3   OH246622   2.724   4.968  11.430
 7476TIP3    H146623   2.658   5.050  11.410
 7476TIP3    H246624   2.809   5.001  11.379
 7477TIP3   OH246625   2.981   5.016  10.078
 7477TIP3    H146626   2.999   4.979   9.988
 7477TIP3    H246627   3.081   5.018  10.115
 7478TIP3   OH246628   3.335   5.271  11.810
 7478TIP3    H146629   3.414   5.224  11.761
 7478TIP3    H246630   3.307   5.194  11.872
 7479TIP3   OH246631   3.938   5.232  19.991
 7479TIP3    H146632   4.002   5.190  19.925
 7479TIP3    H246633   3.977   5.333  19.989
 7480TIP3   OH246634   2.816   4.698  11.521
 7480TIP3    H146635   2.813   4.623  11.448
 7480TIP3    H246636   2.797   4.791  11.472
 7481TIP3   OH246637   2.838   4.478  11.330
 7481TIP3    H146638   2.897   4.532  11.263
 7481TIP3    H246639   2.741   4.481  11.286
 7482TIP3   OH246640   2.971   5.123  11.331
 7482TIP3    H146641   3.067   5.163  11.310
 7482TIP3    H246642   2.908   5.199  11.291
 7483TIP3   OH246643   3.472   4.831  11.828
 7483TIP3    H146644   3.518   4.735  11.816
 7483TIP3    H246645   3.552   4.891  11.863
 7484TIP3   OH246646   3.656   5.178  11.692
 7484TIP3    H146647   3.612   5.236  11.620
 7484TIP3    H246648   3.760   5.175  11.666
 7485TIP3   OH246649   2.655   4.764  11.748
 7485TIP3    H146650   2.561   4.717  11.728
 7485TIP3    H246651   2.717   4.728  11.673
 7486TIP3   OH246652   2.954   4.211  11.329
 7486TIP3    H146653   2.907   4.309  11.338
 7486TIP3    H246654   2.870   4.157  11.296
 7487TIP3   OH246655   3.060   4.665  11.757
 7487TIP3    H146656   2.983   4.639  11.822
 7487TIP3    H246657   3.006   4.653  11.674
 7488TIP3   OH246658   3.350   4.590  11.641
 7488TIP3    H146659   3.255   4.603  11.685
 7488TIP3    H246660   3.399   4.529  11.708
 7489TIP3   OH246661   3.512   4.438  11.820
 7489TIP3    H146662   3.529   4.334  11.833
 7489TIP3    H246663   3.499   4.473  11.912
 7490TIP3   OH246664   2.409   4.575  11.757
 7490TIP3    H146665   2.386   4.488  11.704
 7490TIP3    H246666   2.382   4.543  11.849
 7491TIP3   OH246667   2.923   4.180  11.617
 7491TIP3    H146668   3.000   4.109  11.639
 7491TIP3    H246669   2.921   4.169  11.519
 7492TIP3   OH246670   2.947   4.304  11.886
 7492TIP3    H146671   2.931   4.267  11.795
 7492TIP3    H246672   2.890   4.396  11.886
 7493TIP3   OH246673   2.943   6.228  10.142
 7493TIP3    H146674   3.040   6.184  10.157
 7493TIP3    H246675   2.957   6.322  10.191
 7494TIP3   OH246676   2.222   5.628  10.143
 7494TIP3    H146677   2.330   5.630  10.133
 7494TIP3    H246678   2.191   5.561  10.071
 7495TIP3   OH246679   2.092   6.142  10.599
 7495TIP3    H146680   2.000   6.094  10.571
 7495TIP3    H246681   2.119   6.086  10.679
 7496TIP3   OH246682   2.184   5.960  10.804
 7496TIP3    H146683   2.130   5.872  10.830
 7496TIP3    H246684   2.252   5.977  10.878
 7497TIP3   OH246685   4.100   6.050  11.070
 7497TIP3    H146686   4.137   6.059  11.161
 7497TIP3    H246687   4.167   6.115  11.024
 7498TIP3   OH246688   4.043   6.009  11.365
 7498TIP3    H146689   4.003   5.925  11.315
 7498TIP3    H246690   4.058   5.962  11.451
 7499TIP3   OH246691   3.902   5.535  11.877
 7499TIP3    H146692   3.802   5.551  11.911
 7499TIP3    H246693   3.944   5.634  11.886
 7500TIP3   OH246694   4.006   5.376  10.362
 7500TIP3    H146695   4.103   5.418  10.383
 7500TIP3    H246696   3.988   5.317  10.441
 7501TIP3   OH246697   4.071   5.157  10.602
 7501TIP3    H146698   3.981   5.105  10.627
 7501TIP3    H246699   4.126   5.159  10.686
 7502TIP3   OH246700   4.026   5.447  11.051
 7502TIP3    H146701   4.099   5.367  11.047
 7502TIP3    H246702   4.080   5.531  11.014
 7503TIP3   OH246703   3.897   5.757  11.303
 7503TIP3    H146704   3.820   5.801  11.357
 7503TIP3    H246705   3.843   5.729  11.221
 7504TIP3   OH246706   4.117   5.136  10.210
 7504TIP3    H146707   4.037   5.156  10.148
 7504TIP3    H246708   4.112   5.223  10.266
 7505TIP3   OH246709   3.874   4.791  10.137
 7505TIP3    H146710   3.849   4.859  10.065
 7505TIP3    H246711   3.947   4.733  10.089
 7506TIP3   OH246712   3.845   4.985  10.668
 7506TIP3    H146713   3.826   4.884  10.645
 7506TIP3    H246714   3.809   4.989  10.760
 7507TIP3   OH246715   2.173   5.244  11.063
 7507TIP3    H146716   2.185   5.212  10.969
 7507TIP3    H246717   2.268   5.210  11.097
 7508TIP3   OH246718   3.953   5.210  11.608
 7508TIP3    H146719   4.004   5.114  11.621
 7508TIP3    H246720   4.034   5.278  11.587
 7509TIP3   OH246721   4.061   4.944  11.647
 7509TIP3    H146722   3.963   4.898  11.654
 7509TIP3    H246723   4.127   4.860  11.661
 7510TIP3   OH246724   3.848   4.533   9.968
 7510TIP3    H146725   3.906   4.492  10.040
 7510TIP3    H246726   3.750   4.521  10.002
 7511TIP3   OH246727   3.772   4.728  10.473
 7511TIP3    H146728   3.802   4.631  10.508
 7511TIP3    H246729   3.862   4.752  10.428
 7512TIP3   OH246730   3.895   4.783  11.048
 7512TIP3    H146731   4.003   4.801  11.059
 7512TIP3    H246732   3.865   4.789  11.141
 7513TIP3   OH246733   3.895   4.871  11.309
 7513TIP3    H146734   3.798   4.899  11.342
 7513TIP3    H246735   3.941   4.966  11.289
 7514TIP3   OH246736   2.170   4.678  11.646
 7514TIP3    H146737   2.264   4.668  11.695
 7514TIP3    H246738   2.125   4.582  11.663
 7515TIP3   OH246739   4.136   4.234  11.831
 7515TIP3    H146740   4.176   4.154  11.775
 7515TIP3    H246741   4.120   4.312  11.763
 7516TIP3   OH246742   3.884   4.455  10.517
 7516TIP3    H146743   3.922   4.399  10.593
 7516TIP3    H246744   3.824   4.379  10.475
 7517TIP3   OH246745   2.272   4.499  11.012
 7517TIP3    H146746   2.317   4.401  11.007
 7517TIP3    H246747   2.353   4.565  10.989
 7518TIP3   OH246748   2.100   4.846  11.061
 7518TIP3    H146749   2.163   4.815  10.987
 7518TIP3    H246750   2.157   4.928  11.091
 7519TIP3   OH246751   4.047   4.429  11.656
 7519TIP3    H146752   3.951   4.478  11.643
 7519TIP3    H246753   4.043   4.360  11.581
 7520TIP3   OH246754   4.078   4.455  10.159
 7520TIP3    H146755   4.125   4.399  10.090
 7520TIP3    H246756   4.160   4.520  10.185
 7521TIP3   OH246757   2.126   4.422  10.463
 7521TIP3    H146758   2.026   4.454  10.472
 7521TIP3    H246759   2.153   4.467  10.377
 7522TIP3   OH246760   3.755   6.063  10.667
 7522TIP3    H146761   3.828   6.048  10.597
 7522TIP3    H246762   3.804   6.131  10.728
 7523TIP3   OH246763   2.126   4.265  11.292
 7523TIP3    H146764   2.053   4.237  11.359
 7523TIP3    H246765   2.077   4.343  11.245
 7524TIP3   OH246766   2.374   5.722  11.688
 7524TIP3    H146767   2.277   5.755  11.659
 7524TIP3    H246768   2.355   5.673  11.771
 7525TIP3   OH246769   2.695   5.892  11.360
 7525TIP3    H146770   2.699   5.990  11.319
 7525TIP3    H246771   2.800   5.865  11.354
 7526TIP3   OH246772   3.145   6.015  11.602
 7526TIP3    H146773   3.154   5.999  11.699
 7526TIP3    H246774   3.242   6.057  11.582
 7527TIP3   OH246775   3.378   6.194  11.565
 7527TIP3    H146776   3.458   6.157  11.511
 7527TIP3    H246777   3.428   6.216  11.651
 7528TIP3   OH246778   3.975   4.201  11.485
 7528TIP3    H146779   3.908   4.238  11.419
 7528TIP3    H246780   3.984   4.097  11.456
 7529TIP3   OH246781   2.395   6.207  11.333
 7529TIP3    H146782   2.310   6.273  11.316
 7529TIP3    H246783   2.398   6.206  11.430
 7530TIP3   OH246784   2.651   6.157  11.226
 7530TIP3    H146785   2.549   6.171  11.257
 7530TIP3    H246786   2.653   6.217  11.146
 7531TIP3   OH246787   3.159   6.112  11.152
 7531TIP3    H146788   3.083   6.173  11.113
 7531TIP3    H246789   3.202   6.180  11.217
 7532TIP3   OH246790   3.417   5.975  11.299
 7532TIP3    H146791   3.346   6.013  11.236
 7532TIP3    H246792   3.503   6.036  11.278
 7533TIP3   OH246793   3.706   6.144  11.258
 7533TIP3    H146794   3.733   6.240  11.226
 7533TIP3    H246795   3.740   6.086  11.180
 7534TIP3   OH246796   2.347   6.025  11.021
 7534TIP3    H146797   2.329   5.963  11.101
 7534TIP3    H246798   2.446   5.991  10.998
 7535TIP3   OH246799   2.593   5.921  10.898
 7535TIP3    H146800   2.580   5.817  10.917
 7535TIP3    H246801   2.687   5.937  10.942
 7536TIP3   OH246802   2.834   5.901  11.039
 7536TIP3    H146803   2.868   5.804  11.014
 7536TIP3    H246804   2.872   5.912  11.130
 7537TIP3   OH246805   3.255   4.360  10.907
 7537TIP3    H146806   3.161   4.337  10.948
 7537TIP3    H246807   3.264   4.282  10.842
 7538TIP3   OH246808   3.815   4.155  10.884
 7538TIP3    H146809   3.883   4.220  10.836
 7538TIP3    H246810   3.719   4.181  10.843
 7539TIP3   OH246811   4.001   4.288  10.713
 7539TIP3    H146812   4.074   4.225  10.667
 7539TIP3    H246813   4.060   4.376  10.736
 7540TIP3   OH246814   2.409   4.193  10.687
 7540TIP3    H146815   2.313   4.184  10.643
 7540TIP3    H246816   2.451   4.095  10.669
 7541TIP3   OH246817   2.265   4.190  10.255
 7541TIP3    H146818   2.328   4.263  10.207
 7541TIP3    H246819   2.221   4.248  10.326
 7542TIP3   OH246820   2.883   4.139  10.669
 7542TIP3    H146821   2.964   4.181  10.621
 7542TIP3    H246822   2.903   4.170  10.761
 7543TIP3   OH246823   3.542   4.209  10.780
 7543TIP3    H146824   3.489   4.220  10.697
 7543TIP3    H246825   3.484   4.134  10.827
 7544TIP3   OH246826   3.687   4.203  10.408
 7544TIP3    H146827   3.597   4.258  10.393
 7544TIP3    H246828   3.648   4.117  10.455
 7545TIP3   OH246829   2.252   5.955  10.340
 7545TIP3    H146830   2.153   5.955  10.304
 7545TIP3    H246831   2.253   6.054  10.374
 7546TIP3   OH246832   2.445   4.352  10.106
 7546TIP3    H146833   2.530   4.287  10.101
 7546TIP3    H246834   2.483   4.437  10.150
 7547TIP3   OH246835   3.042   4.464  10.344
 7547TIP3    H146836   3.088   4.400  10.411
 7547TIP3    H246837   3.056   4.557  10.391
 7548TIP3   OH246838   3.220   6.101  10.160
 7548TIP3    H146839   3.329   6.119  10.164
 7548TIP3    H246840   3.221   6.046  10.076
 7549TIP3   OH246841   3.941   6.009  10.479
 7549TIP3    H146842   3.931   5.909  10.442
 7549TIP3    H246843   3.924   6.070  10.400
 7550TIP3   OH246844   2.361   4.297  11.618
 7550TIP3    H146845   2.307   4.203  11.622
 7550TIP3    H246846   2.438   4.281  11.685
 7551TIP3   OH246847   2.581   4.216  11.809
 7551TIP3    H146848   2.683   4.204  11.780
 7551TIP3    H246849   2.559   4.114  11.830
 7552TIP3   OH246850   2.498   6.052  10.140
 7552TIP3    H146851   2.429   6.120  10.184
 7552TIP3    H246852   2.469   5.962  10.185
 7553TIP3   OH246853   3.535   4.127  11.843
 7553TIP3    H146854   3.535   4.023  11.861
 7553TIP3    H246855   3.620   4.129  11.782
 7554TIP3   OH246856   3.882   5.907  11.643
 7554TIP3    H146857   3.804   5.899  11.577
 7554TIP3    H246858   3.861   6.003  11.681
 7555TIP3   OH246859   5.484   5.250  10.668
 7555TIP3    H146860   5.474   5.350  10.701
 7555TIP3    H246861   5.419   5.255  10.591
 7556TIP3   OH246862   5.376   5.101  11.007
 7556TIP3    H146863   5.361   5.064  11.099
 7556TIP3    H246864   5.297   5.051  10.958
 7557TIP3   OH246865   4.466   5.097  11.160
 7557TIP3    H146866   4.481   5.022  11.228
 7557TIP3    H246867   4.558   5.150  11.163
 7558TIP3   OH246868   5.697   5.455  10.857
 7558TIP3    H146869   5.681   5.376  10.922
 7558TIP3    H246870   5.730   5.532  10.917
 7559TIP3   OH246871   4.603   5.621  10.977
 7559TIP3    H146872   4.571   5.519  10.967
 7559TIP3    H246873   4.708   5.603  10.963
 7560TIP3   OH246874   4.243   4.880  10.563
 7560TIP3    H146875   4.198   4.976  10.573
 7560TIP3    H246876   4.182   4.840  10.491
 7561TIP3   OH246877   4.299   5.152  10.810
 7561TIP3    H146878   4.346   5.056  10.821
 7561TIP3    H246879   4.366   5.204  10.752
 7562TIP3   OH246880   5.444   6.064  10.842
 7562TIP3    H146881   5.520   5.997  10.807
 7562TIP3    H246882   5.393   5.997  10.900
 7563TIP3   OH246883   5.148   5.409  11.101
 7563TIP3    H146884   5.175   5.360  11.019
 7563TIP3    H246885   5.246   5.438  11.134
 7564TIP3   OH246886   6.110   4.476  11.098
 7564TIP3    H146887   6.118   4.539  11.177
 7564TIP3    H246888   6.201   4.502  11.052
 7565TIP3   OH246889   5.557   4.815  11.118
 7565TIP3    H146890   5.580   4.711  11.126
 7565TIP3    H246891   5.521   4.817  11.025
 7566TIP3   OH246892   4.762   4.551  10.778
 7566TIP3    H146893   4.781   4.639  10.724
 7566TIP3    H246894   4.708   4.492  10.713
 7567TIP3   OH246895   5.592   4.599  10.657
 7567TIP3    H146896   5.653   4.556  10.730
 7567TIP3    H246897   5.663   4.667  10.617
 7568TIP3   OH246898   4.370   4.868  10.875
 7568TIP3    H146899   4.438   4.811  10.929
 7568TIP3    H246900   4.396   4.829  10.787
 7569TIP3   OH246901   4.928   5.026  10.843
 7569TIP3    H146902   5.028   4.992  10.862
 7569TIP3    H246903   4.890   4.939  10.798
 7570TIP3   OH246904   6.119   4.632  11.341
 7570TIP3    H146905   6.075   4.723  11.306
 7570TIP3    H246906   6.145   4.665  11.431
 7571TIP3   OH246907   4.667   4.472  11.196
 7571TIP3    H146908   4.610   4.522  11.127
 7571TIP3    H246909   4.602   4.490  11.272
 7572TIP3   OH246910   5.409   5.535  10.568
 7572TIP3    H146911   5.402   5.524  10.470
 7572TIP3    H246912   5.378   5.636  10.576
 7573TIP3   OH246913   4.883   5.320  11.174
 7573TIP3    H146914   4.832   5.402  11.218
 7573TIP3    H246915   4.976   5.367  11.147
 7574TIP3   OH246916   5.786   4.525  10.850
 7574TIP3    H146917   5.783   4.438  10.906
 7574TIP3    H246918   5.884   4.561  10.870
 7575TIP3   OH246919   4.601   4.681  10.999
 7575TIP3    H146920   4.669   4.750  11.043
 7575TIP3    H246921   4.656   4.654  10.918
 7576TIP3   OH246922   4.756   5.554  11.301
 7576TIP3    H146923   4.729   5.632  11.239
 7576TIP3    H246924   4.662   5.540  11.349
 7577TIP3   OH246925   4.299   5.480  10.386
 7577TIP3    H146926   4.296   5.551  10.311
 7577TIP3    H246927   4.306   5.546  10.462
 7578TIP3   OH246928   5.800   5.675  11.061
 7578TIP3    H146929   5.695   5.689  11.079
 7578TIP3    H246930   5.823   5.772  11.027
 7579TIP3   OH246931   5.820   4.385  11.181
 7579TIP3    H146932   5.739   4.392  11.117
 7579TIP3    H246933   5.899   4.434  11.134
 7580TIP3   OH246934   5.036   4.184  10.942
 7580TIP3    H146935   5.008   4.082  10.950
 7580TIP3    H246936   4.939   4.230  10.962
 7581TIP3   OH246937   5.633   5.870  10.747
 7581TIP3    H146938   5.641   5.787  10.684
 7581TIP3    H246939   5.723   5.925  10.723
 7582TIP3   OH246940   5.719   5.644  10.590
 7582TIP3    H146941   5.712   5.575  10.513
 7582TIP3    H246942   5.704   5.574  10.662
 7583TIP3   OH246943   5.908   5.492  11.451
 7583TIP3    H146944   5.938   5.410  11.393
 7583TIP3    H246945   5.920   5.574  11.387
 7584TIP3   OH246946   5.321   5.183  10.407
 7584TIP3    H146947   5.261   5.273  10.393
 7584TIP3    H246948   5.393   5.195  10.337
 7585TIP3   OH246949   5.375   4.995  10.125
 7585TIP3    H146950   5.449   5.050  10.177
 7585TIP3    H246951   5.431   4.906  10.105
 7586TIP3   OH246952   6.145   5.107  11.229
 7586TIP3    H146953   6.068   5.182  11.234
 7586TIP3    H246954   6.207   5.154  11.162
 7587TIP3   OH246955   5.713   5.130  10.534
 7587TIP3    H146956   5.638   5.184  10.586
 7587TIP3    H246957   5.790   5.112  10.600
 7588TIP3   OH246958   5.700   4.980  11.423
 7588TIP3    H146959   5.678   5.066  11.477
 7588TIP3    H246960   5.625   4.991  11.355
 7589TIP3   OH246961   4.774   5.234  10.710
 7589TIP3    H146962   4.749   5.207  10.617
 7589TIP3    H246963   4.841   5.152  10.732
 7590TIP3   OH246964   4.914   5.600  10.953
 7590TIP3    H146965   4.930   5.581  10.859
 7590TIP3    H246966   4.994   5.548  10.998
 7591TIP3   OH246967   4.776   5.078  11.074
 7591TIP3    H146968   4.824   5.073  10.985
 7591TIP3    H246969   4.832   5.159  11.115
 7592TIP3   OH246970   5.521   5.721  11.143
 7592TIP3    H146971   5.504   5.795  11.212
 7592TIP3    H246972   5.490   5.631  11.188
 7593TIP3   OH246973   4.941   5.606  11.510
 7593TIP3    H146974   4.861   5.655  11.559
 7593TIP3    H246975   4.887   5.582  11.427
 7594TIP3   OH246976   5.589   5.089  10.288
 7594TIP3    H146977   5.640   5.115  10.372
 7594TIP3    H246978   5.626   5.162  10.225
 7595TIP3   OH246979   4.584   5.148  11.439
 7595TIP3    H146980   4.608   5.224  11.505
 7595TIP3    H246981   4.490   5.117  11.476
 7596TIP3   OH246982   5.333   5.894  10.556
 7596TIP3    H146983   5.339   5.894  10.652
 7596TIP3    H246984   5.269   5.977  10.533
 7597TIP3   OH246985   4.732   5.779  11.609
 7597TIP3    H146986   4.714   5.828  11.522
 7597TIP3    H246987   4.631   5.756  11.634
 7598TIP3   OH246988   6.017   4.160  10.292
 7598TIP3    H146989   5.909   4.160  10.305
 7598TIP3    H246990   6.030   4.264  10.272
 7599TIP3   OH246991   4.665   5.107  10.469
 7599TIP3    H146992   4.632   5.198  10.426
 7599TIP3    H246993   4.608   5.034  10.422
 7600TIP3   OH246994   6.103   5.783  10.117
 7600TIP3    H146995   6.125   5.887  10.135
 7600TIP3    H246996   6.196   5.734  10.132
 7601TIP3   OH246997   4.264   5.411  11.357
 7601TIP3    H146998   4.209   5.403  11.275
 7601TIP3    H246999   4.314   5.315  11.356
 7602TIP3   OH247000   4.220   5.704  11.020
 7602TIP3    H147001   4.323   5.677  11.017
 7602TIP3    H247002   4.222   5.789  11.077
 7603TIP3   OH247003   6.219   5.778  11.605
 7603TIP3    H147004   6.204   5.676  11.585
 7603TIP3    H247005   6.122   5.801  11.643
 7604TIP3   OH247006   5.210   5.724  11.477
 7604TIP3    H147007   5.213   5.817  11.527
 7604TIP3    H247008   5.107   5.690  11.489
 7605TIP3   OH247009   5.229   6.152  10.430
 7605TIP3    H147010   5.277   6.162  10.344
 7605TIP3    H247011   5.269   6.240  10.476
 7606TIP3   OH247012   4.567   5.992  10.656
 7606TIP3    H147013   4.597   5.965  10.748
 7606TIP3    H247014   4.467   5.951  10.654
 7607TIP3   OH247015   5.564   6.103  10.200
 7607TIP3    H147016   5.623   6.025  10.158
 7607TIP3    H247017   5.584   6.090  10.296
 7608TIP3   OH247018   5.562   6.052  10.470
 7608TIP3    H147019   5.458   6.024  10.473
 7608TIP3    H247020   5.601   5.973  10.525
 7609TIP3   OH247021   5.901   4.837  11.631
 7609TIP3    H147022   5.832   4.871  11.563
 7609TIP3    H247023   5.894   4.730  11.621
 7610TIP3   OH247024   4.503   5.547  11.442
 7610TIP3    H147025   4.504   5.504  11.532
 7610TIP3    H247026   4.408   5.513  11.408
 7611TIP3   OH247027   4.782   4.281  11.021
 7611TIP3    H147028   4.685   4.283  10.980
 7611TIP3    H247029   4.766   4.349  11.095
 7612TIP3   OH247030   5.323   4.243  11.341
 7612TIP3    H147031   5.357   4.200  11.426
 7612TIP3    H247032   5.215   4.236  11.346
 7613TIP3   OH247033   5.640   4.674  11.477
 7613TIP3    H147034   5.565   4.637  11.541
 7613TIP3    H247035   5.599   4.767  11.447
 7614TIP3   OH247036   5.772   5.226  10.128
 7614TIP3    H147037   5.717   5.240  10.043
 7614TIP3    H247038   5.873   5.246  10.097
 7615TIP3   OH247039   5.263   4.544  10.122
 7615TIP3    H147040   5.203   4.517  10.200
 7615TIP3    H247041   5.215   4.488  10.053
 7616TIP3   OH247042   4.804   4.809  11.168
 7616TIP3    H147043   4.711   4.806  11.219
 7616TIP3    H247044   4.799   4.910  11.134
 7617TIP3   OH247045   4.784   4.787  10.635
 7617TIP3    H147046   4.678   4.801  10.622
 7617TIP3    H247047   4.822   4.782  10.544
 7618TIP3   OH247048   5.410   4.935  10.547
 7618TIP3    H147049   5.375   5.026  10.505
 7618TIP3    H247050   5.479   4.904  10.478
 7619TIP3   OH247051   5.290   4.927  11.655
 7619TIP3    H147052   5.223   4.851  11.689
 7619TIP3    H247053   5.365   4.925  11.723
 7620TIP3   OH247054   5.508   4.854  10.829
 7620TIP3    H147055   5.507   4.946  10.777
 7620TIP3    H247056   5.504   4.784  10.756
 7621TIP3   OH247057   4.544   4.818  11.291
 7621TIP3    H147058   4.569   4.861  11.376
 7621TIP3    H247059   4.500   4.725  11.319
 7622TIP3   OH247060   4.897   4.588  10.027
 7622TIP3    H147061   4.853   4.550  10.109
 7622TIP3    H247062   4.819   4.576   9.963
 7623TIP3   OH247063   4.172   4.524  10.746
 7623TIP3    H147064   4.247   4.531  10.814
 7623TIP3    H247065   4.227   4.522  10.663
 7624TIP3   OH247066   4.300   4.608  10.263
 7624TIP3    H147067   4.388   4.655  10.228
 7624TIP3    H247068   4.237   4.695  10.275
 7625TIP3   OH247069   5.406   5.026  11.265
 7625TIP3    H147070   5.467   4.953  11.218
 7625TIP3    H247071   5.335   4.960  11.308
 7626TIP3   OH247072   5.111   4.557  10.757
 7626TIP3    H147073   5.004   4.563  10.771
 7626TIP3    H247074   5.148   4.508  10.836
 7627TIP3   OH247075   4.484   4.730  10.648
 7627TIP3    H147076   4.402   4.767  10.594
 7627TIP3    H247077   4.506   4.633  10.609
 7628TIP3   OH247078   4.926   4.734  10.388
 7628TIP3    H147079   5.026   4.766  10.405
 7628TIP3    H247080   4.884   4.811  10.330
 7629TIP3   OH247081   5.561   4.472  11.056
 7629TIP3    H147082   5.485   4.476  11.124
 7629TIP3    H247083   5.512   4.429  10.979
 7630TIP3   OH247084   4.764   4.891  10.197
 7630TIP3    H147085   4.675   4.860  10.151
 7630TIP3    H247086   4.835   4.894  10.124
 7631TIP3   OH247087   5.879   6.226  11.725
 7631TIP3    H147088   5.906   6.287  11.649
 7631TIP3    H247089   5.971   6.232  11.775
 7632TIP3   OH247090   4.551   5.359  11.670
 7632TIP3    H147091   4.617   5.401  11.738
 7632TIP3    H247092   4.458   5.350  11.720
 7633TIP3   OH247093   5.190   4.900  10.913
 7633TIP3    H147094   5.276   4.853  10.875
 7633TIP3    H247095   5.168   4.841  10.990
 7634TIP3   OH247096   4.587   4.435  10.583
 7634TIP3    H147097   4.521   4.367  10.631
 7634TIP3    H247098   4.630   4.369  10.518
 7635TIP3   OH247099   5.073   4.679  11.173
 7635TIP3    H147100   4.981   4.737  11.180
 7635TIP3    H247101   5.137   4.737  11.231
 7636TIP3   OH247102   5.119   5.394  10.373
 7636TIP3    H147103   5.041   5.333  10.337
 7636TIP3    H247104   5.079   5.421  10.460
 7637TIP3   OH247105   5.943   5.335  11.233
 7637TIP3    H147106   5.995   5.393  11.164
 7637TIP3    H247107   5.851   5.321  11.187
 7638TIP3   OH247108   5.544   4.596  10.166
 7638TIP3    H147109   5.436   4.605  10.165
 7638TIP3    H247110   5.574   4.686  10.213
 7639TIP3   OH247111   5.244   5.404  11.463
 7639TIP3    H147112   5.216   5.333  11.529
 7639TIP3    H247113   5.224   5.499  11.504
 7640TIP3   OH247114   5.615   4.809  10.331
 7640TIP3    H147115   5.707   4.783  10.377
 7640TIP3    H247116   5.634   4.912  10.303
 7641TIP3   OH247117   4.599   5.327  10.927
 7641TIP3    H147118   4.665   5.311  10.851
 7641TIP3    H247119   4.608   5.236  10.977
 7642TIP3   OH247120   5.358   5.584  10.311
 7642TIP3    H147121   5.275   5.649  10.297
 7642TIP3    H247122   5.360   5.523  10.230
 7643TIP3   OH247123   4.269   5.122  11.460
 7643TIP3    H147124   4.245   5.081  11.547
 7643TIP3    H247125   4.201   5.070  11.401
 7644TIP3   OH247126   5.028   5.114  11.626
 7644TIP3    H147127   4.957   5.053  11.578
 7644TIP3    H247128   5.058   5.042  11.695
 7645TIP3   OH247129   5.564   5.688  11.492
 7645TIP3    H147130   5.469   5.699  11.447
 7645TIP3    H247131   5.541   5.732  11.579
 7646TIP3   OH247132   6.184   4.804  10.318
 7646TIP3    H147133   6.096   4.796  10.261
 7646TIP3    H247134   6.210   4.906  10.301
 7647TIP3   OH247135   6.169   5.446  11.577
 7647TIP3    H147136   6.064   5.468  11.555
 7647TIP3    H247137   6.215   5.441  11.489
 7648TIP3   OH247138   5.992   5.744  10.360
 7648TIP3    H147139   5.891   5.708  10.362
 7648TIP3    H247140   6.012   5.750  10.263
 7649TIP3   OH247141   5.663   5.209  11.037
 7649TIP3    H147142   5.558   5.190  11.026
 7649TIP3    H247143   5.704   5.125  10.986
 7650TIP3   OH247144   4.837   5.695  10.671
 7650TIP3    H147145   4.881   5.782  10.627
 7650TIP3    H247146   4.733   5.718  10.660
 7651TIP3   OH247147   4.406   5.105  10.089
 7651TIP3    H147148   4.460   5.169  10.150
 7651TIP3    H247149   4.308   5.111  10.129
 7652TIP3   OH247150   4.990   5.437  10.616
 7652TIP3    H147151   4.937   5.530  10.632
 7652TIP3    H247152   4.940   5.369  10.676
 7653TIP3   OH247153   5.063   5.901  11.297
 7653TIP3    H147154   5.130   5.968  11.250
 7653TIP3    H247155   5.130   5.845  11.353
 7654TIP3   OH247156   4.868   5.976  10.577
 7654TIP3    H147157   4.764   5.987  10.600
 7654TIP3    H247158   4.903   6.074  10.606
 7655TIP3   OH247159   5.403   5.442  11.235
 7655TIP3    H147160   5.344   5.412  11.314
 7655TIP3    H247161   5.459   5.352  11.218
 7656TIP3   OH247162   5.710   5.566  10.130
 7656TIP3    H147163   5.684   5.570  10.224
 7656TIP3    H247164   5.636   5.490  10.108
 7657TIP3   OH247165   5.755   5.941  11.460
 7657TIP3    H147166   5.658   5.899  11.440
 7657TIP3    H247167   5.769   6.014  11.387
 7658TIP3   OH247168   6.194   6.056  10.170
 7658TIP3    H147169   6.268   6.125  10.138
 7658TIP3    H247170   6.130   6.125  10.221
 7659TIP3   OH247171   4.459   4.546  11.393
 7659TIP3    H147172   4.369   4.596  11.419
 7659TIP3    H247173   4.460   4.465  11.456
 7660TIP3   OH247174   5.777   5.445  10.380
 7660TIP3    H147175   5.742   5.359  10.332
 7660TIP3    H247176   5.881   5.440  10.353
 7661TIP3   OH247177   4.407   5.862  11.249
 7661TIP3    H147178   4.485   5.790  11.261
 7661TIP3    H247179   4.419   5.920  11.330
 7662TIP3   OH247180   4.877   5.634  10.238
 7662TIP3    H147181   4.972   5.594  10.267
 7662TIP3    H247182   4.891   5.739  10.263
 7663TIP3   OH247183   4.513   5.320  10.264
 7663TIP3    H147184   4.436   5.371  10.315
 7663TIP3    H247185   4.574   5.403  10.235
 7664TIP3   OH247186   5.402   4.543  11.346
 7664TIP3    H147187   5.506   4.547  11.369
 7664TIP3    H247188   5.378   4.440  11.362
 7665TIP3   OH247189   5.516   4.424  10.448
 7665TIP3    H147190   5.520   4.504  10.383
 7665TIP3    H247191   5.553   4.475  10.529
 7666TIP3   OH247192   5.196   5.843  10.262
 7666TIP3    H147193   5.122   5.884  10.320
 7666TIP3    H247194   5.241   5.932  10.227
 7667TIP3   OH247195   5.209   4.672  10.521
 7667TIP3    H147196   5.263   4.763  10.527
 7667TIP3    H247197   5.183   4.648  10.614
 7668TIP3   OH247198   5.266   4.819  11.400
 7668TIP3    H147199   5.260   4.854  11.493
 7668TIP3    H247200   5.301   4.718  11.412
 7669TIP3   OH247201   5.243   4.327  10.560
 7669TIP3    H147202   5.206   4.413  10.609
 7669TIP3    H247203   5.339   4.365  10.532
 7670TIP3   OH247204   4.903   5.930  10.304
 7670TIP3    H147205   4.935   6.025  10.267
 7670TIP3    H247206   4.886   5.955  10.398
 7671TIP3   OH247207   4.788   4.484  10.284
 7671TIP3    H147208   4.794   4.574  10.336
 7671TIP3    H247209   4.888   4.448  10.300
 7672TIP3   OH247210   5.898   4.547  11.513
 7672TIP3    H147211   5.798   4.583  11.490
 7672TIP3    H247212   5.948   4.554  11.426
 7673TIP3   OH247213   5.771   4.952  10.909
 7673TIP3    H147214   5.688   4.885  10.900
 7673TIP3    H247215   5.843   4.892  10.957
 7674TIP3   OH247216   4.594   5.594  10.174
 7674TIP3    H147217   4.693   5.623  10.206
 7674TIP3    H247218   4.615   5.585  10.079
 7675TIP3   OH247219   4.431   4.811  10.112
 7675TIP3    H147220   4.429   4.919  10.117
 7675TIP3    H247221   4.354   4.792  10.047
 7676TIP3   OH247222   5.871   5.986  11.055
 7676TIP3    H147223   5.863   6.060  10.984
 7676TIP3    H247224   5.978   5.978  11.058
 7677TIP3   OH247225   4.488   4.237  10.970
 7677TIP3    H147226   4.484   4.225  10.872
 7677TIP3    H247227   4.466   4.137  10.999
 7678TIP3   OH247228   4.341   5.759  10.571
 7678TIP3    H147229   4.257   5.823  10.570
 7678TIP3    H247230   4.390   5.797  10.493
 7679TIP3   OH247231   4.279   6.083  11.692
 7679TIP3    H147232   4.359   6.062  11.754
 7679TIP3    H247233   4.243   5.984  11.675
 7680TIP3   OH247234   4.811   5.947  11.820
 7680TIP3    H147235   4.906   5.907  11.850
 7680TIP3    H247236   4.798   5.895  11.735
 7681TIP3   OH247237   5.261   5.854   9.961
 7681TIP3    H147238   5.194   5.772   9.959
 7681TIP3    H247239   5.332   5.813  10.025
 7682TIP3   OH247240   5.518   5.789  11.740
 7682TIP3    H147241   5.486   5.694  11.779
 7682TIP3    H247242   5.612   5.801  11.785
 7683TIP3   OH247243   5.700   5.854  10.104
 7683TIP3    H147244   5.702   5.745  10.099
 7683TIP3    H247245   5.746   5.885  10.020
 7684TIP3   OH247246   4.259   5.390  11.785
 7684TIP3    H147247   4.214   5.293  11.791
 7684TIP3    H247248   4.212   5.429  11.704
 7685TIP3   OH247249   4.824   5.342  10.031
 7685TIP3    H147250   4.783   5.299  10.111
 7685TIP3    H247251   4.906   5.397  10.068
 7686TIP3   OH247252   5.015   5.400  11.702
 7686TIP3    H147253   5.007   5.467  11.624
 7686TIP3    H247254   5.025   5.302  11.660
 7687TIP3   OH247255   5.625   5.360  11.504
 7687TIP3    H147256   5.712   5.424  11.496
 7687TIP3    H247257   5.548   5.434  11.497
 7688TIP3   OH247258   4.397   5.073  11.756
 7688TIP3    H147259   4.477   5.008  11.729
 7688TIP3    H247260   4.445   5.128  11.828
 7689TIP3   OH247261   4.910   5.191  10.270
 7689TIP3    H147262   4.849   5.117  10.313
 7689TIP3    H247263   4.962   5.133  10.202
 7690TIP3   OH247264   4.792   4.954  11.451
 7690TIP3    H147265   4.725   5.036  11.431
 7690TIP3    H247266   4.872   4.978  11.391
 7691TIP3   OH247267   5.058   5.029  10.076
 7691TIP3    H147268   5.072   5.008   9.983
 7691TIP3    H247269   5.161   5.026  10.109
 7692TIP3   OH247270   5.386   5.249  11.814
 7692TIP3    H147271   5.464   5.240  11.748
 7692TIP3    H247272   5.319   5.172  11.790
 7693TIP3   OH247273   6.032   5.222  20.014
 7693TIP3    H147274   6.048   5.172  19.929
 7693TIP3    H247275   6.068   5.321  19.992
 7694TIP3   OH247276   4.829   4.638  11.538
 7694TIP3    H147277   4.882   4.582  11.468
 7694TIP3    H247278   4.820   4.734  11.499
 7695TIP3   OH247279   4.934   4.490  11.330
 7695TIP3    H147280   4.997   4.534  11.262
 7695TIP3    H247281   4.838   4.502  11.286
 7696TIP3   OH247282   5.048   5.107  11.318
 7696TIP3    H147283   5.137   5.145  11.357
 7696TIP3    H247284   4.994   5.194  11.290
 7697TIP3   OH247285   5.576   4.812  11.871
 7697TIP3    H147286   5.566   4.732  11.808
 7697TIP3    H247287   5.653   4.875  11.836
 7698TIP3   OH247288   5.721   5.165  11.686
 7698TIP3    H147289   5.688   5.231  11.613
 7698TIP3    H247290   5.827   5.163  11.665
 7699TIP3   OH247291   4.642   4.864  11.748
 7699TIP3    H147292   4.629   4.770  11.704
 7699TIP3    H247293   4.749   4.874  11.744
 7700TIP3   OH247294   5.026   4.211  11.315
 7700TIP3    H147295   4.987   4.310  11.336
 7700TIP3    H247296   4.936   4.159  11.297
 7701TIP3   OH247297   5.166   4.635  11.708
 7701TIP3    H147298   5.134   4.674  11.795
 7701TIP3    H247299   5.071   4.635  11.665
 7702TIP3   OH247300   5.454   4.560  11.657
 7702TIP3    H147301   5.346   4.566  11.663
 7702TIP3    H247302   5.476   4.508  11.741
 7703TIP3   OH247303   5.582   4.415  11.869
 7703TIP3    H147304   5.600   4.320  11.825
 7703TIP3    H247305   5.596   4.392  11.962
 7704TIP3   OH247306   4.453   4.589  11.766
 7704TIP3    H147307   4.476   4.506  11.710
 7704TIP3    H247308   4.468   4.550  11.857
 7705TIP3   OH247309   4.986   4.165  11.609
 7705TIP3    H147310   5.067   4.103  11.644
 7705TIP3    H247311   5.003   4.153  11.514
 7706TIP3   OH247312   5.028   4.296  11.866
 7706TIP3    H147313   5.007   4.265  11.774
 7706TIP3    H247314   4.995   4.399  11.868
 7707TIP3   OH247315   4.986   6.185  10.191
 7707TIP3    H147316   5.093   6.178  10.192
 7707TIP3    H247317   4.968   6.225  10.104
 7708TIP3   OH247318   4.302   5.626  10.145
 7708TIP3    H147319   4.409   5.613  10.157
 7708TIP3    H247320   4.282   5.563  10.070
 7709TIP3   OH247321   4.168   6.146  10.604
 7709TIP3    H147322   4.081   6.093  10.573
 7709TIP3    H247323   4.198   6.086  10.682
 7710TIP3   OH247324   4.260   5.964  10.804
 7710TIP3    H147325   4.199   5.879  10.828
 7710TIP3    H247326   4.322   5.977  10.884
 7711TIP3   OH247327   6.174   6.046  11.067
 7711TIP3    H147328   6.208   6.058  11.158
 7711TIP3    H247329   6.251   6.096  11.018
 7712TIP3   OH247330   6.110   6.006  11.371
 7712TIP3    H147331   6.070   5.924  11.319
 7712TIP3    H247332   6.141   5.952  11.451
 7713TIP3   OH247333   5.978   5.533  11.859
 7713TIP3    H147334   5.874   5.538  11.876
 7713TIP3    H247335   6.014   5.621  11.905
 7714TIP3   OH247336   6.075   5.369  10.368
 7714TIP3    H147337   6.170   5.412  10.395
 7714TIP3    H247338   6.056   5.304  10.443
 7715TIP3   OH247339   6.141   5.162  10.609
 7715TIP3    H147340   6.053   5.107  10.637
 7715TIP3    H247341   6.197   5.162  10.693
 7716TIP3   OH247342   6.110   5.454  11.044
 7716TIP3    H147343   6.183   5.377  11.029
 7716TIP3    H247344   6.163   5.543  11.019
 7717TIP3   OH247345   5.960   5.760  11.295
 7717TIP3    H147346   5.885   5.803  11.352
 7717TIP3    H247347   5.904   5.731  11.215
 7718TIP3   OH247348   6.211   5.137  10.216
 7718TIP3    H147349   6.129   5.159  10.154
 7718TIP3    H247350   6.201   5.222  10.276
 7719TIP3   OH247351   5.941   4.799  10.141
 7719TIP3    H147352   5.922   4.872  10.071
 7719TIP3    H247353   5.984   4.725  10.083
 7720TIP3   OH247354   5.920   4.990  10.679
 7720TIP3    H147355   5.888   4.892  10.654
 7720TIP3    H247356   5.885   4.994  10.772
 7721TIP3   OH247357   4.246   5.253  11.071
 7721TIP3    H147358   4.258   5.214  10.980
 7721TIP3    H247359   4.337   5.211  11.110
 7722TIP3   OH247360   6.013   5.198  11.607
 7722TIP3    H147361   6.073   5.108  11.620
 7722TIP3    H247362   6.087   5.273  11.596
 7723TIP3   OH247363   6.174   4.947  11.648
 7723TIP3    H147364   6.074   4.907  11.643
 7723TIP3    H247365   6.229   4.854  11.661
 7724TIP3   OH247366   5.917   4.544   9.977
 7724TIP3    H147367   5.977   4.488  10.039
 7724TIP3    H247368   5.818   4.518  10.003
 7725TIP3   OH247369   5.848   4.716  10.480
 7725TIP3    H147370   5.884   4.618  10.506
 7725TIP3    H247371   5.939   4.757  10.449
 7726TIP3   OH247372   5.971   4.782  11.037
 7726TIP3    H147373   6.079   4.797  11.047
 7726TIP3    H247374   5.943   4.787  11.131
 7727TIP3   OH247375   5.965   4.873  11.293
 7727TIP3    H147376   5.864   4.904  11.304
 7727TIP3    H247377   6.016   4.968  11.282
 7728TIP3   OH247378   4.193   4.686  11.658
 7728TIP3    H147379   4.285   4.677  11.709
 7728TIP3    H247380   4.153   4.587  11.660
 7729TIP3   OH247381   6.246   4.217  11.850
 7729TIP3    H147382   6.291   4.147  11.787
 7729TIP3    H247383   6.215   4.289  11.782
 7730TIP3   OH247384   5.990   4.447  10.510
 7730TIP3    H147385   6.014   4.391  10.592
 7730TIP3    H247386   5.920   4.381  10.469
 7731TIP3   OH247387   4.353   4.502  11.014
 7731TIP3    H147388   4.396   4.403  11.009
 7731TIP3    H247389   4.434   4.567  10.990
 7732TIP3   OH247390   4.176   4.841  11.066
 7732TIP3    H147391   4.230   4.812  10.986
 7732TIP3    H247392   4.233   4.928  11.089
 7733TIP3   OH247393   6.156   4.418  11.676
 7733TIP3    H147394   6.074   4.480  11.705
 7733TIP3    H247395   6.115   4.384  11.592
 7734TIP3   OH247396   6.145   4.440  10.147
 7734TIP3    H147397   6.197   4.370  10.091
 7734TIP3    H247398   6.222   4.512  10.165
 7735TIP3   OH247399   4.200   4.423  10.461
 7735TIP3    H147400   4.101   4.457  10.475
 7735TIP3    H247401   4.223   4.468  10.374
 7736TIP3   OH247402   5.822   6.068  10.665
 7736TIP3    H147403   5.894   6.047  10.595
 7736TIP3    H247404   5.871   6.138  10.724
 7737TIP3   OH247405   4.203   4.266  11.295
 7737TIP3    H147406   4.136   4.214  11.354
 7737TIP3    H247407   4.139   4.332  11.245
 7738TIP3   OH247408   4.451   5.730  11.694
 7738TIP3    H147409   4.354   5.761  11.662
 7738TIP3    H247410   4.431   5.686  11.779
 7739TIP3   OH247411   4.766   5.886  11.356
 7739TIP3    H147412   4.769   5.986  11.319
 7739TIP3    H247413   4.871   5.864  11.354
 7740TIP3   OH247414   5.216   6.021  11.608
 7740TIP3    H147415   5.234   5.980  11.697
 7740TIP3    H247416   5.316   6.052  11.584
 7741TIP3   OH247417   5.467   6.158  11.542
 7741TIP3    H147418   5.551   6.101  11.511
 7741TIP3    H247419   5.503   6.195  11.628
 7742TIP3   OH247420   6.029   4.209  11.479
 7742TIP3    H147421   5.950   4.259  11.433
 7742TIP3    H247422   6.044   4.122  11.423
 7743TIP3   OH247423   4.476   6.210  11.325
 7743TIP3    H147424   4.390   6.263  11.293
 7743TIP3    H247425   4.466   6.225  11.421
 7744TIP3   OH247426   4.735   6.158  11.229
 7744TIP3    H147427   4.632   6.173  11.256
 7744TIP3    H247428   4.742   6.227  11.155
 7745TIP3   OH247429   5.256   6.109  11.140
 7745TIP3    H147430   5.196   6.164  11.077
 7745TIP3    H247431   5.286   6.189  11.203
 7746TIP3   OH247432   5.487   5.970  11.296
 7746TIP3    H147433   5.413   6.015  11.237
 7746TIP3    H247434   5.570   6.031  11.271
 7747TIP3   OH247435   5.778   6.149  11.264
 7747TIP3    H147436   5.786   6.249  11.231
 7747TIP3    H247437   5.821   6.095  11.188
 7748TIP3   OH247438   4.433   6.035  11.027
 7748TIP3    H147439   4.409   5.966  11.101
 7748TIP3    H247440   4.530   5.997  10.998
 7749TIP3   OH247441   4.662   5.917  10.899
 7749TIP3    H147442   4.651   5.813  10.924
 7749TIP3    H247443   4.760   5.937  10.938
 7750TIP3   OH247444   4.917   5.911  11.025
 7750TIP3    H147445   4.949   5.810  11.008
 7750TIP3    H247446   4.943   5.924  11.119
 7751TIP3   OH247447   5.307   4.359  10.904
 7751TIP3    H147448   5.224   4.321  10.953
 7751TIP3    H247449   5.326   4.280  10.841
 7752TIP3   OH247450   5.887   4.149  10.882
 7752TIP3    H147451   5.962   4.212  10.838
 7752TIP3    H247452   5.795   4.188  10.845
 7753TIP3   OH247453   6.079   4.285  10.722
 7753TIP3    H147454   6.148   4.220  10.673
 7753TIP3    H247455   6.140   4.372  10.737
 7754TIP3   OH247456   4.459   4.192  10.689
 7754TIP3    H147457   4.369   4.177  10.638
 7754TIP3    H247458   4.512   4.101  10.671
 7755TIP3   OH247459   4.327   4.187  10.249
 7755TIP3    H147460   4.390   4.263  10.208
 7755TIP3    H247461   4.280   4.239  10.321
 7756TIP3   OH247462   4.961   4.153  10.667
 7756TIP3    H147463   5.042   4.198  10.621
 7756TIP3    H247464   4.973   4.186  10.758
 7757TIP3   OH247465   5.610   4.221  10.788
 7757TIP3    H147466   5.570   4.223  10.699
 7757TIP3    H247467   5.553   4.141  10.831
 7758TIP3   OH247468   5.764   4.193  10.407
 7758TIP3    H147469   5.681   4.259  10.400
 7758TIP3    H247470   5.720   4.112  10.456
 7759TIP3   OH247471   4.319   5.961  10.357
 7759TIP3    H147472   4.224   5.960  10.311
 7759TIP3    H247473   4.338   6.065  10.348
 7760TIP3   OH247474   4.512   4.352  10.104
 7760TIP3    H147475   4.596   4.285  10.099
 7760TIP3    H247476   4.552   4.434  10.154
 7761TIP3   OH247477   5.106   4.437  10.340
 7761TIP3    H147478   5.152   4.369  10.404
 7761TIP3    H247479   5.112   4.526  10.393
 7762TIP3   OH247480   5.283   6.108  10.157
 7762TIP3    H147481   5.390   6.128  10.169
 7762TIP3    H247482   5.289   6.060  10.071
 7763TIP3   OH247483   6.015   6.007  10.482
 7763TIP3    H147484   6.007   5.910  10.436
 7763TIP3    H247485   6.010   6.075  10.406
 7764TIP3   OH247486   4.430   4.287  11.627
 7764TIP3    H147487   4.381   4.192  11.637
 7764TIP3    H247488   4.516   4.273  11.685
 7765TIP3   OH247489   4.662   4.219  11.808
 7765TIP3    H147490   4.761   4.188  11.786
 7765TIP3    H247491   4.626   4.128  11.851
 7766TIP3   OH247492   4.560   6.089  10.123
 7766TIP3    H147493   4.492   6.113  10.196
 7766TIP3    H247494   4.612   6.004  10.156
 7767TIP3   OH247495   5.596   4.133  11.788
 7767TIP3    H147496   5.594   4.071  11.870
 7767TIP3    H247497   5.698   4.120  11.763
 7768TIP3   OH247498   5.962   5.904  11.646
 7768TIP3    H147499   5.878   5.895  11.584
 7768TIP3    H247500   5.939   5.998  11.686
 7769TIP3   OH247501   7.562   5.246  10.673
 7769TIP3    H147502   7.555   5.342  10.717
 7769TIP3    H247503   7.478   5.254  10.614
 7770TIP3   OH247504   7.407   5.111  10.991
 7770TIP3    H147505   7.429   5.064  11.077
 7770TIP3    H247506   7.330   5.049  10.951
 7771TIP3   OH247507   6.558   5.113  11.143
 7771TIP3    H147508   6.544   5.041  11.215
 7771TIP3    H247509   6.643   5.163  11.178
 7772TIP3   OH247510   7.826   5.480  10.870
 7772TIP3    H147511   7.821   5.396  10.929
 7772TIP3    H247512   7.813   5.562  10.932
 7773TIP3   OH247513   6.681   5.628  10.997
 7773TIP3    H147514   6.643   5.529  10.981
 7773TIP3    H247515   6.785   5.606  10.978
 7774TIP3   OH247516   6.300   4.881  10.562
 7774TIP3    H147517   6.252   4.976  10.569
 7774TIP3    H247518   6.252   4.839  10.484
 7775TIP3   OH247519   6.365   5.145  10.810
 7775TIP3    H147520   6.416   5.050  10.821
 7775TIP3    H247521   6.430   5.202  10.753
 7776TIP3   OH247522   7.506   6.058  10.878
 7776TIP3    H147523   7.571   5.993  10.825
 7776TIP3    H247524   7.467   5.986  10.939
 7777TIP3   OH247525   7.219   5.408  11.109
 7777TIP3    H147526   7.252   5.357  11.030
 7777TIP3    H247527   7.314   5.437  11.148
 7778TIP3   OH247528   8.203   4.509  11.094
 7778TIP3    H147529   8.202   4.580  11.166
 7778TIP3    H247530   8.271   4.554  11.031
 7779TIP3   OH247531   7.609   4.797  11.110
 7779TIP3    H147532   7.659   4.709  11.138
 7779TIP3    H247533   7.603   4.780  11.014
 7780TIP3   OH247534   6.823   4.563  10.784
 7780TIP3    H147535   6.843   4.650  10.729
 7780TIP3    H247536   6.787   4.496  10.714
 7781TIP3   OH247537   7.684   4.590  10.652
 7781TIP3    H147538   7.743   4.574  10.733
 7781TIP3    H247539   7.742   4.663  10.606
 7782TIP3   OH247540   6.457   4.880  10.877
 7782TIP3    H147541   6.527   4.837  10.940
 7782TIP3    H247542   6.480   4.826  10.795
 7783TIP3   OH247543   7.004   5.019  10.825
 7783TIP3    H147544   7.087   4.969  10.865
 7783TIP3    H247545   6.963   4.940  10.772
 7784TIP3   OH247546   8.195   4.621  11.372
 7784TIP3    H147547   8.128   4.695  11.334
 7784TIP3    H247548   8.278   4.684  11.394
 7785TIP3   OH247549   6.738   4.483  11.197
 7785TIP3    H147550   6.692   4.536  11.124
 7785TIP3    H247551   6.662   4.497  11.265
 7786TIP3   OH247552   7.470   5.523  10.554
 7786TIP3    H147553   7.460   5.516  10.457
 7786TIP3    H247554   7.446   5.628  10.568
 7787TIP3   OH247555   6.956   5.322  11.182
 7787TIP3    H147556   6.905   5.411  11.214
 7787TIP3    H247557   7.047   5.367  11.147
 7788TIP3   OH247558   7.856   4.563  10.869
 7788TIP3    H147559   7.820   4.486  10.929
 7788TIP3    H247560   7.950   4.593  10.911
 7789TIP3   OH247561   6.673   4.687  11.000
 7789TIP3    H147562   6.746   4.753  11.042
 7789TIP3    H247563   6.728   4.652  10.922
 7790TIP3   OH247564   6.835   5.569  11.295
 7790TIP3    H147565   6.820   5.646  11.230
 7790TIP3    H247566   6.734   5.561  11.332
 7791TIP3   OH247567   6.366   5.476  10.392
 7791TIP3    H147568   6.357   5.533  10.309
 7791TIP3    H247569   6.368   5.554  10.459
 7792TIP3   OH247570   7.871   5.704  11.055
 7792TIP3    H147571   7.769   5.715  11.085
 7792TIP3    H247572   7.891   5.804  11.028
 7793TIP3   OH247573   7.920   4.453  11.196
 7793TIP3    H147574   7.833   4.479  11.143
 7793TIP3    H247575   8.004   4.481  11.140
 7794TIP3   OH247576   7.105   4.195  10.925
 7794TIP3    H147577   7.070   4.102  10.958
 7794TIP3    H247578   7.018   4.255  10.953
 7795TIP3   OH247579   7.671   5.865  10.736
 7795TIP3    H147580   7.693   5.772  10.692
 7795TIP3    H247581   7.766   5.915  10.718
 7796TIP3   OH247582   7.789   5.646  10.587
 7796TIP3    H147583   7.779   5.568  10.522
 7796TIP3    H247584   7.832   5.596  10.663
 7797TIP3   OH247585   7.979   5.484  11.441
 7797TIP3    H147586   7.963   5.418  11.365
 7797TIP3    H247587   8.005   5.574  11.394
 7798TIP3   OH247588   7.388   5.166  10.401
 7798TIP3    H147589   7.343   5.263  10.395
 7798TIP3    H247590   7.470   5.174  10.341
 7799TIP3   OH247591   7.437   5.018  10.116
 7799TIP3    H147592   7.524   5.049  10.169
 7799TIP3    H247593   7.467   4.918  10.093
 7800TIP3   OH247594   8.159   5.080  11.237
 7800TIP3    H147595   8.094   5.162  11.212
 7800TIP3    H247596   8.242   5.097  11.178
 7801TIP3   OH247597   7.784   5.168  10.508
 7801TIP3    H147598   7.706   5.206  10.567
 7801TIP3    H247599   7.851   5.126  10.576
 7802TIP3   OH247600   7.769   4.983  11.422
 7802TIP3    H147601   7.745   5.076  11.463
 7802TIP3    H247602   7.701   4.991  11.347
 7803TIP3   OH247603   6.842   5.232  10.700
 7803TIP3    H147604   6.807   5.210  10.609
 7803TIP3    H247605   6.908   5.147  10.716
 7804TIP3   OH247606   6.990   5.597  10.964
 7804TIP3    H147607   7.005   5.585  10.869
 7804TIP3    H247608   7.077   5.551  11.002
 7805TIP3   OH247609   6.876   5.078  11.064
 7805TIP3    H147610   6.910   5.082  10.970
 7805TIP3    H247611   6.923   5.166  11.102
 7806TIP3   OH247612   7.599   5.721  11.140
 7806TIP3    H147613   7.586   5.803  11.202
 7806TIP3    H247614   7.558   5.639  11.191
 7807TIP3   OH247615   7.007   5.604  11.518
 7807TIP3    H147616   6.928   5.654  11.569
 7807TIP3    H247617   6.954   5.591  11.433
 7808TIP3   OH247618   7.651   5.104  10.275
 7808TIP3    H147619   7.690   5.117  10.366
 7808TIP3    H247620   7.716   5.168  10.223
 7809TIP3   OH247621   6.663   5.161  11.419
 7809TIP3    H147622   6.664   5.260  11.452
 7809TIP3    H247623   6.603   5.115  11.488
 7810TIP3   OH247624   7.403   5.825  10.562
 7810TIP3    H147625   7.440   5.850  10.651
 7810TIP3    H247626   7.345   5.909  10.537
 7811TIP3   OH247627   6.806   5.777  11.620
 7811TIP3    H147628   6.795   5.829  11.535
 7811TIP3    H247629   6.702   5.753  11.639
 7812TIP3   OH247630   8.057   4.147  10.231
 7812TIP3    H147631   7.950   4.154  10.240
 7812TIP3    H247632   8.086   4.239  10.271
 7813TIP3   OH247633   6.734   5.113  10.463
 7813TIP3    H147634   6.681   5.191  10.417
 7813TIP3    H247635   6.698   5.025  10.421
 7814TIP3   OH247636   8.217   5.779  10.139
 7814TIP3    H147637   8.236   5.886  10.147
 7814TIP3    H247638   8.314   5.739  10.154
 7815TIP3   OH247639   6.337   5.410  11.359
 7815TIP3    H147640   6.288   5.402  11.274
 7815TIP3    H247641   6.379   5.310  11.363
 7816TIP3   OH247642   6.303   5.704  11.010
 7816TIP3    H147643   6.407   5.683  11.012
 7816TIP3    H247644   6.299   5.787  11.068
 7817TIP3   OH247645   8.272   5.787  11.580
 7817TIP3    H147646   8.268   5.681  11.570
 7817TIP3    H247647   8.192   5.800  11.644
 7818TIP3   OH247648   7.282   5.709  11.496
 7818TIP3    H147649   7.303   5.800  11.544
 7818TIP3    H247650   7.176   5.691  11.512
 7819TIP3   OH247651   7.337   6.128  10.435
 7819TIP3    H147652   7.351   6.151  10.341
 7819TIP3    H247653   7.337   6.227  10.475
 7820TIP3   OH247654   6.647   5.992  10.655
 7820TIP3    H147655   6.678   5.965  10.746
 7820TIP3    H247656   6.547   5.951  10.654
 7821TIP3   OH247657   7.646   6.114  10.177
 7821TIP3    H147658   7.691   6.024  10.142
 7821TIP3    H247659   7.667   6.109  10.271
 7822TIP3   OH247660   7.631   6.032  10.446
 7822TIP3    H147661   7.526   6.038  10.468
 7822TIP3    H247662   7.667   5.955  10.505
 7823TIP3   OH247663   7.944   4.860  11.637
 7823TIP3    H147664   7.866   4.880  11.571
 7823TIP3    H247665   7.956   4.754  11.629
 7824TIP3   OH247666   6.574   5.559  11.427
 7824TIP3    H147667   6.579   5.525  11.520
 7824TIP3    H247668   6.479   5.516  11.400
 7825TIP3   OH247669   6.857   4.298  11.027
 7825TIP3    H147670   6.761   4.297  10.986
 7825TIP3    H247671   6.835   4.356  11.107
 7826TIP3   OH247672   7.399   4.242  11.364
 7826TIP3    H147673   7.421   4.168  11.431
 7826TIP3    H247674   7.291   4.237  11.355
 7827TIP3   OH247675   7.704   4.661  11.450
 7827TIP3    H147676   7.641   4.628  11.524
 7827TIP3    H247677   7.678   4.764  11.445
 7828TIP3   OH247678   7.821   5.249  10.114
 7828TIP3    H147679   7.770   5.258  10.026
 7828TIP3    H247680   7.922   5.251  10.081
 7829TIP3   OH247681   7.351   4.541  10.120
 7829TIP3    H147682   7.301   4.507  10.201
 7829TIP3    H247683   7.283   4.504  10.053
 7830TIP3   OH247684   6.871   4.818  11.170
 7830TIP3    H147685   6.782   4.818  11.226
 7830TIP3    H247686   6.866   4.919  11.133
 7831TIP3   OH247687   6.863   4.798  10.636
 7831TIP3    H147688   6.757   4.808  10.625
 7831TIP3    H247689   6.897   4.775  10.545
 7832TIP3   OH247690   7.500   4.939  10.555
 7832TIP3    H147691   7.449   5.015  10.502
 7832TIP3    H247692   7.561   4.894  10.486
 7833TIP3   OH247693   7.321   4.915  11.680
 7833TIP3    H147694   7.285   4.819  11.711
 7833TIP3    H247695   7.414   4.921  11.727
 7834TIP3   OH247696   7.582   4.874  10.820
 7834TIP3    H147697   7.565   4.966  10.775
 7834TIP3    H247698   7.587   4.810  10.743
 7835TIP3   OH247699   6.601   4.826  11.297
 7835TIP3    H147700   6.628   4.869  11.382
 7835TIP3    H247701   6.566   4.728  11.321
 7836TIP3   OH247702   6.972   4.545  10.032
 7836TIP3    H147703   6.920   4.532  10.117
 7836TIP3    H247704   6.894   4.577   9.973
 7837TIP3   OH247705   6.246   4.533  10.737
 7837TIP3    H147706   6.321   4.530  10.807
 7837TIP3    H247707   6.302   4.523  10.656
 7838TIP3   OH247708   6.383   4.596  10.266
 7838TIP3    H147709   6.466   4.655  10.232
 7838TIP3    H247710   6.313   4.676  10.280
 7839TIP3   OH247711   7.498   5.024  11.255
 7839TIP3    H147712   7.546   4.947  11.201
 7839TIP3    H247713   7.436   4.962  11.314
 7840TIP3   OH247714   7.175   4.545  10.753
 7840TIP3    H147715   7.071   4.558  10.769
 7840TIP3    H247716   7.212   4.509  10.837
 7841TIP3   OH247717   6.549   4.728  10.656
 7841TIP3    H147718   6.472   4.763  10.595
 7841TIP3    H247719   6.585   4.637  10.616
 7842TIP3   OH247720   6.983   4.753  10.394
 7842TIP3    H147721   7.085   4.780  10.397
 7842TIP3    H247722   6.941   4.827  10.333
 7843TIP3   OH247723   7.651   4.477  11.059
 7843TIP3    H147724   7.578   4.477  11.130
 7843TIP3    H247725   7.586   4.442  10.987
 7844TIP3   OH247726   6.824   4.899  10.202
 7844TIP3    H147727   6.741   4.862  10.152
 7844TIP3    H247728   6.899   4.908  10.132
 7845TIP3   OH247729   7.970   6.178  11.723
 7845TIP3    H147730   8.007   6.229  11.644
 7845TIP3    H247731   8.051   6.192  11.786
 7846TIP3   OH247732   6.587   5.409  11.667
 7846TIP3    H147733   6.673   5.434  11.721
 7846TIP3    H247734   6.515   5.376  11.733
 7847TIP3   OH247735   7.264   4.857  10.922
 7847TIP3    H147736   7.360   4.839  10.883
 7847TIP3    H247737   7.249   4.770  10.976
 7848TIP3   OH247738   6.681   4.426  10.578
 7848TIP3    H147739   6.610   4.357  10.618
 7848TIP3    H247740   6.735   4.359  10.520
 7849TIP3   OH247741   7.125   4.668  11.175
 7849TIP3    H147742   7.036   4.730  11.174
 7849TIP3    H247743   7.194   4.732  11.219
 7850TIP3   OH247744   7.195   5.410  10.367
 7850TIP3    H147745   7.115   5.349  10.331
 7850TIP3    H247746   7.154   5.426  10.457
 7851TIP3   OH247747   7.984   5.328  11.209
 7851TIP3    H147748   8.048   5.370  11.140
 7851TIP3    H247749   7.893   5.314  11.157
 7852TIP3   OH247750   7.628   4.601  10.182
 7852TIP3    H147751   7.522   4.594  10.169
 7852TIP3    H247752   7.636   4.701  10.218
 7853TIP3   OH247753   7.328   5.412  11.517
 7853TIP3    H147754   7.281   5.401  11.604
 7853TIP3    H247755   7.317   5.519  11.507
 7854TIP3   OH247756   7.691   4.822  10.341
 7854TIP3    H147757   7.792   4.804  10.369
 7854TIP3    H247758   7.699   4.919  10.300
 7855TIP3   OH247759   6.676   5.328  10.932
 7855TIP3    H147760   6.733   5.302  10.853
 7855TIP3    H247761   6.674   5.237  10.983
 7856TIP3   OH247762   7.443   5.526  10.269
 7856TIP3    H147763   7.431   5.631  10.281
 7856TIP3    H247764   7.343   5.492  10.291
 7857TIP3   OH247765   6.351   5.119  11.426
 7857TIP3    H147766   6.326   5.079  11.513
 7857TIP3    H247767   6.282   5.073  11.365
 7858TIP3   OH247768   7.083   5.099  11.638
 7858TIP3    H147769   7.047   5.058  11.555
 7858TIP3    H247770   7.180   5.050  11.645
 7859TIP3   OH247771   7.642   5.667  11.496
 7859TIP3    H147772   7.553   5.678  11.445
 7859TIP3    H247773   7.610   5.706  11.583
 7860TIP3   OH247774   8.201   4.832  10.330
 7860TIP3    H147775   8.146   4.784  10.257
 7860TIP3    H247776   8.208   4.929  10.288
 7861TIP3   OH247777   8.229   5.452  11.575
 7861TIP3    H147778   8.129   5.472  11.542
 7861TIP3    H247779   8.284   5.441  11.491
 7862TIP3   OH247780   8.050   5.750  10.362
 7862TIP3    H147781   7.967   5.685  10.363
 7862TIP3    H247782   8.094   5.735  10.274
 7863TIP3   OH247783   7.763   5.249  11.026
 7863TIP3    H147784   7.664   5.248  10.991
 7863TIP3    H247785   7.795   5.154  10.989
 7864TIP3   OH247786   6.903   5.700  10.685
 7864TIP3    H147787   6.930   5.798  10.652
 7864TIP3    H247788   6.799   5.700  10.660
 7865TIP3   OH247789   6.478   5.088  10.097
 7865TIP3    H147790   6.535   5.160  10.146
 7865TIP3    H247791   6.379   5.102  10.137
 7866TIP3   OH247792   7.068   5.437  10.621
 7866TIP3    H147793   7.010   5.528  10.635
 7866TIP3    H247794   7.021   5.365  10.680
 7867TIP3   OH247795   7.138   5.893  11.298
 7867TIP3    H147796   7.207   5.969  11.270
 7867TIP3    H247797   7.198   5.840  11.363
 7868TIP3   OH247798   6.933   5.971  10.573
 7868TIP3    H147799   6.829   5.988  10.593
 7868TIP3    H247800   6.972   6.069  10.596
 7869TIP3   OH247801   7.468   5.441  11.244
 7869TIP3    H147802   7.416   5.411  11.326
 7869TIP3    H247803   7.517   5.349  11.221
 7870TIP3   OH247804   7.770   5.585  10.128
 7870TIP3    H147805   7.813   5.530  10.203
 7870TIP3    H247806   7.670   5.548  10.133
 7871TIP3   OH247807   7.824   5.942  11.461
 7871TIP3    H147808   7.734   5.884  11.458
 7871TIP3    H247809   7.824   5.999  11.377
 7872TIP3   OH247810   8.283   6.065  10.130
 7872TIP3    H147811   8.350   6.147  10.126
 7872TIP3    H247812   8.193   6.114  10.164
 7873TIP3   OH247813   6.527   4.551  11.400
 7873TIP3    H147814   6.466   4.610  11.459
 7873TIP3    H247815   6.529   4.458  11.450
 7874TIP3   OH247816   7.876   5.432  10.352
 7874TIP3    H147817   7.843   5.331  10.352
 7874TIP3    H247818   7.983   5.419  10.354
 7875TIP3   OH247819   6.484   5.863  11.241
 7875TIP3    H147820   6.540   5.774  11.258
 7875TIP3    H247821   6.490   5.909  11.328
 7876TIP3   OH247822   6.954   5.631  10.235
 7876TIP3    H147823   7.048   5.596  10.270
 7876TIP3    H247824   6.961   5.737  10.261
 7877TIP3   OH247825   6.597   5.328  10.274
 7877TIP3    H147826   6.511   5.377  10.315
 7877TIP3    H247827   6.647   5.414  10.236
 7878TIP3   OH247828   7.448   4.552  11.327
 7878TIP3    H147829   7.546   4.562  11.365
 7878TIP3    H247830   7.425   4.450  11.349
 7879TIP3   OH247831   7.566   4.448  10.434
 7879TIP3    H147832   7.585   4.521  10.364
 7879TIP3    H247833   7.625   4.487  10.509
 7880TIP3   OH247834   7.297   5.821  10.252
 7880TIP3    H147835   7.215   5.844  10.310
 7880TIP3    H247836   7.341   5.919  10.243
 7881TIP3   OH247837   7.295   4.681  10.534
 7881TIP3    H147838   7.339   4.777  10.550
 7881TIP3    H247839   7.263   4.646  10.622
 7882TIP3   OH247840   7.356   4.818  11.405
 7882TIP3    H147841   7.351   4.829  11.503
 7882TIP3    H247842   7.392   4.718  11.390
 7883TIP3   OH247843   7.334   4.326  10.573
 7883TIP3    H147844   7.274   4.401  10.616
 7883TIP3    H247845   7.424   4.379  10.547
 7884TIP3   OH247846   6.997   5.906  10.311
 7884TIP3    H147847   7.021   6.001  10.267
 7884TIP3    H247848   6.967   5.940  10.400
 7885TIP3   OH247849   6.862   4.473  10.279
 7885TIP3    H147850   6.851   4.562  10.331
 7885TIP3    H247851   6.963   4.448  10.300
 7886TIP3   OH247852   7.971   4.536  11.533
 7886TIP3    H147853   7.876   4.560  11.492
 7886TIP3    H247854   8.040   4.557  11.460
 7887TIP3   OH247855   7.829   4.996  10.906
 7887TIP3    H147856   7.740   4.937  10.893
 7887TIP3    H247857   7.890   4.926  10.957
 7888TIP3   OH247858   6.676   5.595  10.164
 7888TIP3    H147859   6.775   5.618  10.201
 7888TIP3    H247860   6.701   5.585  10.070
 7889TIP3   OH247861   6.515   4.797  10.118
 7889TIP3    H147862   6.515   4.905  10.118
 7889TIP3    H247863   6.435   4.778  10.055
 7890TIP3   OH247864   7.982   5.983  11.064
 7890TIP3    H147865   7.964   6.061  10.997
 7890TIP3    H247866   8.087   5.987  11.077
 7891TIP3   OH247867   6.571   4.238  10.968
 7891TIP3    H147868   6.571   4.207  10.874
 7891TIP3    H247869   6.545   4.147  11.015
 7892TIP3   OH247870   6.422   5.764  10.572
 7892TIP3    H147871   6.338   5.830  10.572
 7892TIP3    H247872   6.469   5.796  10.491
 7893TIP3   OH247873   6.355   6.070  11.677
 7893TIP3    H147874   6.426   6.059  11.750
 7893TIP3    H247875   6.318   5.969  11.671
 7894TIP3   OH247876   6.908   5.964  11.836
 7894TIP3    H147877   6.994   5.922  11.881
 7894TIP3    H247878   6.894   5.899  11.760
 7895TIP3   OH247879   7.338   5.867   9.966
 7895TIP3    H147880   7.263   5.812  10.015
 7895TIP3    H247881   7.426   5.839  10.014
 7896TIP3   OH247882   7.585   5.822  11.735
 7896TIP3    H147883   7.550   5.726  11.768
 7896TIP3    H247884   7.678   5.832  11.783
 7897TIP3   OH247885   7.757   5.870  10.057
 7897TIP3    H147886   7.782   5.769  10.084
 7897TIP3    H247887   7.844   5.907  10.010
 7898TIP3   OH247888   6.319   5.377  11.801
 7898TIP3    H147889   6.274   5.281  11.814
 7898TIP3    H247890   6.275   5.408  11.715
 7899TIP3   OH247891   6.871   5.339  10.031
 7899TIP3    H147892   6.849   5.332  10.126
 7899TIP3    H247893   6.966   5.383  10.038
 7900TIP3   OH247894   7.088   5.396  11.701
 7900TIP3    H147895   7.070   5.457  11.622
 7900TIP3    H247896   7.074   5.295  11.667
 7901TIP3   OH247897   7.725   5.353  11.494
 7901TIP3    H147898   7.830   5.381  11.500
 7901TIP3    H247899   7.684   5.451  11.507
 7902TIP3   OH247900   6.509   5.064  11.732
 7902TIP3    H147901   6.513   4.970  11.778
 7902TIP3    H247902   6.496   5.129  11.809
 7903TIP3   OH247903   6.988   5.216  10.272
 7903TIP3    H147904   6.911   5.159  10.315
 7903TIP3    H247905   7.031   5.147  10.209
 7904TIP3   OH247906   6.865   4.961  11.428
 7904TIP3    H147907   6.796   5.042  11.416
 7904TIP3    H247908   6.947   5.000  11.375
 7905TIP3   OH247909   7.134   5.023  10.082
 7905TIP3    H147910   7.152   4.991   9.991
 7905TIP3    H247911   7.235   5.026  10.119
 7906TIP3   OH247912   7.450   5.240  11.835
 7906TIP3    H147913   7.517   5.229  11.760
 7906TIP3    H247914   7.478   5.158  11.891
 7907TIP3   OH247915   8.085   5.206  19.989
 7907TIP3    H147916   8.130   5.122  19.946
 7907TIP3    H247917   8.152   5.284  19.958
 7908TIP3   OH247918   6.966   4.700  11.536
 7908TIP3    H147919   6.976   4.632  11.461
 7908TIP3    H247920   6.926   4.788  11.493
 7909TIP3   OH247921   6.985   4.478  11.340
 7909TIP3    H147922   7.043   4.530  11.271
 7909TIP3    H247923   6.886   4.483  11.301
 7910TIP3   OH247924   7.108   5.124  11.348
 7910TIP3    H147925   7.208   5.149  11.325
 7910TIP3    H247926   7.053   5.199  11.300
 7911TIP3   OH247927   7.608   4.844  11.844
 7911TIP3    H147928   7.611   4.741  11.863
 7911TIP3    H247929   7.704   4.880  11.869
 7912TIP3   OH247930   7.759   5.184  11.709
 7912TIP3    H147931   7.731   5.235  11.627
 7912TIP3    H247932   7.859   5.155  11.688
 7913TIP3   OH247933   6.798   4.770  11.766
 7913TIP3    H147934   6.699   4.729  11.756
 7913TIP3    H247935   6.844   4.735  11.684
 7914TIP3   OH247936   7.112   4.216  11.312
 7914TIP3    H147937   7.069   4.313  11.333
 7914TIP3    H247938   7.022   4.162  11.291
 7915TIP3   OH247939   7.223   4.624  11.742
 7915TIP3    H147940   7.147   4.627  11.812
 7915TIP3    H247941   7.162   4.637  11.662
 7916TIP3   OH247942   7.527   4.576  11.646
 7916TIP3    H147943   7.427   4.563  11.680
 7916TIP3    H247944   7.583   4.525  11.717
 7917TIP3   OH247945   7.652   4.425  11.841
 7917TIP3    H147946   7.686   4.324  11.849
 7917TIP3    H247947   7.652   4.458  11.936
 7918TIP3   OH247948   6.562   4.584  11.720
 7918TIP3    H147949   6.540   4.488  11.679
 7918TIP3    H247950   6.549   4.558  11.816
 7919TIP3   OH247951   7.064   4.153  11.654
 7919TIP3    H147952   7.129   4.067  11.654
 7919TIP3    H247953   7.062   4.178  11.560
 7920TIP3   OH247954   7.068   4.282  11.898
 7920TIP3    H147955   7.064   4.231  11.811
 7920TIP3    H247956   7.052   4.382  11.870
 7921TIP3   OH247957   7.048   6.166  10.188
 7921TIP3    H147958   7.154   6.168  10.196
 7921TIP3    H247959   7.028   6.232  10.114
 7922TIP3   OH247960   6.373   5.607  10.149
 7922TIP3    H147961   6.482   5.597  10.156
 7922TIP3    H247962   6.354   5.553  10.068
 7923TIP3   OH247963   6.235   6.149  10.601
 7923TIP3    H147964   6.150   6.091  10.570
 7923TIP3    H247965   6.266   6.092  10.680
 7924TIP3   OH247966   6.325   5.969  10.801
 7924TIP3    H147967   6.256   5.895  10.833
 7924TIP3    H247968   6.392   5.981  10.878
 7925TIP3   OH247969   8.293   6.025  11.123
 7925TIP3    H147970   8.297   6.027  11.221
 7925TIP3    H247971   8.285   6.129  11.106
 7926TIP3   OH247972   8.198   6.003  11.394
 7926TIP3    H147973   8.148   5.927  11.341
 7926TIP3    H247974   8.232   5.943  11.470
 7927TIP3   OH247975   8.043   5.524  11.867
 7927TIP3    H147976   7.953   5.547  11.917
 7927TIP3    H247977   8.080   5.621  11.845
 7928TIP3   OH247978   8.182   5.367  10.375
 7928TIP3    H147979   8.279   5.412  10.384
 7928TIP3    H247980   8.188   5.288  10.440
 7929TIP3   OH247981   8.216   5.150  10.585
 7929TIP3    H147982   8.113   5.119  10.579
 7929TIP3    H247983   8.230   5.129  10.679
 7930TIP3   OH247984   8.238   5.412  11.075
 7930TIP3    H147985   8.340   5.410  11.048
 7930TIP3    H247986   8.221   5.518  11.056
 7931TIP3   OH247987   8.044   5.754  11.308
 7931TIP3    H147988   7.956   5.787  11.355
 7931TIP3    H247989   8.009   5.741  11.217
 7932TIP3   OH247990   8.248   5.144  10.204
 7932TIP3    H147991   8.176   5.169  10.135
 7932TIP3    H247992   8.247   5.236  10.252
 7933TIP3   OH247993   8.055   4.792  10.107
 7933TIP3    H147994   8.012   4.857  10.042
 7933TIP3    H247995   8.059   4.699  10.057
 7934TIP3   OH247996   7.971   5.018  10.663
 7934TIP3    H147997   7.940   4.921  10.629
 7934TIP3    H247998   7.927   5.019  10.752
 7935TIP3   OH247999   6.322   5.244  11.063
 7935TIP3    H148000   6.327   5.206  10.970
 7935TIP3    H248001   6.421   5.214  11.093
 7936TIP3   OH248002   8.066   5.189  11.618
 7936TIP3    H148003   8.139   5.109  11.609
 7936TIP3    H248004   8.124   5.278  11.599
 7937TIP3   OH248005   8.224   4.947  11.630
 7937TIP3    H148006   8.116   4.931  11.638
 7937TIP3    H248007   8.259   4.851  11.664
 7938TIP3   OH248008   7.991   4.553   9.970
 7938TIP3    H148009   8.049   4.480  10.018
 7938TIP3    H248010   7.894   4.535  10.005
 7939TIP3   OH248011   7.950   4.750  10.489
 7939TIP3    H148012   7.943   4.642  10.493
 7939TIP3    H248013   8.054   4.763  10.479
 7940TIP3   OH248014   7.968   4.794  11.041
 7940TIP3    H148015   8.076   4.786  11.030
 7940TIP3    H248016   7.964   4.794  11.139
 7941TIP3   OH248017   8.010   4.842  11.313
 7941TIP3    H148018   7.920   4.883  11.351
 7941TIP3    H248019   8.065   4.934  11.294
 7942TIP3   OH248020   6.285   4.677  11.650
 7942TIP3    H148021   6.385   4.672  11.686
 7942TIP3    H248022   6.249   4.577  11.665
 7943TIP3   OH248023   8.260   4.164  11.833
 7943TIP3    H148024   8.306   4.099  11.768
 7943TIP3    H248025   8.250   4.253  11.779
 7944TIP3   OH248026   7.987   4.445  10.486
 7944TIP3    H148027   8.012   4.414  10.577
 7944TIP3    H248028   7.934   4.358  10.455
 7945TIP3   OH248029   6.430   4.506  10.980
 7945TIP3    H148030   6.472   4.407  10.991
 7945TIP3    H248031   6.518   4.568  10.975
 7946TIP3   OH248032   6.255   4.842  11.061
 7946TIP3    H148033   6.314   4.812  10.984
 7946TIP3    H248034   6.301   4.935  11.083
 7947TIP3   OH248035   8.192   4.407  11.699
 7947TIP3    H148036   8.096   4.459  11.711
 7947TIP3    H248037   8.182   4.385  11.604
 7948TIP3   OH248038   8.272   4.435  10.134
 7948TIP3    H148039   8.303   4.341  10.100
 7948TIP3    H248040   8.340   4.504  10.090
 7949TIP3   OH248041   6.282   4.419  10.465
 7949TIP3    H148042   6.180   4.447  10.470
 7949TIP3    H248043   6.310   4.467  10.381
 7950TIP3   OH248044   7.890   6.029  10.651
 7950TIP3    H148045   7.953   6.019  10.572
 7950TIP3    H248046   7.960   6.075  10.710
 7951TIP3   OH248047   6.261   4.263  11.281
 7951TIP3    H148048   6.201   4.227  11.355
 7951TIP3    H248049   6.200   4.334  11.236
 7952TIP3   OH248050   6.523   5.723  11.681
 7952TIP3    H148051   6.425   5.754  11.655
 7952TIP3    H248052   6.510   5.669  11.763
 7953TIP3   OH248053   6.850   5.905  11.366
 7953TIP3    H148054   6.844   6.001  11.319
 7953TIP3    H248055   6.953   5.882  11.356
 7954TIP3   OH248056   7.300   6.012  11.605
 7954TIP3    H148057   7.310   5.982  11.699
 7954TIP3    H248058   7.399   6.050  11.586
 7955TIP3   OH248059   7.546   6.169  11.564
 7955TIP3    H148060   7.630   6.119  11.526
 7955TIP3    H248061   7.586   6.210  11.646
 7956TIP3   OH248062   8.103   4.213  11.484
 7956TIP3    H148063   8.012   4.257  11.450
 7956TIP3    H248064   8.103   4.115  11.445
 7957TIP3   OH248065   6.552   6.210  11.322
 7957TIP3    H148066   6.468   6.271  11.294
 7957TIP3    H248067   6.543   6.212  11.418
 7958TIP3   OH248068   6.815   6.164  11.227
 7958TIP3    H148069   6.713   6.182  11.260
 7958TIP3    H248070   6.816   6.226  11.148
 7959TIP3   OH248071   7.339   6.116  11.153
 7959TIP3    H148072   7.284   6.169  11.087
 7959TIP3    H248073   7.355   6.193  11.221
 7960TIP3   OH248074   7.543   5.963  11.302
 7960TIP3    H148075   7.468   6.007  11.243
 7960TIP3    H248076   7.621   6.035  11.291
 7961TIP3   OH248077   7.838   6.128  11.253
 7961TIP3    H148078   7.847   6.228  11.221
 7961TIP3    H248079   7.894   6.076  11.183
 7962TIP3   OH248080   6.498   6.036  11.020
 7962TIP3    H148081   6.466   5.983  11.102
 7962TIP3    H248082   6.595   5.991  11.005
 7963TIP3   OH248083   6.740   5.919  10.903
 7963TIP3    H148084   6.728   5.816  10.926
 7963TIP3    H248085   6.837   5.938  10.943
 7964TIP3   OH248086   6.996   5.925  11.021
 7964TIP3    H148087   7.031   5.826  11.000
 7964TIP3    H248088   7.016   5.927  11.116
 7965TIP3   OH248089   7.391   4.382  10.931
 7965TIP3    H148090   7.303   4.324  10.947
 7965TIP3    H248091   7.445   4.320  10.869
 7966TIP3   OH248092   7.932   4.157  10.896
 7966TIP3    H148093   7.981   4.233  10.840
 7966TIP3    H248094   7.830   4.183  10.876
 7967TIP3   OH248095   8.086   4.315  10.716
 7967TIP3    H148096   8.165   4.244  10.696
 7967TIP3    H248097   8.148   4.399  10.746
 7968TIP3   OH248098   6.565   4.186  10.686
 7968TIP3    H148099   6.467   4.174  10.646
 7968TIP3    H248100   6.607   4.088  10.670
 7969TIP3   OH248101   6.407   4.187  10.247
 7969TIP3    H148102   6.475   4.256  10.203
 7969TIP3    H248103   6.362   4.248  10.315
 7970TIP3   OH248104   7.007   4.157  10.656
 7970TIP3    H148105   7.092   4.197  10.611
 7970TIP3    H248106   7.036   4.167  10.750
 7971TIP3   OH248107   7.642   4.221  10.807
 7971TIP3    H148108   7.628   4.204  10.712
 7971TIP3    H248109   7.593   4.134  10.846
 7972TIP3   OH248110   7.819   4.197  10.403
 7972TIP3    H148111   7.733   4.258  10.405
 7972TIP3    H248112   7.777   4.103  10.437
 7973TIP3   OH248113   6.401   5.962  10.357
 7973TIP3    H148114   6.303   5.960  10.319
 7973TIP3    H248115   6.425   6.065  10.345
 7974TIP3   OH248116   6.608   4.335  10.102
 7974TIP3    H148117   6.694   4.276  10.117
 7974TIP3    H248118   6.632   4.426  10.145
 7975TIP3   OH248119   7.200   4.459  10.349
 7975TIP3    H148120   7.260   4.406  10.413
 7975TIP3    H248121   7.205   4.556  10.392
 7976TIP3   OH248122   7.359   6.097  10.162
 7976TIP3    H148123   7.466   6.119  10.147
 7976TIP3    H248124   7.339   6.046  10.078
 7977TIP3   OH248125   8.095   6.024  10.457
 7977TIP3    H148126   8.077   5.921  10.429
 7977TIP3    H248127   8.090   6.075  10.372
 7978TIP3   OH248128   6.524   4.300  11.599
 7978TIP3    H148129   6.490   4.200  11.584
 7978TIP3    H248130   6.613   4.277  11.650
 7979TIP3   OH248131   6.725   4.216  11.810
 7979TIP3    H148132   6.820   4.191  11.771
 7979TIP3    H248133   6.682   4.118  11.819
 7980TIP3   OH248134   6.641   6.100  10.114
 7980TIP3    H148135   6.571   6.123  10.184
 7980TIP3    H248136   6.674   6.002  10.138
 7981TIP3   OH248137   7.710   4.128  11.851
 7981TIP3    H148138   7.723   4.026  11.877
 7981TIP3    H248139   7.792   4.135  11.787
 7982TIP3   OH248140   8.012   5.885  11.657
 7982TIP3    H148141   7.952   5.895  11.576
 7982TIP3    H248142   8.000   5.985  11.690
 7983TIP3   OH248143   8.325   4.878  10.559
 7983TIP3    H148144   8.295   4.981  10.558
 7983TIP3    H248145   8.283   4.847  10.473
 7984TIP3   OH248146   8.334   5.374  11.331
 7984TIP3    H148147   8.280   5.370  11.246
 7984TIP3    H248148   8.332   5.272  11.363
 7985TIP3   OH248149   8.296   5.693  11.019
 7985TIP3    H148150   8.399   5.701  10.986
 7985TIP3    H248151   8.294   5.775  11.080
 7986TIP3   OH248152   8.293   4.522  10.721
 7986TIP3    H148153   8.383   4.578  10.742
 7986TIP3    H248154   8.298   4.520  10.624
 7987TIP3   OH248155   8.350   5.102  11.441
 7987TIP3    H148156   8.329   5.041  11.521
 7987TIP3    H248157   8.271   5.070  11.382
 7988TIP3   OH248158   8.400   5.324  11.756
 7988TIP3    H148159   8.360   5.229  11.783
 7988TIP3    H248160   8.321   5.368  11.701
 7989TIP3   OH248161   8.255   6.164  10.644
 7989TIP3    H148162   8.193   6.119  10.575
 7989TIP3    H248163   8.283   6.074  10.693
 7990TIP3   OH248164   8.307   5.927  10.798
 7990TIP3    H148165   8.271   5.827  10.810
 7990TIP3    H248166   8.346   5.947  10.887
 7991TIP3   OH248167   8.390   5.130  11.081
 7991TIP3    H148168   8.347   5.184  11.006
 7991TIP3    H248169   8.476   5.193  11.098
 7992TIP3   OH248170   8.303   4.683  11.699
 7992TIP3    H148171   8.407   4.677  11.673
 7992TIP3    H248172   8.270   4.580  11.697
 7993TIP3   OH248173   8.255   4.818  11.022
 7993TIP3    H148174   8.362   4.804  11.008
 7993TIP3    H248175   8.258   4.918  11.053
 7994TIP3   OH248176   8.264   4.455  10.409
 7994TIP3    H148177   8.159   4.465  10.429
 7994TIP3    H248178   8.263   4.455  10.310
 7995TIP3   OH248179   8.236   4.247  11.253
 7995TIP3    H148180   8.215   4.255  11.348
 7995TIP3    H248181   8.181   4.330  11.215
 7996TIP3   OH248182   1.340   7.316  10.671
 7996TIP3    H148183   1.317   7.413  10.703
 7996TIP3    H248184   1.263   7.303  10.604
 7997TIP3   OH248185   1.220   7.178  11.010
 7997TIP3    H148186   1.209   7.134  11.100
 7997TIP3    H248187   1.152   7.119  10.956
 7998TIP3   OH248188   0.336   7.184  11.147
 7998TIP3    H148189   0.319   7.092  11.194
 7998TIP3    H248190   0.416   7.223  11.200
 7999TIP3   OH248191   1.575   7.499  10.862
 7999TIP3    H148192   1.567   7.423  10.930
 7999TIP3    H248193   1.569   7.588  10.915
 8000TIP3   OH248194   0.407   7.658  11.044
 8000TIP3    H148195   0.408   7.562  10.994
 8000TIP3    H248196   0.505   7.691  11.017
 8001TIP3   OH248197   0.162   6.995  10.527
 8001TIP3    H148198   0.141   7.027  10.617
 8001TIP3    H248199   0.070   6.942  10.509
 8002TIP3   OH248200   0.108   7.184  10.816
 8002TIP3    H148201   0.169   7.101  10.844
 8002TIP3    H248202   0.176   7.242  10.765
 8003TIP3   OH248203   1.265   8.060  10.819
 8003TIP3    H148204   1.366   8.023  10.805
 8003TIP3    H248205   1.235   7.995  10.891
 8004TIP3   OH248206   1.035   7.499  11.053
 8004TIP3    H148207   1.068   7.414  11.003
 8004TIP3    H248208   1.122   7.521  11.106
 8005TIP3   OH248209   1.961   6.570  11.063
 8005TIP3    H148210   1.960   6.623  11.149
 8005TIP3    H248211   2.060   6.593  11.034
 8006TIP3   OH248212   1.393   6.887  11.126
 8006TIP3    H148213   1.415   6.783  11.134
 8006TIP3    H248214   1.374   6.896  11.031
 8007TIP3   OH248215   0.637   6.640  10.787
 8007TIP3    H148216   0.645   6.727  10.729
 8007TIP3    H248217   0.593   6.570  10.724
 8008TIP3   OH248218   1.437   6.672  10.657
 8008TIP3    H148219   1.499   6.621  10.724
 8008TIP3    H248220   1.507   6.742  10.621
 8009TIP3   OH248221   0.299   6.952  10.858
 8009TIP3    H148222   0.359   6.889  10.917
 8009TIP3    H248223   0.315   6.901  10.773
 8010TIP3   OH248224   0.761   7.092  10.826
 8010TIP3    H148225   0.858   7.049  10.844
 8010TIP3    H248226   0.719   7.013  10.770
 8011TIP3   OH248227   1.969   6.696  11.313
 8011TIP3    H148228   1.923   6.795  11.319
 8011TIP3    H248229   2.049   6.711  11.376
 8012TIP3   OH248230   0.510   6.548  11.200
 8012TIP3    H148231   0.475   6.603  11.122
 8012TIP3    H248232   0.447   6.589  11.269
 8013TIP3   OH248233   1.256   7.598  10.572
 8013TIP3    H148234   1.252   7.582  10.475
 8013TIP3    H248235   1.232   7.701  10.577
 8014TIP3   OH248236   0.801   7.387  11.184
 8014TIP3    H148237   0.744   7.466  11.224
 8014TIP3    H248238   0.873   7.444  11.134
 8015TIP3   OH248239   1.657   6.593  10.821
 8015TIP3    H148240   1.645   6.524  10.894
 8015TIP3    H248241   1.749   6.639  10.845
 8016TIP3   OH248242   0.451   6.756  11.008
 8016TIP3    H148243   0.515   6.829  11.054
 8016TIP3    H248244   0.518   6.723  10.936
 8017TIP3   OH248245   0.652   7.628  11.301
 8017TIP3    H148246   0.653   7.734  11.319
 8017TIP3    H248247   0.582   7.588  11.366
 8018TIP3   OH248248   0.141   7.510  10.391
 8018TIP3    H148249   0.128   7.560  10.304
 8018TIP3    H248250   0.166   7.590  10.452
 8019TIP3   OH248251   1.657   7.799  11.104
 8019TIP3    H148252   1.550   7.792  11.110
 8019TIP3    H248253   1.665   7.867  11.030
 8020TIP3   OH248254   1.675   6.489  11.185
 8020TIP3    H148255   1.594   6.507  11.121
 8020TIP3    H248256   1.759   6.530  11.135
 8021TIP3   OH248257   0.901   6.267  10.929
 8021TIP3    H148258   0.871   6.166  10.939
 8021TIP3    H248259   0.809   6.316  10.957
 8022TIP3   OH248260   1.525   7.937  10.773
 8022TIP3    H148261   1.519   7.847  10.719
 8022TIP3    H248262   1.595   7.991  10.717
 8023TIP3   OH248263   1.613   7.689  10.612
 8023TIP3    H148264   1.571   7.655  10.528
 8023TIP3    H248265   1.604   7.601  10.667
 8024TIP3   OH248266   1.773   7.568  11.440
 8024TIP3    H148267   1.794   7.489  11.376
 8024TIP3    H248268   1.795   7.653  11.383
 8025TIP3   OH248269   1.186   7.259  10.429
 8025TIP3    H148270   1.124   7.343  10.400
 8025TIP3    H248271   1.268   7.260  10.367
 8026TIP3   OH248272   1.208   7.086  10.123
 8026TIP3    H148273   1.284   7.134  10.179
 8026TIP3    H248274   1.253   6.989  10.108
 8027TIP3   OH248275   1.995   7.167  11.232
 8027TIP3    H148276   1.931   7.251  11.238
 8027TIP3    H248277   2.064   7.200  11.163
 8028TIP3   OH248278   1.571   7.214  10.523
 8028TIP3    H148279   1.495   7.254  10.583
 8028TIP3    H248280   1.645   7.179  10.588
 8029TIP3   OH248281   1.560   7.063  11.420
 8029TIP3    H148282   1.540   7.157  11.463
 8029TIP3    H248283   1.494   7.066  11.344
 8030TIP3   OH248284   0.636   7.330  10.705
 8030TIP3    H148285   0.570   7.300  10.633
 8030TIP3    H248286   0.677   7.236  10.732
 8031TIP3   OH248287   0.772   7.681  10.966
 8031TIP3    H148288   0.803   7.678  10.872
 8031TIP3    H248289   0.855   7.637  11.011
 8032TIP3   OH248290   0.673   7.152  11.070
 8032TIP3    H148291   0.707   7.162  10.977
 8032TIP3    H248292   0.722   7.237  11.113
 8033TIP3   OH248293   1.364   7.796  11.136
 8033TIP3    H148294   1.323   7.873  11.193
 8033TIP3    H248295   1.339   7.707  11.186
 8034TIP3   OH248296   0.765   7.678  11.567
 8034TIP3    H148297   0.688   7.746  11.599
 8034TIP3    H248298   0.735   7.663  11.475
 8035TIP3   OH248299   1.430   7.188  10.288
 8035TIP3    H148300   1.484   7.193  10.374
 8035TIP3    H248301   1.500   7.238  10.227
 8036TIP3   OH248302   0.475   7.256  11.413
 8036TIP3    H148303   0.484   7.314  11.495
 8036TIP3    H248304   0.374   7.223  11.419
 8037TIP3   OH248305   1.189   7.910  10.567
 8037TIP3    H148306   1.208   7.939  10.660
 8037TIP3    H248307   1.122   7.986  10.540
 8038TIP3   OH248308   0.550   7.880  11.611
 8038TIP3    H148309   0.535   7.888  11.515
 8038TIP3    H248310   0.452   7.852  11.643
 8039TIP3   OH248311   1.874   6.240  10.301
 8039TIP3    H148312   1.767   6.241  10.308
 8039TIP3    H248313   1.891   6.343  10.278
 8040TIP3   OH248314   0.462   7.193  10.501
 8040TIP3    H148315   0.429   7.267  10.435
 8040TIP3    H248316   0.446   7.103  10.453
 8041TIP3   OH248317   1.979   7.847  10.133
 8041TIP3    H148318   2.036   7.937  10.113
 8041TIP3    H248319   2.053   7.769  10.128
 8042TIP3   OH248320   0.174   7.459  11.358
 8042TIP3    H148321   0.066   7.453  11.356
 8042TIP3    H248322   0.197   7.357  11.341
 8043TIP3   OH248323   0.123   7.808  10.972
 8043TIP3    H148324   0.202   7.736  10.989
 8043TIP3    H248325   0.103   7.843  11.061
 8044TIP3   OH248326   2.044   7.854  11.616
 8044TIP3    H148327   2.023   7.750  11.624
 8044TIP3    H248328   1.945   7.894  11.637
 8045TIP3   OH248329   1.066   7.776  11.488
 8045TIP3    H148330   1.072   7.879  11.515
 8045TIP3    H248331   0.967   7.748  11.518
 8046TIP3   OH248332   1.174   8.251  10.469
 8046TIP3    H148333   1.169   8.234  10.373
 8046TIP3    H248334   1.135   8.349  10.479
 8047TIP3   OH248335   0.442   8.050  10.649
 8047TIP3    H148336   0.466   8.043  10.744
 8047TIP3    H248337   0.344   8.007  10.650
 8048TIP3   OH248338   1.453   8.143  10.208
 8048TIP3    H148339   1.506   8.074  10.149
 8048TIP3    H248340   1.462   8.092  10.294
 8049TIP3   OH248341   1.412   8.085  10.462
 8049TIP3    H148342   1.328   8.143  10.489
 8049TIP3    H248343   1.377   7.986  10.481
 8050TIP3   OH248344   1.704   6.912  11.644
 8050TIP3    H148345   1.664   6.942  11.558
 8050TIP3    H248346   1.731   6.811  11.626
 8051TIP3   OH248347   0.414   7.579  11.453
 8051TIP3    H148348   0.403   7.560  11.548
 8051TIP3    H248349   0.338   7.511  11.418
 8052TIP3   OH248350   0.651   6.376  11.025
 8052TIP3    H148351   0.554   6.382  10.982
 8052TIP3    H248352   0.629   6.425  11.109
 8053TIP3   OH248353   1.164   6.310  11.345
 8053TIP3    H148354   1.206   6.248  11.417
 8053TIP3    H248355   1.057   6.304  11.361
 8054TIP3   OH248356   1.480   6.755  11.467
 8054TIP3    H148357   1.437   6.714  11.549
 8054TIP3    H248358   1.439   6.854  11.464
 8055TIP3   OH248359   1.609   7.308  10.121
 8055TIP3    H148360   1.566   7.321  10.031
 8055TIP3    H248361   1.712   7.328  10.098
 8056TIP3   OH248362   1.121   6.623  10.127
 8056TIP3    H148363   1.069   6.580  10.205
 8056TIP3    H248364   1.069   6.574  10.055
 8057TIP3   OH248365   0.653   6.883  11.162
 8057TIP3    H148366   0.565   6.896  11.217
 8057TIP3    H248367   0.669   6.986  11.132
 8058TIP3   OH248368   0.668   6.887  10.647
 8058TIP3    H148369   0.562   6.897  10.624
 8058TIP3    H248370   0.707   6.860  10.560
 8059TIP3   OH248371   1.278   7.003  10.552
 8059TIP3    H148372   1.238   7.090  10.508
 8059TIP3    H248373   1.335   6.960  10.479
 8060TIP3   OH248374   1.146   6.996  11.670
 8060TIP3    H148375   1.095   6.911  11.710
 8060TIP3    H248376   1.234   7.000  11.724
 8061TIP3   OH248377   1.359   6.918  10.833
 8061TIP3    H148378   1.356   7.003  10.772
 8061TIP3    H248379   1.346   6.838  10.769
 8062TIP3   OH248380   0.385   6.899  11.286
 8062TIP3    H148381   0.417   6.934  11.373
 8062TIP3    H248382   0.353   6.798  11.309
 8063TIP3   OH248383   0.727   6.655  10.034
 8063TIP3    H148384   0.695   6.607  10.115
 8063TIP3    H248385   0.651   6.725  10.015
 8064TIP3   OH248386   0.146   6.657  10.712
 8064TIP3    H148387   0.169   6.590  10.786
 8064TIP3    H248388   0.133   6.593  10.635
 8065TIP3   OH248389   0.121   6.681  10.257
 8065TIP3    H148390   0.198   6.729  10.205
 8065TIP3    H248391   0.048   6.758  10.263
 8066TIP3   OH248392   1.227   7.077  11.260
 8066TIP3    H148393   1.306   7.018  11.219
 8066TIP3    H248394   1.186   7.004  11.322
 8067TIP3   OH248395   0.952   6.641  10.762
 8067TIP3    H148396   0.847   6.653  10.782
 8067TIP3    H248397   0.990   6.595  10.843
 8068TIP3   OH248398   0.389   6.839  10.609
 8068TIP3    H148399   0.311   6.872  10.548
 8068TIP3    H248400   0.371   6.733  10.613
 8069TIP3   OH248401   0.751   6.807  10.391
 8069TIP3    H148402   0.854   6.839  10.401
 8069TIP3    H248403   0.708   6.886  10.337
 8070TIP3   OH248404   1.426   6.552  11.060
 8070TIP3    H148405   1.355   6.557  11.135
 8070TIP3    H248406   1.373   6.497  10.991
 8071TIP3   OH248407   0.645   6.990  10.194
 8071TIP3    H148408   0.562   6.939  10.151
 8071TIP3    H248409   0.724   6.987  10.128
 8072TIP3   OH248410   1.716   8.278  11.696
 8072TIP3    H148411   1.736   8.314  11.606
 8072TIP3    H248412   1.812   8.301  11.740
 8073TIP3   OH248413   0.446   7.419  11.679
 8073TIP3    H148414   0.527   7.454  11.735
 8073TIP3    H248415   0.366   7.462  11.732
 8074TIP3   OH248416   1.048   6.950  10.908
 8074TIP3    H148417   1.140   6.915  10.870
 8074TIP3    H248418   1.029   6.876  10.976
 8075TIP3   OH248419   0.443   6.542  10.589
 8075TIP3    H148420   0.387   6.459  10.627
 8075TIP3    H248421   0.448   6.515  10.495
 8076TIP3   OH248422   0.915   6.740  11.170
 8076TIP3    H148423   0.826   6.800  11.159
 8076TIP3    H248424   0.977   6.807  11.220
 8077TIP3   OH248425   0.982   7.466  10.367
 8077TIP3    H148426   0.896   7.412  10.332
 8077TIP3    H248427   0.944   7.492  10.456
 8078TIP3   OH248428   1.795   7.394  11.235
 8078TIP3    H148429   1.845   7.453  11.165
 8078TIP3    H248430   1.698   7.385  11.194
 8079TIP3   OH248431   1.398   6.669  10.175
 8079TIP3    H148432   1.290   6.673  10.159
 8079TIP3    H248433   1.417   6.766  10.214
 8080TIP3   OH248434   1.082   7.475  11.474
 8080TIP3    H148435   1.105   7.440  11.562
 8080TIP3    H248436   1.087   7.581  11.485
 8081TIP3   OH248437   1.462   6.899  10.325
 8081TIP3    H148438   1.551   6.874  10.376
 8081TIP3    H248439   1.483   6.998  10.296
 8082TIP3   OH248440   0.458   7.407  10.910
 8082TIP3    H148441   0.508   7.393  10.822
 8082TIP3    H248442   0.497   7.325  10.959
 8083TIP3   OH248443   1.213   7.627  10.312
 8083TIP3    H148444   1.173   7.729  10.312
 8083TIP3    H248445   1.123   7.566  10.321
 8084TIP3   OH248446   0.191   7.162  11.414
 8084TIP3    H148447   0.191   7.151  11.512
 8084TIP3    H248448   0.086   7.148  11.398
 8085TIP3   OH248449   0.886   7.167  11.644
 8085TIP3    H148450   0.816   7.106  11.592
 8085TIP3    H248451   0.976   7.106  11.647
 8086TIP3   OH248452   1.412   7.732  11.493
 8086TIP3    H148453   1.322   7.755  11.447
 8086TIP3    H248454   1.396   7.789  11.575
 8087TIP3   OH248455   2.019   6.887  10.332
 8087TIP3    H148456   1.939   6.870  10.268
 8087TIP3    H248457   2.027   6.994  10.323
 8088TIP3   OH248458   2.028   7.541  11.577
 8088TIP3    H148459   1.931   7.553  11.537
 8088TIP3    H248460   2.088   7.525  11.496
 8089TIP3   OH248461   1.836   7.810  10.365
 8089TIP3    H148462   1.756   7.741  10.362
 8089TIP3    H248463   1.874   7.810  10.273
 8090TIP3   OH248464   1.530   7.284  11.043
 8090TIP3    H148465   1.429   7.284  11.011
 8090TIP3    H248466   1.575   7.216  10.979
 8091TIP3   OH248467   0.694   7.760  10.693
 8091TIP3    H148468   0.726   7.850  10.645
 8091TIP3    H248469   0.590   7.759  10.675
 8092TIP3   OH248470   0.245   7.188  10.110
 8092TIP3    H148471   0.312   7.259  10.152
 8092TIP3    H248472   0.160   7.194  10.167
 8093TIP3   OH248473   0.855   7.521  10.618
 8093TIP3    H148474   0.794   7.609  10.635
 8093TIP3    H248475   0.802   7.446  10.668
 8094TIP3   OH248476   0.906   7.965  11.314
 8094TIP3    H148477   0.942   8.066  11.310
 8094TIP3    H248478   0.997   7.909  11.327
 8095TIP3   OH248479   0.724   8.027  10.579
 8095TIP3    H148480   0.618   8.051  10.582
 8095TIP3    H248481   0.769   8.113  10.622
 8096TIP3   OH248482   1.258   7.517  11.237
 8096TIP3    H148483   1.203   7.473  11.311
 8096TIP3    H248484   1.328   7.438  11.220
 8097TIP3   OH248485   1.555   7.643  10.110
 8097TIP3    H148486   1.588   7.596  10.193
 8097TIP3    H248487   1.451   7.637  10.126
 8098TIP3   OH248488   1.593   8.029  11.474
 8098TIP3    H148489   1.511   7.967  11.442
 8098TIP3    H248490   1.605   8.106  11.407
 8099TIP3   OH248491   2.086   8.119  10.113
 8099TIP3    H148492   2.154   8.199  10.129
 8099TIP3    H248493   1.995   8.158  10.157
 8100TIP3   OH248494   0.317   6.644  11.406
 8100TIP3    H148495   0.275   6.687  11.488
 8100TIP3    H248496   0.286   6.543  11.416
 8101TIP3   OH248497   1.639   7.501  10.337
 8101TIP3    H148498   1.624   7.396  10.343
 8101TIP3    H248499   1.747   7.504  10.339
 8102TIP3   OH248500   0.250   7.938  11.282
 8102TIP3    H148501   0.212   7.982  11.200
 8102TIP3    H248502   0.259   8.030  11.332
 8103TIP3   OH248503   0.740   7.704  10.219
 8103TIP3    H148504   0.825   7.653  10.254
 8103TIP3    H248505   0.754   7.806  10.250
 8104TIP3   OH248506   0.385   7.383  10.300
 8104TIP3    H148507   0.299   7.432  10.341
 8104TIP3    H248508   0.438   7.466  10.260
 8105TIP3   OH248509   1.280   6.593  11.312
 8105TIP3    H148510   1.362   6.616  11.371
 8105TIP3    H248511   1.246   6.498  11.344
 8106TIP3   OH248512   1.354   6.519  10.445
 8106TIP3    H148513   1.367   6.588  10.371
 8106TIP3    H248514   1.404   6.570  10.520
 8107TIP3   OH248515   1.114   7.899  10.265
 8107TIP3    H148516   1.023   7.910  10.312
 8107TIP3    H248517   1.130   7.999  10.232
 8108TIP3   OH248518   1.038   6.752  10.520
 8108TIP3    H148519   1.109   6.831  10.533
 8108TIP3    H248520   1.008   6.727  10.611
 8109TIP3   OH248521   1.131   6.871  11.425
 8109TIP3    H148522   1.130   6.909  11.517
 8109TIP3    H248523   1.167   6.769  11.434
 8110TIP3   OH248524   1.109   6.400  10.555
 8110TIP3    H148525   1.072   6.489  10.597
 8110TIP3    H248526   1.201   6.439  10.516
 8111TIP3   OH248527   0.788   8.005  10.296
 8111TIP3    H148528   0.800   8.097  10.247
 8111TIP3    H248529   0.738   8.038  10.378
 8112TIP3   OH248530   0.622   6.538  10.308
 8112TIP3    H148531   0.636   6.634  10.351
 8112TIP3    H248532   0.720   6.497  10.317
 8113TIP3   OH248533   1.749   6.630  11.513
 8113TIP3    H148534   1.650   6.662  11.486
 8113TIP3    H248535   1.803   6.636  11.429
 8114TIP3   OH248536   1.628   7.022  10.894
 8114TIP3    H148537   1.540   6.961  10.896
 8114TIP3    H248538   1.695   6.971  10.955
 8115TIP3   OH248539   0.447   7.658  10.163
 8115TIP3    H148540   0.528   7.716  10.198
 8115TIP3    H248541   0.502   7.602  10.097
 8116TIP3   OH248542   0.355   6.894  10.123
 8116TIP3    H148543   0.331   6.995  10.148
 8116TIP3    H248544   0.264   6.873  10.072
 8117TIP3   OH248545   1.749   8.135  11.092
 8117TIP3    H148546   1.739   8.165  10.998
 8117TIP3    H248547   1.857   8.117  11.094
 8118TIP3   OH248548   0.369   6.326  10.952
 8118TIP3    H148549   0.353   6.299  10.858
 8118TIP3    H248550   0.338   6.234  10.996
 8119TIP3   OH248551   0.227   7.806  10.515
 8119TIP3    H148552   0.132   7.841  10.542
 8119TIP3    H248553   0.249   7.876  10.443
 8120TIP3   OH248554   0.156   8.143  11.658
 8120TIP3    H148555   0.244   8.136  11.713
 8120TIP3    H248556   0.096   8.064  11.691
 8121TIP3   OH248557   0.662   7.964  11.863
 8121TIP3    H148558   0.763   7.998  11.861
 8121TIP3    H248559   0.639   7.948  11.769
 8122TIP3   OH248560   1.138   7.933  19.960
 8122TIP3    H148561   1.057   7.865  19.953
 8122TIP3    H248562   1.205   7.886  20.022
 8123TIP3   OH248563   1.370   7.856  11.743
 8123TIP3    H148564   1.323   7.763  11.770
 8123TIP3    H248565   1.453   7.856  11.803
 8124TIP3   OH248566   1.564   7.932  10.062
 8124TIP3    H148567   1.606   7.834  10.074
 8124TIP3    H248568   1.638   7.986  10.008
 8125TIP3   OH248569   0.189   7.506  11.809
 8125TIP3    H148570   0.200   7.403  11.791
 8125TIP3    H248571   0.085   7.510  11.785
 8126TIP3   OH248572   0.668   7.468  10.030
 8126TIP3    H148573   0.700   7.438  10.119
 8126TIP3    H248574   0.746   7.431   9.973
 8127TIP3   OH248575   0.870   7.456  11.723
 8127TIP3    H148576   0.843   7.515  11.645
 8127TIP3    H248577   0.878   7.356  11.685
 8128TIP3   OH248578   1.497   7.423  11.475
 8128TIP3    H148579   1.592   7.477  11.474
 8128TIP3    H248580   1.433   7.509  11.482
 8129TIP3   OH248581   0.238   7.126  11.751
 8129TIP3    H148582   0.337   7.087  11.758
 8129TIP3    H248583   0.220   7.170  11.839
 8130TIP3   OH248584   0.766   7.282  10.272
 8130TIP3    H148585   0.690   7.223  10.315
 8130TIP3    H248586   0.806   7.212  10.208
 8131TIP3   OH248587   0.686   7.046  11.461
 8131TIP3    H148588   0.615   7.122  11.441
 8131TIP3    H248589   0.762   7.071  11.395
 8132TIP3   OH248590   0.904   7.092  10.067
 8132TIP3    H148591   0.930   7.043   9.983
 8132TIP3    H248592   1.002   7.093  10.109
 8133TIP3   OH248593   1.258   7.321  11.802
 8133TIP3    H148594   1.344   7.274  11.762
 8133TIP3    H248595   1.221   7.240  11.859
 8134TIP3   OH248596   1.857   7.293  19.987
 8134TIP3    H148597   1.921   7.261  19.915
 8134TIP3    H248598   1.883   7.399  19.987
 8135TIP3   OH248599   0.735   6.767  11.536
 8135TIP3    H148600   0.757   6.702  11.460
 8135TIP3    H248601   0.728   6.865  11.494
 8136TIP3   OH248602   0.777   6.569  11.334
 8136TIP3    H148603   0.845   6.611  11.268
 8136TIP3    H248604   0.685   6.577  11.282
 8137TIP3   OH248605   0.915   7.143  11.311
 8137TIP3    H148606   1.022   7.147  11.306
 8137TIP3    H248607   0.886   7.240  11.278
 8138TIP3   OH248608   1.469   6.891  11.830
 8138TIP3    H148609   1.484   6.789  11.809
 8138TIP3    H248610   1.566   6.930  11.808
 8139TIP3   OH248611   1.584   7.248  11.694
 8139TIP3    H148612   1.554   7.306  11.616
 8139TIP3    H248613   1.684   7.217  11.670
 8140TIP3   OH248614   0.535   6.887  11.752
 8140TIP3    H148615   0.458   6.813  11.756
 8140TIP3    H248616   0.587   6.857  11.672
 8141TIP3   OH248617   0.862   6.288  11.347
 8141TIP3    H148618   0.824   6.389  11.349
 8141TIP3    H248619   0.778   6.234  11.314
 8142TIP3   OH248620   0.989   6.755  11.743
 8142TIP3    H148621   0.921   6.718  11.811
 8142TIP3    H248622   0.927   6.746  11.664
 8143TIP3   OH248623   1.287   6.656  11.662
 8143TIP3    H148624   1.183   6.656  11.683
 8143TIP3    H248625   1.326   6.600  11.738
 8144TIP3   OH248626   1.460   6.499  11.837
 8144TIP3    H148627   1.452   6.392  11.832
 8144TIP3    H248628   1.444   6.521  11.932
 8145TIP3   OH248629   0.337   6.665  11.762
 8145TIP3    H148630   0.376   6.579  11.717
 8145TIP3    H248631   0.307   6.621  11.849
 8146TIP3   OH248632   0.860   6.253  11.631
 8146TIP3    H148633   0.946   6.190  11.630
 8146TIP3    H248634   0.848   6.265  11.534
 8147TIP3   OH248635   0.861   6.359  11.886
 8147TIP3    H148636   0.854   6.319  11.794
 8147TIP3    H248637   0.818   6.457  11.876
 8148TIP3   OH248638   0.857   8.255  10.155
 8148TIP3    H148639   0.950   8.272  10.198
 8148TIP3    H248640   0.882   8.265  10.060
 8149TIP3   OH248641   0.155   7.626  10.144
 8149TIP3    H148642   0.261   7.648  10.162
 8149TIP3    H248643   0.164   7.587  10.055
 8150TIP3   OH248644   0.057   8.250  10.520
 8150TIP3    H148645  -0.050   8.265  10.520
 8150TIP3    H248646   0.062   8.191  10.600
 8151TIP3   OH248647   0.174   8.038  10.758
 8151TIP3    H148648   0.154   7.933  10.752
 8151TIP3    H248649   0.176   8.053  10.853
 8152TIP3   OH248650   2.048   8.136  11.080
 8152TIP3    H148651   2.067   8.190  11.163
 8152TIP3    H248652   2.124   8.176  11.023
 8153TIP3   OH248653   1.983   8.044  11.406
 8153TIP3    H148654   1.950   7.972  11.341
 8153TIP3    H248655   2.027   7.978  11.472
 8154TIP3   OH248656   1.828   7.625  11.852
 8154TIP3    H148657   1.736   7.622  11.904
 8154TIP3    H248658   1.868   7.721  11.883
 8155TIP3   OH248659   1.929   7.445  10.357
 8155TIP3    H148660   2.026   7.487  10.376
 8155TIP3    H248661   1.911   7.389  10.438
 8156TIP3   OH248662   1.984   7.225  10.607
 8156TIP3    H148663   1.899   7.161  10.623
 8156TIP3    H248664   2.012   7.252  10.698
 8157TIP3   OH248665   1.960   7.512  11.048
 8157TIP3    H148666   2.024   7.424  11.045
 8157TIP3    H248667   2.027   7.589  11.019
 8158TIP3   OH248668   1.826   7.819  11.310
 8158TIP3    H148669   1.748   7.873  11.354
 8158TIP3    H248670   1.780   7.802  11.222
 8159TIP3   OH248671   2.046   7.210  10.204
 8159TIP3    H148672   1.974   7.239  10.136
 8159TIP3    H248673   2.039   7.296  10.263
 8160TIP3   OH248674   1.790   6.866  10.141
 8160TIP3    H148675   1.761   6.956  10.094
 8160TIP3    H248676   1.850   6.820  10.072
 8161TIP3   OH248677   1.770   7.047  10.661
 8161TIP3    H148678   1.746   6.947  10.637
 8161TIP3    H248679   1.739   7.050  10.755
 8162TIP3   OH248680   0.169   7.384  11.015
 8162TIP3    H148681   0.169   7.317  10.938
 8162TIP3    H248682   0.251   7.341  11.066
 8163TIP3   OH248683   1.878   7.262  11.599
 8163TIP3    H148684   1.927   7.165  11.603
 8163TIP3    H248685   1.958   7.332  11.596
 8164TIP3   OH248686   2.000   6.987  11.625
 8164TIP3    H148687   1.902   6.956  11.654
 8164TIP3    H248688   2.060   6.952  11.700
 8165TIP3   OH248689   1.779   6.611   9.965
 8165TIP3    H148690   1.841   6.566  10.032
 8165TIP3    H248691   1.682   6.596  10.002
 8166TIP3   OH248692   1.690   6.804  10.479
 8166TIP3    H148693   1.726   6.708  10.509
 8166TIP3    H248694   1.774   6.832  10.427
 8167TIP3   OH248695   1.816   6.870  11.059
 8167TIP3    H148696   1.925   6.881  11.059
 8167TIP3    H248697   1.801   6.877  11.155
 8168TIP3   OH248698   1.809   6.942  11.319
 8168TIP3    H148699   1.707   6.973  11.334
 8168TIP3    H248700   1.857   7.039  11.310
 8169TIP3   OH248701   0.127   6.732  11.592
 8169TIP3    H148702   0.200   6.765  11.656
 8169TIP3    H248703   0.115   6.630  11.618
 8170TIP3   OH248704   2.088   6.289  11.857
 8170TIP3    H148705   2.121   6.212  11.796
 8170TIP3    H248706   2.067   6.366  11.790
 8171TIP3   OH248707   1.822   6.532  10.501
 8171TIP3    H148708   1.855   6.484  10.584
 8171TIP3    H248709   1.755   6.455  10.470
 8172TIP3   OH248710   0.195   6.566  10.986
 8172TIP3    H148711   0.263   6.482  10.997
 8172TIP3    H248712   0.255   6.652  11.003
 8173TIP3   OH248713   0.078   6.908  11.049
 8173TIP3    H148714   0.158   6.907  10.984
 8173TIP3    H248715   0.106   6.988  11.107
 8174TIP3   OH248716   1.973   6.487  11.695
 8174TIP3    H148717   1.909   6.555  11.742
 8174TIP3    H248718   1.934   6.493  11.605
 8175TIP3   OH248719   2.012   6.516  10.148
 8175TIP3    H148720   2.064   6.470  10.074
 8175TIP3    H248721   2.087   6.587  10.177
 8176TIP3   OH248722   0.107   6.498  10.460
 8176TIP3    H148723   0.000   6.490  10.462
 8176TIP3    H248724   0.118   6.554  10.376
 8177TIP3   OH248725   1.671   8.129  10.625
 8177TIP3    H148726   1.766   8.121  10.579
 8177TIP3    H248727   1.697   8.186  10.704
 8178TIP3   OH248728   0.071   6.319  11.304
 8178TIP3    H148729  -0.025   6.306  11.342
 8178TIP3    H248730   0.048   6.385  11.230
 8179TIP3   OH248731   0.285   7.796  11.701
 8179TIP3    H148732   0.192   7.802  11.655
 8179TIP3    H248733   0.256   7.820  11.792
 8180TIP3   OH248734   0.611   7.910  11.343
 8180TIP3    H148735   0.585   8.007  11.304
 8180TIP3    H248736   0.717   7.928  11.353
 8181TIP3   OH248737   1.103   8.050  11.601
 8181TIP3    H148738   1.090   8.020  11.693
 8181TIP3    H248739   1.197   8.103  11.603
 8182TIP3   OH248740   1.365   8.245  11.561
 8182TIP3    H148741   1.438   8.174  11.531
 8182TIP3    H248742   1.398   8.257  11.654
 8183TIP3   OH248743   1.884   6.278  11.468
 8183TIP3    H148744   1.809   6.325  11.414
 8183TIP3    H248745   1.899   6.184  11.422
 8184TIP3   OH248746   0.306   8.230  11.328
 8184TIP3    H148747   0.230   8.288  11.277
 8184TIP3    H248748   0.287   8.272  11.415
 8185TIP3   OH248749   0.586   8.172  11.238
 8185TIP3    H148750   0.495   8.218  11.271
 8185TIP3    H248751   0.608   8.230  11.158
 8186TIP3   OH248752   1.130   8.191  11.167
 8186TIP3    H148753   1.047   8.209  11.105
 8186TIP3    H248754   1.137   8.286  11.208
 8187TIP3   OH248755   1.331   8.035  11.308
 8187TIP3    H148756   1.250   8.088  11.264
 8187TIP3    H248757   1.412   8.095  11.276
 8188TIP3   OH248758   1.610   8.276  11.281
 8188TIP3    H148759   1.574   8.372  11.253
 8188TIP3    H248760   1.648   8.235  11.196
 8189TIP3   OH248761   0.299   8.099  11.059
 8189TIP3    H148762   0.360   8.130  11.134
 8189TIP3    H248763   0.376   8.066  10.996
 8190TIP3   OH248764   0.514   7.996  10.897
 8190TIP3    H148765   0.543   7.896  10.876
 8190TIP3    H248766   0.598   8.022  10.954
 8191TIP3   OH248767   0.760   7.986  11.036
 8191TIP3    H148768   0.813   7.900  11.001
 8191TIP3    H248769   0.794   7.987  11.128
 8192TIP3   OH248770   1.156   6.427  10.903
 8192TIP3    H148771   1.068   6.385  10.945
 8192TIP3    H248772   1.167   6.364  10.827
 8193TIP3   OH248773   1.741   6.234  10.885
 8193TIP3    H148774   1.814   6.295  10.837
 8193TIP3    H248775   1.650   6.256  10.835
 8194TIP3   OH248776   1.926   6.360  10.706
 8194TIP3    H148777   1.997   6.296  10.658
 8194TIP3    H248778   1.991   6.443  10.733
 8195TIP3   OH248779   0.369   6.269  10.673
 8195TIP3    H148780   0.275   6.255  10.627
 8195TIP3    H248781   0.419   6.175  10.655
 8196TIP3   OH248782   0.154   6.292  10.213
 8196TIP3    H148783   0.218   6.359  10.163
 8196TIP3    H248784   0.135   6.353  10.290
 8197TIP3   OH248785   0.816   6.217  10.669
 8197TIP3    H148786   0.878   6.288  10.625
 8197TIP3    H248787   0.829   6.245  10.763
 8198TIP3   OH248788   1.466   6.271  10.771
 8198TIP3    H148789   1.404   6.275  10.693
 8198TIP3    H248790   1.412   6.200  10.827
 8199TIP3   OH248791   1.608   6.269  10.392
 8199TIP3    H148792   1.536   6.344  10.375
 8199TIP3    H248793   1.560   6.199  10.451
 8200TIP3   OH248794   0.216   8.030  10.342
 8200TIP3    H148795   0.114   8.006  10.320
 8200TIP3    H248796   0.209   8.137  10.333
 8201TIP3   OH248797   0.382   6.449  10.116
 8201TIP3    H148798   0.444   6.390  10.061
 8201TIP3    H248799   0.452   6.481  10.183
 8202TIP3   OH248800   0.961   6.510  10.335
 8202TIP3    H148801   1.001   6.443  10.402
 8202TIP3    H248802   0.967   6.602  10.385
 8203TIP3   OH248803   1.172   8.173  10.174
 8203TIP3    H148804   1.279   8.177  10.185
 8203TIP3    H248805   1.165   8.127  10.086
 8204TIP3   OH248806   1.892   8.085  10.472
 8204TIP3    H148807   1.867   7.989  10.433
 8204TIP3    H248808   1.881   8.151  10.395
 8205TIP3   OH248809   0.270   6.356  11.620
 8205TIP3    H148810   0.220   6.260  11.634
 8205TIP3    H248811   0.364   6.336  11.662
 8206TIP3   OH248812   0.539   6.290  11.822
 8206TIP3    H148813   0.641   6.281  11.793
 8206TIP3    H248814   0.522   6.189  11.849
 8207TIP3   OH248815   0.462   8.206  10.080
 8207TIP3    H148816   0.397   8.225  10.156
 8207TIP3    H248817   0.502   8.114  10.108
 8208TIP3   OH248818   1.451   6.203  11.795
 8208TIP3    H148819   1.463   6.140  11.875
 8208TIP3    H248820   1.553   6.200  11.765
 8209TIP3   OH248821   1.778   7.967  11.674
 8209TIP3    H148822   1.691   7.975  11.616
 8209TIP3    H248823   1.794   8.072  11.691
 8210TIP3   OH248824   3.407   7.303  10.669
 8210TIP3    H148825   3.390   7.400  10.707
 8210TIP3    H248826   3.331   7.302  10.600
 8211TIP3   OH248827   3.278   7.201  11.008
 8211TIP3    H148828   3.280   7.150  11.095
 8211TIP3    H248829   3.209   7.142  10.956
 8212TIP3   OH248830   2.399   7.159  11.153
 8212TIP3    H148831   2.414   7.080  11.217
 8212TIP3    H248832   2.465   7.234  11.188
 8213TIP3   OH248833   3.642   7.488  10.874
 8213TIP3    H148834   3.623   7.417  10.948
 8213TIP3    H248835   3.644   7.581  10.920
 8214TIP3   OH248836   2.526   7.691  10.995
 8214TIP3    H148837   2.490   7.592  10.970
 8214TIP3    H248838   2.630   7.671  10.984
 8215TIP3   OH248839   2.165   6.954  10.562
 8215TIP3    H148840   2.123   7.051  10.580
 8215TIP3    H248841   2.102   6.918  10.491
 8216TIP3   OH248842   2.217   7.206  10.811
 8216TIP3    H148843   2.261   7.107  10.822
 8216TIP3    H248844   2.280   7.252  10.745
 8217TIP3   OH248845   3.340   8.073  10.831
 8217TIP3    H148846   3.436   8.030  10.813
 8217TIP3    H248847   3.310   8.018  10.909
 8218TIP3   OH248848   3.088   7.514  11.068
 8218TIP3    H148849   3.116   7.438  11.005
 8218TIP3    H248850   3.179   7.526  11.119
 8219TIP3   OH248851   4.025   6.549  11.101
 8219TIP3    H148852   4.030   6.612  11.181
 8219TIP3    H248853   4.122   6.571  11.065
 8220TIP3   OH248854   3.475   6.876  11.122
 8220TIP3    H148855   3.495   6.771  11.117
 8220TIP3    H248856   3.438   6.891  11.032
 8221TIP3   OH248857   2.687   6.632  10.780
 8221TIP3    H148858   2.706   6.720  10.724
 8221TIP3    H248859   2.645   6.567  10.713
 8222TIP3   OH248860   3.531   6.658  10.640
 8222TIP3    H148861   3.584   6.636  10.724
 8222TIP3    H248862   3.585   6.744  10.606
 8223TIP3   OH248863   2.318   6.938  10.872
 8223TIP3    H148864   2.386   6.877  10.924
 8223TIP3    H248865   2.336   6.899  10.783
 8224TIP3   OH248866   2.849   7.104  10.830
 8224TIP3    H148867   2.940   7.059  10.864
 8224TIP3    H248868   2.828   7.035  10.758
 8225TIP3   OH248869   4.047   6.702  11.337
 8225TIP3    H148870   4.012   6.797  11.301
 8225TIP3    H248871   4.060   6.730  11.430
 8226TIP3   OH248872   2.606   6.541  11.200
 8226TIP3    H148873   2.559   6.598  11.130
 8226TIP3    H248874   2.528   6.544  11.267
 8227TIP3   OH248875   3.335   7.593  10.562
 8227TIP3    H148876   3.332   7.585  10.465
 8227TIP3    H248877   3.314   7.698  10.573
 8228TIP3   OH248878   2.826   7.393  11.186
 8228TIP3    H148879   2.768   7.475  11.222
 8228TIP3    H248880   2.902   7.446  11.136
 8229TIP3   OH248881   3.709   6.619  10.857
 8229TIP3    H148882   3.705   6.531  10.911
 8229TIP3    H248883   3.809   6.650  10.870
 8230TIP3   OH248884   2.525   6.752  10.996
 8230TIP3    H148885   2.594   6.824  11.034
 8230TIP3    H248886   2.581   6.714  10.918
 8231TIP3   OH248887   2.682   7.633  11.301
 8231TIP3    H148888   2.671   7.735  11.275
 8231TIP3    H248889   2.585   7.612  11.341
 8232TIP3   OH248890   2.224   7.547  10.384
 8232TIP3    H148891   2.222   7.607  10.301
 8232TIP3    H248892   2.235   7.623  10.452
 8233TIP3   OH248893   3.730   7.803  11.108
 8233TIP3    H148894   3.623   7.795  11.112
 8233TIP3    H248895   3.739   7.864  11.029
 8234TIP3   OH248896   3.717   6.496  11.191
 8234TIP3    H148897   3.630   6.541  11.149
 8234TIP3    H248898   3.798   6.526  11.134
 8235TIP3   OH248899   2.960   6.258  10.956
 8235TIP3    H148900   2.930   6.159  10.938
 8235TIP3    H248901   2.862   6.304  10.970
 8236TIP3   OH248902   3.586   7.932  10.763
 8236TIP3    H148903   3.589   7.847  10.702
 8236TIP3    H248904   3.659   7.994  10.716
 8237TIP3   OH248905   3.682   7.701  10.605
 8237TIP3    H148906   3.647   7.657  10.522
 8237TIP3    H248907   3.674   7.618  10.665
 8238TIP3   OH248908   3.843   7.565  11.453
 8238TIP3    H148909   3.861   7.484  11.389
 8238TIP3    H248910   3.857   7.648  11.392
 8239TIP3   OH248911   3.252   7.249  10.412
 8239TIP3    H148912   3.187   7.329  10.384
 8239TIP3    H248913   3.337   7.257  10.353
 8240TIP3   OH248914   3.302   7.060  10.119
 8240TIP3    H148915   3.386   7.107  10.166
 8240TIP3    H248916   3.353   6.972  10.083
 8241TIP3   OH248917   4.069   7.176  11.230
 8241TIP3    H148918   4.004   7.260  11.243
 8241TIP3    H248919   4.129   7.216  11.158
 8242TIP3   OH248920   3.647   7.228  10.520
 8242TIP3    H148921   3.568   7.267  10.579
 8242TIP3    H248922   3.714   7.182  10.586
 8243TIP3   OH248923   3.652   7.047  11.425
 8243TIP3    H148924   3.630   7.137  11.474
 8243TIP3    H248925   3.587   7.060  11.347
 8244TIP3   OH248926   2.701   7.323  10.702
 8244TIP3    H148927   2.675   7.278  10.615
 8244TIP3    H248928   2.761   7.246  10.742
 8245TIP3   OH248929   2.847   7.676  10.956
 8245TIP3    H148930   2.861   7.662  10.861
 8245TIP3    H248931   2.937   7.634  10.995
 8246TIP3   OH248932   2.705   7.170  11.069
 8246TIP3    H148933   2.754   7.161  10.982
 8246TIP3    H248934   2.761   7.250  11.112
 8247TIP3   OH248935   3.428   7.797  11.129
 8247TIP3    H148936   3.389   7.873  11.188
 8247TIP3    H248937   3.395   7.707  11.175
 8248TIP3   OH248938   2.845   7.667  11.532
 8248TIP3    H148939   2.774   7.740  11.569
 8248TIP3    H248940   2.801   7.651  11.443
 8249TIP3   OH248941   3.505   7.186  10.283
 8249TIP3    H148942   3.551   7.192  10.372
 8249TIP3    H248943   3.576   7.240  10.226
 8250TIP3   OH248944   2.514   7.235  11.425
 8250TIP3    H148945   2.522   7.335  11.457
 8250TIP3    H248946   2.450   7.197  11.496
 8251TIP3   OH248947   3.265   7.920  10.564
 8251TIP3    H148948   3.292   7.927  10.657
 8251TIP3    H248949   3.182   7.988  10.559
 8252TIP3   OH248950   2.641   7.880  11.603
 8252TIP3    H148951   2.622   7.895  11.507
 8252TIP3    H248952   2.544   7.846  11.635
 8253TIP3   OH248953   3.946   6.237  10.300
 8253TIP3    H148954   3.841   6.243  10.328
 8253TIP3    H248955   3.963   6.340  10.282
 8254TIP3   OH248956   2.588   7.185  10.467
 8254TIP3    H148957   2.538   7.269  10.426
 8254TIP3    H248958   2.539   7.104  10.425
 8255TIP3   OH248959   4.052   7.851  10.127
 8255TIP3    H148960   4.111   7.940  10.115
 8255TIP3    H248961   4.127   7.772  10.125
 8256TIP3   OH248962   2.193   7.488  11.352
 8256TIP3    H148963   2.136   7.488  11.271
 8256TIP3    H248964   2.229   7.384  11.355
 8257TIP3   OH248965   2.164   7.747  11.007
 8257TIP3    H148966   2.269   7.733  11.010
 8257TIP3    H248967   2.149   7.835  11.059
 8258TIP3   OH248968   4.121   7.861  11.633
 8258TIP3    H148969   4.100   7.756  11.628
 8258TIP3    H248970   4.023   7.895  11.664
 8259TIP3   OH248971   3.133   7.785  11.469
 8259TIP3    H148972   3.144   7.878  11.517
 8259TIP3    H248973   3.035   7.751  11.495
 8260TIP3   OH248974   3.236   8.240  10.460
 8260TIP3    H148975   3.238   8.236  10.363
 8260TIP3    H248976   3.201   8.338  10.478
 8261TIP3   OH248977   2.505   8.038  10.661
 8261TIP3    H148978   2.548   8.051  10.751
 8261TIP3    H248979   2.431   7.963  10.684
 8262TIP3   OH248980   3.523   8.156  10.199
 8262TIP3    H148981   3.575   8.085  10.142
 8262TIP3    H248982   3.528   8.105  10.286
 8263TIP3   OH248983   3.488   8.090  10.450
 8263TIP3    H148984   3.396   8.131  10.484
 8263TIP3    H248985   3.493   7.997  10.496
 8264TIP3   OH248986   3.793   6.897  11.643
 8264TIP3    H148987   3.742   6.952  11.572
 8264TIP3    H248988   3.799   6.798  11.604
 8265TIP3   OH248989   2.433   7.608  11.443
 8265TIP3    H148990   2.429   7.564  11.534
 8265TIP3    H248991   2.336   7.579  11.408
 8266TIP3   OH248992   2.704   6.361  11.011
 8266TIP3    H148993   2.603   6.345  10.982
 8266TIP3    H248994   2.688   6.428  11.086
 8267TIP3   OH248995   3.247   6.294  11.348
 8267TIP3    H148996   3.296   6.263  11.432
 8267TIP3    H248997   3.144   6.290  11.375
 8268TIP3   OH248998   3.535   6.769  11.460
 8268TIP3    H148999   3.521   6.742  11.554
 8268TIP3    H249000   3.592   6.862  11.465
 8269TIP3   OH249001   3.680   7.312  10.117
 8269TIP3    H149002   3.639   7.315  10.025
 8269TIP3    H249003   3.783   7.328  10.093
 8270TIP3   OH249004   3.169   6.645  10.123
 8270TIP3    H149005   3.124   6.597  10.198
 8270TIP3    H249006   3.137   6.580  10.053
 8271TIP3   OH249007   2.718   6.897  11.161
 8271TIP3    H149008   2.630   6.896  11.218
 8271TIP3    H249009   2.711   6.997  11.125
 8272TIP3   OH249010   2.718   6.861  10.615
 8272TIP3    H149011   2.614   6.882  10.605
 8272TIP3    H249012   2.753   6.843  10.522
 8273TIP3   OH249013   3.356   7.002  10.550
 8273TIP3    H149014   3.315   7.090  10.505
 8273TIP3    H249015   3.413   6.960  10.476
 8274TIP3   OH249016   3.212   6.986  11.662
 8274TIP3    H149017   3.165   6.909  11.713
 8274TIP3    H249018   3.296   7.009  11.720
 8275TIP3   OH249019   3.440   6.923  10.820
 8275TIP3    H149020   3.433   7.017  10.772
 8275TIP3    H249021   3.427   6.859  10.744
 8276TIP3   OH249022   2.464   6.897  11.289
 8276TIP3    H149023   2.492   6.932  11.377
 8276TIP3    H249024   2.429   6.797  11.308
 8277TIP3   OH249025   2.815   6.599  10.022
 8277TIP3    H149026   2.776   6.602  10.114
 8277TIP3    H249027   2.756   6.669   9.974
 8278TIP3   OH249028   2.102   6.592  10.739
 8278TIP3    H149029   2.173   6.606  10.812
 8278TIP3    H249030   2.158   6.606  10.658
 8279TIP3   OH249031   2.231   6.678  10.264
 8279TIP3    H149032   2.314   6.735  10.229
 8279TIP3    H249033   2.165   6.760  10.286
 8280TIP3   OH249034   3.326   7.082  11.251
 8280TIP3    H149035   3.399   7.015  11.210
 8280TIP3    H249036   3.269   7.019  11.311
 8281TIP3   OH249037   3.039   6.657  10.746
 8281TIP3    H149038   2.935   6.648  10.761
 8281TIP3    H249039   3.082   6.591  10.814
 8282TIP3   OH249040   2.418   6.833  10.630
 8282TIP3    H149041   2.330   6.865  10.582
 8282TIP3    H249042   2.434   6.733  10.601
 8283TIP3   OH249043   2.860   6.822  10.380
 8283TIP3    H149044   2.957   6.861  10.392
 8283TIP3    H249045   2.809   6.896  10.324
 8284TIP3   OH249046   3.470   6.581  11.072
 8284TIP3    H149047   3.400   6.541  11.134
 8284TIP3    H249048   3.434   6.550  10.985
 8285TIP3   OH249049   2.684   6.966  10.197
 8285TIP3    H149050   2.604   6.928  10.145
 8285TIP3    H249051   2.750   7.003  10.128
 8286TIP3   OH249052   3.763   8.315  11.701
 8286TIP3    H149053   3.794   8.326  11.608
 8286TIP3    H249054   3.862   8.303  11.742
 8287TIP3   OH249055   2.455   7.431  11.671
 8287TIP3    H149056   2.532   7.468  11.730
 8287TIP3    H249057   2.372   7.424  11.732
 8288TIP3   OH249058   3.105   6.966  10.920
 8288TIP3    H149059   3.188   6.930  10.867
 8288TIP3    H249060   3.097   6.888  10.984
 8289TIP3   OH249061   2.540   6.499  10.570
 8289TIP3    H149062   2.467   6.443  10.622
 8289TIP3    H249063   2.585   6.418  10.523
 8290TIP3   OH249064   2.955   6.739  11.173
 8290TIP3    H149065   2.864   6.797  11.152
 8290TIP3    H249066   3.024   6.816  11.196
 8291TIP3   OH249067   3.055   7.476  10.370
 8291TIP3    H149068   2.977   7.412  10.335
 8291TIP3    H249069   3.014   7.494  10.460
 8292TIP3   OH249070   3.858   7.390  11.247
 8292TIP3    H149071   3.914   7.446  11.179
 8292TIP3    H249072   3.762   7.388  11.204
 8293TIP3   OH249073   3.451   6.665  10.180
 8293TIP3    H149074   3.344   6.675  10.167
 8293TIP3    H249075   3.475   6.763  10.216
 8294TIP3   OH249076   3.166   7.488  11.478
 8294TIP3    H149077   3.167   7.453  11.569
 8294TIP3    H249078   3.168   7.594  11.490
 8295TIP3   OH249079   3.540   6.896  10.336
 8295TIP3    H149080   3.636   6.868  10.376
 8295TIP3    H249081   3.562   6.993  10.298
 8296TIP3   OH249082   2.526   7.410  10.908
 8296TIP3    H149083   2.585   7.398  10.827
 8296TIP3    H249084   2.548   7.322  10.959
 8297TIP3   OH249085   3.294   7.633  10.289
 8297TIP3    H149086   3.250   7.732  10.290
 8297TIP3    H249087   3.209   7.568  10.299
 8298TIP3   OH249088   2.190   7.205  11.445
 8298TIP3    H149089   2.190   7.148  11.527
 8298TIP3    H249090   2.124   7.147  11.389
 8299TIP3   OH249091   2.936   7.151  11.642
 8299TIP3    H149092   2.878   7.084  11.588
 8299TIP3    H249093   3.033   7.107  11.639
 8300TIP3   OH249094   3.489   7.751  11.496
 8300TIP3    H149095   3.409   7.766  11.436
 8300TIP3    H249096   3.452   7.805  11.574
 8301TIP3   OH249097   4.093   6.891  10.326
 8301TIP3    H149098   4.008   6.875  10.267
 8301TIP3    H249099   4.105   6.997  10.314
 8302TIP3   OH249100   4.102   7.545  11.587
 8302TIP3    H149101   4.000   7.560  11.557
 8302TIP3    H249102   4.154   7.537  11.501
 8303TIP3   OH249103   3.908   7.822  10.362
 8303TIP3    H149104   3.825   7.758  10.364
 8303TIP3    H249105   3.944   7.816  10.270
 8304TIP3   OH249106   3.584   7.276  11.055
 8304TIP3    H149107   3.484   7.266  11.021
 8304TIP3    H249108   3.636   7.205  10.998
 8305TIP3   OH249109   2.764   7.762  10.676
 8305TIP3    H149110   2.800   7.861  10.652
 8305TIP3    H249111   2.676   7.757  10.623
 8306TIP3   OH249112   2.329   7.193  10.082
 8306TIP3    H149113   2.387   7.253  10.144
 8306TIP3    H249114   2.233   7.196  10.126
 8307TIP3   OH249115   2.929   7.516  10.617
 8307TIP3    H149116   2.879   7.611  10.633
 8307TIP3    H249117   2.870   7.451  10.672
 8308TIP3   OH249118   2.979   7.964  11.300
 8308TIP3    H149119   3.032   8.055  11.281
 8308TIP3    H249120   3.057   7.905  11.340
 8309TIP3   OH249121   2.787   8.038  10.568
 8309TIP3    H149122   2.683   8.055  10.589
 8309TIP3    H249123   2.836   8.125  10.607
 8310TIP3   OH249124   3.326   7.521  11.229
 8310TIP3    H149125   3.271   7.494  11.311
 8310TIP3    H249126   3.377   7.428  11.209
 8311TIP3   OH249127   3.629   7.655  10.130
 8311TIP3    H149128   3.647   7.601  10.213
 8311TIP3    H249129   3.522   7.653  10.130
 8312TIP3   OH249130   3.664   8.035  11.480
 8312TIP3    H149131   3.577   7.977  11.456
 8312TIP3    H249132   3.674   8.103  11.404
 8313TIP3   OH249133   4.158   8.127  10.118
 8313TIP3    H149134   4.230   8.202  10.141
 8313TIP3    H249135   4.068   8.171  10.156
 8314TIP3   OH249136   2.372   6.603  11.391
 8314TIP3    H149137   2.309   6.658  11.453
 8314TIP3    H249138   2.388   6.519  11.448
 8315TIP3   OH249139   3.711   7.500  10.342
 8315TIP3    H149140   3.698   7.395  10.352
 8315TIP3    H249141   3.819   7.503  10.339
 8316TIP3   OH249142   2.340   7.905  11.263
 8316TIP3    H149143   2.394   7.813  11.260
 8316TIP3    H249144   2.399   7.960  11.327
 8317TIP3   OH249145   2.822   7.710  10.228
 8317TIP3    H149146   2.907   7.659  10.263
 8317TIP3    H249147   2.837   7.811  10.259
 8318TIP3   OH249148   2.447   7.387  10.275
 8318TIP3    H149149   2.367   7.440  10.320
 8318TIP3    H249150   2.505   7.469  10.239
 8319TIP3   OH249151   3.312   6.599  11.335
 8319TIP3    H149152   3.412   6.622  11.367
 8319TIP3    H249153   3.306   6.493  11.346
 8320TIP3   OH249154   3.440   6.493  10.437
 8320TIP3    H149155   3.445   6.579  10.378
 8320TIP3    H249156   3.477   6.536  10.521
 8321TIP3   OH249157   3.175   7.904  10.267
 8321TIP3    H149158   3.090   7.922  10.322
 8321TIP3    H249159   3.194   8.003  10.234
 8322TIP3   OH249160   3.147   6.730  10.495
 8322TIP3    H149161   3.198   6.824  10.501
 8322TIP3    H249162   3.100   6.720  10.582
 8323TIP3   OH249163   3.200   6.875  11.408
 8323TIP3    H149164   3.221   6.928  11.492
 8323TIP3    H249165   3.285   6.808  11.399
 8324TIP3   OH249166   3.187   6.399  10.563
 8324TIP3    H149167   3.151   6.478  10.620
 8324TIP3    H249168   3.276   6.447  10.525
 8325TIP3   OH249169   2.856   7.997  10.302
 8325TIP3    H149170   2.877   8.090  10.256
 8325TIP3    H249171   2.813   8.031  10.387
 8326TIP3   OH249172   2.726   6.568  10.280
 8326TIP3    H149173   2.728   6.659  10.332
 8326TIP3    H249174   2.816   6.522  10.310
 8327TIP3   OH249175   3.809   6.642  11.501
 8327TIP3    H149176   3.707   6.632  11.473
 8327TIP3    H249177   3.863   6.639  11.416
 8328TIP3   OH249178   3.704   7.043  10.906
 8328TIP3    H149179   3.619   6.979  10.896
 8328TIP3    H249180   3.776   6.979  10.951
 8329TIP3   OH249181   2.520   7.667  10.166
 8329TIP3    H149182   2.602   7.725  10.200
 8329TIP3    H249183   2.552   7.651  10.074
 8330TIP3   OH249184   2.355   6.887  10.114
 8330TIP3    H149185   2.364   6.994  10.109
 8330TIP3    H249186   2.278   6.867  10.049
 8331TIP3   OH249187   3.833   8.142  11.099
 8331TIP3    H149188   3.816   8.168  11.005
 8331TIP3    H249189   3.941   8.126  11.091
 8332TIP3   OH249190   2.416   6.311  10.977
 8332TIP3    H149191   2.409   6.303  10.879
 8332TIP3    H249192   2.384   6.212  11.004
 8333TIP3   OH249193   2.283   7.803  10.542
 8333TIP3    H149194   2.193   7.859  10.541
 8333TIP3    H249195   2.334   7.859  10.474
 8334TIP3   OH249196   2.226   8.154  11.708
 8334TIP3    H149197   2.323   8.149  11.749
 8334TIP3    H249198   2.197   8.052  11.707
 8335TIP3   OH249199   2.760   7.968  11.849
 8335TIP3    H149200   2.864   7.977  11.842
 8335TIP3    H249201   2.731   7.949  11.757
 8336TIP3   OH249202   3.194   7.904  19.929
 8336TIP3    H149203   3.103   7.869  19.968
 8336TIP3    H249204   3.267   7.875  19.995
 8337TIP3   OH249205   3.431   7.867  11.741
 8337TIP3    H149206   3.397   7.767  11.766
 8337TIP3    H249207   3.516   7.878  11.801
 8338TIP3   OH249208   3.636   7.937  10.063
 8338TIP3    H149209   3.677   7.841  10.086
 8338TIP3    H249210   3.709   7.986  10.007
 8339TIP3   OH249211   2.181   7.456  11.793
 8339TIP3    H149212   2.128   7.365  11.810
 8339TIP3    H249213   2.126   7.492  11.715
 8340TIP3   OH249214   2.759   7.403  10.058
 8340TIP3    H149215   2.757   7.359  10.147
 8340TIP3    H249216   2.855   7.451  10.066
 8341TIP3   OH249217   2.937   7.450  11.693
 8341TIP3    H149218   2.907   7.510  11.614
 8341TIP3    H249219   2.928   7.348  11.662
 8342TIP3   OH249220   3.561   7.433  11.479
 8342TIP3    H149221   3.650   7.494  11.479
 8342TIP3    H249222   3.489   7.512  11.482
 8343TIP3   OH249223   2.329   7.114  11.748
 8343TIP3    H149224   2.377   7.022  11.771
 8343TIP3    H249225   2.366   7.181  11.816
 8344TIP3   OH249226   2.849   7.272  10.279
 8344TIP3    H149227   2.763   7.217  10.311
 8344TIP3    H249228   2.890   7.207  10.210
 8345TIP3   OH249229   2.718   7.029  11.435
 8345TIP3    H149230   2.652   7.114  11.422
 8345TIP3    H249231   2.804   7.063  11.385
 8346TIP3   OH249232   2.980   7.095  10.086
 8346TIP3    H149233   2.994   7.052   9.998
 8346TIP3    H249234   3.081   7.091  10.122
 8347TIP3   OH249235   3.319   7.317  11.799
 8347TIP3    H149236   3.392   7.275  11.740
 8347TIP3    H249237   3.301   7.235  11.861
 8348TIP3   OH249238   3.941   7.300  19.998
 8348TIP3    H149239   4.014   7.262  19.936
 8348TIP3    H249240   3.963   7.405  19.986
 8349TIP3   OH249241   2.826   6.765  11.520
 8349TIP3    H149242   2.802   6.689  11.453
 8349TIP3    H249243   2.778   6.852  11.480
 8350TIP3   OH249244   2.862   6.549  11.344
 8350TIP3    H149245   2.905   6.603  11.268
 8350TIP3    H249246   2.762   6.533  11.307
 8351TIP3   OH249247   2.972   7.184  11.331
 8351TIP3    H149248   3.064   7.229  11.303
 8351TIP3    H249249   2.904   7.263  11.307
 8352TIP3   OH249250   3.469   6.900  11.821
 8352TIP3    H149251   3.511   6.802  11.831
 8352TIP3    H249252   3.547   6.961  11.856
 8353TIP3   OH249253   3.648   7.250  11.674
 8353TIP3    H149254   3.615   7.318  11.604
 8353TIP3    H249255   3.754   7.252  11.659
 8354TIP3   OH249256   2.639   6.870  11.762
 8354TIP3    H149257   2.540   6.827  11.768
 8354TIP3    H249258   2.675   6.827  11.681
 8355TIP3   OH249259   2.939   6.272  11.345
 8355TIP3    H149260   2.900   6.371  11.356
 8355TIP3    H249261   2.857   6.224  11.302
 8356TIP3   OH249262   3.067   6.725  11.780
 8356TIP3    H149263   3.131   6.685  11.852
 8356TIP3    H249264   2.971   6.707  11.823
 8357TIP3   OH249265   3.342   6.665  11.659
 8357TIP3    H149266   3.320   6.730  11.733
 8357TIP3    H249267   3.394   6.588  11.710
 8358TIP3   OH249268   3.514   6.508  11.817
 8358TIP3    H149269   3.526   6.400  11.822
 8358TIP3    H249270   3.512   6.538  11.910
 8359TIP3   OH249271   2.409   6.678  11.749
 8359TIP3    H149272   2.387   6.586  11.703
 8359TIP3    H249273   2.374   6.656  11.839
 8360TIP3   OH249274   2.933   6.251  11.621
 8360TIP3    H149275   3.015   6.183  11.630
 8360TIP3    H249276   2.915   6.240  11.524
 8361TIP3   OH249277   2.962   6.384  11.869
 8361TIP3    H149278   2.941   6.328  11.788
 8361TIP3    H249279   2.895   6.469  11.858
 8362TIP3   OH249280   2.935   8.245  10.153
 8362TIP3    H149281   3.034   8.258  10.189
 8362TIP3    H249282   2.954   8.253  10.055
 8363TIP3   OH249283   2.224   7.662  10.134
 8363TIP3    H149284   2.332   7.665  10.146
 8363TIP3    H249285   2.217   7.634  10.041
 8364TIP3   OH249286   2.087   8.232  10.607
 8364TIP3    H149287   1.999   8.185  10.569
 8364TIP3    H249288   2.105   8.162  10.679
 8365TIP3   OH249289   2.179   8.030  10.803
 8365TIP3    H149290   2.103   7.964  10.834
 8365TIP3    H249291   2.248   8.032  10.879
 8366TIP3   OH249292   4.128   8.139  11.064
 8366TIP3    H149293   4.144   8.176  11.155
 8366TIP3    H249294   4.178   8.216  11.015
 8367TIP3   OH249295   4.054   8.065  11.403
 8367TIP3    H149296   4.027   7.981  11.346
 8367TIP3    H249297   4.105   8.014  11.475
 8368TIP3   OH249298   3.894   7.608  11.871
 8368TIP3    H149299   3.797   7.613  11.914
 8368TIP3    H249300   3.937   7.704  11.891
 8369TIP3   OH249301   3.997   7.445  10.366
 8369TIP3    H149302   4.094   7.489  10.385
 8369TIP3    H249303   3.981   7.385  10.446
 8370TIP3   OH249304   4.060   7.231  10.596
 8370TIP3    H149305   3.971   7.176  10.621
 8370TIP3    H249306   4.112   7.239  10.682
 8371TIP3   OH249307   4.030   7.513  11.062
 8371TIP3    H149308   4.097   7.432  11.041
 8371TIP3    H249309   4.083   7.596  11.021
 8372TIP3   OH249310   3.892   7.823  11.322
 8372TIP3    H149311   3.827   7.887  11.373
 8372TIP3    H249312   3.835   7.810  11.239
 8373TIP3   OH249313   4.120   7.222  10.209
 8373TIP3    H149314   4.050   7.250  10.139
 8373TIP3    H249315   4.109   7.304  10.271
 8374TIP3   OH249316   3.878   6.868  10.137
 8374TIP3    H149317   3.843   6.942  10.074
 8374TIP3    H249318   3.947   6.818  10.080
 8375TIP3   OH249319   3.838   7.063  10.669
 8375TIP3    H149320   3.822   6.962  10.648
 8375TIP3    H249321   3.807   7.066  10.763
 8376TIP3   OH249322   2.174   7.306  11.065
 8376TIP3    H149323   2.175   7.273  10.971
 8376TIP3    H249324   2.268   7.266  11.095
 8377TIP3   OH249325   3.953   7.274  11.619
 8377TIP3    H149326   4.005   7.180  11.625
 8377TIP3    H249327   4.029   7.348  11.599
 8378TIP3   OH249328   4.064   6.990  11.645
 8378TIP3    H149329   3.962   6.953  11.647
 8378TIP3    H249330   4.125   6.901  11.660
 8379TIP3   OH249331   3.849   6.610   9.963
 8379TIP3    H149332   3.911   6.566  10.033
 8379TIP3    H249333   3.751   6.590   9.996
 8380TIP3   OH249334   3.786   6.808  10.475
 8380TIP3    H149335   3.800   6.706  10.505
 8380TIP3    H249336   3.885   6.827  10.444
 8381TIP3   OH249337   3.900   6.860  11.030
 8381TIP3    H149338   4.006   6.872  11.044
 8381TIP3    H249339   3.865   6.865  11.122
 8382TIP3   OH249340   3.882   6.932  11.293
 8382TIP3    H149341   3.792   6.965  11.338
 8382TIP3    H249342   3.935   7.026  11.284
 8383TIP3   OH249343   2.170   6.702  11.576
 8383TIP3    H149344   2.232   6.743  11.648
 8383TIP3    H249345   2.094   6.661  11.634
 8384TIP3   OH249346   4.133   6.332  11.822
 8384TIP3    H149347   4.169   6.245  11.775
 8384TIP3    H249348   4.129   6.403  11.747
 8385TIP3   OH249349   3.885   6.523  10.512
 8385TIP3    H149350   3.922   6.467  10.589
 8385TIP3    H249351   3.820   6.450  10.472
 8386TIP3   OH249352   2.281   6.578  10.984
 8386TIP3    H149353   2.316   6.476  10.991
 8386TIP3    H249354   2.371   6.636  10.982
 8387TIP3   OH249355   2.101   6.929  11.045
 8387TIP3    H149356   2.165   6.920  10.967
 8387TIP3    H249357   2.161   6.993  11.099
 8388TIP3   OH249358   4.063   6.542  11.650
 8388TIP3    H149359   3.975   6.586  11.693
 8388TIP3    H249360   4.018   6.490  11.575
 8389TIP3   OH249361   4.074   6.532  10.149
 8389TIP3    H149362   4.132   6.469  10.090
 8389TIP3    H249363   4.146   6.610  10.167
 8390TIP3   OH249364   2.131   6.491  10.461
 8390TIP3    H149365   2.030   6.524  10.465
 8390TIP3    H249366   2.161   6.532  10.375
 8391TIP3   OH249367   3.731   8.125  10.624
 8391TIP3    H149368   3.822   8.113  10.573
 8391TIP3    H249369   3.763   8.190  10.695
 8392TIP3   OH249370   2.122   6.337  11.292
 8392TIP3    H149371   2.041   6.288  11.338
 8392TIP3    H249372   2.072   6.413  11.242
 8393TIP3   OH249373   2.374   7.777  11.696
 8393TIP3    H149374   2.284   7.790  11.644
 8393TIP3    H249375   2.341   7.789  11.787
 8394TIP3   OH249376   2.680   7.932  11.343
 8394TIP3    H149377   2.674   8.038  11.322
 8394TIP3    H249378   2.787   7.927  11.352
 8395TIP3   OH249379   3.168   8.034  11.613
 8395TIP3    H149380   3.157   8.020  11.710
 8395TIP3    H249381   3.254   8.099  11.608
 8396TIP3   OH249382   3.425   8.254  11.557
 8396TIP3    H149383   3.513   8.198  11.537
 8396TIP3    H249384   3.434   8.260  11.655
 8397TIP3   OH249385   3.966   6.287  11.475
 8397TIP3    H149386   3.887   6.329  11.422
 8397TIP3    H249387   3.981   6.192  11.429
 8398TIP3   OH249388   2.392   8.294  11.317
 8398TIP3    H149389   2.297   8.305  11.276
 8398TIP3    H249390   2.365   8.295  11.411
 8399TIP3   OH249391   2.663   8.212  11.272
 8399TIP3    H149392   2.564   8.250  11.296
 8399TIP3    H249393   2.668   8.240  11.178
 8400TIP3   OH249394   3.197   8.188  11.156
 8400TIP3    H149395   3.124   8.208  11.085
 8400TIP3    H249396   3.201   8.284  11.201
 8401TIP3   OH249397   3.403   8.038  11.307
 8401TIP3    H149398   3.323   8.088  11.260
 8401TIP3    H249399   3.484   8.106  11.290
 8402TIP3   OH249400   3.660   8.271  11.275
 8402TIP3    H149401   3.640   8.371  11.245
 8402TIP3    H249402   3.716   8.231  11.197
 8403TIP3   OH249403   2.350   8.060  11.019
 8403TIP3    H149404   2.333   7.998  11.099
 8403TIP3    H249405   2.445   8.024  10.987
 8404TIP3   OH249406   2.596   7.982  10.908
 8404TIP3    H149407   2.583   7.875  10.924
 8404TIP3    H249408   2.688   7.995  10.957
 8405TIP3   OH249409   2.846   7.979  11.034
 8405TIP3    H149410   2.875   7.880  11.007
 8405TIP3    H249411   2.870   7.982  11.129
 8406TIP3   OH249412   3.183   6.414  10.869
 8406TIP3    H149413   3.112   6.379  10.936
 8406TIP3    H249414   3.230   6.322  10.846
 8407TIP3   OH249415   3.816   6.225  10.886
 8407TIP3    H149416   3.893   6.283  10.842
 8407TIP3    H249417   3.727   6.261  10.841
 8408TIP3   OH249418   4.002   6.366  10.722
 8408TIP3    H149419   4.072   6.306  10.670
 8408TIP3    H249420   4.062   6.455  10.738
 8409TIP3   OH249421   2.401   6.283  10.693
 8409TIP3    H149422   2.312   6.284  10.639
 8409TIP3    H249423   2.442   6.186  10.669
 8410TIP3   OH249424   2.266   6.253  10.239
 8410TIP3    H149425   2.318   6.335  10.193
 8410TIP3    H249426   2.210   6.305  10.307
 8411TIP3   OH249427   2.894   6.229  10.676
 8411TIP3    H149428   2.982   6.259  10.630
 8411TIP3    H249429   2.895   6.292  10.756
 8412TIP3   OH249430   3.544   6.278  10.770
 8412TIP3    H149431   3.482   6.298  10.694
 8412TIP3    H249432   3.488   6.200  10.815
 8413TIP3   OH249433   3.687   6.265  10.406
 8413TIP3    H149434   3.603   6.328  10.396
 8413TIP3    H249435   3.645   6.185  10.461
 8414TIP3   OH249436   2.257   8.017  10.358
 8414TIP3    H149437   2.157   8.007  10.325
 8414TIP3    H249438   2.280   8.115  10.326
 8415TIP3   OH249439   2.442   6.425  10.103
 8415TIP3    H149440   2.534   6.381  10.078
 8415TIP3    H249441   2.474   6.514  10.149
 8416TIP3   OH249442   3.027   6.491  10.338
 8416TIP3    H149443   3.083   6.444  10.410
 8416TIP3    H249444   3.032   6.591  10.374
 8417TIP3   OH249445   3.241   8.188  10.171
 8417TIP3    H149446   3.350   8.187  10.178
 8417TIP3    H249447   3.230   8.139  10.085
 8418TIP3   OH249448   3.956   8.092  10.473
 8418TIP3    H149449   3.934   7.995  10.433
 8418TIP3    H249450   3.956   8.154  10.393
 8419TIP3   OH249451   2.375   6.361  11.630
 8419TIP3    H149452   2.314   6.272  11.640
 8419TIP3    H249453   2.457   6.340  11.690
 8420TIP3   OH249454   2.589   6.270  11.819
 8420TIP3    H149455   2.692   6.253  11.799
 8420TIP3    H249456   2.562   6.173  11.856
 8421TIP3   OH249457   2.486   8.205  10.072
 8421TIP3    H149458   2.417   8.213  10.145
 8421TIP3    H249459   2.551   8.130  10.108
 8422TIP3   OH249460   3.528   6.215  11.801
 8422TIP3    H149461   3.517   6.146  11.876
 8422TIP3    H249462   3.632   6.199  11.780
 8423TIP3   OH249463   3.854   7.967  11.682
 8423TIP3    H149464   3.766   7.966  11.625
 8423TIP3    H249465   3.879   8.072  11.679
 8424TIP3   OH249466   5.496   7.316  10.665
 8424TIP3    H149467   5.469   7.416  10.688
 8424TIP3    H249468   5.415   7.293  10.604
 8425TIP3   OH249469   5.350   7.183  11.006
 8425TIP3    H149470   5.356   7.138  11.096
 8425TIP3    H249471   5.283   7.117  10.960
 8426TIP3   OH249472   4.469   7.173  11.152
 8426TIP3    H149473   4.484   7.093  11.214
 8426TIP3    H249474   4.547   7.239  11.176
 8427TIP3   OH249475   5.713   7.494  10.866
 8427TIP3    H149476   5.693   7.419  10.933
 8427TIP3    H249477   5.710   7.582  10.919
 8428TIP3   OH249478   4.603   7.682  10.995
 8428TIP3    H149479   4.568   7.586  10.967
 8428TIP3    H249480   4.709   7.663  10.990
 8429TIP3   OH249481   4.240   6.956  10.556
 8429TIP3    H149482   4.194   7.050  10.580
 8429TIP3    H249483   4.207   6.947  10.463
 8430TIP3   OH249484   4.281   7.205  10.792
 8430TIP3    H149485   4.323   7.107  10.814
 8430TIP3    H249486   4.358   7.252  10.740
 8431TIP3   OH249487   5.400   8.069  10.814
 8431TIP3    H149488   5.500   8.027  10.808
 8431TIP3    H249489   5.367   8.024  10.897
 8432TIP3   OH249490   5.160   7.478  11.078
 8432TIP3    H149491   5.191   7.405  11.012
 8432TIP3    H249492   5.255   7.510  11.114
 8433TIP3   OH249493   6.100   6.550  11.106
 8433TIP3    H149494   6.106   6.604  11.190
 8433TIP3    H249495   6.193   6.582  11.068
 8434TIP3   OH249496   5.543   6.881  11.112
 8434TIP3    H149497   5.569   6.778  11.124
 8434TIP3    H249498   5.512   6.877  11.019
 8435TIP3   OH249499   4.761   6.631  10.775
 8435TIP3    H149500   4.776   6.720  10.720
 8435TIP3    H249501   4.712   6.567  10.708
 8436TIP3   OH249502   5.601   6.678  10.647
 8436TIP3    H149503   5.654   6.639  10.725
 8436TIP3    H249504   5.672   6.749  10.611
 8437TIP3   OH249505   4.377   6.939  10.876
 8437TIP3    H149506   4.447   6.885  10.930
 8437TIP3    H249507   4.407   6.903  10.788
 8438TIP3   OH249508   4.913   7.093  10.828
 8438TIP3    H149509   5.008   7.051  10.853
 8438TIP3    H249510   4.869   7.013  10.777
 8439TIP3   OH249511   6.124   6.706  11.336
 8439TIP3    H149512   6.084   6.800  11.306
 8439TIP3    H249513   6.129   6.724  11.432
 8440TIP3   OH249514   4.653   6.543  11.213
 8440TIP3    H149515   4.610   6.590  11.134
 8440TIP3    H249516   4.579   6.571  11.280
 8441TIP3   OH249517   5.410   7.589  10.564
 8441TIP3    H149518   5.404   7.579  10.466
 8441TIP3    H249519   5.386   7.692  10.573
 8442TIP3   OH249520   4.894   7.384  11.179
 8442TIP3    H149521   4.838   7.466  11.218
 8442TIP3    H249522   4.975   7.437  11.134
 8443TIP3   OH249523   5.795   6.600  10.839
 8443TIP3    H149524   5.794   6.514  10.895
 8443TIP3    H249525   5.887   6.645  10.864
 8444TIP3   OH249526   4.597   6.752  10.988
 8444TIP3    H149527   4.668   6.816  11.035
 8444TIP3    H249528   4.655   6.719  10.911
 8445TIP3   OH249529   4.752   7.623  11.301
 8445TIP3    H149530   4.737   7.721  11.264
 8445TIP3    H249531   4.656   7.605  11.346
 8446TIP3   OH249532   4.287   7.538  10.388
 8446TIP3    H149533   4.292   7.599  10.306
 8446TIP3    H249534   4.306   7.612  10.456
 8447TIP3   OH249535   5.806   7.800  11.110
 8447TIP3    H149536   5.698   7.790  11.115
 8447TIP3    H249537   5.812   7.874  11.041
 8448TIP3   OH249538   5.800   6.482  11.178
 8448TIP3    H149539   5.713   6.496  11.121
 8448TIP3    H249540   5.877   6.514  11.117
 8449TIP3   OH249541   5.042   6.270  10.947
 8449TIP3    H149542   5.005   6.171  10.937
 8449TIP3    H249543   4.949   6.319  10.970
 8450TIP3   OH249544   5.664   7.943  10.769
 8450TIP3    H149545   5.662   7.856  10.712
 8450TIP3    H249546   5.732   8.004  10.715
 8451TIP3   OH249547   5.753   7.699  10.607
 8451TIP3    H149548   5.722   7.656  10.523
 8451TIP3    H249549   5.742   7.615  10.667
 8452TIP3   OH249550   5.915   7.571  11.447
 8452TIP3    H149551   5.935   7.489  11.386
 8452TIP3    H249552   5.932   7.654  11.387
 8453TIP3   OH249553   5.322   7.251  10.412
 8453TIP3    H149554   5.261   7.336  10.386
 8453TIP3    H249555   5.403   7.254  10.347
 8454TIP3   OH249556   5.358   7.065  10.116
 8454TIP3    H149557   5.432   7.118  10.170
 8454TIP3    H249558   5.412   6.973  10.099
 8455TIP3   OH249559   6.145   7.174  11.228
 8455TIP3    H149560   6.073   7.254  11.238
 8455TIP3    H249561   6.203   7.218  11.155
 8456TIP3   OH249562   5.721   7.213  10.511
 8456TIP3    H149563   5.646   7.257  10.570
 8456TIP3    H249564   5.792   7.175  10.578
 8457TIP3   OH249565   5.695   7.060  11.442
 8457TIP3    H149566   5.679   7.163  11.462
 8457TIP3    H249567   5.623   7.048  11.370
 8458TIP3   OH249568   4.777   7.308  10.689
 8458TIP3    H149569   4.755   7.284  10.594
 8458TIP3    H249570   4.832   7.220  10.717
 8459TIP3   OH249571   4.927   7.675  10.958
 8459TIP3    H149572   4.938   7.647  10.865
 8459TIP3    H249573   5.016   7.633  10.998
 8460TIP3   OH249574   4.786   7.149  11.068
 8460TIP3    H149575   4.828   7.149  10.978
 8460TIP3    H249576   4.840   7.230  11.110
 8461TIP3   OH249577   5.508   7.788  11.129
 8461TIP3    H149578   5.468   7.871  11.181
 8461TIP3    H249579   5.468   7.703  11.178
 8462TIP3   OH249580   4.930   7.663  11.533
 8462TIP3    H149581   4.862   7.732  11.577
 8462TIP3    H249582   4.882   7.649  11.446
 8463TIP3   OH249583   5.568   7.187  10.267
 8463TIP3    H149584   5.621   7.191  10.354
 8463TIP3    H249585   5.641   7.234  10.206
 8464TIP3   OH249586   4.597   7.241  11.433
 8464TIP3    H149587   4.584   7.344  11.457
 8464TIP3    H249588   4.539   7.197  11.503
 8465TIP3   OH249589   5.328   7.925  10.566
 8465TIP3    H149590   5.352   7.941  10.659
 8465TIP3    H249591   5.256   8.004  10.555
 8466TIP3   OH249592   4.717   7.865  11.595
 8466TIP3    H149593   4.705   7.872  11.498
 8466TIP3    H249594   4.623   7.820  11.622
 8467TIP3   OH249595   6.025   6.239  10.300
 8467TIP3    H149596   5.918   6.236  10.314
 8467TIP3    H249597   6.037   6.343  10.278
 8468TIP3   OH249598   4.663   7.187  10.462
 8468TIP3    H149599   4.607   7.269  10.425
 8468TIP3    H249600   4.609   7.104  10.428
 8469TIP3   OH249601   6.131   7.851  10.137
 8469TIP3    H149602   6.182   7.944  10.118
 8469TIP3    H249603   6.212   7.778  10.134
 8470TIP3   OH249604   4.260   7.480  11.361
 8470TIP3    H149605   4.222   7.469  11.272
 8470TIP3    H249606   4.296   7.380  11.379
 8471TIP3   OH249607   4.237   7.754  10.985
 8471TIP3    H149608   4.344   7.750  10.989
 8471TIP3    H249609   4.219   7.836  11.044
 8472TIP3   OH249610   6.202   7.859  11.625
 8472TIP3    H149611   6.179   7.756  11.607
 8472TIP3    H249612   6.108   7.893  11.665
 8473TIP3   OH249613   5.211   7.784  11.481
 8473TIP3    H149614   5.223   7.882  11.522
 8473TIP3    H249615   5.109   7.758  11.502
 8474TIP3   OH249616   5.311   8.248  10.464
 8474TIP3    H149617   5.314   8.237  10.367
 8474TIP3    H249618   5.280   8.349  10.476
 8475TIP3   OH249619   4.577   8.038  10.662
 8475TIP3    H149620   4.613   8.051  10.754
 8475TIP3    H249621   4.503   7.961  10.680
 8476TIP3   OH249622   5.597   8.153  10.207
 8476TIP3    H149623   5.650   8.084  10.148
 8476TIP3    H249624   5.602   8.100  10.293
 8477TIP3   OH249625   5.559   8.094  10.458
 8477TIP3    H149626   5.462   8.126  10.484
 8477TIP3    H249627   5.564   7.995  10.495
 8478TIP3   OH249628   5.867   6.888  11.649
 8478TIP3    H149629   5.831   6.940  11.570
 8478TIP3    H249630   5.891   6.791  11.610
 8479TIP3   OH249631   4.502   7.614  11.443
 8479TIP3    H149632   4.501   7.576  11.535
 8479TIP3    H249633   4.403   7.587  11.411
 8480TIP3   OH249634   4.792   6.381  11.024
 8480TIP3    H149635   4.693   6.369  10.986
 8480TIP3    H249636   4.769   6.433  11.107
 8481TIP3   OH249637   5.327   6.311  11.337
 8481TIP3    H149638   5.367   6.265  11.419
 8481TIP3    H249639   5.220   6.307  11.350
 8482TIP3   OH249640   5.612   6.774  11.490
 8482TIP3    H149641   5.547   6.732  11.558
 8482TIP3    H249642   5.645   6.863  11.534
 8483TIP3   OH249643   5.764   7.312  10.120
 8483TIP3    H149644   5.727   7.316  10.026
 8483TIP3    H249645   5.869   7.319  10.101
 8484TIP3   OH249646   5.283   6.612  10.121
 8484TIP3    H149647   5.235   6.575  10.202
 8484TIP3    H249648   5.209   6.587  10.056
 8485TIP3   OH249649   4.798   6.876  11.160
 8485TIP3    H149650   4.712   6.888  11.219
 8485TIP3    H249651   4.804   6.977  11.125
 8486TIP3   OH249652   4.781   6.881  10.639
 8486TIP3    H149653   4.675   6.887  10.621
 8486TIP3    H249654   4.827   6.882  10.549
 8487TIP3   OH249655   5.420   7.011  10.554
 8487TIP3    H149656   5.381   7.095  10.502
 8487TIP3    H249657   5.487   6.969  10.487
 8488TIP3   OH249658   5.284   7.015  11.659
 8488TIP3    H149659   5.238   6.923  11.691
 8488TIP3    H249660   5.372   7.014  11.712
 8489TIP3   OH249661   5.529   6.927  10.813
 8489TIP3    H149662   5.509   7.019  10.769
 8489TIP3    H249663   5.519   6.863  10.735
 8490TIP3   OH249664   4.534   6.906  11.287
 8490TIP3    H149665   4.562   6.945  11.373
 8490TIP3    H249666   4.489   6.812  11.313
 8491TIP3   OH249667   4.906   6.640  10.040
 8491TIP3    H149668   4.859   6.613  10.124
 8491TIP3    H249669   4.848   6.723  10.010
 8492TIP3   OH249670   4.179   6.604  10.747
 8492TIP3    H149671   4.255   6.613  10.813
 8492TIP3    H249672   4.222   6.648  10.668
 8493TIP3   OH249673   4.302   6.676  10.270
 8493TIP3    H149674   4.385   6.732  10.232
 8493TIP3    H249675   4.235   6.757  10.288
 8494TIP3   OH249676   5.410   7.086  11.255
 8494TIP3    H149677   5.469   7.010  11.209
 8494TIP3    H249678   5.344   7.024  11.309
 8495TIP3   OH249679   5.105   6.632  10.764
 8495TIP3    H149680   5.001   6.642  10.779
 8495TIP3    H249681   5.141   6.587  10.845
 8496TIP3   OH249682   4.475   6.810  10.650
 8496TIP3    H149683   4.393   6.842  10.593
 8496TIP3    H249684   4.504   6.713  10.616
 8497TIP3   OH249685   4.926   6.835  10.398
 8497TIP3    H149686   5.029   6.852  10.381
 8497TIP3    H249687   4.874   6.898  10.332
 8498TIP3   OH249688   5.556   6.564  11.056
 8498TIP3    H149689   5.489   6.552  11.131
 8498TIP3    H249690   5.509   6.507  10.986
 8499TIP3   OH249691   4.729   6.962  10.220
 8499TIP3    H149692   4.641   6.954  10.165
 8499TIP3    H249693   4.806   6.962  10.152
 8500TIP3   OH249694   5.856   8.344  11.691
 8500TIP3    H149695   5.887   8.344  11.598
 8500TIP3    H249696   5.952   8.325  11.735
 8501TIP3   OH249697   4.541   7.434  11.682
 8501TIP3    H149698   4.613   7.448  11.752
 8501TIP3    H249699   4.451   7.418  11.734
 8502TIP3   OH249700   5.207   6.942  10.931
 8502TIP3    H149701   5.279   6.901  10.870
 8502TIP3    H249702   5.178   6.856  10.982
 8503TIP3   OH249703   4.603   6.507  10.581
 8503TIP3    H149704   4.531   6.442  10.624
 8503TIP3    H249705   4.645   6.437  10.518
 8504TIP3   OH249706   5.056   6.732  11.167
 8504TIP3    H149707   4.970   6.799  11.165
 8504TIP3    H249708   5.128   6.790  11.213
 8505TIP3   OH249709   5.126   7.464  10.364
 8505TIP3    H149710   5.043   7.404  10.332
 8505TIP3    H249711   5.088   7.493  10.453
 8506TIP3   OH249712   5.942   7.389  11.247
 8506TIP3    H149713   5.994   7.450  11.179
 8506TIP3    H249714   5.848   7.378  11.203
 8507TIP3   OH249715   5.559   6.668  10.191
 8507TIP3    H149716   5.455   6.661  10.168
 8507TIP3    H249717   5.572   6.774  10.201
 8508TIP3   OH249718   5.253   7.484  11.471
 8508TIP3    H149719   5.243   7.447  11.561
 8508TIP3    H249720   5.233   7.589  11.484
 8509TIP3   OH249721   5.624   6.912  10.337
 8509TIP3    H149722   5.716   6.881  10.378
 8509TIP3    H249723   5.651   7.002  10.288
 8510TIP3   OH249724   4.598   7.403  10.906
 8510TIP3    H149725   4.657   7.381  10.826
 8510TIP3    H249726   4.615   7.316  10.959
 8511TIP3   OH249727   5.357   7.626  10.307
 8511TIP3    H149728   5.319   7.728  10.305
 8511TIP3    H249729   5.268   7.566  10.308
 8512TIP3   OH249730   4.260   7.197  11.462
 8512TIP3    H149731   4.246   7.134  11.539
 8512TIP3    H249732   4.200   7.150  11.394
 8513TIP3   OH249733   5.007   7.150  11.649
 8513TIP3    H149734   4.975   7.073  11.590
 8513TIP3    H249735   5.113   7.130  11.654
 8514TIP3   OH249736   5.565   7.745  11.492
 8514TIP3    H149737   5.469   7.755  11.449
 8514TIP3    H249738   5.542   7.795  11.577
 8515TIP3   OH249739   6.166   6.889  10.331
 8515TIP3    H149740   6.090   6.870  10.263
 8515TIP3    H249741   6.173   6.995  10.322
 8516TIP3   OH249742   6.185   7.539  11.572
 8516TIP3    H149743   6.085   7.553  11.537
 8516TIP3    H249744   6.243   7.524  11.489
 8517TIP3   OH249745   5.987   7.818  10.370
 8517TIP3    H149746   5.904   7.752  10.368
 8517TIP3    H249747   6.024   7.814  10.278
 8518TIP3   OH249748   5.660   7.285  11.052
 8518TIP3    H149749   5.558   7.253  11.041
 8518TIP3    H249750   5.708   7.227  10.983
 8519TIP3   OH249751   4.832   7.748  10.680
 8519TIP3    H149752   4.877   7.843  10.658
 8519TIP3    H249753   4.735   7.759  10.640
 8520TIP3   OH249754   4.397   7.187  10.082
 8520TIP3    H149755   4.457   7.253  10.136
 8520TIP3    H249756   4.301   7.201  10.124
 8521TIP3   OH249757   4.997   7.510  10.611
 8521TIP3    H149758   4.940   7.600  10.624
 8521TIP3    H249759   4.946   7.440  10.668
 8522TIP3   OH249760   5.050   7.963  11.306
 8522TIP3    H149761   5.105   8.052  11.286
 8522TIP3    H249762   5.128   7.900  11.341
 8523TIP3   OH249763   4.868   8.029  10.573
 8523TIP3    H149764   4.764   8.051  10.595
 8523TIP3    H249765   4.919   8.117  10.607
 8524TIP3   OH249766   5.400   7.525  11.227
 8524TIP3    H149767   5.354   7.503  11.314
 8524TIP3    H249768   5.435   7.429  11.199
 8525TIP3   OH249769   5.712   7.658  10.136
 8525TIP3    H149770   5.738   7.604  10.218
 8525TIP3    H249771   5.607   7.655  10.146
 8526TIP3   OH249772   5.756   8.026  11.458
 8526TIP3    H149773   5.674   7.961  11.434
 8526TIP3    H249774   5.751   8.106  11.393
 8527TIP3   OH249775   6.229   8.129  10.115
 8527TIP3    H149776   6.311   8.193  10.142
 8527TIP3    H249777   6.146   8.180  10.157
 8528TIP3   OH249778   4.458   6.635  11.406
 8528TIP3    H149779   4.390   6.684  11.467
 8528TIP3    H249780   4.478   6.546  11.458
 8529TIP3   OH249781   5.783   7.497  10.351
 8529TIP3    H149782   5.766   7.392  10.355
 8529TIP3    H249783   5.891   7.497  10.347
 8530TIP3   OH249784   4.414   7.896  11.275
 8530TIP3    H149785   4.472   7.807  11.266
 8530TIP3    H249786   4.474   7.952  11.337
 8531TIP3   OH249787   4.893   7.724  10.235
 8531TIP3    H149788   4.980   7.670  10.260
 8531TIP3    H249789   4.912   7.824  10.269
 8532TIP3   OH249790   4.526   7.383  10.264
 8532TIP3    H149791   4.448   7.436  10.310
 8532TIP3    H249792   4.588   7.464  10.232
 8533TIP3   OH249793   5.391   6.620  11.318
 8533TIP3    H149794   5.485   6.641  11.361
 8533TIP3    H249795   5.370   6.519  11.346
 8534TIP3   OH249796   5.501   6.518  10.445
 8534TIP3    H149797   5.525   6.597  10.382
 8534TIP3    H249798   5.549   6.553  10.527
 8535TIP3   OH249799   5.259   7.900  10.253
 8535TIP3    H149800   5.175   7.911  10.311
 8535TIP3    H249801   5.272   8.001  10.222
 8536TIP3   OH249802   5.217   6.742  10.519
 8536TIP3    H149803   5.273   6.834  10.519
 8536TIP3    H249804   5.174   6.736  10.607
 8537TIP3   OH249805   5.268   6.893  11.405
 8537TIP3    H149806   5.275   6.936  11.495
 8537TIP3    H249807   5.334   6.808  11.409
 8538TIP3   OH249808   5.259   6.405  10.573
 8538TIP3    H149809   5.210   6.484  10.620
 8538TIP3    H249810   5.345   6.459  10.533
 8539TIP3   OH249811   4.927   8.023  10.303
 8539TIP3    H149812   4.952   8.121  10.269
 8539TIP3    H249813   4.883   8.044  10.390
 8540TIP3   OH249814   4.807   6.575  10.283
 8540TIP3    H149815   4.812   6.661  10.342
 8540TIP3    H249816   4.895   6.522  10.308
 8541TIP3   OH249817   5.886   6.635  11.501
 8541TIP3    H149818   5.781   6.642  11.484
 8541TIP3    H249819   5.928   6.628  11.411
 8542TIP3   OH249820   5.783   7.044  10.907
 8542TIP3    H149821   5.698   6.981  10.895
 8542TIP3    H249822   5.849   6.983  10.960
 8543TIP3   OH249823   4.596   7.670  10.164
 8543TIP3    H149824   4.676   7.732  10.198
 8543TIP3    H249825   4.633   7.644  10.076
 8544TIP3   OH249826   4.413   6.886  10.121
 8544TIP3    H149827   4.415   6.993  10.120
 8544TIP3    H249828   4.343   6.865  10.051
 8545TIP3   OH249829   5.904   8.142  11.092
 8545TIP3    H149830   5.889   8.171  10.998
 8545TIP3    H249831   6.012   8.135  11.088
 8546TIP3   OH249832   4.506   6.315  10.970
 8546TIP3    H149833   4.501   6.295  10.873
 8546TIP3    H249834   4.475   6.217  11.004
 8547TIP3   OH249835   4.367   7.807  10.556
 8547TIP3    H149836   4.283   7.865  10.582
 8547TIP3    H249837   4.393   7.859  10.474
 8548TIP3   OH249838   4.286   8.144  11.678
 8548TIP3    H149839   4.368   8.136  11.740
 8548TIP3    H249840   4.238   8.048  11.692
 8549TIP3   OH249841   4.753   8.026  11.853
 8549TIP3    H149842   4.849   8.072  11.861
 8549TIP3    H249843   4.775   7.951  11.785
 8550TIP3   OH249844   5.277   7.909  19.943
 8550TIP3    H149845   5.187   7.852  19.951
 8550TIP3    H249846   5.339   7.856  20.004
 8551TIP3   OH249847   5.519   7.859  11.735
 8551TIP3    H149848   5.488   7.765  11.773
 8551TIP3    H249849   5.610   7.882  11.784
 8552TIP3   OH249850   5.719   7.943  10.070
 8552TIP3    H149851   5.755   7.844  10.089
 8552TIP3    H249852   5.789   7.989  10.009
 8553TIP3   OH249853   4.263   7.445  11.800
 8553TIP3    H149854   4.224   7.345  11.803
 8553TIP3    H249855   4.212   7.484  11.721
 8554TIP3   OH249856   4.791   7.404  10.047
 8554TIP3    H149857   4.806   7.355  10.133
 8554TIP3    H249858   4.887   7.388  10.004
 8555TIP3   OH249859   5.015   7.442  11.689
 8555TIP3    H149860   4.984   7.513  11.619
 8555TIP3    H249861   4.991   7.345  11.651
 8556TIP3   OH249862   5.642   7.440  11.486
 8556TIP3    H149863   5.730   7.503  11.479
 8556TIP3    H249864   5.569   7.519  11.483
 8557TIP3   OH249865   4.407   7.138  11.756
 8557TIP3    H149866   4.480   7.065  11.737
 8557TIP3    H249867   4.447   7.190  11.833
 8558TIP3   OH249868   4.893   7.245  10.263
 8558TIP3    H149869   4.812   7.184  10.299
 8558TIP3    H249870   4.942   7.173  10.204
 8559TIP3   OH249871   4.798   7.030  11.434
 8559TIP3    H149872   4.741   7.121  11.438
 8559TIP3    H249873   4.878   7.065  11.379
 8560TIP3   OH249874   5.035   7.061  10.106
 8560TIP3    H149875   5.023   7.114  10.021
 8560TIP3    H249876   5.141   7.056  10.114
 8561TIP3   OH249877   5.412   7.325  11.813
 8561TIP3    H149878   5.475   7.272  11.751
 8561TIP3    H249879   5.367   7.248  11.868
 8562TIP3   OH249880   6.021   7.299  20.004
 8562TIP3    H149881   6.086   7.266  19.934
 8562TIP3    H249882   6.038   7.406  19.994
 8563TIP3   OH249883   4.884   6.762  11.523
 8563TIP3    H149884   4.888   6.686  11.453
 8563TIP3    H249885   4.863   6.852  11.473
 8564TIP3   OH249886   4.918   6.548  11.333
 8564TIP3    H149887   4.972   6.604  11.264
 8564TIP3    H249888   4.817   6.548  11.297
 8565TIP3   OH249889   5.053   7.192  11.335
 8565TIP3    H149890   5.150   7.233  11.316
 8565TIP3    H249891   4.989   7.264  11.293
 8566TIP3   OH249892   5.526   6.918  11.822
 8566TIP3    H149893   5.551   6.813  11.814
 8566TIP3    H249894   5.594   6.961  11.758
 8567TIP3   OH249895   5.719   7.248  11.679
 8567TIP3    H149896   5.686   7.319  11.613
 8567TIP3    H249897   5.825   7.250  11.664
 8568TIP3   OH249898   4.721   6.851  11.752
 8568TIP3    H149899   4.626   6.802  11.739
 8568TIP3    H249900   4.775   6.817  11.673
 8569TIP3   OH249901   5.028   6.280  11.338
 8569TIP3    H149902   4.985   6.379  11.349
 8569TIP3    H249903   4.942   6.223  11.314
 8570TIP3   OH249904   5.126   6.763  11.734
 8570TIP3    H149905   5.073   6.713  11.806
 8570TIP3    H249906   5.057   6.747  11.661
 8571TIP3   OH249907   5.423   6.672  11.663
 8571TIP3    H149908   5.317   6.669  11.678
 8571TIP3    H249909   5.459   6.601  11.730
 8572TIP3   OH249910   5.586   6.510  11.829
 8572TIP3    H149911   5.588   6.402  11.826
 8572TIP3    H249912   5.592   6.536  11.923
 8573TIP3   OH249913   4.481   6.664  11.756
 8573TIP3    H149914   4.472   6.573  11.704
 8573TIP3    H249915   4.460   6.628  11.848
 8574TIP3   OH249916   5.010   6.248  11.630
 8574TIP3    H149917   5.090   6.179  11.646
 8574TIP3    H249918   5.016   6.251  11.533
 8575TIP3   OH249919   5.038   6.382  11.873
 8575TIP3    H149920   5.018   6.339  11.784
 8575TIP3    H249921   4.961   6.457  11.876
 8576TIP3   OH249922   5.016   8.261  10.152
 8576TIP3    H149923   5.119   8.261  10.177
 8576TIP3    H249924   5.025   8.271  10.054
 8577TIP3   OH249925   4.301   7.663  10.142
 8577TIP3    H149926   4.409   7.670  10.152
 8577TIP3    H249927   4.292   7.637  10.049
 8578TIP3   OH249928   4.154   8.248  10.597
 8578TIP3    H149929   4.071   8.193  10.558
 8578TIP3    H249930   4.171   8.183  10.673
 8579TIP3   OH249931   4.257   8.029  10.807
 8579TIP3    H149932   4.181   7.959  10.834
 8579TIP3    H249933   4.312   8.040  10.891
 8580TIP3   OH249934   6.206   8.149  11.046
 8580TIP3    H149935   6.219   8.194  11.134
 8580TIP3    H249936   6.261   8.214  10.990
 8581TIP3   OH249937   6.130   8.067  11.390
 8581TIP3    H149938   6.097   7.986  11.331
 8581TIP3    H249939   6.185   8.007  11.453
 8582TIP3   OH249940   5.975   7.621  11.839
 8582TIP3    H149941   5.875   7.636  11.809
 8582TIP3    H249942   6.006   7.719  11.869
 8583TIP3   OH249943   6.076   7.444  10.365
 8583TIP3    H149944   6.173   7.485  10.386
 8583TIP3    H249945   6.058   7.380  10.442
 8584TIP3   OH249946   6.145   7.227  10.602
 8584TIP3    H149947   6.057   7.175  10.635
 8584TIP3    H249948   6.199   7.246  10.685
 8585TIP3   OH249949   6.110   7.519  11.065
 8585TIP3    H149950   6.184   7.440  11.051
 8585TIP3    H249951   6.161   7.602  11.024
 8586TIP3   OH249952   5.976   7.838  11.317
 8586TIP3    H149953   5.898   7.893  11.362
 8586TIP3    H249954   5.926   7.816  11.232
 8587TIP3   OH249955   6.200   7.216  10.210
 8587TIP3    H149956   6.131   7.248  10.139
 8587TIP3    H249957   6.190   7.299  10.272
 8588TIP3   OH249958   5.959   6.867  10.129
 8588TIP3    H149959   5.949   6.942  10.059
 8588TIP3    H249960   6.014   6.795  10.079
 8589TIP3   OH249961   5.921   7.060  10.669
 8589TIP3    H149962   5.900   6.961  10.640
 8589TIP3    H249963   5.882   7.061  10.761
 8590TIP3   OH249964   4.248   7.307  11.048
 8590TIP3    H149965   4.255   7.274  10.954
 8590TIP3    H249966   4.342   7.268  11.081
 8591TIP3   OH249967   6.031   7.268  11.615
 8591TIP3    H149968   6.082   7.173  11.633
 8591TIP3    H249969   6.112   7.334  11.591
 8592TIP3   OH249970   6.138   6.988  11.653
 8592TIP3    H149971   6.037   6.951  11.652
 8592TIP3    H249972   6.196   6.901  11.678
 8593TIP3   OH249973   5.929   6.595   9.960
 8593TIP3    H149974   5.992   6.557  10.032
 8593TIP3    H249975   5.831   6.582   9.996
 8594TIP3   OH249976   5.863   6.804  10.489
 8594TIP3    H149977   5.884   6.702  10.517
 8594TIP3    H249978   5.942   6.818  10.426
 8595TIP3   OH249979   5.970   6.859  11.058
 8595TIP3    H149980   6.079   6.866  11.066
 8595TIP3    H249981   5.942   6.866  11.152
 8596TIP3   OH249982   5.959   6.944  11.323
 8596TIP3    H149983   5.861   6.976  11.350
 8596TIP3    H249984   6.007   7.037  11.298
 8597TIP3   OH249985   4.240   6.764  11.656
 8597TIP3    H149986   4.334   6.744  11.700
 8597TIP3    H249987   4.187   6.672  11.670
 8598TIP3   OH249988   6.203   6.324  11.820
 8598TIP3    H149989   6.241   6.236  11.777
 8598TIP3    H249990   6.205   6.395  11.746
 8599TIP3   OH249991   5.943   6.524  10.514
 8599TIP3    H149992   5.987   6.474  10.591
 8599TIP3    H249993   5.888   6.444  10.473
 8600TIP3   OH249994   4.344   6.573  11.018
 8600TIP3    H149995   4.389   6.475  11.012
 8600TIP3    H249996   4.425   6.636  10.994
 8601TIP3   OH249997   4.183   6.912  11.074
 8601TIP3    H149998   4.244   6.885  10.997
 8601TIP3    H249999   4.234   7.000  11.102
 8602TIP3   OH250000   6.148   6.524  11.624
 8602TIP3    H150001   6.058   6.574  11.652
 8602TIP3    H250002   6.107   6.453  11.561
 8603TIP3   OH250003   6.141   6.529  10.157
 8603TIP3    H150004   6.189   6.454  10.103
 8603TIP3    H250005   6.225   6.595  10.173
 8604TIP3   OH250006   4.198   6.494  10.463
 8604TIP3    H150007   4.095   6.523  10.473
 8604TIP3    H250008   4.221   6.534  10.374
 8605TIP3   OH250009   5.807   8.133  10.619
 8605TIP3    H150010   5.900   8.126  10.571
 8605TIP3    H250011   5.840   8.188  10.698
 8606TIP3   OH250012   4.203   6.341  11.294
 8606TIP3    H150013   4.125   6.312  11.354
 8606TIP3    H250014   4.158   6.416  11.239
 8607TIP3   OH250015   4.457   7.767  11.696
 8607TIP3    H150016   4.366   7.766  11.645
 8607TIP3    H250017   4.422   7.773  11.786
 8608TIP3   OH250018   4.755   7.920  11.326
 8608TIP3    H150019   4.744   8.028  11.316
 8608TIP3    H250020   4.862   7.919  11.339
 8609TIP3   OH250021   5.257   8.043  11.611
 8609TIP3    H150022   5.248   8.007  11.704
 8609TIP3    H250023   5.342   8.108  11.619
 8610TIP3   OH250024   5.498   8.238  11.559
 8610TIP3    H150025   5.567   8.162  11.537
 8610TIP3    H250026   5.520   8.251  11.655
 8611TIP3   OH250027   6.039   6.283  11.464
 8611TIP3    H150028   5.952   6.316  11.416
 8611TIP3    H250029   6.053   6.185  11.424
 8612TIP3   OH250030   4.456   8.274  11.320
 8612TIP3    H150031   4.356   8.291  11.285
 8612TIP3    H250032   4.440   8.288  11.415
 8613TIP3   OH250033   4.737   8.203  11.274
 8613TIP3    H150034   4.635   8.234  11.298
 8613TIP3    H250035   4.741   8.232  11.180
 8614TIP3   OH250036   5.283   8.193  11.133
 8614TIP3    H150037   5.200   8.208  11.073
 8614TIP3    H250038   5.282   8.283  11.185
 8615TIP3   OH250039   5.482   8.037  11.285
 8615TIP3    H150040   5.405   8.099  11.245
 8615TIP3    H250041   5.566   8.100  11.268
 8616TIP3   OH250042   5.738   8.271  11.274
 8616TIP3    H150043   5.713   8.372  11.255
 8616TIP3    H250044   5.786   8.237  11.190
 8617TIP3   OH250045   4.425   8.053  11.036
 8617TIP3    H150046   4.417   8.003  11.123
 8617TIP3    H250047   4.517   8.014  10.999
 8618TIP3   OH250048   4.662   7.974  10.904
 8618TIP3    H150049   4.654   7.867  10.918
 8618TIP3    H250050   4.755   7.993  10.950
 8619TIP3   OH250051   4.915   7.983  11.028
 8619TIP3    H150052   4.939   7.880  11.012
 8619TIP3    H250053   4.938   7.997  11.123
 8620TIP3   OH250054   5.312   6.424  10.911
 8620TIP3    H150055   5.224   6.380  10.949
 8620TIP3    H250056   5.324   6.366  10.832
 8621TIP3   OH250057   5.886   6.233  10.883
 8621TIP3    H150058   5.962   6.294  10.837
 8621TIP3    H250059   5.796   6.262  10.836
 8622TIP3   OH250060   6.071   6.369  10.720
 8622TIP3    H150061   6.139   6.303  10.673
 8622TIP3    H250062   6.137   6.454  10.736
 8623TIP3   OH250063   4.474   6.272  10.696
 8623TIP3    H150064   4.379   6.270  10.650
 8623TIP3    H250065   4.514   6.176  10.669
 8624TIP3   OH250066   4.335   6.261  10.254
 8624TIP3    H150067   4.399   6.334  10.208
 8624TIP3    H250068   4.292   6.321  10.325
 8625TIP3   OH250069   4.938   6.244  10.675
 8625TIP3    H150070   5.029   6.259  10.628
 8625TIP3    H250071   4.947   6.307  10.752
 8626TIP3   OH250072   5.614   6.288  10.778
 8626TIP3    H150073   5.556   6.298  10.698
 8626TIP3    H250074   5.563   6.207  10.824
 8627TIP3   OH250075   5.760   6.272  10.399
 8627TIP3    H150076   5.672   6.332  10.385
 8627TIP3    H250077   5.721   6.195  10.458
 8628TIP3   OH250078   4.324   8.019  10.376
 8628TIP3    H150079   4.222   8.008  10.353
 8628TIP3    H250080   4.349   8.111  10.331
 8629TIP3   OH250081   4.519   6.422  10.114
 8629TIP3    H150082   4.601   6.355  10.100
 8629TIP3    H250083   4.565   6.513  10.140
 8630TIP3   OH250084   5.130   6.497  10.337
 8630TIP3    H150085   5.166   6.433  10.408
 8630TIP3    H250086   5.133   6.591  10.384
 8631TIP3   OH250087   5.316   8.186  10.165
 8631TIP3    H150088   5.424   8.188  10.177
 8631TIP3    H250089   5.312   8.135  10.079
 8632TIP3   OH250090   6.035   8.092  10.472
 8632TIP3    H150091   6.013   7.993  10.436
 8632TIP3    H250092   6.026   8.152  10.391
 8633TIP3   OH250093   4.447   6.373  11.633
 8633TIP3    H150094   4.392   6.281  11.635
 8633TIP3    H250095   4.520   6.354  11.704
 8634TIP3   OH250096   4.657   6.288  11.813
 8634TIP3    H150097   4.760   6.271  11.789
 8634TIP3    H250098   4.630   6.189  11.845
 8635TIP3   OH250099   4.568   8.210  10.067
 8635TIP3    H150100   4.501   8.222  10.142
 8635TIP3    H250101   4.624   8.127  10.101
 8636TIP3   OH250102   5.595   6.207  11.795
 8636TIP3    H150103   5.600   6.151  11.879
 8636TIP3    H250104   5.698   6.206  11.770
 8637TIP3   OH250105   5.933   7.979  11.671
 8637TIP3    H150106   5.875   7.986  11.588
 8637TIP3    H250107   5.972   8.078  11.674
 8638TIP3   OH250108   7.548   7.308  10.674
 8638TIP3    H150109   7.525   7.402  10.717
 8638TIP3    H250110   7.472   7.306  10.606
 8639TIP3   OH250111   7.400   7.182  10.997
 8639TIP3    H150112   7.426   7.137  11.083
 8639TIP3    H250113   7.316   7.121  10.968
 8640TIP3   OH250114   6.553   7.174  11.146
 8640TIP3    H150115   6.574   7.095  11.208
 8640TIP3    H250116   6.619   7.249  11.179
 8641TIP3   OH250117   7.831   7.547  10.877
 8641TIP3    H150118   7.816   7.458  10.930
 8641TIP3    H250119   7.819   7.621  10.945
 8642TIP3   OH250120   6.673   7.685  10.997
 8642TIP3    H150121   6.640   7.587  10.968
 8642TIP3    H250122   6.778   7.666  10.989
 8643TIP3   OH250123   6.310   6.959  10.558
 8643TIP3    H150124   6.268   7.055  10.577
 8643TIP3    H250125   6.255   6.931  10.479
 8644TIP3   OH250126   6.367   7.216  10.813
 8644TIP3    H150127   6.405   7.116  10.827
 8644TIP3    H250128   6.436   7.260  10.751
 8645TIP3   OH250129   7.489   8.111  10.891
 8645TIP3    H150130   7.559   8.053  10.837
 8645TIP3    H250131   7.456   8.033  10.949
 8646TIP3   OH250132   7.238   7.482  11.078
 8646TIP3    H150133   7.272   7.405  11.019
 8646TIP3    H250134   7.330   7.512  11.122
 8647TIP3   OH250135   8.163   6.610  11.072
 8647TIP3    H150136   8.192   6.654  11.157
 8647TIP3    H250137   8.253   6.620  11.020
 8648TIP3   OH250138   7.602   6.860  11.106
 8648TIP3    H150139   7.655   6.769  11.126
 8648TIP3    H250140   7.590   6.847  11.010
 8649TIP3   OH250141   6.837   6.636  10.776
 8649TIP3    H150142   6.851   6.724  10.720
 8649TIP3    H250143   6.787   6.573  10.711
 8650TIP3   OH250144   7.701   6.662  10.632
 8650TIP3    H150145   7.760   6.644  10.714
 8650TIP3    H250146   7.753   6.744  10.593
 8651TIP3   OH250147   6.441   6.937  10.876
 8651TIP3    H150148   6.514   6.889  10.932
 8651TIP3    H250149   6.469   6.897  10.789
 8652TIP3   OH250150   7.010   7.087  10.824
 8652TIP3    H150151   7.087   7.021  10.856
 8652TIP3    H250152   6.967   7.027  10.754
 8653TIP3   OH250153   8.192   6.677  11.352
 8653TIP3    H150154   8.139   6.768  11.332
 8653TIP3    H250155   8.251   6.706  11.428
 8654TIP3   OH250156   6.723   6.542  11.208
 8654TIP3    H150157   6.681   6.601  11.136
 8654TIP3    H250158   6.654   6.566  11.280
 8655TIP3   OH250159   7.472   7.593  10.546
 8655TIP3    H150160   7.461   7.601  10.448
 8655TIP3    H250161   7.442   7.690  10.573
 8656TIP3   OH250162   6.973   7.390  11.183
 8656TIP3    H150163   6.919   7.472  11.221
 8656TIP3    H250164   7.053   7.442  11.137
 8657TIP3   OH250165   7.857   6.635  10.862
 8657TIP3    H150166   7.823   6.552  10.914
 8657TIP3    H250167   7.946   6.665  10.909
 8658TIP3   OH250168   6.675   6.755  10.999
 8658TIP3    H150169   6.744   6.826  11.040
 8658TIP3    H250170   6.732   6.723  10.920
 8659TIP3   OH250171   6.838   7.622  11.302
 8659TIP3    H150172   6.822   7.721  11.266
 8659TIP3    H250173   6.741   7.604  11.344
 8660TIP3   OH250174   6.369   7.545  10.379
 8660TIP3    H150175   6.373   7.610  10.300
 8660TIP3    H250176   6.380   7.616  10.452
 8661TIP3   OH250177   7.874   7.798  11.108
 8661TIP3    H150178   7.766   7.798  11.100
 8661TIP3    H250179   7.893   7.899  11.078
 8662TIP3   OH250180   7.915   6.508  11.183
 8662TIP3    H150181   7.825   6.515  11.128
 8662TIP3    H250182   7.986   6.564  11.130
 8663TIP3   OH250183   7.112   6.266  10.929
 8663TIP3    H150184   7.083   6.166  10.948
 8663TIP3    H250185   7.019   6.316  10.957
 8664TIP3   OH250186   7.676   7.952  10.746
 8664TIP3    H150187   7.710   7.857  10.708
 8664TIP3    H250188   7.758   8.015  10.720
 8665TIP3   OH250189   7.779   7.707  10.619
 8665TIP3    H150190   7.773   7.636  10.546
 8665TIP3    H250191   7.817   7.645  10.692
 8666TIP3   OH250192   7.963   7.550  11.442
 8666TIP3    H150193   7.975   7.479  11.369
 8666TIP3    H250194   7.987   7.641  11.395
 8667TIP3   OH250195   7.390   7.234  10.414
 8667TIP3    H150196   7.346   7.330  10.397
 8667TIP3    H250197   7.478   7.237  10.360
 8668TIP3   OH250198   7.435   7.086  10.116
 8668TIP3    H150199   7.512   7.122  10.178
 8668TIP3    H250200   7.477   6.989  10.095
 8669TIP3   OH250201   8.154   7.141  11.226
 8669TIP3    H150202   8.087   7.222  11.202
 8669TIP3    H250203   8.237   7.165  11.165
 8670TIP3   OH250204   7.791   7.258  10.518
 8670TIP3    H150205   7.710   7.289  10.577
 8670TIP3    H250206   7.852   7.203  10.583
 8671TIP3   OH250207   7.760   7.047  11.407
 8671TIP3    H150208   7.728   7.127  11.464
 8671TIP3    H250209   7.693   7.060  11.331
 8672TIP3   OH250210   6.837   7.308  10.698
 8672TIP3    H150211   6.804   7.288  10.606
 8672TIP3    H250212   6.907   7.227  10.714
 8673TIP3   OH250213   6.995   7.680  10.959
 8673TIP3    H150214   7.007   7.681  10.862
 8673TIP3    H250215   7.083   7.628  10.990
 8674TIP3   OH250216   6.870   7.157  11.063
 8674TIP3    H150217   6.916   7.157  10.975
 8674TIP3    H250218   6.921   7.237  11.109
 8675TIP3   OH250219   7.578   7.797  11.132
 8675TIP3    H150220   7.541   7.871  11.194
 8675TIP3    H250221   7.562   7.708  11.185
 8676TIP3   OH250222   7.011   7.665  11.531
 8676TIP3    H150223   6.940   7.732  11.572
 8676TIP3    H250224   6.970   7.654  11.441
 8677TIP3   OH250225   7.644   7.180  10.283
 8677TIP3    H150226   7.703   7.204  10.362
 8677TIP3    H250227   7.702   7.229  10.213
 8678TIP3   OH250228   6.674   7.239  11.427
 8678TIP3    H150229   6.686   7.338  11.462
 8678TIP3    H250230   6.597   7.202  11.486
 8679TIP3   OH250231   7.391   7.909  10.553
 8679TIP3    H150232   7.433   7.916  10.641
 8679TIP3    H250233   7.321   7.989  10.553
 8680TIP3   OH250234   6.788   7.863  11.595
 8680TIP3    H150235   6.777   7.869  11.498
 8680TIP3    H250236   6.696   7.818  11.624
 8681TIP3   OH250237   8.050   6.214  10.226
 8681TIP3    H150238   7.943   6.226  10.238
 8681TIP3    H250239   8.086   6.305  10.262
 8682TIP3   OH250240   6.733   7.190  10.462
 8682TIP3    H150241   6.694   7.273  10.412
 8682TIP3    H250242   6.685   7.107  10.419
 8683TIP3   OH250243   8.184   7.796  10.152
 8683TIP3    H150244   8.186   7.905  10.154
 8683TIP3    H250245   8.286   7.781  10.125
 8684TIP3   OH250246   6.335   7.487  11.352
 8684TIP3    H150247   6.280   7.482  11.269
 8684TIP3    H250248   6.376   7.385  11.353
 8685TIP3   OH250249   6.314   7.759  10.995
 8685TIP3    H150250   6.420   7.751  11.000
 8685TIP3    H250251   6.299   7.849  11.045
 8686TIP3   OH250252   8.276   7.843  11.584
 8686TIP3    H150253   8.258   7.737  11.582
 8686TIP3    H250254   8.194   7.874  11.640
 8687TIP3   OH250255   7.292   7.791  11.452
 8687TIP3    H150256   7.306   7.878  11.509
 8687TIP3    H250257   7.200   7.752  11.484
 8688TIP3   OH250258   7.372   8.239  10.470
 8688TIP3    H150259   7.355   8.245  10.375
 8688TIP3    H250260   7.325   8.328  10.502
 8689TIP3   OH250261   6.654   8.033  10.658
 8689TIP3    H150262   6.694   8.042  10.749
 8689TIP3    H250263   6.578   7.960  10.675
 8690TIP3   OH250264   7.654   8.169  10.204
 8690TIP3    H150265   7.696   8.105  10.134
 8690TIP3    H250266   7.677   8.110  10.284
 8691TIP3   OH250267   7.640   8.101  10.460
 8691TIP3    H150268   7.537   8.132  10.476
 8691TIP3    H250269   7.655   8.026  10.527
 8692TIP3   OH250270   7.961   6.921  11.622
 8692TIP3    H150271   7.894   6.944  11.550
 8692TIP3    H250272   7.981   6.817  11.608
 8693TIP3   OH250273   6.582   7.611  11.441
 8693TIP3    H150274   6.575   7.571  11.532
 8693TIP3    H250275   6.483   7.590  11.407
 8694TIP3   OH250276   6.864   6.378  11.021
 8694TIP3    H150277   6.769   6.368  10.979
 8694TIP3    H250278   6.834   6.433  11.101
 8695TIP3   OH250279   7.395   6.302  11.354
 8695TIP3    H150280   7.429   6.250  11.434
 8695TIP3    H250281   7.286   6.302  11.361
 8696TIP3   OH250282   7.722   6.714  11.446
 8696TIP3    H150283   7.673   6.684  11.528
 8696TIP3    H250284   7.721   6.821  11.456
 8697TIP3   OH250285   7.812   7.301  10.107
 8697TIP3    H150286   7.768   7.317  10.018
 8697TIP3    H250287   7.910   7.339  10.092
 8698TIP3   OH250288   7.345   6.615  10.124
 8698TIP3    H150289   7.300   6.579  10.208
 8698TIP3    H250290   7.275   6.576  10.062
 8699TIP3   OH250291   6.876   6.890  11.163
 8699TIP3    H150292   6.785   6.891  11.217
 8699TIP3    H250293   6.874   6.992  11.128
 8700TIP3   OH250294   6.859   6.875  10.631
 8700TIP3    H150295   6.754   6.895  10.617
 8700TIP3    H250296   6.896   6.851  10.541
 8701TIP3   OH250297   7.505   7.011  10.557
 8701TIP3    H150298   7.453   7.088  10.507
 8701TIP3    H250299   7.560   6.966  10.484
 8702TIP3   OH250300   7.333   6.981  11.658
 8702TIP3    H150301   7.289   6.891  11.696
 8702TIP3    H250302   7.421   6.989  11.715
 8703TIP3   OH250303   7.583   6.943  10.818
 8703TIP3    H150304   7.565   7.040  10.778
 8703TIP3    H250305   7.582   6.887  10.735
 8704TIP3   OH250306   6.613   6.895  11.289
 8704TIP3    H150307   6.636   6.939  11.374
 8704TIP3    H250308   6.567   6.802  11.318
 8705TIP3   OH250309   6.978   6.659  10.045
 8705TIP3    H150310   6.925   6.614  10.119
 8705TIP3    H250311   6.911   6.654   9.971
 8706TIP3   OH250312   6.253   6.598  10.748
 8706TIP3    H150313   6.323   6.613  10.820
 8706TIP3    H250314   6.304   6.637  10.671
 8707TIP3   OH250315   6.375   6.678  10.267
 8707TIP3    H150316   6.459   6.732  10.230
 8707TIP3    H250317   6.307   6.762  10.281
 8708TIP3   OH250318   7.498   7.099  11.235
 8708TIP3    H150319   7.548   7.019  11.187
 8708TIP3    H250320   7.438   7.041  11.297
 8709TIP3   OH250321   7.156   6.625  10.760
 8709TIP3    H150322   7.051   6.628  10.780
 8709TIP3    H250323   7.198   6.576  10.837
 8710TIP3   OH250324   6.550   6.813  10.646
 8710TIP3    H150325   6.472   6.850  10.587
 8710TIP3    H250326   6.579   6.717  10.612
 8711TIP3   OH250327   6.995   6.826  10.391
 8711TIP3    H150328   7.096   6.857  10.390
 8711TIP3    H250329   6.945   6.895  10.330
 8712TIP3   OH250330   7.641   6.546  11.050
 8712TIP3    H150331   7.569   6.540  11.123
 8712TIP3    H250332   7.576   6.530  10.973
 8713TIP3   OH250333   6.829   6.965  10.205
 8713TIP3    H150334   6.736   6.939  10.164
 8713TIP3    H250335   6.897   6.961  10.130
 8714TIP3   OH250336   7.966   8.261  11.706
 8714TIP3    H150337   8.017   8.284  11.622
 8714TIP3    H250338   8.039   8.292  11.771
 8715TIP3   OH250339   6.603   7.429  11.676
 8715TIP3    H150340   6.677   7.461  11.741
 8715TIP3    H250341   6.516   7.413  11.732
 8716TIP3   OH250342   7.262   6.923  10.929
 8716TIP3    H150343   7.352   6.910  10.878
 8716TIP3    H250344   7.258   6.832  10.978
 8717TIP3   OH250345   6.668   6.508  10.586
 8717TIP3    H150346   6.597   6.443  10.630
 8717TIP3    H250347   6.712   6.436  10.525
 8718TIP3   OH250348   7.120   6.740  11.175
 8718TIP3    H150349   7.032   6.802  11.171
 8718TIP3    H250350   7.190   6.805  11.219
 8719TIP3   OH250351   7.198   7.470  10.365
 8719TIP3    H150352   7.120   7.406  10.331
 8719TIP3    H250353   7.158   7.493  10.454
 8720TIP3   OH250354   7.977   7.379  11.226
 8720TIP3    H150355   8.027   7.424  11.150
 8720TIP3    H250356   7.882   7.359  11.189
 8721TIP3   OH250357   7.622   6.668  10.183
 8721TIP3    H150358   7.515   6.656  10.168
 8721TIP3    H250359   7.624   6.769  10.216
 8722TIP3   OH250360   7.312   7.472  11.508
 8722TIP3    H150361   7.324   7.442  11.601
 8722TIP3    H250362   7.332   7.577  11.512
 8723TIP3   OH250363   7.679   6.897  10.341
 8723TIP3    H150364   7.777   6.865  10.368
 8723TIP3    H250365   7.698   6.997  10.308
 8724TIP3   OH250366   6.676   7.405  10.919
 8724TIP3    H150367   6.736   7.382  10.840
 8724TIP3    H250368   6.686   7.317  10.973
 8725TIP3   OH250369   7.446   7.620  10.271
 8725TIP3    H150370   7.414   7.723  10.280
 8725TIP3    H250371   7.353   7.566  10.279
 8726TIP3   OH250372   6.338   7.194  11.451
 8726TIP3    H150373   6.321   7.135  11.530
 8726TIP3    H250374   6.273   7.148  11.384
 8727TIP3   OH250375   7.088   7.145  11.648
 8727TIP3    H150376   7.044   7.082  11.581
 8727TIP3    H250377   7.187   7.101  11.652
 8728TIP3   OH250378   7.633   7.731  11.501
 8728TIP3    H150379   7.544   7.757  11.456
 8728TIP3    H250380   7.615   7.776  11.589
 8729TIP3   OH250381   8.216   6.851  10.319
 8729TIP3    H150382   8.136   6.839  10.254
 8729TIP3    H250383   8.259   6.938  10.278
 8730TIP3   OH250384   8.215   7.534  11.565
 8730TIP3    H150385   8.109   7.558  11.554
 8730TIP3    H250386   8.246   7.524  11.471
 8731TIP3   OH250387   8.035   7.844  10.376
 8731TIP3    H150388   7.957   7.773  10.388
 8731TIP3    H250389   8.086   7.807  10.297
 8732TIP3   OH250390   7.754   7.316  11.033
 8732TIP3    H150391   7.652   7.305  11.007
 8732TIP3    H250392   7.792   7.229  10.986
 8733TIP3   OH250393   6.905   7.755  10.691
 8733TIP3    H150394   6.943   7.853  10.671
 8733TIP3    H250395   6.818   7.756  10.635
 8734TIP3   OH250396   6.475   7.188  10.085
 8734TIP3    H150397   6.530   7.253  10.146
 8734TIP3    H250398   6.378   7.190  10.128
 8735TIP3   OH250399   7.069   7.512  10.616
 8735TIP3    H150400   7.018   7.603  10.638
 8735TIP3    H250401   7.025   7.443  10.678
 8736TIP3   OH250402   7.121   7.982  11.274
 8736TIP3    H150403   7.172   8.076  11.267
 8736TIP3    H250404   7.205   7.919  11.296
 8737TIP3   OH250405   6.938   8.034  10.569
 8737TIP3    H150406   6.834   8.054  10.590
 8737TIP3    H250407   6.988   8.122  10.604
 8738TIP3   OH250408   7.475   7.516  11.236
 8738TIP3    H150409   7.422   7.504  11.321
 8738TIP3    H250410   7.514   7.417  11.224
 8739TIP3   OH250411   7.769   7.666  10.126
 8739TIP3    H150412   7.812   7.613  10.203
 8739TIP3    H250413   7.666   7.648  10.147
 8740TIP3   OH250414   7.795   8.035  11.476
 8740TIP3    H150415   7.722   7.964  11.444
 8740TIP3    H250416   7.814   8.103  11.402
 8741TIP3   OH250417   8.252   8.082  10.126
 8741TIP3    H150418   8.318   8.162  10.106
 8741TIP3    H250419   8.170   8.138  10.165
 8742TIP3   OH250420   6.526   6.631  11.403
 8742TIP3    H150421   6.430   6.675  11.412
 8742TIP3    H250422   6.527   6.555  11.471
 8743TIP3   OH250423   7.883   7.506  10.322
 8743TIP3    H150424   7.832   7.424  10.365
 8743TIP3    H250425   7.986   7.476  10.331
 8744TIP3   OH250426   6.488   7.900  11.265
 8744TIP3    H150427   6.544   7.810  11.261
 8744TIP3    H250428   6.547   7.957  11.327
 8745TIP3   OH250429   6.970   7.698  10.229
 8745TIP3    H150430   7.056   7.648  10.262
 8745TIP3    H250431   6.989   7.800  10.257
 8746TIP3   OH250432   6.603   7.383  10.278
 8746TIP3    H150433   6.516   7.433  10.315
 8746TIP3    H250434   6.655   7.469  10.239
 8747TIP3   OH250435   7.460   6.615  11.341
 8747TIP3    H150436   7.562   6.631  11.367
 8747TIP3    H250437   7.436   6.522  11.382
 8748TIP3   OH250438   7.547   6.530  10.430
 8748TIP3    H150439   7.578   6.589  10.354
 8748TIP3    H250440   7.612   6.567  10.500
 8749TIP3   OH250441   7.313   7.895  10.244
 8749TIP3    H150442   7.224   7.911  10.296
 8749TIP3    H250443   7.355   7.993  10.246
 8750TIP3   OH250444   7.289   6.742  10.544
 8750TIP3    H150445   7.327   6.841  10.552
 8750TIP3    H250446   7.251   6.718  10.633
 8751TIP3   OH250447   7.351   6.893  11.398
 8751TIP3    H150448   7.341   6.910  11.495
 8751TIP3    H250449   7.400   6.796  11.391
 8752TIP3   OH250450   7.327   6.399  10.571
 8752TIP3    H150451   7.272   6.483  10.605
 8752TIP3    H250452   7.416   6.447  10.536
 8753TIP3   OH250453   7.013   7.986  10.301
 8753TIP3    H150454   7.038   8.077  10.258
 8753TIP3    H250455   6.961   8.019  10.382
 8754TIP3   OH250456   6.850   6.544  10.290
 8754TIP3    H150457   6.851   6.639  10.335
 8754TIP3    H250458   6.951   6.513  10.307
 8755TIP3   OH250459   7.978   6.602  11.530
 8755TIP3    H150460   7.885   6.622  11.485
 8755TIP3    H250461   8.048   6.624  11.457
 8756TIP3   OH250462   7.831   7.075  10.901
 8756TIP3    H150463   7.744   7.011  10.893
 8756TIP3    H250464   7.895   7.005  10.949
 8757TIP3   OH250465   6.673   7.662  10.166
 8757TIP3    H150466   6.765   7.701  10.201
 8757TIP3    H250467   6.698   7.648  10.073
 8758TIP3   OH250468   6.499   6.884  10.123
 8758TIP3    H150469   6.497   6.990  10.123
 8758TIP3    H250470   6.426   6.863  10.053
 8759TIP3   OH250471   7.993   8.081  11.083
 8759TIP3    H150472   7.967   8.139  11.003
 8759TIP3    H250473   8.099   8.080  11.074
 8760TIP3   OH250474   6.574   6.313  10.967
 8760TIP3    H150475   6.565   6.299  10.870
 8760TIP3    H250476   6.546   6.213  10.997
 8761TIP3   OH250477   6.437   7.808  10.550
 8761TIP3    H150478   6.346   7.858  10.567
 8761TIP3    H250479   6.470   7.869  10.475
 8762TIP3   OH250480   6.376   8.153  11.698
 8762TIP3    H150481   6.477   8.152  11.728
 8762TIP3    H250482   6.349   8.050  11.699
 8763TIP3   OH250483   6.905   7.977  11.857
 8763TIP3    H150484   7.009   7.956  11.857
 8763TIP3    H250485   6.881   7.957  11.765
 8764TIP3   OH250486   7.355   7.912  19.947
 8764TIP3    H150487   7.258   7.885  19.979
 8764TIP3    H250488   7.418   7.873  20.014
 8765TIP3   OH250489   7.596   7.856  11.747
 8765TIP3    H150490   7.551   7.762  11.771
 8765TIP3    H250491   7.684   7.857  11.803
 8766TIP3   OH250492   7.753   7.951  10.059
 8766TIP3    H150493   7.779   7.857  10.102
 8766TIP3    H250494   7.845   7.996  10.030
 8767TIP3   OH250495   6.325   7.446  11.796
 8767TIP3    H150496   6.292   7.344  11.788
 8767TIP3    H250497   6.285   7.489  11.714
 8768TIP3   OH250498   6.898   7.403  10.050
 8768TIP3    H150499   6.906   7.355  10.138
 8768TIP3    H250500   6.984   7.466  10.058
 8769TIP3   OH250501   7.094   7.438  11.717
 8769TIP3    H150502   7.086   7.499  11.636
 8769TIP3    H250503   7.096   7.337  11.680
 8770TIP3   OH250504   7.711   7.423  11.495
 8770TIP3    H150505   7.812   7.465  11.492
 8770TIP3    H250506   7.659   7.514  11.511
 8771TIP3   OH250507   6.477   7.137  11.747
 8771TIP3    H150508   6.542   7.054  11.749
 8771TIP3    H250509   6.509   7.193  11.825
 8772TIP3   OH250510   6.988   7.269  10.269
 8772TIP3    H150511   6.906   7.213  10.307
 8772TIP3    H250512   7.027   7.202  10.201
 8773TIP3   OH250513   6.879   7.030  11.434
 8773TIP3    H150514   6.812   7.114  11.422
 8773TIP3    H250515   6.963   7.069  11.385
 8774TIP3   OH250516   7.125   7.087  10.074
 8774TIP3    H150517   7.132   7.074   9.979
 8774TIP3    H250518   7.227   7.079  10.106
 8775TIP3   OH250519   7.478   7.328  11.798
 8775TIP3    H150520   7.568   7.284  11.766
 8775TIP3    H250521   7.435   7.248  11.849
 8776TIP3   OH250522   8.075   7.365  19.974
 8776TIP3    H150523   8.063   7.259  19.963
 8776TIP3    H250524   8.162   7.378  19.916
 8777TIP3   OH250525   6.953   6.762  11.532
 8777TIP3    H150526   6.962   6.689  11.459
 8777TIP3    H250527   6.922   6.851  11.483
 8778TIP3   OH250528   6.983   6.549  11.334
 8778TIP3    H150529   7.047   6.604  11.272
 8778TIP3    H250530   6.893   6.538  11.282
 8779TIP3   OH250531   7.121   7.196  11.338
 8779TIP3    H150532   7.216   7.241  11.321
 8779TIP3    H250533   7.058   7.271  11.299
 8780TIP3   OH250534   7.562   6.927  11.819
 8780TIP3    H150535   7.572   6.826  11.792
 8780TIP3    H250536   7.660   6.949  11.856
 8781TIP3   OH250537   7.769   7.252  11.703
 8781TIP3    H150538   7.752   7.311  11.621
 8781TIP3    H250539   7.866   7.213  11.682
 8782TIP3   OH250540   6.794   6.852  11.755
 8782TIP3    H150541   6.699   6.808  11.730
 8782TIP3    H250542   6.855   6.828  11.677
 8783TIP3   OH250543   7.099   6.279  11.329
 8783TIP3    H150544   7.064   6.380  11.336
 8783TIP3    H250545   7.007   6.229  11.311
 8784TIP3   OH250546   7.196   6.734  11.745
 8784TIP3    H150547   7.126   6.707  11.815
 8784TIP3    H250548   7.131   6.731  11.667
 8785TIP3   OH250549   7.520   6.650  11.646
 8785TIP3    H150550   7.414   6.655  11.656
 8785TIP3    H250551   7.547   6.592  11.725
 8786TIP3   OH250552   7.669   6.507  11.833
 8786TIP3    H150553   7.671   6.398  11.834
 8786TIP3    H250554   7.662   6.531  11.928
 8787TIP3   OH250555   6.556   6.650  11.762
 8787TIP3    H150556   6.541   6.559  11.712
 8787TIP3    H250557   6.527   6.619  11.854
 8788TIP3   OH250558   7.077   6.252  11.637
 8788TIP3    H150559   7.168   6.196  11.641
 8788TIP3    H250560   7.062   6.252  11.541
 8789TIP3   OH250561   7.114   6.385  11.880
 8789TIP3    H150562   7.092   6.333  11.796
 8789TIP3    H250563   7.048   6.470  11.871
 8790TIP3   OH250564   7.073   8.250  10.153
 8790TIP3    H150565   7.173   8.265  10.183
 8790TIP3    H250566   7.085   8.263  10.056
 8791TIP3   OH250567   6.373   7.667  10.134
 8791TIP3    H150568   6.482   7.668  10.143
 8791TIP3    H250569   6.359   7.637  10.042
 8792TIP3   OH250570   6.232   8.251  10.603
 8792TIP3    H150571   6.149   8.199  10.560
 8792TIP3    H250572   6.243   8.188  10.681
 8793TIP3   OH250573   6.331   8.021  10.806
 8793TIP3    H150574   6.251   7.960  10.840
 8793TIP3    H250575   6.395   8.030  10.884
 8794TIP3   OH250576   8.327   8.125  11.063
 8794TIP3    H150577   8.330   8.156  11.156
 8794TIP3    H250578   8.301   8.217  11.023
 8795TIP3   OH250579   8.195   8.049  11.402
 8795TIP3    H150580   8.160   7.975  11.339
 8795TIP3    H250581   8.247   7.982  11.464
 8796TIP3   OH250582   7.999   7.621  11.840
 8796TIP3    H150583   7.917   7.622  11.905
 8796TIP3    H250584   8.062   7.700  11.873
 8797TIP3   OH250585   8.174   7.415  10.375
 8797TIP3    H150586   8.253   7.480  10.401
 8797TIP3    H250587   8.186   7.337  10.441
 8798TIP3   OH250588   8.217   7.210  10.570
 8798TIP3    H150589   8.113   7.184  10.576
 8798TIP3    H250590   8.247   7.195  10.662
 8799TIP3   OH250591   8.196   7.482  11.085
 8799TIP3    H150592   8.269   7.433  11.030
 8799TIP3    H250593   8.199   7.582  11.046
 8800TIP3   OH250594   8.052   7.812  11.315
 8800TIP3    H150595   7.975   7.866  11.360
 8800TIP3    H250596   8.005   7.795  11.228
 8801TIP3   OH250597   8.234   7.208  10.184
 8801TIP3    H150598   8.141   7.240  10.148
 8801TIP3    H250599   8.243   7.281  10.255
 8802TIP3   OH250600   8.055   6.860  10.104
 8802TIP3    H150601   8.111   6.910  10.034
 8802TIP3    H250602   8.048   6.764  10.061
 8803TIP3   OH250603   7.972   7.076  10.661
 8803TIP3    H150604   7.944   6.978  10.630
 8803TIP3    H250605   7.939   7.075  10.755
 8804TIP3   OH250606   6.321   7.313  11.065
 8804TIP3    H150607   6.331   7.276  10.971
 8804TIP3    H250608   6.416   7.281  11.099
 8805TIP3   OH250609   8.074   7.252  11.605
 8805TIP3    H150610   8.163   7.193  11.592
 8805TIP3    H250611   8.115   7.351  11.597
 8806TIP3   OH250612   8.246   7.031  11.675
 8806TIP3    H150613   8.139   7.015  11.678
 8806TIP3    H250614   8.278   6.930  11.693
 8807TIP3   OH250615   7.985   6.625   9.964
 8807TIP3    H150616   8.047   6.553  10.008
 8807TIP3    H250617   7.890   6.614  10.009
 8808TIP3   OH250618   7.939   6.813  10.477
 8808TIP3    H150619   7.940   6.707  10.496
 8808TIP3    H250620   8.042   6.832  10.460
 8809TIP3   OH250621   7.968   6.871  11.030
 8809TIP3    H150622   8.075   6.857  11.015
 8809TIP3    H250623   7.965   6.852  11.126
 8810TIP3   OH250624   8.005   6.909  11.316
 8810TIP3    H150625   7.913   6.962  11.337
 8810TIP3    H250626   8.063   6.994  11.285
 8811TIP3   OH250627   6.311   6.757  11.668
 8811TIP3    H150628   6.410   6.736  11.703
 8811TIP3    H250629   6.265   6.658  11.669
 8812TIP3   OH250630   8.261   6.214  11.825
 8812TIP3    H150631   8.311   6.155  11.759
 8812TIP3    H250632   8.255   6.309  11.778
 8813TIP3   OH250633   7.987   6.521  10.503
 8813TIP3    H150634   8.020   6.484  10.591
 8813TIP3    H250635   7.934   6.435  10.470
 8814TIP3   OH250636   6.426   6.578  11.014
 8814TIP3    H150637   6.469   6.478  11.008
 8814TIP3    H250638   6.512   6.640  10.996
 8815TIP3   OH250639   6.256   6.916  11.072
 8815TIP3    H150640   6.315   6.898  10.993
 8815TIP3    H250641   6.304   7.004  11.104
 8816TIP3   OH250642   8.218   6.476  11.711
 8816TIP3    H150643   8.120   6.509  11.743
 8816TIP3    H250644   8.186   6.457  11.619
 8817TIP3   OH250645   8.271   6.499  10.136
 8817TIP3    H150646   8.304   6.406  10.098
 8817TIP3    H250647   8.324   6.575  10.086
 8818TIP3   OH250648   6.275   6.492  10.458
 8818TIP3    H150649   6.176   6.526  10.475
 8818TIP3    H250650   6.296   6.536  10.371
 8819TIP3   OH250651   7.868   8.129  10.634
 8819TIP3    H150652   7.944   8.131  10.563
 8819TIP3    H250653   7.927   8.160  10.711
 8820TIP3   OH250654   6.282   6.336  11.298
 8820TIP3    H150655   6.203   6.305  11.358
 8820TIP3    H250656   6.233   6.404  11.237
 8821TIP3   OH250657   6.523   7.772  11.686
 8821TIP3    H150658   6.431   7.772  11.636
 8821TIP3    H250659   6.490   7.780  11.777
 8822TIP3   OH250660   6.835   7.925  11.332
 8822TIP3    H150661   6.822   8.033  11.323
 8822TIP3    H250662   6.942   7.925  11.330
 8823TIP3   OH250663   7.341   8.039  11.603
 8823TIP3    H150664   7.326   8.017  11.698
 8823TIP3    H250665   7.424   8.109  11.608
 8824TIP3   OH250666   7.585   8.237  11.567
 8824TIP3    H150667   7.652   8.159  11.543
 8824TIP3    H250668   7.613   8.253  11.660
 8825TIP3   OH250669   8.077   6.289  11.490
 8825TIP3    H150670   7.989   6.329  11.450
 8825TIP3    H250671   8.084   6.193  11.446
 8826TIP3   OH250672   6.530   8.294  11.315
 8826TIP3    H150673   6.427   8.287  11.284
 8826TIP3    H250674   6.518   8.313  11.410
 8827TIP3   OH250675   6.811   8.209  11.279
 8827TIP3    H150676   6.711   8.246  11.303
 8827TIP3    H250677   6.815   8.236  11.185
 8828TIP3   OH250678   7.350   8.194  11.156
 8828TIP3    H150679   7.270   8.212  11.091
 8828TIP3    H250680   7.350   8.288  11.202
 8829TIP3   OH250681   7.545   8.028  11.298
 8829TIP3    H150682   7.470   8.082  11.246
 8829TIP3    H250683   7.627   8.092  11.283
 8830TIP3   OH250684   7.845   8.270  11.259
 8830TIP3    H150685   7.825   8.364  11.218
 8830TIP3    H250686   7.898   8.215  11.189
 8831TIP3   OH250687   6.504   8.048  11.026
 8831TIP3    H150688   6.503   7.991  11.110
 8831TIP3    H250689   6.597   8.016  10.983
 8832TIP3   OH250690   6.744   7.976  10.899
 8832TIP3    H150691   6.734   7.869  10.912
 8832TIP3    H250692   6.832   7.995  10.954
 8833TIP3   OH250693   6.988   7.977  11.034
 8833TIP3    H150694   7.017   7.874  11.019
 8833TIP3    H250695   7.020   7.993  11.127
 8834TIP3   OH250696   7.377   6.447  10.916
 8834TIP3    H150697   7.292   6.388  10.939
 8834TIP3    H250698   7.428   6.381  10.856
 8835TIP3   OH250699   7.927   6.227  10.903
 8835TIP3    H150700   7.983   6.298  10.849
 8835TIP3    H250701   7.826   6.255  10.873
 8836TIP3   OH250702   8.085   6.381  10.727
 8836TIP3    H150703   8.163   6.312  10.700
 8836TIP3    H250704   8.149   6.464  10.753
 8837TIP3   OH250705   6.538   6.260  10.692
 8837TIP3    H150706   6.448   6.248  10.642
 8837TIP3    H250707   6.591   6.168  10.671
 8838TIP3   OH250708   6.401   6.257  10.251
 8838TIP3    H150709   6.461   6.332  10.205
 8838TIP3    H250710   6.357   6.314  10.324
 8839TIP3   OH250711   7.011   6.235  10.657
 8839TIP3    H150712   7.102   6.266  10.616
 8839TIP3    H250713   7.030   6.257  10.750
 8840TIP3   OH250714   7.647   6.293  10.800
 8840TIP3    H150715   7.623   6.292  10.706
 8840TIP3    H250716   7.593   6.206  10.835
 8841TIP3   OH250717   7.813   6.268  10.404
 8841TIP3    H150718   7.729   6.332  10.411
 8841TIP3    H250719   7.773   6.172  10.434
 8842TIP3   OH250720   6.395   8.018  10.368
 8842TIP3    H150721   6.292   8.007  10.347
 8842TIP3    H250722   6.418   8.111  10.325
 8843TIP3   OH250723   6.600   6.407  10.111
 8843TIP3    H150724   6.686   6.346  10.123
 8843TIP3    H250725   6.631   6.499  10.152
 8844TIP3   OH250726   7.203   6.518  10.337
 8844TIP3    H150727   7.261   6.467  10.404
 8844TIP3    H250728   7.197   6.614  10.380
 8845TIP3   OH250729   7.371   8.191  10.163
 8845TIP3    H150730   7.480   8.188  10.170
 8845TIP3    H250731   7.358   8.137  10.079
 8846TIP3   OH250732   8.098   8.103  10.480
 8846TIP3    H150733   8.076   7.999  10.459
 8846TIP3    H250734   8.092   8.142  10.390
 8847TIP3   OH250735   6.512   6.369  11.637
 8847TIP3    H150736   6.455   6.278  11.636
 8847TIP3    H250737   6.591   6.345  11.699
 8848TIP3   OH250738   6.730   6.278  11.829
 8848TIP3    H150739   6.829   6.258  11.797
 8848TIP3    H250740   6.698   6.178  11.851
 8849TIP3   OH250741   6.635   8.219  10.071
 8849TIP3    H150742   6.565   8.221  10.145
 8849TIP3    H250743   6.696   8.138  10.100
 8850TIP3   OH250744   7.680   6.217  11.828
 8850TIP3    H150745   7.676   6.158  11.909
 8850TIP3    H250746   7.777   6.189  11.792
 8851TIP3   OH250747   8.012   7.954  11.678
 8851TIP3    H150748   7.946   7.989  11.608
 8851TIP3    H250749   8.054   8.047  11.708
 8852TIP3   OH250750   8.331   6.920  10.549
 8852TIP3    H150751   8.305   7.024  10.552
 8852TIP3    H250752   8.275   6.886  10.471
 8853TIP3   OH250753   8.320   7.427  11.334
 8853TIP3    H150754   8.273   7.435  11.246
 8853TIP3    H250755   8.300   7.326  11.362
 8854TIP3   OH250756   8.272   7.739  10.988
 8854TIP3    H150757   8.363   7.760  10.941
 8854TIP3    H250758   8.284   7.798  11.067
 8855TIP3   OH250759   8.297   6.587  10.721
 8855TIP3    H150760   8.391   6.639  10.732
 8855TIP3    H250761   8.290   6.587  10.625
 8856TIP3   OH250762   8.340   7.148  11.442
 8856TIP3    H150763   8.328   7.082  11.519
 8856TIP3    H250764   8.253   7.124  11.386
 8857TIP3   OH250765   8.358   7.393  11.765
 8857TIP3    H150766   8.293   7.313  11.790
 8857TIP3    H250767   8.311   7.436  11.686
 8858TIP3   OH250768   8.242   8.243  10.667
 8858TIP3    H150769   8.182   8.188  10.602
 8858TIP3    H250770   8.267   8.164  10.730
 8859TIP3   OH250771   8.306   7.986  10.813
 8859TIP3    H150772   8.220   7.939  10.853
 8859TIP3    H250773   8.370   7.999  10.891
 8860TIP3   OH250774   8.372   7.229  11.069
 8860TIP3    H150775   8.374   7.238  10.972
 8860TIP3    H250776   8.466   7.278  11.089
 8861TIP3   OH250777   8.291   6.749  11.648
 8861TIP3    H150778   8.396   6.740  11.631
 8861TIP3    H250779   8.272   6.664  11.707
 8862TIP3   OH250780   8.252   6.884  11.002
 8862TIP3    H150781   8.349   6.841  11.017
 8862TIP3    H250782   8.282   6.985  11.004
 8863TIP3   OH250783   8.262   6.518  10.416
 8863TIP3    H150784   8.160   6.546  10.432
 8863TIP3    H250785   8.268   6.522  10.318
 8864TIP3   OH250786   8.224   6.327  11.257
 8864TIP3    H150787   8.199   6.335  11.353
 8864TIP3    H250788   8.161   6.403  11.218
 8865TIP3   OH250789   0.908   8.275  11.012
 8865TIP3    H150790   0.913   8.203  10.939
 8865TIP3    H250791   0.800   8.280  11.027
 8866TIP3   OH250792   1.860   8.238  10.253
 8866TIP3    H150793   1.757   8.249  10.280
 8866TIP3    H250794   1.878   8.346  10.257
 8867TIP3   OH250795   0.636   8.372  11.043
 8867TIP3    H150796   0.534   8.367  11.011
 8867TIP3    H250797   0.652   8.479  11.024
 8868TIP3   OH250798   1.159   8.349  11.394
 8868TIP3    H150799   1.247   8.308  11.437
 8868TIP3    H250800   1.086   8.283  11.430
 8869TIP3   OH250801   0.360   8.346  10.938
 8869TIP3    H150802   0.350   8.347  10.840
 8869TIP3    H250803   0.297   8.262  10.962
 8870TIP3   OH250804   0.858   8.252  11.353
 8870TIP3    H150805   0.857   8.361  11.351
 8870TIP3    H250806   0.779   8.225  11.293
 8871TIP3   OH250807   0.829   8.224  11.614
 8871TIP3    H150808   0.924   8.196  11.650
 8871TIP3    H250809   0.847   8.212  11.518
 8872TIP3   OH250810   1.985   8.303  11.778
 8872TIP3    H150811   2.072   8.250  11.747
 8872TIP3    H250812   2.031   8.373  11.838
 8873TIP3   OH250813   0.083   8.387  11.264
 8873TIP3    H150814  -0.012   8.392  11.307
 8873TIP3    H250815   0.103   8.493  11.253
 8874TIP3   OH250816   1.851   8.309  11.445
 8874TIP3    H150817   1.779   8.298  11.373
 8874TIP3    H250818   1.885   8.207  11.456
 8875TIP3   OH250819   1.744   8.254  10.855
 8875TIP3    H150820   1.788   8.349  10.874
 8875TIP3    H250821   1.641   8.285  10.844
 8876TIP3   OH250822   0.314   8.317  10.654
 8876TIP3    H150823   0.223   8.293  10.605
 8876TIP3    H250824   0.370   8.226  10.639
 8877TIP3   OH250825   0.195   8.280  10.196
 8877TIP3    H150826   0.222   8.351  10.129
 8877TIP3    H250827   0.160   8.347  10.265
 8878TIP3   OH250828   0.832   8.275  10.687
 8878TIP3    H150829   0.864   8.357  10.631
 8878TIP3    H250830   0.755   8.325  10.737
 8879TIP3   OH250831   1.448   8.304  10.771
 8879TIP3    H150832   1.390   8.323  10.692
 8879TIP3    H250833   1.400   8.215  10.805
 8880TIP3   OH250834   1.609   8.319  10.373
 8880TIP3    H150835   1.541   8.300  10.300
 8880TIP3    H250836   1.578   8.243  10.437
 8881TIP3   OH250837   0.505   8.290  11.732
 8881TIP3    H150838   0.571   8.231  11.678
 8881TIP3    H250839   0.485   8.224  11.807
 8882TIP3   OH250840   1.463   8.207  11.807
 8882TIP3    H150841   1.474   8.174  11.900
 8882TIP3    H250842   1.566   8.205  11.780
 8883TIP3   OH250843   2.974   8.276  11.006
 8883TIP3    H150844   2.972   8.196  10.940
 8883TIP3    H250845   2.870   8.285  11.028
 8884TIP3   OH250846   3.933   8.251  10.247
 8884TIP3    H150847   3.831   8.254  10.281
 8884TIP3    H250848   3.949   8.359  10.255
 8885TIP3   OH250849   2.692   8.379  11.045
 8885TIP3    H150850   2.594   8.369  11.005
 8885TIP3    H250851   2.705   8.485  11.040
 8886TIP3   OH250852   3.241   8.349  11.379
 8886TIP3    H150853   3.323   8.316  11.437
 8886TIP3    H250854   3.168   8.276  11.405
 8887TIP3   OH250855   2.407   8.334  10.937
 8887TIP3    H150856   2.398   8.325  10.839
 8887TIP3    H250857   2.371   8.238  10.967
 8888TIP3   OH250858   2.948   8.255  11.352
 8888TIP3    H150859   2.955   8.361  11.330
 8888TIP3    H250860   2.849   8.235  11.319
 8889TIP3   OH250861   2.871   8.220  11.608
 8889TIP3    H150862   2.951   8.172  11.653
 8889TIP3    H250863   2.908   8.226  11.515
 8890TIP3   OH250864   4.027   8.253  11.775
 8890TIP3    H150865   4.123   8.229  11.738
 8890TIP3    H250866   4.052   8.337  11.831
 8891TIP3   OH250867   2.106   8.336  11.277
 8891TIP3    H150868   2.024   8.337  11.341
 8891TIP3    H250869   2.110   8.439  11.249
 8892TIP3   OH250870   3.896   8.315  11.448
 8892TIP3    H150871   3.828   8.300  11.374
 8892TIP3    H250872   3.955   8.224  11.443
 8893TIP3   OH250873   3.825   8.250  10.855
 8893TIP3    H150874   3.867   8.347  10.875
 8893TIP3    H250875   3.724   8.278  10.839
 8894TIP3   OH250876   2.369   8.297  10.660
 8894TIP3    H150877   2.270   8.279  10.624
 8894TIP3    H250878   2.420   8.206  10.636
 8895TIP3   OH250879   2.275   8.290  10.267
 8895TIP3    H150880   2.332   8.381  10.283
 8895TIP3    H250881   2.197   8.304  10.333
 8896TIP3   OH250882   2.898   8.269  10.693
 8896TIP3    H150883   2.941   8.347  10.638
 8896TIP3    H250884   2.819   8.327  10.729
 8897TIP3   OH250885   3.523   8.307  10.770
 8897TIP3    H150886   3.469   8.309  10.687
 8897TIP3    H250887   3.477   8.222  10.812
 8898TIP3   OH250888   3.676   8.323  10.368
 8898TIP3    H150889   3.603   8.297  10.301
 8898TIP3    H250890   3.647   8.252  10.438
 8899TIP3   OH250891   2.580   8.273  11.709
 8899TIP3    H150892   2.674   8.222  11.696
 8899TIP3    H250893   2.539   8.218  11.786
 8900TIP3   OH250894   3.514   8.202  11.807
 8900TIP3    H150895   3.530   8.169  11.899
 8900TIP3    H250896   3.616   8.204  11.774
 8901TIP3   OH250897   5.046   8.274  11.012
 8901TIP3    H150898   5.032   8.197  10.946
 8901TIP3    H250899   4.946   8.287  11.046
 8902TIP3   OH250900   6.004   8.247  10.247
 8902TIP3    H150901   5.903   8.246  10.280
 8902TIP3    H250902   6.013   8.356  10.250
 8903TIP3   OH250903   4.764   8.379  11.048
 8903TIP3    H150904   4.662   8.369  11.019
 8903TIP3    H250905   4.778   8.485  11.039
 8904TIP3   OH250906   5.326   8.342  11.366
 8904TIP3    H150907   5.402   8.313  11.430
 8904TIP3    H250908   5.245   8.282  11.397
 8905TIP3   OH250909   4.467   8.327  10.933
 8905TIP3    H150910   4.457   8.316  10.836
 8905TIP3    H250911   4.436   8.230  10.966
 8906TIP3   OH250912   5.032   8.251  11.361
 8906TIP3    H150913   5.028   8.354  11.332
 8906TIP3    H250914   4.936   8.217  11.331
 8907TIP3   OH250915   4.989   8.232  11.628
 8907TIP3    H150916   5.074   8.186  11.667
 8907TIP3    H250917   5.008   8.224  11.532
 8908TIP3   OH250918   6.117   8.261  11.765
 8908TIP3    H150919   6.213   8.239  11.725
 8908TIP3    H250920   6.146   8.338  11.827
 8909TIP3   OH250921   4.167   8.331  11.264
 8909TIP3    H150922   4.101   8.348  11.338
 8909TIP3    H250923   4.193   8.434  11.241
 8910TIP3   OH250924   5.984   8.315  11.440
 8910TIP3    H150925   5.911   8.303  11.369
 8910TIP3    H250926   6.041   8.222  11.430
 8911TIP3   OH250927   5.898   8.253  10.851
 8911TIP3    H150928   5.943   8.347  10.874
 8911TIP3    H250929   5.797   8.285  10.840
 8912TIP3   OH250930   4.438   8.294  10.640
 8912TIP3    H150931   4.338   8.278  10.607
 8912TIP3    H250932   4.485   8.199  10.624
 8913TIP3   OH250933   4.366   8.284  10.264
 8913TIP3    H150934   4.419   8.378  10.274
 8913TIP3    H250935   4.285   8.307  10.325
 8914TIP3   OH250936   4.974   8.269  10.685
 8914TIP3    H150937   5.016   8.354  10.642
 8914TIP3    H250938   4.891   8.317  10.724
 8915TIP3   OH250939   5.591   8.304  10.774
 8915TIP3    H150940   5.552   8.296  10.685
 8915TIP3    H250941   5.541   8.221  10.815
 8916TIP3   OH250942   5.752   8.319  10.374
 8916TIP3    H150943   5.684   8.293  10.303
 8916TIP3    H250944   5.718   8.253  10.445
 8917TIP3   OH250945   4.651   8.274  11.712
 8917TIP3    H150946   4.747   8.232  11.692
 8917TIP3    H250947   4.608   8.192  11.761
 8918TIP3   OH250948   5.623   8.209  11.797
 8918TIP3    H150949   5.626   8.172  11.889
 8918TIP3    H250950   5.728   8.219  11.774
 8919TIP3   OH250951   7.125   8.268  11.011
 8919TIP3    H150952   7.127   8.191  10.943
 8919TIP3    H250953   7.018   8.279  11.025
 8920TIP3   OH250954   8.042   8.254  10.239
 8920TIP3    H150955   7.951   8.260  10.292
 8920TIP3    H250956   8.051   8.360  10.218
 8921TIP3   OH250957   6.846   8.371  11.040
 8921TIP3    H150958   6.744   8.360  11.010
 8921TIP3    H250959   6.856   8.479  11.040
 8922TIP3   OH250960   7.401   8.336  11.377
 8922TIP3    H150961   7.478   8.305  11.441
 8922TIP3    H250962   7.328   8.260  11.395
 8923TIP3   OH250963   6.537   8.327  10.939
 8923TIP3    H150964   6.527   8.314  10.842
 8923TIP3    H250965   6.511   8.228  10.972
 8924TIP3   OH250966   7.103   8.253  11.373
 8924TIP3    H150967   7.109   8.358  11.348
 8924TIP3    H250968   7.013   8.225  11.327
 8925TIP3   OH250969   7.054   8.240  11.649
 8925TIP3    H150970   7.134   8.182  11.686
 8925TIP3    H250971   7.071   8.225  11.553
 8926TIP3   OH250972   8.260   8.226  11.797
 8926TIP3    H150973   8.361   8.204  11.776
 8926TIP3    H250974   8.275   8.312  11.853
 8927TIP3   OH250975   6.245   8.334  11.253
 8927TIP3    H150976   6.174   8.339  11.325
 8927TIP3    H250977   6.267   8.437  11.237
 8928TIP3   OH250978   8.066   8.304  11.450
 8928TIP3    H150979   8.001   8.301  11.373
 8928TIP3    H250980   8.114   8.206  11.441
 8929TIP3   OH250981   7.966   8.243  10.864
 8929TIP3    H150982   8.007   8.342  10.865
 8929TIP3    H250983   7.864   8.269  10.841
 8930TIP3   OH250984   6.522   8.288  10.661
 8930TIP3    H150985   6.428   8.275  10.614
 8930TIP3    H250986   6.574   8.197  10.637
 8931TIP3   OH250987   6.426   8.287  10.264
 8931TIP3    H150988   6.475   8.386  10.264
 8931TIP3    H250989   6.349   8.308  10.329
 8932TIP3   OH250990   7.051   8.268  10.692
 8932TIP3    H150991   7.088   8.357  10.650
 8932TIP3    H250992   6.966   8.314  10.734
 8933TIP3   OH250993   7.690   8.318  10.789
 8933TIP3    H150994   7.670   8.287  10.698
 8933TIP3    H250995   7.624   8.251  10.837
 8934TIP3   OH250996   7.810   8.329  10.379
 8934TIP3    H150997   7.731   8.311  10.315
 8934TIP3    H250998   7.777   8.260  10.449
 8935TIP3   OH250999   6.741   8.279  11.696
 8935TIP3    H151000   6.840   8.239  11.686
 8935TIP3    H251001   6.703   8.221  11.773
 8936TIP3   OH251002   7.707   8.215  11.814
 8936TIP3    H151003   7.719   8.188  11.907
 8936TIP3    H251004   7.809   8.205  11.782
 8937TIP3   OH251005   8.219   8.349  11.209
 8937TIP3    H151006   8.217   8.354  11.306
 8937TIP3    H251007   8.231   8.452  11.186
 8938TIP3   OH251008   1.326   1.076  12.579
 8938TIP3    H151009   1.313   1.181  12.563
 8938TIP3    H251010   1.252   1.038  12.517
 8939TIP3   OH251011   1.595   1.376  12.717
 8939TIP3    H151012   1.535   1.291  12.737
 8939TIP3    H251013   1.637   1.400  12.802
 8940TIP3   OH251014   0.514   1.456  12.861
 8940TIP3    H151015   0.447   1.378  12.828
 8940TIP3    H251016   0.597   1.395  12.877
 8941TIP3   OH251017   0.158   0.779  12.392
 8941TIP3    H151018   0.142   0.854  12.460
 8941TIP3    H251019   0.062   0.734  12.394
 8942TIP3   OH251020   0.179   0.974  12.608
 8942TIP3    H151021   0.199   0.884  12.660
 8942TIP3    H251022   0.275   1.002  12.575
 8943TIP3   OH251023   1.516   0.443  12.562
 8943TIP3    H151024   1.559   0.393  12.487
 8943TIP3    H251025   1.464   0.524  12.519
 8944TIP3   OH251026   0.242   0.696  12.742
 8944TIP3    H151027   0.322   0.706  12.805
 8944TIP3    H251028   0.251   0.596  12.707
 8945TIP3   OH251029   0.802   0.894  12.706
 8945TIP3    H151030   0.884   0.849  12.753
 8945TIP3    H251031   0.760   0.804  12.669
 8946TIP3   OH251032   1.260   1.354  12.452
 8946TIP3    H151033   1.252   1.329  12.356
 8946TIP3    H251034   1.278   1.458  12.444
 8947TIP3   OH251035   0.132   1.315  12.264
 8947TIP3    H151036   0.124   1.374  12.182
 8947TIP3    H251037   0.166   1.387  12.328
 8948TIP3   OH251038   1.651   1.476  12.436
 8948TIP3    H151039   1.565   1.431  12.395
 8948TIP3    H251040   1.630   1.465  12.531
 8949TIP3   OH251041   1.181   0.994  12.324
 8949TIP3    H151042   1.084   1.034  12.307
 8949TIP3    H251043   1.232   1.015  12.241
 8950TIP3   OH251044   1.185   0.887  12.019
 8950TIP3    H151045   1.283   0.888  12.062
 8950TIP3    H251046   1.196   0.803  11.959
 8951TIP3   OH251047   1.576   1.043  12.387
 8951TIP3    H151048   1.495   1.043  12.453
 8951TIP3    H251049   1.649   0.980  12.431
 8952TIP3   OH251050   0.642   1.140  12.623
 8952TIP3    H151051   0.595   1.092  12.547
 8952TIP3    H251052   0.701   1.056  12.659
 8953TIP3   OH251053   1.445   0.930  12.157
 8953TIP3    H151054   1.495   0.971  12.234
 8953TIP3    H251055   1.493   0.989  12.087
 8954TIP3   OH251056   1.866   0.085  12.167
 8954TIP3    H151057   1.769   0.125  12.185
 8954TIP3    H251058   1.912   0.167  12.118
 8955TIP3   OH251059   0.481   0.994  12.408
 8955TIP3    H151060   0.458   1.077  12.347
 8955TIP3    H251061   0.439   0.912  12.362
 8956TIP3   OH251062   1.971   1.587  12.040
 8956TIP3    H151063   2.003   1.691  12.041
 8956TIP3    H251064   2.068   1.540  12.034
 8957TIP3   OH251065   0.070   1.577  12.884
 8957TIP3    H151066   0.102   1.498  12.941
 8957TIP3    H251067   0.140   1.656  12.901
 8958TIP3   OH251068   0.438   1.823  12.526
 8958TIP3    H151069   0.454   1.799  12.620
 8958TIP3    H251070   0.331   1.821  12.520
 8959TIP3   OH251071   1.606   1.064  11.971
 8959TIP3    H151072   1.559   1.051  11.884
 8959TIP3    H251073   1.701   1.021  11.947
 8960TIP3   OH251074   1.100   0.353  12.011
 8960TIP3    H151075   1.034   0.316  12.080
 8960TIP3    H251076   1.039   0.342  11.932
 8961TIP3   OH251077   0.682   0.661  12.571
 8961TIP3    H151078   0.582   0.680  12.546
 8961TIP3    H251079   0.729   0.648  12.485
 8962TIP3   OH251080   1.289   0.714  12.392
 8962TIP3    H151081   1.256   0.813  12.366
 8962TIP3    H251082   1.374   0.698  12.333
 8963TIP3   OH251083   0.723   0.433  11.914
 8963TIP3    H151084   0.690   0.355  11.973
 8963TIP3    H251085   0.638   0.454  11.859
 8964TIP3   OH251086   0.978   0.432  12.670
 8964TIP3    H151087   0.886   0.393  12.640
 8964TIP3    H251088   0.972   0.406  12.764
 8965TIP3   OH251089   0.768   0.643  12.281
 8965TIP3    H151090   0.812   0.551  12.253
 8965TIP3    H251091   0.713   0.672  12.202
 8966TIP3   OH251092   0.615   0.771  12.020
 8966TIP3    H151093   0.589   0.729  11.933
 8966TIP3    H251094   0.719   0.792  12.000
 8967TIP3   OH251095   1.033   0.736  12.814
 8967TIP3    H151096   0.994   0.653  12.765
 8967TIP3    H251097   1.043   0.694  12.902
 8968TIP3   OH251098   0.975   1.276  12.230
 8968TIP3    H151099   0.911   1.198  12.195
 8968TIP3    H251100   0.932   1.288  12.320
 8969TIP3   OH251101   1.374   0.450  12.048
 8969TIP3    H151102   1.266   0.463  12.045
 8969TIP3    H251103   1.411   0.519  12.115
 8970TIP3   OH251104   1.506   0.635  12.219
 8970TIP3    H151105   1.602   0.634  12.263
 8970TIP3    H251106   1.508   0.725  12.165
 8971TIP3   OH251107   0.418   1.197  12.786
 8971TIP3    H151108   0.485   1.179  12.711
 8971TIP3    H251109   0.406   1.099  12.824
 8972TIP3   OH251110   1.263   1.326  12.185
 8972TIP3    H151111   1.233   1.423  12.160
 8972TIP3    H251112   1.164   1.280  12.186
 8973TIP3   OH251113   1.973   0.683  12.195
 8973TIP3    H151114   1.927   0.659  12.109
 8973TIP3    H251115   2.004   0.786  12.182
 8974TIP3   OH251116   1.749   1.654  12.206
 8974TIP3    H151117   1.733   1.588  12.282
 8974TIP3    H251118   1.835   1.613  12.160
 8975TIP3   OH251119   0.713   1.571  12.528
 8975TIP3    H151120   0.728   1.674  12.504
 8975TIP3    H251121   0.606   1.567  12.529
 8976TIP3   OH251122   0.246   1.011  12.014
 8976TIP3    H151123   0.298   1.084  12.069
 8976TIP3    H251124   0.157   0.995  12.066
 8977TIP3   OH251125   0.854   1.287  12.476
 8977TIP3    H151126   0.804   1.379  12.500
 8977TIP3    H251127   0.800   1.215  12.529
 8978TIP3   OH251128   0.720   1.863  12.453
 8978TIP3    H151129   0.614   1.857  12.469
 8978TIP3    H251130   0.738   1.967  12.476
 8979TIP3   OH251131   1.562   1.420  12.017
 8979TIP3    H151132   1.553   1.381  12.108
 8979TIP3    H251133   1.469   1.388  11.979
 8980TIP3   OH251134   2.041   1.874  12.062
 8980TIP3    H151135   2.086   1.945  12.003
 8980TIP3    H251136   1.966   1.934  12.109
 8981TIP3   OH251137   1.631   1.279  12.235
 8981TIP3    H151138   1.612   1.181  12.274
 8981TIP3    H251139   1.684   1.328  12.307
 8982TIP3   OH251140   0.912   1.569  11.860
 8982TIP3    H151141   0.888   1.496  11.791
 8982TIP3    H251142   0.836   1.548  11.926
 8983TIP3   OH251143   0.757   1.469  12.117
 8983TIP3    H151144   0.840   1.423  12.163
 8983TIP3    H251145   0.770   1.572  12.143
 8984TIP3   OH251146   0.397   1.194  12.186
 8984TIP3    H151147   0.310   1.251  12.214
 8984TIP3    H251148   0.441   1.260  12.121
 8985TIP3   OH251149   1.315   0.319  12.298
 8985TIP3    H151150   1.275   0.327  12.208
 8985TIP3    H251151   1.301   0.419  12.326
 8986TIP3   OH251152   1.052   0.513  12.413
 8986TIP3    H151153   1.121   0.594  12.408
 8986TIP3    H251154   1.025   0.514  12.508
 8987TIP3   OH251155   1.123   0.189  12.483
 8987TIP3    H151156   1.101   0.287  12.516
 8987TIP3    H251157   1.203   0.206  12.421
 8988TIP3   OH251158   0.817   1.747  12.164
 8988TIP3    H151159   0.781   1.807  12.091
 8988TIP3    H251160   0.789   1.806  12.242
 8989TIP3   OH251161   0.475   1.477  12.016
 8989TIP3    H151162   0.562   1.489  12.073
 8989TIP3    H251163   0.517   1.408  11.952
 8990TIP3   OH251164   0.224   1.582  12.380
 8990TIP3    H151165   0.140   1.640  12.399
 8990TIP3    H251166   0.285   1.658  12.339
 8991TIP3   OH251167   1.145   1.770  11.864
 8991TIP3    H151168   1.068   1.694  11.869
 8991TIP3    H251169   1.218   1.722  11.806
 8992TIP3   OH251170   1.606   1.716  11.881
 8992TIP3    H151171   1.639   1.669  11.963
 8992TIP3    H251172   1.696   1.724  11.828
 8993TIP3   OH251173   0.629   1.269  11.875
 8993TIP3    H151174   0.662   1.220  11.955
 8993TIP3    H251175   0.725   1.284  11.830
 8994TIP3   OH251176   1.272   1.390  11.875
 8994TIP3    H151177   1.172   1.398  11.906
 8994TIP3    H251178   1.264   1.293  11.831
 8995TIP3   OH251179   0.795   1.043  12.136
 8995TIP3    H151180   0.712   0.988  12.168
 8995TIP3    H251181   0.827   0.983  12.058
 8996TIP3   OH251182   0.884   0.861  11.941
 8996TIP3    H151183   0.906   0.888  11.849
 8996TIP3    H251184   0.984   0.869  11.981
 8997TIP3   OH251185   1.895   1.131  11.861
 8997TIP3    H151186   1.874   1.078  11.777
 8997TIP3    H251187   1.951   1.212  11.824
 8998TIP3   OH251188   0.178   1.444  12.027
 8998TIP3    H151189   0.282   1.471  12.017
 8998TIP3    H251190   0.161   1.389  11.944
 8999TIP3   OH251191   0.077   2.009  12.447
 8999TIP3    H151192  -0.021   2.053  12.454
 8999TIP3    H251193   0.085   1.957  12.531
 9000TIP3   OH251194   0.176   1.805  12.663
 9000TIP3    H151195   0.228   1.712  12.674
 9000TIP3    H251196   0.216   1.860  12.740
 9001TIP3   OH251197   1.952   1.225  12.215
 9001TIP3    H151198   2.045   1.272  12.244
 9001TIP3    H251199   1.926   1.175  12.298
 9002TIP3   OH251200   1.970   1.026  12.452
 9002TIP3    H151201   1.902   1.002  12.523
 9002TIP3    H251202   2.060   1.051  12.502
 9003TIP3   OH251203   2.004   1.327  12.927
 9003TIP3    H151204   2.097   1.291  12.889
 9003TIP3    H251205   2.035   1.351  13.017
 9004TIP3   OH251206   2.045   0.967  12.097
 9004TIP3    H151207   1.959   0.965  12.038
 9004TIP3    H251208   2.019   1.046  12.158
 9005TIP3   OH251209   1.817   0.703  11.947
 9005TIP3    H151210   1.880   0.745  11.877
 9005TIP3    H251211   1.805   0.601  11.916
 9006TIP3   OH251212   1.741   0.831  12.528
 9006TIP3    H151213   1.760   0.744  12.471
 9006TIP3    H251214   1.797   0.810  12.606
 9007TIP3   OH251215   0.256   0.965  12.950
 9007TIP3    H151216   0.208   1.027  12.887
 9007TIP3    H251217   0.234   1.012  13.035
 9008TIP3   OH251218   1.773   0.431  11.874
 9008TIP3    H151219   1.824   0.352  11.922
 9008TIP3    H251220   1.672   0.394  11.866
 9009TIP3   OH251221   1.759   0.595  12.360
 9009TIP3    H151222   1.781   0.494  12.384
 9009TIP3    H251223   1.838   0.617  12.296
 9010TIP3   OH251224   1.796   0.296  12.419
 9010TIP3    H151225   1.872   0.221  12.415
 9010TIP3    H251226   1.720   0.254  12.361
 9011TIP3   OH251227   0.107   0.690  13.035
 9011TIP3    H151228   0.155   0.692  12.950
 9011TIP3    H251229   0.139   0.781  13.076
 9012TIP3   OH251230   2.011   0.292  12.034
 9012TIP3    H151231   2.050   0.224  11.966
 9012TIP3    H251232   2.086   0.367  12.039
 9013TIP3   OH251233   0.295   1.891  12.890
 9013TIP3    H151234   0.328   1.891  12.984
 9013TIP3    H251235   0.378   1.833  12.853
 9014TIP3   OH251236   0.513   1.741  12.782
 9014TIP3    H151237   0.514   1.638  12.813
 9014TIP3    H251238   0.616   1.764  12.806
 9015TIP3   OH251239   0.793   1.782  12.871
 9015TIP3    H151240   0.890   1.766  12.835
 9015TIP3    H251241   0.812   1.808  12.963
 9016TIP3   OH251242   1.701   0.095  12.729
 9016TIP3    H151243   1.802   0.117  12.706
 9016TIP3    H251244   1.656   0.099  12.642
 9017TIP3   OH251245   0.167   0.152  12.089
 9017TIP3    H151246   0.119   0.062  12.059
 9017TIP3    H251247   0.172   0.134  12.185
 9018TIP3   OH251248   0.809   0.144  12.558
 9018TIP3    H151249   0.903   0.132  12.515
 9018TIP3    H251250   0.760   0.051  12.542
 9019TIP3   OH251251   1.593   0.179  12.254
 9019TIP3    H151252   1.492   0.216  12.254
 9019TIP3    H251253   1.574   0.073  12.258
 9020TIP3   OH251254   0.210   1.837  12.232
 9020TIP3    H151255   0.105   1.840  12.227
 9020TIP3    H251256   0.232   1.937  12.200
 9021TIP3   OH251257   0.947   0.318  12.234
 9021TIP3    H151258   0.963   0.229  12.286
 9021TIP3    H251259   0.997   0.394  12.289
 9022TIP3   OH251260   1.911   1.859  12.365
 9022TIP3    H151261   1.837   1.788  12.334
 9022TIP3    H251262   1.872   1.950  12.328
 9023TIP3   OH251263   0.353   1.912  11.930
 9023TIP3    H151264   0.307   1.938  12.014
 9023TIP3    H251265   0.418   1.834  11.958
 9024TIP3   OH251266   3.417   1.091  12.541
 9024TIP3    H151267   3.380   1.190  12.557
 9024TIP3    H251268   3.337   1.052  12.488
 9025TIP3   OH251269   3.652   1.320  12.765
 9025TIP3    H151270   3.641   1.214  12.765
 9025TIP3    H251271   3.704   1.339  12.682
 9026TIP3   OH251272   2.146   0.702  12.444
 9026TIP3    H151273   2.147   0.784  12.505
 9026TIP3    H251274   2.111   0.747  12.362
 9027TIP3   OH251275   2.199   0.997  12.679
 9027TIP3    H151276   2.245   0.917  12.732
 9027TIP3    H251277   2.266   1.076  12.702
 9028TIP3   OH251278   3.095   1.206  13.000
 9028TIP3    H151279   3.082   1.188  12.905
 9028TIP3    H251280   3.078   1.312  13.005
 9029TIP3   OH251281   2.648   0.471  12.700
 9029TIP3    H151282   2.671   0.546  12.634
 9029TIP3    H251283   2.617   0.387  12.646
 9030TIP3   OH251284   3.574   0.475  12.505
 9030TIP3    H151285   3.563   0.421  12.588
 9030TIP3    H251286   3.588   0.575  12.534
 9031TIP3   OH251287   2.280   0.693  12.753
 9031TIP3    H151288   2.339   0.679  12.833
 9031TIP3    H251289   2.329   0.625  12.691
 9032TIP3   OH251290   2.883   0.828  12.695
 9032TIP3    H151291   2.967   0.815  12.755
 9032TIP3    H251292   2.900   0.750  12.632
 9033TIP3   OH251293   3.315   1.352  12.435
 9033TIP3    H151294   3.315   1.318  12.343
 9033TIP3    H251295   3.299   1.459  12.420
 9034TIP3   OH251296   2.507   0.564  12.917
 9034TIP3    H151297   2.582   0.629  12.949
 9034TIP3    H251298   2.554   0.521  12.837
 9035TIP3   OH251299   2.233   1.310  12.262
 9035TIP3    H151300   2.223   1.371  12.181
 9035TIP3    H251301   2.248   1.387  12.330
 9036TIP3   OH251302   3.267   1.010  12.301
 9036TIP3    H151303   3.210   1.099  12.281
 9036TIP3    H251304   3.352   1.018  12.242
 9037TIP3   OH251305   3.258   0.888  11.976
 9037TIP3    H151306   3.332   0.934  12.034
 9037TIP3    H251307   3.308   0.798  11.952
 9038TIP3   OH251308   3.662   1.013  12.397
 9038TIP3    H151309   3.577   1.038  12.454
 9038TIP3    H251310   3.725   0.959  12.460
 9039TIP3   OH251311   3.506   0.976  12.141
 9039TIP3    H151312   3.565   0.980  12.222
 9039TIP3    H251313   3.576   1.018  12.076
 9040TIP3   OH251314   3.279   1.646  12.437
 9040TIP3    H151315   3.314   1.669  12.526
 9040TIP3    H251316   3.217   1.726  12.410
 9041TIP3   OH251317   3.905   0.086  12.141
 9041TIP3    H151318   3.807   0.119  12.168
 9041TIP3    H251319   3.949   0.180  12.119
 9042TIP3   OH251320   2.607   0.961  12.300
 9042TIP3    H151321   2.572   1.064  12.295
 9042TIP3    H251322   2.519   0.909  12.322
 9043TIP3   OH251323   3.191   1.989  12.331
 9043TIP3    H151324   3.181   2.000  12.234
 9043TIP3    H251325   3.199   2.092  12.358
 9044TIP3   OH251326   2.515   1.833  12.527
 9044TIP3    H151327   2.518   1.842  12.624
 9044TIP3    H251328   2.416   1.793  12.512
 9045TIP3   OH251329   3.512   1.888  12.048
 9045TIP3    H151330   3.588   1.826  12.004
 9045TIP3    H251331   3.546   1.890  12.140
 9046TIP3   OH251332   3.499   1.905  12.345
 9046TIP3    H151333   3.394   1.884  12.343
 9046TIP3    H251334   3.543   1.815  12.377
 9047TIP3   OH251335   2.725   0.097  12.874
 9047TIP3    H151336   2.641   0.055  12.828
 9047TIP3    H251337   2.687   0.194  12.889
 9048TIP3   OH251338   3.689   1.086  11.967
 9048TIP3    H151339   3.669   1.105  11.873
 9048TIP3    H251340   3.797   1.099  11.966
 9049TIP3   OH251341   2.725   0.688  12.481
 9049TIP3    H151342   2.633   0.701  12.526
 9049TIP3    H251343   2.753   0.790  12.471
 9050TIP3   OH251344   3.375   0.745  12.377
 9050TIP3    H151345   3.331   0.832  12.336
 9050TIP3    H251346   3.418   0.691  12.302
 9051TIP3   OH251347   3.392   0.698  12.661
 9051TIP3    H151348   3.369   0.749  12.579
 9051TIP3    H251349   3.386   0.597  12.635
 9052TIP3   OH251350   2.789   0.427  11.886
 9052TIP3    H151351   2.722   0.345  11.899
 9052TIP3    H251352   2.720   0.502  11.853
 9053TIP3   OH251353   2.208   0.486  12.166
 9053TIP3    H151354   2.268   0.539  12.101
 9053TIP3    H251355   2.132   0.561  12.182
 9054TIP3   OH251356   2.397   0.532  12.522
 9054TIP3    H151357   2.316   0.602  12.510
 9054TIP3    H251358   2.410   0.495  12.432
 9055TIP3   OH251359   2.670   0.736  12.005
 9055TIP3    H151360   2.655   0.713  11.911
 9055TIP3    H251361   2.753   0.801  11.999
 9056TIP3   OH251362   3.131   0.736  12.836
 9056TIP3    H151363   3.219   0.714  12.785
 9056TIP3    H251364   3.155   0.683  12.916
 9057TIP3   OH251365   3.059   1.212  12.235
 9057TIP3    H151366   2.981   1.152  12.196
 9057TIP3    H251367   3.010   1.241  12.319
 9058TIP3   OH251368   3.451   0.468  12.010
 9058TIP3    H151369   3.353   0.495  12.037
 9058TIP3    H251370   3.511   0.521  12.075
 9059TIP3   OH251371   3.564   0.650  12.187
 9059TIP3    H151372   3.650   0.630  12.244
 9059TIP3    H251373   3.590   0.746  12.153
 9060TIP3   OH251374   3.268   1.379  12.132
 9060TIP3    H151375   3.216   1.473  12.149
 9060TIP3    H251376   3.194   1.306  12.158
 9061TIP3   OH251377   4.081   0.677  12.200
 9061TIP3    H151378   4.019   0.646  12.125
 9061TIP3    H251379   4.093   0.783  12.180
 9062TIP3   OH251380   2.785   1.548  12.512
 9062TIP3    H151381   2.784   1.654  12.496
 9062TIP3    H251382   2.682   1.525  12.520
 9063TIP3   OH251383   2.317   1.039  11.982
 9063TIP3    H151384   2.377   1.076  12.056
 9063TIP3    H251385   2.223   1.014  12.024
 9064TIP3   OH251386   2.915   1.269  12.466
 9064TIP3    H151387   2.880   1.368  12.488
 9064TIP3    H251388   2.922   1.225  12.553
 9065TIP3   OH251389   2.791   1.837  12.443
 9065TIP3    H151390   2.684   1.830  12.460
 9065TIP3    H251391   2.812   1.935  12.477
 9066TIP3   OH251392   3.648   1.447  12.012
 9066TIP3    H151393   3.676   1.405  12.101
 9066TIP3    H251394   3.550   1.404  12.008
 9067TIP3   OH251395   3.715   1.291  12.234
 9067TIP3    H151396   3.671   1.220  12.294
 9067TIP3    H251397   3.819   1.269  12.245
 9068TIP3   OH251398   2.974   1.572  11.866
 9068TIP3    H151399   2.973   1.520  11.781
 9068TIP3    H251400   2.912   1.507  11.919
 9069TIP3   OH251401   2.840   1.484  12.107
 9069TIP3    H151402   2.921   1.434  12.153
 9069TIP3    H251403   2.851   1.584  12.143
 9070TIP3   OH251404   2.474   1.184  12.165
 9070TIP3    H151405   2.386   1.223  12.207
 9070TIP3    H251406   2.515   1.269  12.121
 9071TIP3   OH251407   3.412   0.349  12.291
 9071TIP3    H151408   3.452   0.441  12.266
 9071TIP3    H251409   3.431   0.347  12.387
 9072TIP3   OH251410   3.156   1.683  12.172
 9072TIP3    H151411   3.056   1.720  12.191
 9072TIP3    H251412   3.205   1.777  12.158
 9073TIP3   OH251413   2.878   1.771  12.184
 9073TIP3    H151414   2.883   1.857  12.124
 9073TIP3    H251415   2.838   1.817  12.265
 9074TIP3   OH251416   2.528   1.469  12.024
 9074TIP3    H151417   2.609   1.499  12.081
 9074TIP3    H251418   2.583   1.422  11.952
 9075TIP3   OH251419   2.292   0.712  11.988
 9075TIP3    H151420   2.346   0.805  11.992
 9075TIP3    H251421   2.252   0.715  11.899
 9076TIP3   OH251422   2.439   0.121  12.822
 9076TIP3    H151423   2.422   0.107  12.725
 9076TIP3    H251424   2.412   0.024  12.854
 9077TIP3   OH251425   2.299   1.583  12.418
 9077TIP3    H151426   2.226   1.656  12.445
 9077TIP3    H251427   2.339   1.638  12.343
 9078TIP3   OH251428   3.196   1.785  11.856
 9078TIP3    H151429   3.145   1.694  11.882
 9078TIP3    H251430   3.285   1.747  11.814
 9079TIP3   OH251431   3.697   1.724  11.901
 9079TIP3    H151432   3.706   1.626  11.942
 9079TIP3    H251433   3.766   1.724  11.826
 9080TIP3   OH251434   2.695   1.248  11.860
 9080TIP3    H151435   2.709   1.189  11.940
 9080TIP3    H251436   2.789   1.231  11.812
 9081TIP3   OH251437   3.304   1.408  11.852
 9081TIP3    H151438   3.276   1.397  11.946
 9081TIP3    H251439   3.306   1.302  11.826
 9082TIP3   OH251440   2.840   1.042  12.128
 9082TIP3    H151441   2.765   0.984  12.176
 9082TIP3    H251442   2.880   0.969  12.065
 9083TIP3   OH251443   2.936   0.859  11.933
 9083TIP3    H151444   2.917   0.877  11.839
 9083TIP3    H251445   3.043   0.868  11.938
 9084TIP3   OH251446   3.961   1.121  11.864
 9084TIP3    H151447   3.959   1.090  11.769
 9084TIP3    H251448   3.971   1.228  11.856
 9085TIP3   OH251449   2.929   2.020  12.062
 9085TIP3    H151450   3.036   2.026  12.070
 9085TIP3    H251451   2.918   2.069  11.976
 9086TIP3   OH251452   2.221   1.427  12.010
 9086TIP3    H151453   2.328   1.442  12.006
 9086TIP3    H251454   2.206   1.368  11.929
 9087TIP3   OH251455   2.113   2.030  12.486
 9087TIP3    H151456   2.038   1.970  12.440
 9087TIP3    H251457   2.125   1.966  12.565
 9088TIP3   OH251458   2.175   1.804  12.656
 9088TIP3    H151459   2.083   1.750  12.671
 9088TIP3    H251460   2.209   1.817  12.748
 9089TIP3   OH251461   4.045   1.209  12.268
 9089TIP3    H151462   4.139   1.254  12.285
 9089TIP3    H251463   4.047   1.126  12.331
 9090TIP3   OH251464   4.059   0.978  12.442
 9090TIP3    H151465   3.978   0.906  12.455
 9090TIP3    H251466   4.107   0.983  12.530
 9091TIP3   OH251467   4.081   0.963  12.090
 9091TIP3    H151468   4.016   0.976  12.013
 9091TIP3    H251469   4.050   1.045  12.146
 9092TIP3   OH251470   3.898   0.684  11.924
 9092TIP3    H151471   3.957   0.728  11.853
 9092TIP3    H251472   3.872   0.589  11.884
 9093TIP3   OH251473   3.840   0.795  12.504
 9093TIP3    H151474   3.812   0.733  12.428
 9093TIP3    H251475   3.816   0.734  12.580
 9094TIP3   OH251476   3.856   0.410  11.851
 9094TIP3    H151477   3.926   0.344  11.892
 9094TIP3    H251478   3.762   0.356  11.851
 9095TIP3   OH251479   3.819   0.593  12.328
 9095TIP3    H151480   3.815   0.486  12.350
 9095TIP3    H251481   3.923   0.605  12.302
 9096TIP3   OH251482   3.885   0.308  12.367
 9096TIP3    H151483   3.887   0.254  12.452
 9096TIP3    H251484   3.797   0.262  12.328
 9097TIP3   OH251485   2.283   0.381  12.824
 9097TIP3    H151486   2.357   0.303  12.816
 9097TIP3    H251487   2.341   0.463  12.858
 9098TIP3   OH251488   4.085   0.285  12.033
 9098TIP3    H151489   4.134   0.209  11.980
 9098TIP3    H251490   4.167   0.343  12.068
 9099TIP3   OH251491   2.095   0.274  12.328
 9099TIP3    H151492   2.001   0.317  12.311
 9099TIP3    H251493   2.158   0.347  12.283
 9100TIP3   OH251494   3.812   0.053  12.783
 9100TIP3    H151495   3.828   0.109  12.701
 9100TIP3    H251496   3.705   0.043  12.787
 9101TIP3   OH251497   3.957   0.189  12.597
 9101TIP3    H151498   4.026   0.119  12.563
 9101TIP3    H251499   4.023   0.271  12.623
 9102TIP3   OH251500   2.406   0.099  12.561
 9102TIP3    H151501   2.331   0.130  12.498
 9102TIP3    H251502   2.425  -0.002  12.530
 9103TIP3   OH251503   2.292   0.123  12.167
 9103TIP3    H151504   2.290   0.173  12.082
 9103TIP3    H251505   2.198   0.154  12.204
 9104TIP3   OH251506   3.508   0.167  12.666
 9104TIP3    H151507   3.445   0.143  12.590
 9104TIP3    H251508   3.473   0.098  12.731
 9105TIP3   OH251509   3.653   0.169  12.270
 9105TIP3    H151510   3.555   0.211  12.288
 9105TIP3    H251511   3.628   0.065  12.270
 9106TIP3   OH251512   2.273   1.809  12.241
 9106TIP3    H151513   2.167   1.804  12.223
 9106TIP3    H251514   2.291   1.906  12.202
 9107TIP3   OH251515   2.467   0.250  11.977
 9107TIP3    H151516   2.500   0.186  11.904
 9107TIP3    H251517   2.514   0.205  12.055
 9108TIP3   OH251518   3.226   1.970  12.060
 9108TIP3    H151519   3.333   1.966  12.049
 9108TIP3    H251520   3.200   1.907  11.984
 9109TIP3   OH251521   2.421   1.911  11.935
 9109TIP3    H151522   2.389   1.923  12.027
 9109TIP3    H251523   2.497   1.837  11.945
 9110TIP3   OH251524   4.206   0.711  12.455
 9110TIP3    H151525   4.223   0.811  12.486
 9110TIP3    H251526   4.138   0.724  12.381
 9111TIP3   OH251527   4.266   0.999  12.643
 9111TIP3    H151528   4.296   0.972  12.733
 9111TIP3    H251529   4.335   1.078  12.623
 9112TIP3   OH251530   5.649   0.481  12.529
 9112TIP3    H151531   5.679   0.417  12.604
 9112TIP3    H251532   5.742   0.515  12.497
 9113TIP3   OH251533   4.424   0.673  12.752
 9113TIP3    H151534   4.419   0.568  12.770
 9113TIP3    H251535   4.443   0.670  12.656
 9114TIP3   OH251536   4.909   0.853  12.752
 9114TIP3    H151537   4.998   0.832  12.702
 9114TIP3    H251538   4.840   0.807  12.688
 9115TIP3   OH251539   5.796   0.342  12.709
 9115TIP3    H151540   5.749   0.354  12.796
 9115TIP3    H251541   5.895   0.374  12.728
 9116TIP3   OH251542   4.331   1.366  12.286
 9116TIP3    H151543   4.296   1.409  12.203
 9116TIP3    H251544   4.288   1.426  12.356
 9117TIP3   OH251545   5.049   0.142  12.854
 9117TIP3    H151546   5.086   0.043  12.840
 9117TIP3    H251547   4.962   0.140  12.797
 9118TIP3   OH251548   5.319   0.986  12.267
 9118TIP3    H151549   5.240   1.047  12.306
 9118TIP3    H251550   5.401   1.054  12.267
 9119TIP3   OH251551   5.338   0.878  11.979
 9119TIP3    H151552   5.352   0.856  12.074
 9119TIP3    H251553   5.388   0.795  11.939
 9120TIP3   OH251554   4.751   1.058  12.565
 9120TIP3    H151555   4.743   1.039  12.469
 9120TIP3    H251556   4.849   1.026  12.584
 9121TIP3   OH251557   6.024   0.056  12.191
 9121TIP3    H151558   5.928   0.038  12.233
 9121TIP3    H251559   6.023   0.161  12.170
 9122TIP3   OH251560   4.663   0.975  12.287
 9122TIP3    H151561   4.601   1.057  12.257
 9122TIP3    H251562   4.599   0.891  12.272
 9123TIP3   OH251563   6.113   1.559  11.997
 9123TIP3    H151564   6.137   1.651  11.956
 9123TIP3    H251565   6.206   1.505  11.993
 9124TIP3   OH251566   4.597   1.859  12.485
 9124TIP3    H151567   4.671   1.804  12.538
 9124TIP3    H251568   4.509   1.808  12.510
 9125TIP3   OH251569   5.592   1.935  12.058
 9125TIP3    H151570   5.673   1.869  12.031
 9125TIP3    H251571   5.615   1.940  12.153
 9126TIP3   OH251572   5.573   1.874  12.339
 9126TIP3    H151573   5.470   1.900  12.327
 9126TIP3    H251574   5.569   1.788  12.395
 9127TIP3   OH251575   5.246   0.397  11.996
 9127TIP3    H151576   5.206   0.376  12.085
 9127TIP3    H251577   5.201   0.314  11.953
 9128TIP3   OH251578   4.804   0.703  12.543
 9128TIP3    H151579   4.711   0.651  12.530
 9128TIP3    H251580   4.854   0.668  12.462
 9129TIP3   OH251581   5.406   0.755  12.404
 9129TIP3    H151582   5.371   0.833  12.344
 9129TIP3    H251583   5.491   0.717  12.357
 9130TIP3   OH251584   4.871   0.414  11.896
 9130TIP3    H151585   4.818   0.374  11.974
 9130TIP3    H251586   4.795   0.475  11.854
 9131TIP3   OH251587   4.190   0.362  12.621
 9131TIP3    H151588   4.252   0.448  12.629
 9131TIP3    H251589   4.209   0.329  12.530
 9132TIP3   OH251590   4.282   0.453  12.164
 9132TIP3    H151591   4.346   0.497  12.096
 9132TIP3    H251592   4.219   0.538  12.183
 9133TIP3   OH251593   5.111   0.495  12.656
 9133TIP3    H151594   5.045   0.413  12.643
 9133TIP3    H251595   5.198   0.444  12.694
 9134TIP3   OH251596   4.478   0.569  12.502
 9134TIP3    H151597   4.399   0.580  12.437
 9134TIP3    H251598   4.540   0.488  12.468
 9135TIP3   OH251599   4.897   0.622  12.289
 9135TIP3    H151600   5.004   0.630  12.278
 9135TIP3    H251601   4.859   0.697  12.231
 9136TIP3   OH251602   5.668   0.344  12.948
 9136TIP3    H151603   5.617   0.433  12.978
 9136TIP3    H251604   5.590   0.285  12.908
 9137TIP3   OH251605   4.759   0.754  12.017
 9137TIP3    H151606   4.722   0.705  11.936
 9137TIP3    H251607   4.847   0.800  11.980
 9138TIP3   OH251608   5.129   1.208  12.290
 9138TIP3    H151609   5.059   1.165  12.229
 9138TIP3    H251610   5.072   1.279  12.342
 9139TIP3   OH251611   5.523   0.461  12.078
 9139TIP3    H151612   5.423   0.463  12.041
 9139TIP3    H251613   5.543   0.563  12.097
 9140TIP3   OH251614   5.608   0.704  12.206
 9140TIP3    H151615   5.662   0.637  12.265
 9140TIP3    H251616   5.688   0.746  12.156
 9141TIP3   OH251617   4.525   1.178  12.720
 9141TIP3    H151618   4.613   1.148  12.671
 9141TIP3    H251619   4.526   1.120  12.799
 9142TIP3   OH251620   5.365   1.321  12.100
 9142TIP3    H151621   5.352   1.424  12.117
 9142TIP3    H251622   5.295   1.277  12.164
 9143TIP3   OH251623   6.152   0.693  12.186
 9143TIP3    H151624   6.097   0.655  12.108
 9143TIP3    H251625   6.183   0.790  12.155
 9144TIP3   OH251626   6.064   1.578  12.268
 9144TIP3    H151627   5.970   1.533  12.280
 9144TIP3    H251628   6.074   1.585  12.170
 9145TIP3   OH251629   5.693   0.987  12.883
 9145TIP3    H151630   5.609   1.049  12.865
 9145TIP3    H251631   5.644   0.890  12.888
 9146TIP3   OH251632   4.396   0.971  12.065
 9146TIP3    H151633   4.434   1.067  12.095
 9146TIP3    H251634   4.308   0.994  12.013
 9147TIP3   OH251635   5.064   1.522  11.867
 9147TIP3    H151636   5.034   1.499  11.777
 9147TIP3    H251637   5.049   1.428  11.910
 9148TIP3   OH251638   4.532   1.207  12.159
 9148TIP3    H151639   4.462   1.260  12.216
 9148TIP3    H251640   4.587   1.286  12.117
 9149TIP3   OH251641   5.493   0.357  12.345
 9149TIP3    H151642   5.471   0.425  12.273
 9149TIP3    H251643   5.546   0.419  12.411
 9150TIP3   OH251644   5.178   0.562  12.406
 9150TIP3    H151645   5.273   0.605  12.432
 9150TIP3    H251646   5.148   0.532  12.497
 9151TIP3   OH251647   5.266   0.200  12.448
 9151TIP3    H151648   5.260   0.229  12.541
 9151TIP3    H251649   5.352   0.257  12.419
 9152TIP3   OH251650   4.759   0.340  12.150
 9152TIP3    H151651   4.742   0.418  12.214
 9152TIP3    H251652   4.860   0.319  12.178
 9153TIP3   OH251653   4.603   1.460  12.018
 9153TIP3    H151654   4.688   1.484  12.073
 9153TIP3    H251655   4.655   1.405  11.947
 9154TIP3   OH251656   4.391   0.680  11.980
 9154TIP3    H151657   4.432   0.772  12.013
 9154TIP3    H251658   4.327   0.716  11.910
 9155TIP3   OH251659   5.263   1.764  11.881
 9155TIP3    H151660   5.211   1.671  11.870
 9155TIP3    H251661   5.355   1.737  11.835
 9156TIP3   OH251662   5.822   1.770  11.964
 9156TIP3    H151663   5.804   1.669  11.940
 9156TIP3    H251664   5.864   1.800  11.880
 9157TIP3   OH251665   4.784   1.275  11.878
 9157TIP3    H151666   4.764   1.178  11.913
 9157TIP3    H251667   4.868   1.251  11.819
 9158TIP3   OH251668   5.365   1.405  11.823
 9158TIP3    H151669   5.358   1.385  11.918
 9158TIP3    H251670   5.379   1.301  11.796
 9159TIP3   OH251671   4.899   1.079  12.122
 9159TIP3    H151672   4.827   1.029  12.178
 9159TIP3    H251673   4.932   1.000  12.064
 9160TIP3   OH251674   5.020   0.880  11.918
 9160TIP3    H151675   5.030   0.932  11.832
 9160TIP3    H251676   5.124   0.865  11.940
 9161TIP3   OH251677   4.296   1.442  12.003
 9161TIP3    H151678   4.402   1.429  11.995
 9161TIP3    H251679   4.259   1.372  11.935
 9162TIP3   OH251680   6.161   0.981  12.452
 9162TIP3    H151681   6.080   0.917  12.482
 9162TIP3    H251682   6.200   1.023  12.535
 9163TIP3   OH251683   6.205   0.965  12.091
 9163TIP3    H151684   6.106   0.967  12.054
 9163TIP3    H251685   6.200   1.016  12.176
 9164TIP3   OH251686   5.969   0.680  11.948
 9164TIP3    H151687   6.016   0.718  11.867
 9164TIP3    H251688   5.937   0.582  11.917
 9165TIP3   OH251689   5.920   0.815  12.501
 9165TIP3    H151690   5.834   0.756  12.481
 9165TIP3    H251691   5.892   0.858  12.586
 9166TIP3   OH251692   5.926   0.398  11.891
 9166TIP3    H151693   5.981   0.342  11.958
 9166TIP3    H251694   5.828   0.353  11.887
 9167TIP3   OH251695   5.834   0.586  12.354
 9167TIP3    H151696   5.888   0.491  12.352
 9167TIP3    H251697   5.918   0.653  12.351
 9168TIP3   OH251698   5.976   0.327  12.350
 9168TIP3    H151699   5.996   0.260  12.425
 9168TIP3    H251700   5.889   0.280  12.311
 9169TIP3   OH251701   4.172   0.682  12.938
 9169TIP3    H151702   4.237   0.704  12.863
 9169TIP3    H251703   4.155   0.778  12.975
 9170TIP3   OH251704   6.161   0.271  12.042
 9170TIP3    H151705   6.205   0.210  11.972
 9170TIP3    H251706   6.244   0.330  12.075
 9171TIP3   OH251707   4.184   0.248  12.350
 9171TIP3    H151708   4.080   0.267  12.333
 9171TIP3    H251709   4.227   0.299  12.273
 9172TIP3   OH251710   5.306   0.275  12.723
 9172TIP3    H151711   5.238   0.210  12.768
 9172TIP3    H251712   5.387   0.210  12.695
 9173TIP3   OH251713   5.874   0.034  12.711
 9173TIP3    H151714   5.921   0.120  12.671
 9173TIP3    H251715   5.810   0.077  12.778
 9174TIP3   OH251716   6.103   0.175  12.551
 9174TIP3    H151717   6.166   0.091  12.567
 9174TIP3    H251718   6.159   0.260  12.585
 9175TIP3   OH251719   5.531   0.085  12.668
 9175TIP3    H151720   5.597   0.018  12.623
 9175TIP3    H251721   5.556   0.060  12.761
 9176TIP3   OH251722   5.728   0.198  12.272
 9176TIP3    H151723   5.630   0.245  12.281
 9176TIP3    H251724   5.713   0.109  12.323
 9177TIP3   OH251725   4.497   0.201  12.002
 9177TIP3    H151726   4.576   0.171  11.942
 9177TIP3    H251727   4.549   0.260  12.069
 9178TIP3   OH251728   5.096   0.332  12.230
 9178TIP3    H151729   5.126   0.256  12.295
 9178TIP3    H251730   5.122   0.419  12.285
 9179TIP3   OH251731   5.298   1.957  12.084
 9179TIP3    H151732   5.403   1.956  12.068
 9179TIP3    H251733   5.267   1.901  12.006
 9180TIP3   OH251734   4.539   1.912  11.916
 9180TIP3    H151735   4.518   1.974  11.991
 9180TIP3    H251736   4.547   1.813  11.952
 9181TIP3   OH251737   7.556   1.090  12.531
 9181TIP3    H151738   7.521   1.191  12.536
 9181TIP3    H251739   7.501   1.054  12.453
 9182TIP3   OH251740   7.405   0.967  12.915
 9182TIP3    H151741   7.480   0.892  12.913
 9182TIP3    H251742   7.355   0.956  12.831
 9183TIP3   OH251743   6.339   0.720  12.444
 9183TIP3    H151744   6.290   0.815  12.443
 9183TIP3    H251745   6.270   0.664  12.392
 9184TIP3   OH251746   6.354   1.000  12.670
 9184TIP3    H151747   6.422   0.923  12.702
 9184TIP3    H251748   6.406   1.034  12.592
 9185TIP3   OH251749   7.497   1.921  12.774
 9185TIP3    H151750   7.564   1.867  12.716
 9185TIP3    H251751   7.476   1.839  12.834
 9186TIP3   OH251752   7.213   1.305  12.980
 9186TIP3    H151753   7.238   1.245  12.904
 9186TIP3    H251754   7.297   1.289  13.038
 9187TIP3   OH251755   6.847   0.432  12.686
 9187TIP3    H151756   6.850   0.532  12.652
 9187TIP3    H251757   6.796   0.380  12.616
 9188TIP3   OH251758   7.692   0.465  12.550
 9188TIP3    H151759   7.752   0.417  12.617
 9188TIP3    H251760   7.767   0.526  12.506
 9189TIP3   OH251761   6.492   0.738  12.753
 9189TIP3    H151762   6.507   0.662  12.819
 9189TIP3    H251763   6.518   0.688  12.669
 9190TIP3   OH251764   6.999   0.888  12.700
 9190TIP3    H151765   7.071   0.828  12.748
 9190TIP3    H251766   6.948   0.809  12.652
 9191TIP3   OH251767   7.473   1.372  12.433
 9191TIP3    H151768   7.455   1.365  12.337
 9191TIP3    H251769   7.429   1.465  12.457
 9192TIP3   OH251770   6.366   1.334  12.230
 9192TIP3    H151771   6.357   1.384  12.143
 9192TIP3    H251772   6.367   1.418  12.292
 9193TIP3   OH251773   7.653   1.731  12.610
 9193TIP3    H151774   7.679   1.636  12.570
 9193TIP3    H251775   7.745   1.782  12.591
 9194TIP3   OH251776   7.814   1.495  12.464
 9194TIP3    H151777   7.801   1.430  12.387
 9194TIP3    H251778   7.850   1.427  12.531
 9195TIP3   OH251779   7.412   1.001  12.309
 9195TIP3    H151780   7.332   1.069  12.291
 9195TIP3    H251781   7.483   1.018  12.238
 9196TIP3   OH251782   7.404   0.914  11.965
 9196TIP3    H151783   7.471   0.957  12.031
 9196TIP3    H251784   7.425   0.811  11.976
 9197TIP3   OH251785   7.775   0.963  12.386
 9197TIP3    H151786   7.707   1.016  12.444
 9197TIP3    H251787   7.857   0.948  12.448
 9198TIP3   OH251788   6.820   1.080  12.572
 9198TIP3    H151789   6.812   1.013  12.497
 9198TIP3    H251790   6.889   1.027  12.631
 9199TIP3   OH251791   7.006   1.482  12.844
 9199TIP3    H151792   6.992   1.424  12.764
 9199TIP3    H251793   7.085   1.430  12.891
 9200TIP3   OH251794   7.636   0.952  12.147
 9200TIP3    H151795   7.696   0.941  12.231
 9200TIP3    H251796   7.709   0.995  12.085
 9201TIP3   OH251797   7.353   1.718  12.524
 9201TIP3    H151798   7.459   1.722  12.542
 9201TIP3    H251799   7.348   1.751  12.432
 9202TIP3   OH251800   8.041   0.100  12.154
 9202TIP3    H151801   7.941   0.106  12.116
 9202TIP3    H251802   8.095   0.166  12.095
 9203TIP3   OH251803   6.764   0.954  12.302
 9203TIP3    H151804   6.721   1.053  12.299
 9203TIP3    H251805   6.689   0.893  12.261
 9204TIP3   OH251806   8.186   1.631  11.984
 9204TIP3    H151807   8.226   1.727  12.012
 9204TIP3    H251808   8.276   1.574  11.986
 9205TIP3   OH251809   7.369   1.967  12.348
 9205TIP3    H151810   7.368   1.974  12.251
 9205TIP3    H251811   7.351   2.068  12.375
 9206TIP3   OH251812   6.655   1.852  12.512
 9206TIP3    H151813   6.696   1.901  12.590
 9206TIP3    H251814   6.564   1.907  12.506
 9207TIP3   OH251815   7.684   1.903  12.032
 9207TIP3    H151816   7.741   1.821  11.995
 9207TIP3    H251817   7.687   1.884  12.129
 9208TIP3   OH251818   7.652   1.901  12.294
 9208TIP3    H151819   7.550   1.918  12.327
 9208TIP3    H251820   7.679   1.813  12.342
 9209TIP3   OH251821   7.823   1.081  11.992
 9209TIP3    H151822   7.810   1.067  11.895
 9209TIP3    H251823   7.930   1.090  11.997
 9210TIP3   OH251824   7.293   0.361  12.022
 9210TIP3    H151825   7.276   0.301  12.100
 9210TIP3    H251826   7.251   0.296  11.953
 9211TIP3   OH251827   6.888   0.689  12.525
 9211TIP3    H151828   6.784   0.661  12.517
 9211TIP3    H251829   6.927   0.671  12.434
 9212TIP3   OH251830   7.487   0.728  12.393
 9212TIP3    H151831   7.473   0.828  12.358
 9212TIP3    H251832   7.560   0.689  12.330
 9213TIP3   OH251833   7.539   0.739  12.699
 9213TIP3    H151834   7.551   0.785  12.612
 9213TIP3    H251835   7.588   0.645  12.684
 9214TIP3   OH251836   6.950   0.410  11.899
 9214TIP3    H151837   6.903   0.372  11.980
 9214TIP3    H251838   6.865   0.444  11.849
 9215TIP3   OH251839   6.280   0.420  12.618
 9215TIP3    H151840   6.377   0.405  12.651
 9215TIP3    H251841   6.296   0.409  12.522
 9216TIP3   OH251842   6.355   0.471  12.148
 9216TIP3    H151843   6.415   0.521  12.080
 9216TIP3    H251844   6.295   0.554  12.176
 9217TIP3   OH251845   6.603   0.601  12.511
 9217TIP3    H151846   6.512   0.649  12.481
 9217TIP3    H251847   6.607   0.512  12.456
 9218TIP3   OH251848   6.974   0.639  12.264
 9218TIP3    H151849   7.069   0.632  12.221
 9218TIP3    H251850   6.915   0.694  12.200
 9219TIP3   OH251851   6.833   0.760  12.018
 9219TIP3    H151852   6.790   0.701  11.948
 9219TIP3    H251853   6.925   0.790  11.973
 9220TIP3   OH251854   7.259   0.659  12.805
 9220TIP3    H151855   7.360   0.663  12.770
 9220TIP3    H251856   7.263   0.712  12.889
 9221TIP3   OH251857   6.706   0.310  12.440
 9221TIP3    H151858   6.620   0.260  12.479
 9221TIP3    H251859   6.764   0.226  12.412
 9222TIP3   OH251860   7.202   1.250  12.242
 9222TIP3    H151861   7.126   1.180  12.210
 9222TIP3    H251862   7.163   1.274  12.332
 9223TIP3   OH251863   7.569   0.414  12.073
 9223TIP3    H151864   7.462   0.407  12.051
 9223TIP3    H251865   7.588   0.519  12.075
 9224TIP3   OH251866   7.691   0.658  12.180
 9224TIP3    H151867   7.796   0.669  12.200
 9224TIP3    H251868   7.681   0.743  12.121
 9225TIP3   OH251869   7.434   1.379  12.143
 9225TIP3    H151870   7.390   1.478  12.158
 9225TIP3    H251871   7.349   1.317  12.162
 9226TIP3   OH251872   8.352   0.660  12.143
 9226TIP3    H151873   8.254   0.636  12.112
 9226TIP3    H251874   8.334   0.765  12.145
 9227TIP3   OH251875   8.038   1.631  12.225
 9227TIP3    H151876   7.978   1.546  12.239
 9227TIP3    H251877   8.088   1.614  12.140
 9228TIP3   OH251878   6.893   1.541  12.550
 9228TIP3    H151879   6.943   1.626  12.511
 9228TIP3    H251880   6.826   1.514  12.480
 9229TIP3   OH251881   6.515   1.016  12.006
 9229TIP3    H151882   6.562   1.068  12.081
 9229TIP3    H251883   6.410   1.018  12.023
 9230TIP3   OH251884   7.068   1.279  12.485
 9230TIP3    H151885   7.003   1.362  12.504
 9230TIP3    H251886   7.041   1.212  12.557
 9231TIP3   OH251887   6.964   1.814  12.432
 9231TIP3    H151888   6.856   1.821  12.439
 9231TIP3    H251889   6.996   1.903  12.480
 9232TIP3   OH251890   7.803   1.436  12.030
 9232TIP3    H151891   7.807   1.379  12.114
 9232TIP3    H251892   7.710   1.401  11.994
 9233TIP3   OH251893   8.262   1.909  12.042
 9233TIP3    H151894   8.317   1.973  11.984
 9233TIP3    H251895   8.166   1.957  12.039
 9234TIP3   OH251896   7.859   1.289  12.262
 9234TIP3    H151897   7.832   1.188  12.243
 9234TIP3    H251898   7.967   1.279  12.269
 9235TIP3   OH251899   7.130   1.562  11.868
 9235TIP3    H151900   7.104   1.508  11.788
 9235TIP3    H251901   7.061   1.522  11.933
 9236TIP3   OH251902   6.990   1.460  12.108
 9236TIP3    H151903   7.073   1.408  12.150
 9236TIP3    H251904   7.004   1.560  12.143
 9237TIP3   OH251905   6.630   1.205  12.185
 9237TIP3    H151906   6.532   1.239  12.215
 9237TIP3    H251907   6.655   1.281  12.121
 9238TIP3   OH251908   7.558   0.348  12.330
 9238TIP3    H151909   7.567   0.405  12.247
 9238TIP3    H251910   7.605   0.414  12.396
 9239TIP3   OH251911   7.327   1.657  12.172
 9239TIP3    H151912   7.228   1.692  12.192
 9239TIP3    H251913   7.377   1.749  12.152
 9240TIP3   OH251914   7.252   0.522  12.426
 9240TIP3    H151915   7.336   0.590  12.414
 9240TIP3    H251916   7.179   0.589  12.460
 9241TIP3   OH251917   7.339   0.216  12.473
 9241TIP3    H151918   7.308   0.318  12.464
 9241TIP3    H251919   7.442   0.229  12.446
 9242TIP3   OH251920   7.030   1.737  12.179
 9242TIP3    H151921   7.027   1.827  12.123
 9242TIP3    H251922   7.018   1.780  12.269
 9243TIP3   OH251923   6.837   0.338  12.136
 9243TIP3    H151924   6.813   0.417  12.198
 9243TIP3    H251925   6.937   0.317  12.168
 9244TIP3   OH251926   7.828   0.853  12.753
 9244TIP3    H151927   7.725   0.836  12.777
 9244TIP3    H251928   7.875   0.767  12.795
 9245TIP3   OH251929   6.674   1.467  12.025
 9245TIP3    H151930   6.753   1.494  12.086
 9245TIP3    H251931   6.731   1.423  11.954
 9246TIP3   OH251932   6.458   0.696  11.984
 9246TIP3    H151933   6.498   0.793  12.009
 9246TIP3    H251934   6.404   0.720  11.903
 9247TIP3   OH251935   6.607   0.007  12.824
 9247TIP3    H151936   6.586   0.103  12.787
 9247TIP3    H251937   6.567  -0.058  12.755
 9248TIP3   OH251938   6.416   1.584  12.374
 9248TIP3    H151939   6.359   1.660  12.418
 9248TIP3    H251940   6.513   1.626  12.376
 9249TIP3   OH251941   7.347   1.786  11.865
 9249TIP3    H151942   7.295   1.692  11.872
 9249TIP3    H251943   7.437   1.753  11.819
 9250TIP3   OH251944   7.844   1.698  11.880
 9250TIP3    H151945   7.877   1.630  11.949
 9250TIP3    H251946   7.932   1.709  11.825
 9251TIP3   OH251947   6.841   1.251  11.859
 9251TIP3    H151948   6.873   1.221  11.948
 9251TIP3    H251949   6.934   1.241  11.810
 9252TIP3   OH251950   7.455   1.418  11.834
 9252TIP3    H151951   7.421   1.399  11.925
 9252TIP3    H251952   7.453   1.316  11.800
 9253TIP3   OH251953   6.986   1.064  12.126
 9253TIP3    H151954   6.908   1.012  12.174
 9253TIP3    H251955   7.027   0.984  12.073
 9254TIP3   OH251956   7.119   0.853  11.923
 9254TIP3    H151957   7.093   0.878  11.831
 9254TIP3    H251958   7.222   0.890  11.925
 9255TIP3   OH251959   8.115   1.098  11.887
 9255TIP3    H151960   8.077   1.067  11.799
 9255TIP3    H251961   8.097   1.206  11.885
 9256TIP3   OH251962   7.064   1.998  12.061
 9256TIP3    H151963   7.165   1.993  12.089
 9256TIP3    H251964   7.073   2.071  11.990
 9257TIP3   OH251965   6.367   1.426  11.977
 9257TIP3    H151966   6.475   1.431  11.984
 9257TIP3    H251967   6.351   1.356  11.902
 9258TIP3   OH251968   8.142   1.214  12.271
 9258TIP3    H151969   8.248   1.220  12.260
 9258TIP3    H251970   8.137   1.160  12.356
 9259TIP3   OH251971   8.208   1.048  12.487
 9259TIP3    H151972   8.119   0.986  12.487
 9259TIP3    H251973   8.275   0.976  12.522
 9260TIP3   OH251974   8.294   0.987  12.085
 9260TIP3    H151975   8.226   1.007  12.011
 9260TIP3    H251976   8.241   1.027  12.161
 9261TIP3   OH251977   8.141   0.678  11.889
 9261TIP3    H151978   8.076   0.737  11.944
 9261TIP3    H251979   8.073   0.613  11.845
 9262TIP3   OH251980   7.989   0.862  12.544
 9262TIP3    H151981   7.955   0.772  12.499
 9262TIP3    H251982   7.931   0.856  12.626
 9263TIP3   OH251983   6.338   0.908  12.970
 9263TIP3    H151984   6.317   0.895  12.876
 9263TIP3    H251985   6.445   0.888  12.978
 9264TIP3   OH251986   7.986   0.402  11.838
 9264TIP3    H151987   8.005   0.393  11.932
 9264TIP3    H251988   7.879   0.385  11.836
 9265TIP3   OH251989   7.923   0.584  12.421
 9265TIP3    H151990   7.944   0.482  12.395
 9265TIP3    H251991   7.967   0.636  12.344
 9266TIP3   OH251992   7.979   0.634  12.869
 9266TIP3    H151993   8.078   0.668  12.891
 9266TIP3    H251994   7.960   0.569  12.943
 9267TIP3   OH251995   7.981   0.294  12.355
 9267TIP3    H151996   8.035   0.257  12.433
 9267TIP3    H251997   7.993   0.213  12.289
 9268TIP3   OH251998   8.222   0.298  12.031
 9268TIP3    H151999   8.282   0.241  11.970
 9268TIP3    H252000   8.235   0.396  11.994
 9269TIP3   OH252001   6.306   0.289  12.358
 9269TIP3    H152002   6.201   0.276  12.345
 9269TIP3    H252003   6.332   0.343  12.277
 9270TIP3   OH252004   7.887   1.892  12.537
 9270TIP3    H152005   7.963   1.884  12.467
 9270TIP3    H252006   7.902   1.991  12.569
 9271TIP3   OH252007   7.920   0.160  12.748
 9271TIP3    H152008   8.000   0.144  12.684
 9271TIP3    H252009   7.836   0.113  12.703
 9272TIP3   OH252010   8.135   0.173  12.571
 9272TIP3    H152011   8.195   0.086  12.552
 9272TIP3    H252012   8.210   0.250  12.579
 9273TIP3   OH252013   6.525   0.119  12.549
 9273TIP3    H152014   6.438   0.106  12.493
 9273TIP3    H252015   6.550   0.016  12.572
 9274TIP3   OH252016   6.443   0.105  12.167
 9274TIP3    H152017   6.470   0.153  12.083
 9274TIP3    H252018   6.348   0.146  12.188
 9275TIP3   OH252019   7.054   0.107  12.553
 9275TIP3    H152020   7.151   0.147  12.570
 9275TIP3    H252021   7.039   0.048  12.634
 9276TIP3   OH252022   7.652   0.050  12.675
 9276TIP3    H152023   7.593   0.035  12.596
 9276TIP3    H252024   7.660  -0.052  12.705
 9277TIP3   OH252025   7.752   0.149  12.193
 9277TIP3    H152026   7.706   0.243  12.212
 9277TIP3    H252027   7.786   0.120  12.282
 9278TIP3   OH252028   6.559   0.253  11.965
 9278TIP3    H152029   6.623   0.191  11.909
 9278TIP3    H252030   6.626   0.280  12.037
 9279TIP3   OH252031   7.135   0.290  12.265
 9279TIP3    H152032   7.172   0.242  12.345
 9279TIP3    H252033   7.187   0.383  12.272
 9280TIP3   OH252034   7.394   1.950  12.078
 9280TIP3    H152035   7.498   1.958  12.048
 9280TIP3    H252036   7.358   1.896  11.999
 9281TIP3   OH252037   8.089   1.892  12.332
 9281TIP3    H152038   8.077   1.795  12.289
 9281TIP3    H252039   8.107   1.952  12.253
 9282TIP3   OH252040   8.327   0.746  12.462
 9282TIP3    H152041   8.313   0.804  12.382
 9282TIP3    H252042   8.241   0.683  12.454
 9283TIP3   OH252043   8.316   0.410  12.618
 9283TIP3    H152044   8.421   0.411  12.641
 9283TIP3    H252045   8.326   0.394  12.521
 9284TIP3   OH252046   8.234   2.026  12.530
 9284TIP3    H152047   8.191   1.982  12.449
 9284TIP3    H252048   8.237   1.938  12.588
 9285TIP3   OH252049   8.314   1.791  12.673
 9285TIP3    H152050   8.326   1.687  12.656
 9285TIP3    H252051   8.416   1.821  12.666
 9286TIP3   OH252052   8.265   0.752  12.903
 9286TIP3    H152053   8.318   0.678  12.853
 9286TIP3    H252054   8.316   0.752  12.989
 9287TIP3   OH252055   8.290   0.307  12.365
 9287TIP3    H152056   8.192   0.300  12.329
 9287TIP3    H252057   8.346   0.317  12.284
 9288TIP3   OH252058   1.279   3.164  12.561
 9288TIP3    H152059   1.319   3.260  12.577
 9288TIP3    H252060   1.255   3.172  12.465
 9289TIP3   OH252061   1.208   3.024  12.881
 9289TIP3    H152062   1.207   3.025  12.978
 9289TIP3    H252063   1.315   3.021  12.868
 9290TIP3   OH252064   1.596   3.311  12.727
 9290TIP3    H152065   1.563   3.260  12.808
 9290TIP3    H252066   1.578   3.410  12.755
 9291TIP3   OH252067   0.145   2.728  12.337
 9291TIP3    H152068   0.201   2.815  12.360
 9291TIP3    H252069   0.053   2.740  12.386
 9292TIP3   OH252070   0.171   3.089  12.698
 9292TIP3    H152071   0.199   2.991  12.731
 9292TIP3    H252072   0.230   3.095  12.618
 9293TIP3   OH252073   1.262   3.917  12.740
 9293TIP3    H152074   1.360   3.883  12.711
 9293TIP3    H252075   1.279   3.969  12.823
 9294TIP3   OH252076   0.993   3.335  12.925
 9294TIP3    H152077   1.002   3.244  12.876
 9294TIP3    H252078   1.080   3.324  12.982
 9295TIP3   OH252079   1.419   2.519  12.526
 9295TIP3    H152080   1.493   2.452  12.558
 9295TIP3    H252081   1.461   2.614  12.553
 9296TIP3   OH252082   0.308   2.819  12.722
 9296TIP3    H152083   0.235   2.778  12.785
 9296TIP3    H252084   0.334   2.740  12.660
 9297TIP3   OH252085   0.837   2.955  12.696
 9297TIP3    H152086   0.828   2.875  12.763
 9297TIP3    H252087   0.779   2.907  12.625
 9298TIP3   OH252088   1.257   3.441  12.416
 9298TIP3    H152089   1.235   3.440  12.321
 9298TIP3    H252090   1.223   3.541  12.438
 9299TIP3   OH252091   0.109   3.418  12.258
 9299TIP3    H152092   0.114   3.475  12.174
 9299TIP3    H252093   0.143   3.487  12.325
 9300TIP3   OH252094   0.894   2.125  12.816
 9300TIP3    H152095   0.857   2.025  12.809
 9300TIP3    H252096   0.804   2.177  12.844
 9301TIP3   OH252097   1.480   3.789  12.598
 9301TIP3    H152098   1.502   3.696  12.553
 9301TIP3    H252099   1.570   3.845  12.580
 9302TIP3   OH252100   1.607   3.564  12.476
 9302TIP3    H152101   1.548   3.522  12.404
 9302TIP3    H252102   1.606   3.483  12.539
 9303TIP3   OH252103   1.186   3.114  12.299
 9303TIP3    H152104   1.128   3.204  12.291
 9303TIP3    H252105   1.257   3.125  12.227
 9304TIP3   OH252106   1.184   2.963  11.969
 9304TIP3    H152107   1.241   3.012  12.038
 9304TIP3    H252108   1.220   2.863  11.975
 9305TIP3   OH252109   1.572   3.093  12.390
 9305TIP3    H152110   1.510   3.089  12.470
 9305TIP3    H252111   1.663   3.050  12.429
 9306TIP3   OH252112   0.788   3.555  12.824
 9306TIP3    H152113   0.816   3.555  12.731
 9306TIP3    H252114   0.864   3.493  12.863
 9307TIP3   OH252115   1.420   3.049  12.156
 9307TIP3    H152116   1.482   3.066  12.236
 9307TIP3    H252117   1.478   3.098  12.085
 9308TIP3   OH252118   1.168   3.742  12.484
 9308TIP3    H152119   1.181   3.792  12.570
 9308TIP3    H252120   1.145   3.821  12.423
 9309TIP3   OH252121   1.833   2.058  12.183
 9309TIP3    H152122   1.739   2.061  12.234
 9309TIP3    H252123   1.796   2.097  12.100
 9310TIP3   OH252124   0.386   3.066  12.376
 9310TIP3    H152125   0.425   3.150  12.327
 9310TIP3    H252126   0.465   2.994  12.365
 9311TIP3   OH252127   1.976   3.665  12.004
 9311TIP3    H152128   2.003   3.769  12.014
 9311TIP3    H252129   2.072   3.619  12.017
 9312TIP3   OH252130   0.146   3.698  12.944
 9312TIP3    H152131   0.188   3.603  12.923
 9312TIP3    H252132   0.150   3.686  13.043
 9313TIP3   OH252133   1.130   4.038  12.335
 9313TIP3    H152134   1.124   4.057  12.239
 9313TIP3    H252135   1.126   4.139  12.369
 9314TIP3   OH252136   0.456   3.915  12.517
 9314TIP3    H152137   0.437   3.913  12.611
 9314TIP3    H252138   0.363   3.885  12.478
 9315TIP3   OH252139   1.477   3.974  12.023
 9315TIP3    H152140   1.537   3.896  11.979
 9315TIP3    H252141   1.482   3.949  12.118
 9316TIP3   OH252142   1.424   3.979  12.298
 9316TIP3    H152143   1.320   4.002  12.317
 9316TIP3    H252144   1.441   3.901  12.360
 9317TIP3   OH252145   0.628   2.243  12.936
 9317TIP3    H152146   0.529   2.217  12.907
 9317TIP3    H252147   0.602   2.322  12.997
 9318TIP3   OH252148   1.582   3.166  11.969
 9318TIP3    H152149   1.578   3.182  11.873
 9318TIP3    H252150   1.687   3.163  11.984
 9319TIP3   OH252151   1.110   2.425  11.985
 9319TIP3    H152152   1.080   2.395  12.075
 9319TIP3    H252153   1.033   2.375  11.933
 9320TIP3   OH252154   0.662   2.790  12.525
 9320TIP3    H152155   0.560   2.754  12.523
 9320TIP3    H252156   0.707   2.709  12.474
 9321TIP3   OH252157   1.257   2.872  12.433
 9321TIP3    H152158   1.232   2.961  12.381
 9321TIP3    H252159   1.321   2.826  12.368
 9322TIP3   OH252160   0.698   2.504  11.868
 9322TIP3    H152161   0.663   2.446  11.946
 9322TIP3    H252162   0.622   2.575  11.856
 9323TIP3   OH252163   0.122   2.460  12.614
 9323TIP3    H152164   0.226   2.444  12.633
 9323TIP3    H252165   0.120   2.455  12.517
 9324TIP3   OH252166   0.113   2.544  12.140
 9324TIP3    H152167   0.182   2.588  12.077
 9324TIP3    H252168   0.119   2.618  12.214
 9325TIP3   OH252169   0.963   2.497  12.599
 9325TIP3    H152170   0.859   2.471  12.594
 9325TIP3    H252171   1.005   2.433  12.668
 9326TIP3   OH252172   0.383   2.673  12.484
 9326TIP3    H152173   0.288   2.680  12.438
 9326TIP3    H252174   0.395   2.565  12.484
 9327TIP3   OH252175   0.829   2.797  12.227
 9327TIP3    H152176   0.855   2.704  12.270
 9327TIP3    H252177   0.724   2.789  12.226
 9328TIP3   OH252178   1.443   2.407  12.933
 9328TIP3    H152179   1.351   2.379  12.970
 9328TIP3    H252180   1.454   2.336  12.860
 9329TIP3   OH252181   0.597   2.849  12.013
 9329TIP3    H152182   0.567   2.756  11.979
 9329TIP3    H252183   0.703   2.848  11.997
 9330TIP3   OH252184   0.437   2.386  12.511
 9330TIP3    H152185   0.456   2.284  12.529
 9330TIP3    H252186   0.531   2.413  12.467
 9331TIP3   OH252187   0.972   3.317  12.261
 9331TIP3    H152188   0.894   3.266  12.212
 9331TIP3    H252189   0.921   3.342  12.345
 9332TIP3   OH252190   1.374   2.506  12.053
 9332TIP3    H152191   1.277   2.488  12.010
 9332TIP3    H252192   1.359   2.603  12.093
 9333TIP3   OH252193   1.434   2.760  12.200
 9333TIP3    H152194   1.532   2.758  12.238
 9333TIP3    H252195   1.444   2.837  12.132
 9334TIP3   OH252196   1.168   3.464  12.110
 9334TIP3    H152197   1.148   3.563  12.143
 9334TIP3    H252198   1.102   3.403  12.165
 9335TIP3   OH252199   1.763   3.725  12.207
 9335TIP3    H152200   1.733   3.654  12.274
 9335TIP3    H252201   1.833   3.666  12.154
 9336TIP3   OH252202   0.673   3.627  12.554
 9336TIP3    H152203   0.714   3.720  12.524
 9336TIP3    H252204   0.601   3.612  12.485
 9337TIP3   OH252205   0.275   3.049  12.022
 9337TIP3    H152206   0.355   3.104  12.066
 9337TIP3    H252207   0.192   3.067  12.081
 9338TIP3   OH252208   0.849   3.387  12.496
 9338TIP3    H152209   0.781   3.465  12.521
 9338TIP3    H252210   0.834   3.310  12.561
 9339TIP3   OH252211   0.726   3.894  12.409
 9339TIP3    H152212   0.620   3.909  12.428
 9339TIP3    H252213   0.765   3.971  12.465
 9340TIP3   OH252214   1.564   3.524  11.996
 9340TIP3    H152215   1.602   3.476  12.077
 9340TIP3    H252216   1.470   3.476  11.988
 9341TIP3   OH252217   2.034   3.962  12.051
 9341TIP3    H152218   2.100   4.037  12.018
 9341TIP3    H252219   1.949   4.023  12.076
 9342TIP3   OH252220   1.631   3.363  12.236
 9342TIP3    H152221   1.605   3.279  12.292
 9342TIP3    H252222   1.739   3.359  12.236
 9343TIP3   OH252223   0.903   3.641  11.871
 9343TIP3    H152224   0.891   3.584  11.790
 9343TIP3    H252225   0.838   3.588  11.931
 9344TIP3   OH252226   0.744   3.549  12.120
 9344TIP3    H152227   0.837   3.529  12.165
 9344TIP3    H252228   0.748   3.656  12.131
 9345TIP3   OH252229   0.402   3.296  12.169
 9345TIP3    H152230   0.301   3.319  12.200
 9345TIP3    H252231   0.425   3.380  12.112
 9346TIP3   OH252232   1.316   2.343  12.315
 9346TIP3    H152233   1.327   2.419  12.247
 9346TIP3    H252234   1.349   2.395  12.394
 9347TIP3   OH252235   1.095   3.754  12.179
 9347TIP3    H152236   0.993   3.791  12.179
 9347TIP3    H252237   1.147   3.841  12.149
 9348TIP3   OH252238   1.069   2.589  12.364
 9348TIP3    H152239   1.123   2.672  12.402
 9348TIP3    H252240   1.005   2.563  12.440
 9349TIP3   OH252241   1.058   2.268  12.456
 9349TIP3    H152242   1.022   2.364  12.485
 9349TIP3    H252243   1.145   2.297  12.405
 9350TIP3   OH252244   0.802   3.831  12.149
 9350TIP3    H152245   0.799   3.925  12.100
 9350TIP3    H252246   0.783   3.873  12.239
 9351TIP3   OH252247   0.622   2.373  12.102
 9351TIP3    H152248   0.625   2.443  12.176
 9351TIP3    H252249   0.719   2.330  12.118
 9352TIP3   OH252250   0.468   3.540  12.017
 9352TIP3    H152251   0.565   3.550  12.059
 9352TIP3    H252252   0.491   3.463  11.951
 9353TIP3   OH252253   0.267   2.732  11.969
 9353TIP3    H152254   0.306   2.826  11.999
 9353TIP3    H252255   0.192   2.759  11.904
 9354TIP3   OH252256   1.782   3.873  12.981
 9354TIP3    H152257   1.783   3.911  12.890
 9354TIP3    H252258   1.799   3.967  13.029
 9355TIP3   OH252259   0.339   2.181  12.873
 9355TIP3    H152260   0.324   2.189  12.776
 9355TIP3    H252261   0.336   2.073  12.879
 9356TIP3   OH252262   0.248   3.702  12.453
 9356TIP3    H152263   0.144   3.717  12.436
 9356TIP3    H252264   0.286   3.746  12.371
 9357TIP3   OH252265   1.131   3.857  11.867
 9357TIP3    H152266   1.069   3.769  11.879
 9357TIP3    H252267   1.218   3.814  11.822
 9358TIP3   OH252268   1.627   3.782  11.866
 9358TIP3    H152269   1.629   3.706  11.935
 9358TIP3    H252270   1.720   3.766  11.820
 9359TIP3   OH252271   0.612   3.324  11.879
 9359TIP3    H152272   0.631   3.276  11.964
 9359TIP3    H252273   0.710   3.322  11.838
 9360TIP3   OH252274   1.248   3.486  11.840
 9360TIP3    H152275   1.199   3.474  11.927
 9360TIP3    H252276   1.240   3.383  11.810
 9361TIP3   OH252277   0.765   3.134  12.123
 9361TIP3    H152278   0.745   3.064  12.193
 9361TIP3    H252279   0.806   3.065  12.057
 9362TIP3   OH252280   0.886   2.951  11.940
 9362TIP3    H152281   0.896   3.001  11.856
 9362TIP3    H252282   0.987   2.946  11.971
 9363TIP3   OH252283   1.901   3.181  11.876
 9363TIP3    H152284   1.879   3.154  11.783
 9363TIP3    H252285   1.899   3.290  11.868
 9364TIP3   OH252286   0.858   4.110  12.080
 9364TIP3    H152287   0.963   4.123  12.096
 9364TIP3    H252288   0.855   4.149  11.989
 9365TIP3   OH252289   0.174   3.556  12.025
 9365TIP3    H152290   0.282   3.565  12.022
 9365TIP3    H252291   0.158   3.495  11.946
 9366TIP3   OH252292   0.102   4.103  12.471
 9366TIP3    H152293  -0.003   4.122  12.467
 9366TIP3    H252294   0.112   4.052  12.556
 9367TIP3   OH252295   0.165   3.909  12.690
 9367TIP3    H152296   0.173   3.805  12.676
 9367TIP3    H252297   0.062   3.915  12.721
 9368TIP3   OH252298   1.942   3.311  12.228
 9368TIP3    H152299   2.031   3.365  12.251
 9368TIP3    H252300   1.942   3.233  12.294
 9369TIP3   OH252301   2.037   3.065  12.086
 9369TIP3    H152302   1.978   3.086  12.005
 9369TIP3    H252303   2.025   3.158  12.131
 9370TIP3   OH252304   0.099   2.346  12.329
 9370TIP3    H152305  -0.009   2.343  12.323
 9370TIP3    H252306   0.118   2.397  12.244
 9371TIP3   OH252307   1.706   3.981  12.568
 9371TIP3    H152308   1.755   3.970  12.481
 9371TIP3    H252309   1.745   4.074  12.600
 9372TIP3   OH252310   0.571   3.836  12.816
 9372TIP3    H152311   0.510   3.772  12.763
 9372TIP3    H252312   0.663   3.781  12.813
 9373TIP3   OH252313   1.137   2.340  12.771
 9373TIP3    H152314   1.076   2.274  12.823
 9373TIP3    H252315   1.172   2.274  12.701
 9374TIP3   OH252316   1.914   2.254  12.538
 9374TIP3    H152317   1.987   2.178  12.517
 9374TIP3    H252318   1.982   2.331  12.569
 9375TIP3   OH252319   0.297   2.116  12.612
 9375TIP3    H152320   0.248   2.144  12.529
 9375TIP3    H252321   0.361   2.038  12.584
 9376TIP3   OH252322   0.246   2.111  12.147
 9376TIP3    H152323   0.276   2.179  12.076
 9376TIP3    H252324   0.204   2.180  12.212
 9377TIP3   OH252325   0.801   2.167  12.551
 9377TIP3    H152326   0.872   2.215  12.491
 9377TIP3    H252327   0.865   2.151  12.627
 9378TIP3   OH252328   1.573   2.123  12.283
 9378TIP3    H152329   1.499   2.192  12.313
 9378TIP3    H252330   1.583   2.057  12.363
 9379TIP3   OH252331   0.211   3.927  12.239
 9379TIP3    H152332   0.107   3.922  12.222
 9379TIP3    H252333   0.220   4.034  12.232
 9380TIP3   OH252334   0.355   2.318  11.981
 9380TIP3    H152335   0.441   2.276  11.936
 9380TIP3    H252336   0.405   2.364  12.056
 9381TIP3   OH252337   0.958   2.347  12.194
 9381TIP3    H152338   0.974   2.294  12.277
 9381TIP3    H252339   0.926   2.443  12.231
 9382TIP3   OH252340   1.176   4.045  12.073
 9382TIP3    H152341   1.280   4.043  12.052
 9382TIP3    H252342   1.143   3.986  11.996
 9383TIP3   OH252343   1.887   3.940  12.345
 9383TIP3    H152344   1.844   3.862  12.290
 9383TIP3    H252345   1.888   4.023  12.281
 9384TIP3   OH252346   0.348   3.974  11.928
 9384TIP3    H152347   0.332   4.025  12.013
 9384TIP3    H252348   0.420   3.902  11.955
 9385TIP3   OH252349   3.407   3.167  12.512
 9385TIP3    H152350   3.383   3.269  12.487
 9385TIP3    H252351   3.311   3.122  12.515
 9386TIP3   OH252352   2.177   2.808  12.452
 9386TIP3    H152353   2.158   2.912  12.454
 9386TIP3    H252354   2.106   2.778  12.523
 9387TIP3   OH252355   3.355   4.029  12.756
 9387TIP3    H152356   3.411   3.963  12.698
 9387TIP3    H252357   3.354   3.977  12.838
 9388TIP3   OH252358   3.516   2.530  12.542
 9388TIP3    H152359   3.595   2.484  12.589
 9388TIP3    H252360   3.571   2.608  12.496
 9389TIP3   OH252361   2.302   2.781  12.752
 9389TIP3    H152362   2.361   2.724  12.814
 9389TIP3    H252363   2.349   2.752  12.668
 9390TIP3   OH252364   2.818   2.933  12.704
 9390TIP3    H152365   2.915   2.889  12.703
 9390TIP3    H252366   2.765   2.865  12.642
 9391TIP3   OH252367   3.331   3.430  12.414
 9391TIP3    H152368   3.296   3.420  12.322
 9391TIP3    H252369   3.300   3.532  12.434
 9392TIP3   OH252370   2.224   3.407  12.275
 9392TIP3    H152371   2.225   3.465  12.191
 9392TIP3    H252372   2.251   3.484  12.340
 9393TIP3   OH252373   3.497   3.812  12.609
 9393TIP3    H152374   3.535   3.725  12.564
 9393TIP3    H252375   3.563   3.886  12.575
 9394TIP3   OH252376   3.651   3.536  12.464
 9394TIP3    H152377   3.623   3.496  12.377
 9394TIP3    H252378   3.704   3.452  12.498
 9395TIP3   OH252379   3.248   3.065  12.267
 9395TIP3    H152380   3.194   3.157  12.266
 9395TIP3    H252381   3.348   3.094  12.240
 9396TIP3   OH252382   3.240   2.949  11.969
 9396TIP3    H152383   3.275   2.990  12.053
 9396TIP3    H252384   3.297   2.858  11.967
 9397TIP3   OH252385   3.674   3.091  12.403
 9397TIP3    H152386   3.583   3.100  12.456
 9397TIP3    H252387   3.741   3.038  12.463
 9398TIP3   OH252388   2.693   3.174  12.575
 9398TIP3    H152389   2.642   3.108  12.514
 9398TIP3    H252390   2.720   3.108  12.648
 9399TIP3   OH252391   2.890   3.567  12.853
 9399TIP3    H152392   2.878   3.498  12.781
 9399TIP3    H252393   2.922   3.501  12.924
 9400TIP3   OH252394   2.710   3.082  12.914
 9400TIP3    H152395   2.741   3.011  12.847
 9400TIP3    H252396   2.803   3.109  12.955
 9401TIP3   OH252397   3.523   3.042  12.161
 9401TIP3    H152398   3.592   3.031  12.235
 9401TIP3    H252399   3.590   3.083  12.093
 9402TIP3   OH252400   3.243   3.710  12.466
 9402TIP3    H152401   3.297   3.777  12.524
 9402TIP3    H252402   3.168   3.773  12.429
 9403TIP3   OH252403   2.518   3.032  12.343
 9403TIP3    H152404   2.516   3.122  12.292
 9403TIP3    H252405   2.544   2.959  12.276
 9404TIP3   OH252406   4.048   3.651  11.996
 9404TIP3    H152407   4.092   3.748  12.003
 9404TIP3    H252408   4.136   3.588  12.000
 9405TIP3   OH252409   3.177   4.057  12.344
 9405TIP3    H152410   3.199   4.064  12.249
 9405TIP3    H252411   3.189   4.160  12.374
 9406TIP3   OH252412   2.509   3.938  12.507
 9406TIP3    H152413   2.529   3.908  12.599
 9406TIP3    H252414   2.408   3.907  12.494
 9407TIP3   OH252415   3.697   3.166  11.976
 9407TIP3    H152416   3.673   3.167  11.881
 9407TIP3    H252417   3.804   3.167  11.972
 9408TIP3   OH252418   3.181   2.450  11.954
 9408TIP3    H152419   3.177   2.425  12.048
 9408TIP3    H252420   3.105   2.378  11.924
 9409TIP3   OH252421   2.702   2.735  12.540
 9409TIP3    H152422   2.611   2.676  12.538
 9409TIP3    H252423   2.751   2.706  12.458
 9410TIP3   OH252424   3.329   2.837  12.420
 9410TIP3    H152425   3.297   2.929  12.377
 9410TIP3    H252426   3.391   2.804  12.345
 9411TIP3   OH252427   3.401   2.790  12.694
 9411TIP3    H152428   3.366   2.847  12.618
 9411TIP3    H252429   3.428   2.698  12.650
 9412TIP3   OH252430   2.791   2.475  11.882
 9412TIP3    H152431   2.741   2.437  11.962
 9412TIP3    H252432   2.737   2.564  11.863
 9413TIP3   OH252433   2.122   2.457  12.603
 9413TIP3    H152434   2.090   2.554  12.633
 9413TIP3    H252435   2.219   2.453  12.644
 9414TIP3   OH252436   3.027   2.527  12.645
 9414TIP3    H152437   2.951   2.466  12.606
 9414TIP3    H252438   3.093   2.456  12.688
 9415TIP3   OH252439   2.392   2.631  12.531
 9415TIP3    H152440   2.330   2.692  12.472
 9415TIP3    H252441   2.420   2.545  12.476
 9416TIP3   OH252442   2.793   2.683  12.277
 9416TIP3    H152443   2.895   2.681  12.252
 9416TIP3    H252444   2.752   2.759  12.219
 9417TIP3   OH252445   2.691   2.827  12.029
 9417TIP3    H152446   2.650   2.783  11.948
 9417TIP3    H252447   2.785   2.859  11.990
 9418TIP3   OH252448   2.534   2.380  12.447
 9418TIP3    H152449   2.479   2.306  12.497
 9418TIP3    H252450   2.607   2.321  12.403
 9419TIP3   OH252451   3.069   3.304  12.261
 9419TIP3    H152452   2.988   3.257  12.215
 9419TIP3    H252453   3.020   3.335  12.344
 9420TIP3   OH252454   3.467   2.503  12.034
 9420TIP3    H152455   3.369   2.547  12.033
 9420TIP3    H252456   3.526   2.587  12.063
 9421TIP3   OH252457   3.465   2.746  12.201
 9421TIP3    H152458   3.562   2.709  12.227
 9421TIP3    H252459   3.499   2.820  12.138
 9422TIP3   OH252460   3.268   3.467  12.110
 9422TIP3    H152461   3.226   3.561  12.141
 9422TIP3    H252462   3.200   3.399  12.153
 9423TIP3   OH252463   4.092   2.710  12.199
 9423TIP3    H152464   4.007   2.710  12.140
 9423TIP3    H252465   4.109   2.815  12.211
 9424TIP3   OH252466   3.876   3.731  12.206
 9424TIP3    H152467   3.830   3.653  12.257
 9424TIP3    H252468   3.938   3.677  12.142
 9425TIP3   OH252469   3.596   3.094  12.913
 9425TIP3    H152470   3.535   3.043  12.979
 9425TIP3    H252471   3.612   3.015  12.850
 9426TIP3   OH252472   2.760   3.616  12.569
 9426TIP3    H152473   2.823   3.703  12.566
 9426TIP3    H252474   2.696   3.631  12.493
 9427TIP3   OH252475   2.329   3.072  12.025
 9427TIP3    H152476   2.375   3.148  12.080
 9427TIP3    H252477   2.224   3.078  12.048
 9428TIP3   OH252478   2.915   3.367  12.481
 9428TIP3    H152479   2.864   3.453  12.517
 9428TIP3    H252480   2.865   3.289  12.530
 9429TIP3   OH252481   2.798   3.894  12.433
 9429TIP3    H152482   2.694   3.912  12.445
 9429TIP3    H252483   2.836   3.981  12.481
 9430TIP3   OH252484   3.641   3.501  12.030
 9430TIP3    H152485   3.656   3.446  12.114
 9430TIP3    H252486   3.541   3.470  12.012
 9431TIP3   OH252487   4.111   3.963  12.032
 9431TIP3    H152488   4.194   4.029  12.028
 9431TIP3    H252489   4.034   4.028  12.000
 9432TIP3   OH252490   3.720   3.335  12.252
 9432TIP3    H152491   3.700   3.240  12.293
 9432TIP3    H252492   3.828   3.332  12.247
 9433TIP3   OH252493   2.968   3.658  11.873
 9433TIP3    H152494   2.961   3.599  11.792
 9433TIP3    H252495   2.910   3.596  11.933
 9434TIP3   OH252496   2.835   3.551  12.115
 9434TIP3    H152497   2.910   3.513  12.175
 9434TIP3    H252498   2.849   3.658  12.133
 9435TIP3   OH252499   2.472   3.275  12.174
 9435TIP3    H152500   2.384   3.309  12.222
 9435TIP3    H252501   2.509   3.365  12.134
 9436TIP3   OH252502   3.395   2.411  12.294
 9436TIP3    H152503   3.447   2.435  12.211
 9436TIP3    H252504   3.443   2.471  12.361
 9437TIP3   OH252505   3.147   3.731  12.178
 9437TIP3    H152506   3.056   3.786  12.193
 9437TIP3    H252507   3.215   3.808  12.158
 9438TIP3   OH252508   3.115   2.591  12.387
 9438TIP3    H152509   3.184   2.673  12.385
 9438TIP3    H252510   3.083   2.589  12.480
 9439TIP3   OH252511   3.212   2.264  12.451
 9439TIP3    H152512   3.161   2.356  12.442
 9439TIP3    H252513   3.301   2.292  12.402
 9440TIP3   OH252514   2.864   3.835  12.176
 9440TIP3    H152515   2.868   3.927  12.125
 9440TIP3    H252516   2.845   3.873  12.267
 9441TIP3   OH252517   2.719   2.402  12.143
 9441TIP3    H152518   2.718   2.494  12.195
 9441TIP3    H252519   2.820   2.369  12.156
 9442TIP3   OH252520   3.681   2.852  12.759
 9442TIP3    H152521   3.572   2.853  12.758
 9442TIP3    H252522   3.694   2.801  12.843
 9443TIP3   OH252523   2.518   3.542  12.027
 9443TIP3    H152524   2.607   3.579  12.071
 9443TIP3    H252525   2.561   3.496  11.948
 9444TIP3   OH252526   2.303   2.748  11.945
 9444TIP3    H152527   2.363   2.812  12.000
 9444TIP3    H252528   2.251   2.820  11.893
 9445TIP3   OH252529   2.280   3.662  12.412
 9445TIP3    H152530   2.198   3.721  12.439
 9445TIP3    H252531   2.330   3.735  12.356
 9446TIP3   OH252532   3.216   3.853  11.874
 9446TIP3    H152533   3.145   3.774  11.894
 9446TIP3    H252534   3.282   3.802  11.813
 9447TIP3   OH252535   3.714   3.785  11.875
 9447TIP3    H152536   3.720   3.715  11.948
 9447TIP3    H252537   3.798   3.758  11.820
 9448TIP3   OH252538   2.687   3.341  11.858
 9448TIP3    H152539   2.725   3.328  11.949
 9448TIP3    H252540   2.773   3.310  11.806
 9449TIP3   OH252541   3.299   3.480  11.816
 9449TIP3    H152542   3.273   3.464  11.909
 9449TIP3    H252543   3.313   3.377  11.791
 9450TIP3   OH252544   2.845   3.141  12.125
 9450TIP3    H152545   2.762   3.093  12.168
 9450TIP3    H252546   2.874   3.067  12.060
 9451TIP3   OH252547   2.940   2.943  11.904
 9451TIP3    H152548   2.946   2.989  11.816
 9451TIP3    H252549   3.046   2.940  11.926
 9452TIP3   OH252550   3.981   3.189  11.877
 9452TIP3    H152551   3.958   3.144  11.789
 9452TIP3    H252552   3.953   3.292  11.861
 9453TIP3   OH252553   2.944   4.100  12.081
 9453TIP3    H152554   3.048   4.113  12.095
 9453TIP3    H252555   2.926   4.166  12.005
 9454TIP3   OH252556   2.223   3.509  12.010
 9454TIP3    H152557   2.330   3.517  12.008
 9454TIP3    H252558   2.202   3.452  11.929
 9455TIP3   OH252559   2.024   4.114  12.509
 9455TIP3    H152560   1.981   4.034  12.457
 9455TIP3    H252561   2.086   4.064  12.574
 9456TIP3   OH252562   2.194   3.896  12.677
 9456TIP3    H152563   2.116   3.825  12.684
 9456TIP3    H252564   2.218   3.922  12.769
 9457TIP3   OH252565   4.015   3.300  12.275
 9457TIP3    H152566   4.117   3.336  12.277
 9457TIP3    H252567   4.012   3.237  12.355
 9458TIP3   OH252568   4.062   3.093  12.489
 9458TIP3    H152569   3.983   3.027  12.519
 9458TIP3    H252570   4.148   3.059  12.540
 9459TIP3   OH252571   4.138   3.071  12.096
 9459TIP3    H152572   4.080   3.109  12.021
 9459TIP3    H252573   4.088   3.116  12.171
 9460TIP3   OH252574   4.027   2.757  11.877
 9460TIP3    H152575   4.003   2.851  11.914
 9460TIP3    H252576   3.938   2.708  11.909
 9461TIP3   OH252577   3.848   2.905  12.547
 9461TIP3    H152578   3.826   2.814  12.500
 9461TIP3    H252579   3.797   2.885  12.632
 9462TIP3   OH252580   3.856   2.419  11.865
 9462TIP3    H152581   3.838   2.482  11.944
 9462TIP3    H252582   3.759   2.420  11.826
 9463TIP3   OH252583   3.774   2.638  12.414
 9463TIP3    H152584   3.816   2.539  12.418
 9463TIP3    H252585   3.817   2.668  12.328
 9464TIP3   OH252586   3.892   2.331  12.411
 9464TIP3    H152587   3.913   2.254  12.475
 9464TIP3    H252588   3.821   2.280  12.353
 9465TIP3   OH252589   4.114   2.358  12.020
 9465TIP3    H152590   4.103   2.270  11.966
 9465TIP3    H252591   4.049   2.423  11.973
 9466TIP3   OH252592   2.364   3.961  12.913
 9466TIP3    H152593   2.396   3.890  12.980
 9466TIP3    H252594   2.431   3.935  12.839
 9467TIP3   OH252595   2.572   3.842  12.761
 9467TIP3    H152596   2.615   3.747  12.741
 9467TIP3    H252597   2.662   3.892  12.794
 9468TIP3   OH252598   2.844   3.887  12.848
 9468TIP3    H152599   2.860   3.781  12.860
 9468TIP3    H252600   2.849   3.920  12.940
 9469TIP3   OH252601   3.190   2.325  12.785
 9469TIP3    H152602   3.210   2.234  12.832
 9469TIP3    H252603   3.276   2.333  12.728
 9470TIP3   OH252604   2.405   2.143  12.544
 9470TIP3    H152605   2.309   2.115  12.509
 9470TIP3    H252606   2.446   2.046  12.557
 9471TIP3   OH252607   2.275   2.089  12.125
 9471TIP3    H152608   2.307   2.155  12.054
 9471TIP3    H252609   2.206   2.147  12.174
 9472TIP3   OH252610   2.880   2.104  12.554
 9472TIP3    H152611   2.972   2.062  12.524
 9472TIP3    H252612   2.889   2.098  12.649
 9473TIP3   OH252613   3.491   2.136  12.711
 9473TIP3    H152614   3.509   2.198  12.634
 9473TIP3    H252615   3.497   2.037  12.675
 9474TIP3   OH252616   3.681   2.137  12.307
 9474TIP3    H152617   3.639   2.169  12.224
 9474TIP3    H252618   3.623   2.050  12.331
 9475TIP3   OH252619   2.268   3.897  12.239
 9475TIP3    H152620   2.164   3.903  12.220
 9475TIP3    H252621   2.300   3.983  12.189
 9476TIP3   OH252622   2.474   2.377  11.995
 9476TIP3    H152623   2.504   2.290  11.946
 9476TIP3    H252624   2.552   2.384  12.062
 9477TIP3   OH252625   3.034   2.378  12.202
 9477TIP3    H152626   3.078   2.306  12.259
 9477TIP3    H252627   3.046   2.466  12.258
 9478TIP3   OH252628   3.253   4.035  12.084
 9478TIP3    H152629   3.320   4.084  12.025
 9478TIP3    H252630   3.212   3.969  12.015
 9479TIP3   OH252631   2.375   3.973  11.918
 9479TIP3    H152632   2.358   4.025  12.003
 9479TIP3    H252633   2.467   3.924  11.936
 9480TIP3   OH252634   5.504   3.158  12.548
 9480TIP3    H152635   5.476   3.260  12.561
 9480TIP3    H252636   5.440   3.135  12.472
 9481TIP3   OH252637   5.729   3.464  12.740
 9481TIP3    H152638   5.699   3.381  12.794
 9481TIP3    H252639   5.807   3.500  12.801
 9482TIP3   OH252640   4.687   3.524  12.903
 9482TIP3    H152641   4.594   3.487  12.874
 9482TIP3    H252642   4.756   3.483  12.839
 9483TIP3   OH252643   4.321   3.035  12.678
 9483TIP3    H152644   4.415   2.989  12.692
 9483TIP3    H252645   4.351   3.135  12.657
 9484TIP3   OH252646   5.426   3.941  12.754
 9484TIP3    H152647   5.506   3.903  12.698
 9484TIP3    H252648   5.448   3.887  12.837
 9485TIP3   OH252649   5.607   2.565  12.512
 9485TIP3    H152650   5.658   2.514  12.585
 9485TIP3    H252651   5.688   2.605  12.461
 9486TIP3   OH252652   4.874   2.970  12.693
 9486TIP3    H152653   4.960   2.910  12.688
 9486TIP3    H252654   4.800   2.904  12.651
 9487TIP3   OH252655   5.408   3.433  12.451
 9487TIP3    H152656   5.343   3.431  12.375
 9487TIP3    H252657   5.397   3.538  12.474
 9488TIP3   OH252658   5.766   2.479  12.726
 9488TIP3    H152659   5.739   2.385  12.765
 9488TIP3    H252660   5.822   2.522  12.799
 9489TIP3   OH252661   4.306   3.395  12.257
 9489TIP3    H152662   4.298   3.454  12.176
 9489TIP3    H252663   4.326   3.470  12.324
 9490TIP3   OH252664   5.608   3.846  12.568
 9490TIP3    H152665   5.649   3.747  12.552
 9490TIP3    H252666   5.691   3.907  12.542
 9491TIP3   OH252667   5.715   3.574  12.476
 9491TIP3    H152668   5.716   3.485  12.425
 9491TIP3    H252669   5.708   3.530  12.566
 9492TIP3   OH252670   5.345   3.121  12.330
 9492TIP3    H152671   5.287   3.209  12.312
 9492TIP3    H252672   5.412   3.114  12.254
 9493TIP3   OH252673   5.328   2.941  11.976
 9493TIP3    H152674   5.382   2.997  12.043
 9493TIP3    H252675   5.393   2.856  11.966
 9494TIP3   OH252676   5.727   3.056  12.390
 9494TIP3    H152677   5.653   3.094  12.453
 9494TIP3    H252678   5.798   3.011  12.452
 9495TIP3   OH252679   4.689   3.158  12.559
 9495TIP3    H152680   4.751   3.137  12.482
 9495TIP3    H252681   4.744   3.106  12.629
 9496TIP3   OH252682   5.557   3.039  12.157
 9496TIP3    H152683   5.622   3.050  12.235
 9496TIP3    H252684   5.620   3.081  12.085
 9497TIP3   OH252685   5.336   3.719  12.469
 9497TIP3    H152686   5.396   3.761  12.540
 9497TIP3    H252687   5.265   3.795  12.457
 9498TIP3   OH252688   4.688   3.055  12.285
 9498TIP3    H152689   4.632   3.142  12.255
 9498TIP3    H252690   4.624   3.011  12.352
 9499TIP3   OH252691   6.107   3.694  11.955
 9499TIP3    H152692   6.146   3.789  11.982
 9499TIP3    H252693   6.192   3.633  11.982
 9500TIP3   OH252694   5.324   4.080  12.336
 9500TIP3    H152695   5.298   4.079  12.242
 9500TIP3    H252696   5.294   4.180  12.361
 9501TIP3   OH252697   4.578   3.930  12.528
 9501TIP3    H152698   4.606   3.950  12.620
 9501TIP3    H252699   4.477   3.901  12.543
 9502TIP3   OH252700   5.623   3.992  12.018
 9502TIP3    H152701   5.665   3.897  11.992
 9502TIP3    H252702   5.621   3.981  12.116
 9503TIP3   OH252703   5.577   3.945  12.289
 9503TIP3    H152704   5.480   3.983  12.315
 9503TIP3    H252705   5.590   3.870  12.359
 9504TIP3   OH252706   4.799   2.188  12.972
 9504TIP3    H152707   4.759   2.169  12.885
 9504TIP3    H252708   4.812   2.292  12.971
 9505TIP3   OH252709   5.741   3.145  11.981
 9505TIP3    H152710   5.744   3.112  11.888
 9505TIP3    H252711   5.827   3.209  11.984
 9506TIP3   OH252712   5.234   2.461  11.958
 9506TIP3    H152713   5.215   2.455  12.054
 9506TIP3    H252714   5.217   2.358  11.936
 9507TIP3   OH252715   5.396   2.851  12.421
 9507TIP3    H152716   5.369   2.944  12.374
 9507TIP3    H252717   5.466   2.811  12.358
 9508TIP3   OH252718   5.497   2.784  12.690
 9508TIP3    H152719   5.458   2.859  12.630
 9508TIP3    H252720   5.508   2.704  12.626
 9509TIP3   OH252721   4.165   2.432  12.609
 9509TIP3    H152722   4.263   2.449  12.644
 9509TIP3    H252723   4.192   2.405  12.518
 9510TIP3   OH252724   5.147   3.332  12.257
 9510TIP3    H152725   5.076   3.276  12.201
 9510TIP3    H252726   5.084   3.345  12.337
 9511TIP3   OH252727   5.559   2.516  12.050
 9511TIP3    H152728   5.458   2.533  12.021
 9511TIP3    H252729   5.582   2.607  12.098
 9512TIP3   OH252730   5.620   2.750  12.196
 9512TIP3    H152731   5.707   2.731  12.251
 9512TIP3    H252732   5.639   2.847  12.158
 9513TIP3   OH252733   5.343   3.497  12.126
 9513TIP3    H152734   5.311   3.593  12.159
 9513TIP3    H252735   5.272   3.429  12.169
 9514TIP3   OH252736   6.156   2.784  12.176
 9514TIP3    H152737   6.130   2.752  12.086
 9514TIP3    H252738   6.166   2.891  12.159
 9515TIP3   OH252739   5.997   3.666  12.227
 9515TIP3    H152740   5.911   3.614  12.259
 9515TIP3    H252741   6.001   3.639  12.135
 9516TIP3   OH252742   5.643   3.114  12.922
 9516TIP3    H152743   5.597   3.172  12.852
 9516TIP3    H252744   5.685   3.032  12.873
 9517TIP3   OH252745   4.877   3.619  12.548
 9517TIP3    H152746   4.910   3.715  12.517
 9517TIP3    H252747   4.774   3.623  12.530
 9518TIP3   OH252748   4.414   3.094  12.001
 9518TIP3    H152749   4.456   3.166  12.065
 9518TIP3    H252750   4.310   3.094  12.025
 9519TIP3   OH252751   4.979   3.351  12.480
 9519TIP3    H152752   4.946   3.447  12.512
 9519TIP3    H252753   4.992   3.299  12.565
 9520TIP3   OH252754   4.882   3.894  12.436
 9520TIP3    H152755   4.776   3.904  12.449
 9520TIP3    H252756   4.919   3.982  12.482
 9521TIP3   OH252757   5.722   3.511  12.030
 9521TIP3    H152758   5.722   3.478  12.123
 9521TIP3    H252759   5.622   3.484  12.007
 9522TIP3   OH252760   6.181   3.978  12.024
 9522TIP3    H152761   6.204   4.061  11.966
 9522TIP3    H252762   6.102   4.021  12.078
 9523TIP3   OH252763   5.807   3.328  12.257
 9523TIP3    H152764   5.783   3.231  12.292
 9523TIP3    H252765   5.914   3.315  12.246
 9524TIP3   OH252766   5.053   3.638  11.867
 9524TIP3    H152767   5.034   3.574  11.792
 9524TIP3    H252768   4.995   3.588  11.936
 9525TIP3   OH252769   4.907   3.552  12.120
 9525TIP3    H152770   4.981   3.505  12.176
 9525TIP3    H252771   4.925   3.656  12.146
 9526TIP3   OH252772   4.557   3.278  12.164
 9526TIP3    H152773   4.469   3.324  12.204
 9526TIP3    H252774   4.601   3.361  12.117
 9527TIP3   OH252775   5.464   2.387  12.295
 9527TIP3    H152776   5.495   2.427  12.209
 9527TIP3    H252777   5.538   2.428  12.354
 9528TIP3   OH252778   5.238   3.773  12.177
 9528TIP3    H152779   5.141   3.808  12.203
 9528TIP3    H252780   5.287   3.864  12.153
 9529TIP3   OH252781   5.175   2.610  12.374
 9529TIP3    H152782   5.250   2.680  12.406
 9529TIP3    H252783   5.121   2.585  12.454
 9530TIP3   OH252784   5.238   2.263  12.441
 9530TIP3    H152785   5.266   2.303  12.527
 9530TIP3    H252786   5.314   2.303  12.382
 9531TIP3   OH252787   4.940   3.829  12.173
 9531TIP3    H152788   4.957   3.915  12.116
 9531TIP3    H252789   4.904   3.880  12.252
 9532TIP3   OH252790   5.750   2.891  12.770
 9532TIP3    H152791   5.656   2.841  12.751
 9532TIP3    H252792   5.806   2.817  12.821
 9533TIP3   OH252793   4.607   3.533  12.013
 9533TIP3    H152794   4.689   3.575  12.064
 9533TIP3    H252795   4.664   3.473  11.950
 9534TIP3   OH252796   4.420   2.762  11.969
 9534TIP3    H152797   4.443   2.864  11.985
 9534TIP3    H252798   4.316   2.768  11.947
 9535TIP3   OH252799   5.833   3.930  12.968
 9535TIP3    H152800   5.866   3.995  12.897
 9535TIP3    H252801   5.823   3.836  12.924
 9536TIP3   OH252802   4.352   3.649  12.402
 9536TIP3    H152803   4.343   3.717  12.476
 9536TIP3    H252804   4.361   3.721  12.330
 9537TIP3   OH252805   5.282   3.859  11.858
 9537TIP3    H152806   5.226   3.767  11.874
 9537TIP3    H252807   5.369   3.818  11.812
 9538TIP3   OH252808   5.764   3.765  11.877
 9538TIP3    H152809   5.778   3.686  11.943
 9538TIP3    H252810   5.863   3.785  11.845
 9539TIP3   OH252811   4.773   3.331  11.864
 9539TIP3    H152812   4.797   3.279  11.946
 9539TIP3    H252813   4.860   3.304  11.810
 9540TIP3   OH252814   5.403   3.482  11.854
 9540TIP3    H152815   5.361   3.478  11.944
 9540TIP3    H252816   5.396   3.376  11.829
 9541TIP3   OH252817   4.916   3.160  12.120
 9541TIP3    H152818   4.848   3.101  12.174
 9541TIP3    H252819   4.962   3.086  12.063
 9542TIP3   OH252820   5.035   2.963  11.932
 9542TIP3    H152821   5.030   2.972  11.835
 9542TIP3    H252822   5.138   2.938  11.947
 9543TIP3   OH252823   6.043   3.159  11.869
 9543TIP3    H152824   6.026   3.145  11.773
 9543TIP3    H252825   6.041   3.267  11.873
 9544TIP3   OH252826   5.015   4.090  12.083
 9544TIP3    H152827   5.123   4.085  12.078
 9544TIP3    H252828   4.994   4.155  12.008
 9545TIP3   OH252829   4.297   3.499  12.003
 9545TIP3    H152830   4.404   3.510  12.001
 9545TIP3    H252831   4.279   3.441  11.921
 9546TIP3   OH252832   4.271   3.872  12.666
 9546TIP3    H152833   4.193   3.803  12.684
 9546TIP3    H252834   4.287   3.909  12.756
 9547TIP3   OH252835   6.098   3.263  12.259
 9547TIP3    H152836   6.193   3.313  12.266
 9547TIP3    H252837   6.103   3.192  12.334
 9548TIP3   OH252838   6.127   3.059  12.460
 9548TIP3    H152839   6.051   2.991  12.492
 9548TIP3    H252840   6.191   3.062  12.539
 9549TIP3   OH252841   6.206   3.059  12.077
 9549TIP3    H152842   6.136   3.080  12.005
 9549TIP3    H252843   6.188   3.142  12.138
 9550TIP3   OH252844   6.071   2.727  11.911
 9550TIP3    H152845   6.032   2.815  11.868
 9550TIP3    H252846   5.994   2.657  11.882
 9551TIP3   OH252847   5.904   2.874  12.538
 9551TIP3    H152848   5.942   2.776  12.534
 9551TIP3    H252849   5.854   2.878  12.625
 9552TIP3   OH252850   5.881   2.514  11.856
 9552TIP3    H152851   5.942   2.447  11.906
 9552TIP3    H252852   5.789   2.456  11.851
 9553TIP3   OH252853   5.856   2.622  12.354
 9553TIP3    H152854   5.897   2.532  12.390
 9553TIP3    H252855   5.943   2.678  12.328
 9554TIP3   OH252856   5.904   2.678  12.896
 9554TIP3    H152857   6.004   2.650  12.913
 9554TIP3    H252858   5.853   2.636  12.976
 9555TIP3   OH252859   4.198   2.400  12.329
 9555TIP3    H152860   4.105   2.369  12.370
 9555TIP3    H252861   4.159   2.430  12.242
 9556TIP3   OH252862   5.830   4.014  12.511
 9556TIP3    H152863   5.928   3.971  12.497
 9556TIP3    H252864   5.835   4.049  12.604
 9557TIP3   OH252865   4.859   3.876  12.859
 9557TIP3    H152866   4.821   3.780  12.834
 9557TIP3    H252867   4.912   3.851  12.940
 9558TIP3   OH252868   5.317   2.295  12.728
 9558TIP3    H152869   5.267   2.225  12.786
 9558TIP3    H252870   5.403   2.236  12.697
 9559TIP3   OH252871   4.937   2.166  12.511
 9559TIP3    H152872   5.037   2.180  12.482
 9559TIP3    H252873   4.948   2.103  12.587
 9560TIP3   OH252874   5.557   2.152  12.638
 9560TIP3    H152875   5.660   2.151  12.610
 9560TIP3    H252876   5.544   2.050  12.664
 9561TIP3   OH252877   5.700   2.135  12.262
 9561TIP3    H152878   5.609   2.181  12.285
 9561TIP3    H252879   5.719   2.067  12.336
 9562TIP3   OH252880   4.341   3.876  12.231
 9562TIP3    H152881   4.238   3.870  12.203
 9562TIP3    H252882   4.360   3.981  12.210
 9563TIP3   OH252883   5.090   2.382  12.212
 9563TIP3    H152884   5.130   2.316  12.280
 9563TIP3    H252885   5.105   2.476  12.257
 9564TIP3   OH252886   5.310   4.041  12.064
 9564TIP3    H152887   5.411   4.054  12.033
 9564TIP3    H252888   5.277   3.977  11.990
 9565TIP3   OH252889   6.070   3.924  12.376
 9565TIP3    H152890   6.037   3.841  12.321
 9565TIP3    H252891   6.035   4.008  12.325
 9566TIP3   OH252892   4.523   3.975  11.923
 9566TIP3    H152893   4.497   3.997  12.014
 9566TIP3    H252894   4.602   3.904  11.935
 9567TIP3   OH252895   7.577   3.158  12.544
 9567TIP3    H152896   7.539   3.258  12.549
 9567TIP3    H252897   7.498   3.109  12.497
 9568TIP3   OH252898   7.825   3.452  12.740
 9568TIP3    H152899   7.855   3.352  12.757
 9568TIP3    H252900   7.846   3.499  12.824
 9569TIP3   OH252901   6.680   3.533  12.907
 9569TIP3    H152902   6.609   3.470  12.867
 9569TIP3    H252903   6.696   3.485  12.993
 9570TIP3   OH252904   6.365   3.015  12.658
 9570TIP3    H152905   6.400   2.915  12.643
 9570TIP3    H252906   6.421   3.071  12.596
 9571TIP3   OH252907   7.723   2.515  12.505
 9571TIP3    H152908   7.758   2.498  12.597
 9571TIP3    H252909   7.724   2.621  12.504
 9572TIP3   OH252910   7.480   3.436  12.424
 9572TIP3    H152911   7.498   3.435  12.327
 9572TIP3    H252912   7.476   3.542  12.444
 9573TIP3   OH252913   7.840   2.485  12.757
 9573TIP3    H152914   7.812   2.395  12.802
 9573TIP3    H252915   7.945   2.477  12.761
 9574TIP3   OH252916   6.383   3.399  12.248
 9574TIP3    H152917   6.385   3.458  12.166
 9574TIP3    H252918   6.357   3.470  12.314
 9575TIP3   OH252919   7.856   3.551  12.441
 9575TIP3    H152920   7.785   3.476  12.417
 9575TIP3    H252921   7.864   3.536  12.537
 9576TIP3   OH252922   7.414   3.084  12.296
 9576TIP3    H152923   7.350   3.166  12.271
 9576TIP3    H252924   7.499   3.098  12.237
 9577TIP3   OH252925   7.418   2.952  11.993
 9577TIP3    H152926   7.497   2.992  12.050
 9577TIP3    H252927   7.442   2.849  12.000
 9578TIP3   OH252928   7.816   3.089  12.394
 9578TIP3    H152929   7.737   3.120  12.457
 9578TIP3    H252930   7.883   3.035  12.455
 9579TIP3   OH252931   6.885   3.190  12.613
 9579TIP3    H152932   6.862   3.177  12.520
 9579TIP3    H252933   6.890   3.091  12.648
 9580TIP3   OH252934   7.662   3.031  12.150
 9580TIP3    H152935   7.726   3.062  12.223
 9580TIP3    H252936   7.712   3.081  12.075
 9581TIP3   OH252937   7.429   3.722  12.503
 9581TIP3    H152938   7.479   3.789  12.563
 9581TIP3    H252939   7.348   3.779  12.467
 9582TIP3   OH252940   8.035   2.101  12.130
 9582TIP3    H152941   7.932   2.103  12.155
 9582TIP3    H252942   8.070   2.199  12.154
 9583TIP3   OH252943   8.196   3.704  11.949
 9583TIP3    H152944   8.220   3.805  11.975
 9583TIP3    H252945   8.292   3.661  11.964
 9584TIP3   OH252946   6.884   2.226  12.866
 9584TIP3    H152947   6.780   2.203  12.848
 9584TIP3    H252948   6.883   2.273  12.953
 9585TIP3   OH252949   7.805   3.174  11.966
 9585TIP3    H152950   7.788   3.174  11.869
 9585TIP3    H252951   7.906   3.207  11.972
 9586TIP3   OH252952   7.350   2.476  11.975
 9586TIP3    H152953   7.311   2.475  12.065
 9586TIP3    H252954   7.317   2.378  11.948
 9587TIP3   OH252955   7.479   2.824  12.380
 9587TIP3    H152956   7.455   2.918  12.338
 9587TIP3    H252957   7.572   2.802  12.335
 9588TIP3   OH252958   6.960   2.486  11.884
 9588TIP3    H152959   6.918   2.449  11.969
 9588TIP3    H252960   6.877   2.545  11.852
 9589TIP3   OH252961   6.353   2.512  12.124
 9589TIP3    H152962   6.309   2.592  12.074
 9589TIP3    H252963   6.321   2.533  12.214
 9590TIP3   OH252964   7.167   2.511  12.632
 9590TIP3    H152965   7.072   2.550  12.658
 9590TIP3    H252966   7.205   2.482  12.718
 9591TIP3   OH252967   7.278   2.715  12.833
 9591TIP3    H152968   7.295   2.768  12.751
 9591TIP3    H252969   7.345   2.758  12.897
 9592TIP3   OH252970   7.213   3.286  12.215
 9592TIP3    H152971   7.137   3.252  12.155
 9592TIP3    H252972   7.154   3.304  12.297
 9593TIP3   OH252973   7.625   2.515  12.074
 9593TIP3    H152974   7.531   2.540  12.033
 9593TIP3    H252975   7.658   2.610  12.109
 9594TIP3   OH252976   7.719   2.743  12.204
 9594TIP3    H152977   7.805   2.734  12.262
 9594TIP3    H252978   7.731   2.840  12.164
 9595TIP3   OH252979   6.655   3.207  12.827
 9595TIP3    H152980   6.706   3.237  12.746
 9595TIP3    H252981   6.728   3.143  12.867
 9596TIP3   OH252982   7.446   3.449  12.124
 9596TIP3    H152983   7.405   3.546  12.140
 9596TIP3    H252984   7.366   3.385  12.155
 9597TIP3   OH252985   8.194   2.758  12.186
 9597TIP3    H152986   8.137   2.719  12.110
 9597TIP3    H252987   8.199   2.861  12.157
 9598TIP3   OH252988   8.024   3.718  12.222
 9598TIP3    H152989   7.975   3.641  12.272
 9598TIP3    H252990   8.092   3.665  12.164
 9599TIP3   OH252991   7.058   3.332  12.441
 9599TIP3    H152992   7.066   3.433  12.469
 9599TIP3    H252993   7.022   3.286  12.523
 9600TIP3   OH252994   6.909   3.967  12.416
 9600TIP3    H152995   6.901   3.937  12.509
 9600TIP3    H252996   6.960   4.061  12.423
 9601TIP3   OH252997   7.799   3.506  12.026
 9601TIP3    H152998   7.801   3.478  12.120
 9601TIP3    H252999   7.720   3.441  11.998
 9602TIP3   OH253000   8.301   3.971  12.039
 9602TIP3    H153001   8.325   4.068  12.004
 9602TIP3    H253002   8.203   3.992  12.069
 9603TIP3   OH253003   7.883   3.324  12.250
 9603TIP3    H153004   7.871   3.232  12.299
 9603TIP3    H253005   7.982   3.355  12.276
 9604TIP3   OH253006   7.139   3.632  11.857
 9604TIP3    H153007   7.121   3.573  11.778
 9604TIP3    H253008   7.072   3.584  11.919
 9605TIP3   OH253009   7.002   3.564  12.121
 9605TIP3    H153010   7.093   3.520  12.152
 9605TIP3    H253011   7.018   3.666  12.144
 9606TIP3   OH253012   7.542   2.400  12.308
 9606TIP3    H153013   7.570   2.451  12.226
 9606TIP3    H253014   7.609   2.443  12.373
 9607TIP3   OH253015   7.302   3.727  12.152
 9607TIP3    H153016   7.206   3.771  12.170
 9607TIP3    H253017   7.330   3.781  12.071
 9608TIP3   OH253018   7.271   2.596  12.394
 9608TIP3    H153019   7.335   2.682  12.408
 9608TIP3    H253020   7.242   2.566  12.486
 9609TIP3   OH253021   7.330   2.244  12.433
 9609TIP3    H153022   7.329   2.275  12.526
 9609TIP3    H253023   7.385   2.325  12.390
 9610TIP3   OH253024   7.036   3.849  12.197
 9610TIP3    H153025   7.046   3.933  12.135
 9610TIP3    H253026   6.976   3.892  12.268
 9611TIP3   OH253027   6.879   2.373  12.124
 9611TIP3    H153028   6.881   2.437  12.201
 9611TIP3    H253029   6.978   2.332  12.128
 9612TIP3   OH253030   6.673   3.538  12.002
 9612TIP3    H153031   6.756   3.572  12.053
 9612TIP3    H253032   6.727   3.479  11.936
 9613TIP3   OH253033   7.961   3.917  12.929
 9613TIP3    H153034   7.896   3.942  12.855
 9613TIP3    H253035   8.041   3.985  12.923
 9614TIP3   OH253036   6.620   2.168  12.757
 9614TIP3    H153037   6.564   2.256  12.740
 9614TIP3    H253038   6.543   2.092  12.757
 9615TIP3   OH253039   7.374   3.833  11.901
 9615TIP3    H153040   7.302   3.757  11.880
 9615TIP3    H253041   7.453   3.807  11.838
 9616TIP3   OH253042   7.862   3.799  11.884
 9616TIP3    H153043   7.885   3.720  11.948
 9616TIP3    H253044   7.943   3.788  11.820
 9617TIP3   OH253045   6.863   3.344  11.858
 9617TIP3    H153046   6.875   3.268  11.925
 9617TIP3    H253047   6.944   3.320  11.797
 9618TIP3   OH253048   7.462   3.477  11.824
 9618TIP3    H153049   7.437   3.462  11.918
 9618TIP3    H253050   7.460   3.374  11.796
 9619TIP3   OH253051   7.056   2.968  11.917
 9619TIP3    H153052   7.059   2.975  11.820
 9619TIP3    H253053   7.156   2.939  11.940
 9620TIP3   OH253054   8.107   3.187  11.870
 9620TIP3    H153055   8.065   3.159  11.783
 9620TIP3    H253056   8.116   3.296  11.863
 9621TIP3   OH253057   7.126   4.091  12.087
 9621TIP3    H153058   7.218   4.139  12.097
 9621TIP3    H253059   7.085   4.143  12.010
 9622TIP3   OH253060   6.362   3.512  11.988
 9622TIP3    H153061   6.470   3.513  11.988
 9622TIP3    H253062   6.341   3.450  11.910
 9623TIP3   OH253063   8.204   3.312  12.278
 9623TIP3    H153064   8.305   3.330  12.253
 9623TIP3    H253065   8.218   3.236  12.347
 9624TIP3   OH253066   8.227   3.084  12.454
 9624TIP3    H153067   8.139   3.031  12.483
 9624TIP3    H253068   8.275   3.101  12.539
 9625TIP3   OH253069   8.152   3.340  12.942
 9625TIP3    H153070   8.245   3.296  12.913
 9625TIP3    H253071   8.162   3.438  12.909
 9626TIP3   OH253072   8.213   3.070  12.115
 9626TIP3    H153073   8.175   3.093  12.026
 9626TIP3    H253074   8.184   3.159  12.164
 9627TIP3   OH253075   8.041   2.718  11.926
 9627TIP3    H153076   8.050   2.778  11.846
 9627TIP3    H253077   8.015   2.625  11.883
 9628TIP3   OH253078   7.993   2.903  12.524
 9628TIP3    H153079   7.987   2.814  12.468
 9628TIP3    H253080   7.957   2.871  12.611
 9629TIP3   OH253081   7.986   2.444  11.837
 9629TIP3    H153082   7.977   2.427  11.932
 9629TIP3    H253083   7.883   2.430  11.809
 9630TIP3   OH253084   7.959   2.676  12.351
 9630TIP3    H153085   7.945   2.571  12.365
 9630TIP3    H253086   8.061   2.677  12.319
 9631TIP3   OH253087   7.979   2.375  12.384
 9631TIP3    H153088   7.987   2.341  12.476
 9631TIP3    H253089   7.911   2.305  12.345
 9632TIP3   OH253090   8.214   2.343  12.051
 9632TIP3    H153091   8.259   2.273  11.990
 9632TIP3    H253092   8.236   2.438  12.010
 9633TIP3   OH253093   6.778   3.800  12.767
 9633TIP3    H153094   6.723   3.718  12.805
 9633TIP3    H253095   6.777   3.871  12.839
 9634TIP3   OH253096   7.383   2.252  12.737
 9634TIP3    H153097   7.373   2.176  12.804
 9634TIP3    H253098   7.490   2.252  12.724
 9635TIP3   OH253099   8.069   2.242  12.633
 9635TIP3    H153100   8.132   2.165  12.597
 9635TIP3    H253101   8.137   2.325  12.629
 9636TIP3   OH253102   7.036   2.073  12.555
 9636TIP3    H153103   7.119   2.100  12.501
 9636TIP3    H253104   6.972   2.157  12.540
 9637TIP3   OH253105   7.669   2.190  12.709
 9637TIP3    H153106   7.692   2.208  12.617
 9637TIP3    H253107   7.619   2.095  12.709
 9638TIP3   OH253108   7.781   2.167  12.295
 9638TIP3    H153109   7.692   2.226  12.295
 9638TIP3    H253110   7.746   2.067  12.312
 9639TIP3   OH253111   6.585   2.339  11.970
 9639TIP3    H153112   6.646   2.277  11.913
 9639TIP3    H253113   6.646   2.349  12.048
 9640TIP3   OH253114   7.173   2.392  12.193
 9640TIP3    H153115   7.222   2.322  12.250
 9640TIP3    H253116   7.192   2.482  12.247
 9641TIP3   OH253117   8.096   3.959  12.358
 9641TIP3    H153118   8.060   3.878  12.301
 9641TIP3    H253119   8.089   4.044  12.299
 9642TIP3   OH253120   6.559   3.930  11.864
 9642TIP3    H153121   6.525   3.996  11.931
 9642TIP3    H253122   6.652   3.891  11.897
 9643TIP3   OH253123   8.323   2.785  12.440
 9643TIP3    H153124   8.324   2.892  12.442
 9643TIP3    H253125   8.283   2.765  12.351
 9644TIP3   OH253126   8.276   3.639  12.901
 9644TIP3    H153127   8.377   3.674  12.902
 9644TIP3    H253128   8.235   3.687  12.978
 9645TIP3   OH253129   8.268   2.447  12.595
 9645TIP3    H153130   8.362   2.497  12.610
 9645TIP3    H253131   8.282   2.418  12.501
 9646TIP3   OH253132   8.267   4.076  12.549
 9646TIP3    H153133   8.192   4.031  12.490
 9646TIP3    H253134   8.288   3.991  12.604
 9647TIP3   OH253135   8.321   3.879  12.746
 9647TIP3    H153136   8.262   3.794  12.775
 9647TIP3    H253137   8.285   3.956  12.806
 9648TIP3   OH253138   8.412   3.182  12.866
 9648TIP3    H153139   8.474   3.154  12.790
 9648TIP3    H253140   8.448   3.113  12.931
 9649TIP3   OH253141   8.242   2.852  12.778
 9649TIP3    H153142   8.340   2.814  12.770
 9649TIP3    H253143   8.242   2.888  12.868
 9650TIP3   OH253144   8.260   2.367  12.312
 9650TIP3    H153145   8.154   2.382  12.328
 9650TIP3    H253146   8.257   2.355  12.214
 9651TIP3   OH253147   1.319   5.221  12.543
 9651TIP3    H153148   1.301   5.327  12.539
 9651TIP3    H253149   1.256   5.185  12.471
 9652TIP3   OH253150   1.571   5.476  12.735
 9652TIP3    H153151   1.515   5.411  12.792
 9652TIP3    H253152   1.614   5.545  12.799
 9653TIP3   OH253153   0.143   4.841  12.335
 9653TIP3    H153154   0.164   4.929  12.385
 9653TIP3    H253155   0.043   4.820  12.363
 9654TIP3   OH253156   0.140   5.145  12.633
 9654TIP3    H153157   0.166   5.048  12.662
 9654TIP3    H253158   0.234   5.195  12.631
 9655TIP3   OH253159   1.300   6.037  12.737
 9655TIP3    H153160   1.371   5.978  12.685
 9655TIP3    H253161   1.290   5.980  12.818
 9656TIP3   OH253162   0.619   4.591  12.719
 9656TIP3    H153163   0.655   4.677  12.668
 9656TIP3    H253164   0.556   4.546  12.652
 9657TIP3   OH253165   1.461   4.596  12.523
 9657TIP3    H153166   1.500   4.568  12.611
 9657TIP3    H253167   1.494   4.697  12.517
 9658TIP3   OH253168   0.782   5.023  12.710
 9658TIP3    H153169   0.845   4.964  12.768
 9658TIP3    H253170   0.765   4.954  12.637
 9659TIP3   OH253171   1.275   5.487  12.439
 9659TIP3    H153172   1.260   5.493  12.344
 9659TIP3    H253173   1.227   5.579  12.467
 9660TIP3   OH253174   1.638   4.560  12.736
 9660TIP3    H153175   1.602   4.519  12.821
 9660TIP3    H253176   1.735   4.514  12.731
 9661TIP3   OH253177   0.127   5.481  12.270
 9661TIP3    H153178   0.133   5.551  12.194
 9661TIP3    H253179   0.178   5.533  12.340
 9662TIP3   OH253180   1.471   5.863  12.573
 9662TIP3    H153181   1.525   5.772  12.554
 9662TIP3    H253182   1.551   5.933  12.582
 9663TIP3   OH253183   1.643   5.625  12.498
 9663TIP3    H153184   1.582   5.568  12.439
 9663TIP3    H253185   1.634   5.565  12.579
 9664TIP3   OH253186   1.175   5.144  12.302
 9664TIP3    H153187   1.123   5.235  12.282
 9664TIP3    H253188   1.263   5.152  12.246
 9665TIP3   OH253189   1.199   5.032  11.965
 9665TIP3    H153190   1.246   5.068  12.046
 9665TIP3    H253191   1.230   4.930  11.963
 9666TIP3   OH253192   1.604   5.174  12.412
 9666TIP3    H153193   1.511   5.187  12.460
 9666TIP3    H253194   1.668   5.133  12.481
 9667TIP3   OH253195   0.625   5.260  12.610
 9667TIP3    H153196   0.591   5.203  12.533
 9667TIP3    H253197   0.689   5.188  12.656
 9668TIP3   OH253198   1.431   5.125  12.162
 9668TIP3    H153199   1.505   5.160  12.226
 9668TIP3    H253200   1.480   5.157  12.078
 9669TIP3   OH253201   1.159   5.761  12.463
 9669TIP3    H153202   1.192   5.801  12.547
 9669TIP3    H253203   1.121   5.847  12.419
 9670TIP3   OH253204   1.845   4.155  12.166
 9670TIP3    H153205   1.753   4.171  12.217
 9670TIP3    H253206   1.879   4.255  12.153
 9671TIP3   OH253207   0.468   5.121  12.399
 9671TIP3    H153208   0.450   5.205  12.340
 9671TIP3    H253209   0.484   5.039  12.338
 9672TIP3   OH253210   1.959   5.756  11.974
 9672TIP3    H153211   1.991   5.854  12.003
 9672TIP3    H253212   2.050   5.702  11.994
 9673TIP3   OH253213   1.147   6.120  12.335
 9673TIP3    H153214   1.132   6.126  12.238
 9673TIP3    H253215   1.133   6.224  12.361
 9674TIP3   OH253216   0.447   5.975  12.536
 9674TIP3    H153217   0.460   5.940  12.629
 9674TIP3    H253218   0.345   5.947  12.517
 9675TIP3   OH253219   1.491   6.059  12.018
 9675TIP3    H153220   1.536   5.971  11.976
 9675TIP3    H253221   1.484   6.036  12.113
 9676TIP3   OH253222   1.427   6.042  12.298
 9676TIP3    H153223   1.322   6.062  12.317
 9676TIP3    H253224   1.443   5.962  12.360
 9677TIP3   OH253225   1.599   5.232  11.973
 9677TIP3    H153226   1.575   5.243  11.878
 9677TIP3    H253227   1.705   5.248  11.971
 9678TIP3   OH253228   1.136   4.536  11.978
 9678TIP3    H153229   1.081   4.539  12.062
 9678TIP3    H253230   1.081   4.456  11.936
 9679TIP3   OH253231   0.690   4.788  12.535
 9679TIP3    H153232   0.584   4.785  12.515
 9679TIP3    H253233   0.732   4.774  12.445
 9680TIP3   OH253234   1.285   4.908  12.416
 9680TIP3    H153235   1.243   4.995  12.371
 9680TIP3    H253236   1.353   4.875  12.347
 9681TIP3   OH253237   1.470   4.887  12.648
 9681TIP3    H153238   1.408   4.970  12.622
 9681TIP3    H253239   1.403   4.806  12.640
 9682TIP3   OH253240   0.746   4.558  11.913
 9682TIP3    H153241   0.674   4.510  11.971
 9682TIP3    H253242   0.680   4.624  11.863
 9683TIP3   OH253243   0.131   4.491  12.671
 9683TIP3    H153244   0.050   4.424  12.692
 9683TIP3    H253245   0.131   4.497  12.575
 9684TIP3   OH253246   0.135   4.626  12.128
 9684TIP3    H153247   0.195   4.689  12.068
 9684TIP3    H253248   0.087   4.699  12.182
 9685TIP3   OH253249   0.926   4.547  12.632
 9685TIP3    H153250   0.823   4.567  12.636
 9685TIP3    H253251   0.958   4.598  12.713
 9686TIP3   OH253252   0.400   4.760  12.468
 9686TIP3    H153253   0.307   4.788  12.427
 9686TIP3    H253254   0.383   4.655  12.488
 9687TIP3   OH253255   0.777   4.747  12.263
 9687TIP3    H153256   0.857   4.710  12.209
 9687TIP3    H253257   0.719   4.799  12.193
 9688TIP3   OH253258   1.420   4.541  12.932
 9688TIP3    H153259   1.368   4.601  12.999
 9688TIP3    H253260   1.367   4.448  12.940
 9689TIP3   OH253261   0.648   4.857  12.047
 9689TIP3    H153262   0.567   4.865  11.985
 9689TIP3    H253263   0.715   4.925  12.001
 9690TIP3   OH253264   1.035   4.782  12.813
 9690TIP3    H153265   1.111   4.777  12.745
 9690TIP3    H253266   1.096   4.780  12.893
 9691TIP3   OH253267   0.450   4.473  12.514
 9691TIP3    H153268   0.387   4.390  12.542
 9691TIP3    H253269   0.498   4.430  12.436
 9692TIP3   OH253270   0.990   5.372  12.257
 9692TIP3    H153271   0.911   5.319  12.210
 9692TIP3    H253272   0.938   5.398  12.341
 9693TIP3   OH253273   1.404   4.578  12.073
 9693TIP3    H153274   1.306   4.573  12.033
 9693TIP3    H253275   1.409   4.683  12.096
 9694TIP3   OH253276   1.455   4.830  12.199
 9694TIP3    H153277   1.535   4.796  12.257
 9694TIP3    H253278   1.503   4.915  12.157
 9695TIP3   OH253279   0.421   5.313  12.800
 9695TIP3    H153280   0.484   5.314  12.721
 9695TIP3    H253281   0.484   5.261  12.861
 9696TIP3   OH253282   1.198   5.525  12.129
 9696TIP3    H153283   1.156   5.622  12.152
 9696TIP3    H253284   1.125   5.459  12.170
 9697TIP3   OH253285   1.994   4.799  12.180
 9697TIP3    H153286   1.937   4.789  12.096
 9697TIP3    H253287   2.014   4.905  12.180
 9698TIP3   OH253288   1.808   5.771  12.234
 9698TIP3    H153289   1.750   5.697  12.279
 9698TIP3    H253290   1.846   5.721  12.155
 9699TIP3   OH253291   0.703   5.704  12.552
 9699TIP3    H153292   0.743   5.797  12.517
 9699TIP3    H253293   0.605   5.707  12.515
 9700TIP3   OH253294   0.164   5.172  11.986
 9700TIP3    H153295   0.268   5.190  11.994
 9700TIP3    H253296   0.141   5.133  12.073
 9701TIP3   OH253297   0.843   5.430  12.490
 9701TIP3    H153298   0.811   5.529  12.513
 9701TIP3    H253299   0.786   5.374  12.557
 9702TIP3   OH253300   0.722   5.969  12.428
 9702TIP3    H153301   0.618   5.965  12.456
 9702TIP3    H253302   0.755   6.056  12.476
 9703TIP3   OH253303   1.566   5.576  12.024
 9703TIP3    H153304   1.563   5.533  12.114
 9703TIP3    H253305   1.471   5.544  11.993
 9704TIP3   OH253306   2.034   6.040  12.060
 9704TIP3    H153307   2.100   6.108  12.017
 9704TIP3    H253308   1.961   6.109  12.098
 9705TIP3   OH253309   1.641   5.420  12.259
 9705TIP3    H153310   1.621   5.327  12.307
 9705TIP3    H253311   1.749   5.420  12.256
 9706TIP3   OH253312   0.887   5.719  11.860
 9706TIP3    H153313   0.871   5.672  11.774
 9706TIP3    H253314   0.825   5.657  11.917
 9707TIP3   OH253315   0.751   5.619  12.119
 9707TIP3    H153316   0.826   5.572  12.173
 9707TIP3    H253317   0.767   5.723  12.141
 9708TIP3   OH253318   0.392   5.341  12.204
 9708TIP3    H153319   0.296   5.388  12.214
 9708TIP3    H253320   0.438   5.394  12.132
 9709TIP3   OH253321   1.337   4.476  12.320
 9709TIP3    H153322   1.367   4.533  12.243
 9709TIP3    H253323   1.372   4.535  12.395
 9710TIP3   OH253324   1.100   5.831  12.175
 9710TIP3    H153325   1.005   5.865  12.209
 9710TIP3    H253326   1.138   5.922  12.137
 9711TIP3   OH253327   1.045   4.654  12.376
 9711TIP3    H153328   1.091   4.750  12.383
 9711TIP3    H253329   0.998   4.643  12.462
 9712TIP3   OH253330   1.124   4.318  12.425
 9712TIP3    H153331   1.088   4.385  12.492
 9712TIP3    H253332   1.213   4.372  12.394
 9713TIP3   OH253333   0.796   5.900  12.172
 9713TIP3    H153334   0.810   5.993  12.120
 9713TIP3    H253335   0.760   5.944  12.255
 9714TIP3   OH253336   0.623   4.457  12.154
 9714TIP3    H153337   0.623   4.552  12.198
 9714TIP3    H253338   0.727   4.433  12.159
 9715TIP3   OH253339   0.463   5.623  12.031
 9715TIP3    H153340   0.561   5.626  12.073
 9715TIP3    H253341   0.488   5.554  11.959
 9716TIP3   OH253342   0.259   4.835  11.966
 9716TIP3    H153343   0.326   4.916  11.978
 9716TIP3    H253344   0.210   4.858  11.881
 9717TIP3   OH253345   0.381   4.221  12.824
 9717TIP3    H153346   0.381   4.205  12.727
 9717TIP3    H253347   0.287   4.271  12.833
 9718TIP3   OH253348   0.226   5.765  12.446
 9718TIP3    H153349   0.127   5.789  12.417
 9718TIP3    H253350   0.277   5.809  12.371
 9719TIP3   OH253351   1.125   5.930  11.860
 9719TIP3    H153352   1.071   5.841  11.884
 9719TIP3    H253353   1.213   5.888  11.819
 9720TIP3   OH253354   1.616   5.843  11.865
 9720TIP3    H153355   1.630   5.763  11.930
 9720TIP3    H253356   1.714   5.853  11.825
 9721TIP3   OH253357   0.611   5.433  11.868
 9721TIP3    H153358   0.577   5.332  11.887
 9721TIP3    H253359   0.714   5.420  11.843
 9722TIP3   OH253360   1.245   5.559  11.847
 9722TIP3    H153361   1.210   5.544  11.939
 9722TIP3    H253362   1.241   5.457  11.814
 9723TIP3   OH253363   0.778   5.206  12.139
 9723TIP3    H153364   0.688   5.159  12.167
 9723TIP3    H253365   0.801   5.150  12.058
 9724TIP3   OH253366   0.882   5.016  11.932
 9724TIP3    H153367   0.865   5.028  11.836
 9724TIP3    H253368   0.989   5.018  11.940
 9725TIP3   OH253369   1.907   5.250  11.875
 9725TIP3    H153370   1.878   5.220  11.784
 9725TIP3    H253371   1.893   5.359  11.865
 9726TIP3   OH253372   0.873   6.158  12.085
 9726TIP3    H153373   0.980   6.166  12.076
 9726TIP3    H253374   0.841   6.224  12.013
 9727TIP3   OH253375   0.161   5.632  12.037
 9727TIP3    H153376   0.260   5.674  12.028
 9727TIP3    H253377   0.157   5.575  11.956
 9728TIP3   OH253378   0.059   6.164  12.431
 9728TIP3    H153379  -0.025   6.225  12.452
 9728TIP3    H253380   0.073   6.109  12.513
 9729TIP3   OH253381   0.151   5.992  12.645
 9729TIP3    H153382   0.168   5.892  12.613
 9729TIP3    H253383   0.194   5.992  12.735
 9730TIP3   OH253384   1.956   5.370  12.236
 9730TIP3    H153385   2.054   5.410  12.249
 9730TIP3    H253386   1.951   5.302  12.312
 9731TIP3   OH253387   1.969   5.162  12.465
 9731TIP3    H153388   1.910   5.113  12.532
 9731TIP3    H253389   2.059   5.175  12.518
 9732TIP3   OH253390   2.055   5.128  12.081
 9732TIP3    H153391   1.991   5.143  12.003
 9732TIP3    H253392   2.024   5.213  12.135
 9733TIP3   OH253393   1.826   4.815  11.939
 9733TIP3    H153394   1.849   4.880  11.865
 9733TIP3    H253395   1.800   4.726  11.891
 9734TIP3   OH253396   1.735   4.966  12.570
 9734TIP3    H153397   1.735   4.926  12.479
 9734TIP3    H253398   1.637   4.928  12.596
 9735TIP3   OH253399   0.163   5.221  12.924
 9735TIP3    H153400   0.201   5.213  12.834
 9735TIP3    H253401   0.254   5.210  12.972
 9736TIP3   OH253402   1.780   4.528  11.845
 9736TIP3    H153403   1.822   4.488  11.928
 9736TIP3    H253404   1.676   4.508  11.852
 9737TIP3   OH253405   1.695   4.744  12.363
 9737TIP3    H153406   1.704   4.640  12.384
 9737TIP3    H253407   1.793   4.760  12.328
 9738TIP3   OH253408   1.795   4.432  12.345
 9738TIP3    H153409   1.825   4.418  12.437
 9738TIP3    H253410   1.723   4.354  12.335
 9739TIP3   OH253411   0.032   4.827  12.905
 9739TIP3    H153412  -0.033   4.851  12.831
 9739TIP3    H253413  -0.035   4.861  12.978
 9740TIP3   OH253414   1.989   4.402  12.033
 9740TIP3    H153415   2.030   4.343  11.960
 9740TIP3    H253416   2.078   4.431  12.080
 9741TIP3   OH253417   0.121   4.430  12.322
 9741TIP3    H153418   0.013   4.425  12.326
 9741TIP3    H253419   0.132   4.495  12.245
 9742TIP3   OH253420   1.699   6.067  12.588
 9742TIP3    H153421   1.746   6.018  12.511
 9742TIP3    H253422   1.738   6.166  12.578
 9743TIP3   OH253423   0.261   6.012  12.898
 9743TIP3    H153424   0.256   5.994  12.994
 9743TIP3    H253425   0.359   5.973  12.877
 9744TIP3   OH253426   0.503   5.886  12.785
 9744TIP3    H153427   0.526   5.782  12.796
 9744TIP3    H253428   0.594   5.920  12.826
 9745TIP3   OH253429   0.371   4.199  12.546
 9745TIP3    H153430   0.289   4.194  12.481
 9745TIP3    H253431   0.397   4.095  12.549
 9746TIP3   OH253432   0.210   4.207  12.141
 9746TIP3    H153433   0.235   4.249  12.054
 9746TIP3    H253434   0.174   4.296  12.187
 9747TIP3   OH253435   0.792   4.207  12.559
 9747TIP3    H153436   0.848   4.182  12.481
 9747TIP3    H253437   0.815   4.311  12.572
 9748TIP3   OH253438   1.366   4.234  12.710
 9748TIP3    H153439   1.443   4.243  12.644
 9748TIP3    H253440   1.320   4.140  12.692
 9749TIP3   OH253441   1.604   4.209  12.305
 9749TIP3    H153442   1.532   4.264  12.254
 9749TIP3    H253443   1.550   4.115  12.320
 9750TIP3   OH253444   0.204   5.973  12.244
 9750TIP3    H153445   0.107   5.964  12.204
 9750TIP3    H253446   0.222   6.076  12.219
 9751TIP3   OH253447   0.352   4.382  11.970
 9751TIP3    H153448   0.438   4.330  11.936
 9751TIP3    H253449   0.382   4.404  12.061
 9752TIP3   OH253450   0.959   4.465  12.188
 9752TIP3    H153451   1.019   4.396  12.238
 9752TIP3    H253452   0.972   4.550  12.249
 9753TIP3   OH253453   1.175   6.108  12.064
 9753TIP3    H153454   1.275   6.124  12.036
 9753TIP3    H253455   1.145   6.041  11.991
 9754TIP3   OH253456   1.887   6.010  12.371
 9754TIP3    H153457   1.870   5.925  12.312
 9754TIP3    H253458   1.873   6.091  12.307
 9755TIP3   OH253459   0.333   6.047  11.933
 9755TIP3    H153460   0.323   6.087  12.022
 9755TIP3    H253461   0.411   5.975  11.948
 9756TIP3   OH253462   3.384   5.250  12.547
 9756TIP3    H153463   3.367   5.349  12.509
 9756TIP3    H253464   3.310   5.193  12.501
 9757TIP3   OH253465   3.661   5.441  12.698
 9757TIP3    H153466   3.564   5.401  12.713
 9757TIP3    H253467   3.655   5.532  12.746
 9758TIP3   OH253468   2.187   4.833  12.440
 9758TIP3    H153469   2.166   4.926  12.484
 9758TIP3    H253470   2.119   4.831  12.366
 9759TIP3   OH253471   2.184   5.133  12.658
 9759TIP3    H153472   2.223   5.094  12.742
 9759TIP3    H253473   2.256   5.206  12.636
 9760TIP3   OH253474   3.366   6.009  12.759
 9760TIP3    H153475   3.438   5.963  12.700
 9760TIP3    H253476   3.279   5.953  12.740
 9761TIP3   OH253477   3.132   5.426  13.015
 9761TIP3    H153478   3.139   5.367  12.936
 9761TIP3    H253479   3.125   5.348  13.082
 9762TIP3   OH253480   2.717   4.564  12.702
 9762TIP3    H153481   2.740   4.653  12.649
 9762TIP3    H253482   2.657   4.517  12.633
 9763TIP3   OH253483   3.538   4.617  12.536
 9763TIP3    H153484   3.612   4.540  12.554
 9763TIP3    H253485   3.595   4.697  12.500
 9764TIP3   OH253486   2.824   5.010  12.683
 9764TIP3    H153487   2.910   4.958  12.718
 9764TIP3    H253488   2.780   4.932  12.627
 9765TIP3   OH253489   3.319   5.491  12.422
 9765TIP3    H153490   3.304   5.493  12.326
 9765TIP3    H253491   3.287   5.591  12.447
 9766TIP3   OH253492   2.235   5.467  12.281
 9766TIP3    H153493   2.224   5.523  12.198
 9766TIP3    H253494   2.243   5.546  12.348
 9767TIP3   OH253495   2.993   4.203  12.792
 9767TIP3    H153496   3.020   4.101  12.800
 9767TIP3    H253497   2.911   4.211  12.855
 9768TIP3   OH253498   3.536   5.870  12.553
 9768TIP3    H153499   3.587   5.777  12.527
 9768TIP3    H253500   3.619   5.937  12.569
 9769TIP3   OH253501   3.671   5.628  12.451
 9769TIP3    H153502   3.650   5.568  12.371
 9769TIP3    H253503   3.685   5.547  12.515
 9770TIP3   OH253504   3.232   5.144  12.279
 9770TIP3    H153505   3.171   5.232  12.266
 9770TIP3    H253506   3.320   5.169  12.227
 9771TIP3   OH253507   3.266   5.032  11.977
 9771TIP3    H153508   3.336   5.067  12.045
 9771TIP3    H253509   3.282   4.928  11.979
 9772TIP3   OH253510   3.617   5.180  12.382
 9772TIP3    H153511   3.543   5.192  12.453
 9772TIP3    H253512   3.689   5.119  12.430
 9773TIP3   OH253513   2.687   5.226  12.565
 9773TIP3    H153514   2.652   5.169  12.488
 9773TIP3    H253515   2.743   5.151  12.614
 9774TIP3   OH253516   2.772   5.154  12.906
 9774TIP3    H153517   2.772   5.093  12.824
 9774TIP3    H253518   2.847   5.106  12.960
 9775TIP3   OH253519   3.489   5.115  12.146
 9775TIP3    H153520   3.538   5.145  12.230
 9775TIP3    H253521   3.555   5.161  12.079
 9776TIP3   OH253522   3.231   5.782  12.499
 9776TIP3    H153523   3.331   5.813  12.514
 9776TIP3    H253524   3.196   5.851  12.432
 9777TIP3   OH253525   2.552   5.107  12.335
 9777TIP3    H153526   2.521   5.199  12.293
 9777TIP3    H253527   2.519   5.035  12.271
 9778TIP3   OH253528   4.047   5.765  11.975
 9778TIP3    H153529   4.083   5.862  12.004
 9778TIP3    H253530   4.133   5.704  11.999
 9779TIP3   OH253531   3.215   6.115  12.319
 9779TIP3    H153532   3.197   6.128  12.223
 9779TIP3    H253533   3.203   6.216  12.350
 9780TIP3   OH253534   2.519   6.003  12.519
 9780TIP3    H153535   2.525   5.955  12.606
 9780TIP3    H253536   2.416   5.994  12.497
 9781TIP3   OH253537   3.540   6.060  12.029
 9781TIP3    H153538   3.598   5.980  11.988
 9781TIP3    H253539   3.555   6.041  12.124
 9782TIP3   OH253540   3.511   6.041  12.312
 9782TIP3    H153541   3.407   6.069  12.322
 9782TIP3    H253542   3.516   5.961  12.377
 9783TIP3   OH253543   2.737   4.278  12.925
 9783TIP3    H153544   2.645   4.244  12.884
 9783TIP3    H253545   2.718   4.382  12.926
 9784TIP3   OH253546   3.669   5.235  11.970
 9784TIP3    H153547   3.671   5.210  11.875
 9784TIP3    H253548   3.753   5.301  11.970
 9785TIP3   OH253549   3.196   4.491  11.988
 9785TIP3    H153550   3.148   4.487  12.075
 9785TIP3    H253551   3.117   4.445  11.936
 9786TIP3   OH253552   2.738   4.789  12.542
 9786TIP3    H153553   2.631   4.801  12.521
 9786TIP3    H253554   2.778   4.786  12.450
 9787TIP3   OH253555   3.351   4.902  12.371
 9787TIP3    H153556   3.304   4.989  12.330
 9787TIP3    H253557   3.418   4.874  12.299
 9788TIP3   OH253558   2.802   4.567  11.911
 9788TIP3    H153559   2.740   4.517  11.978
 9788TIP3    H253560   2.731   4.630  11.864
 9789TIP3   OH253561   2.010   4.519  12.607
 9789TIP3    H153562   2.103   4.543  12.650
 9789TIP3    H253563   2.044   4.457  12.534
 9790TIP3   OH253564   2.202   4.593  12.134
 9790TIP3    H153565   2.267   4.631  12.066
 9790TIP3    H253566   2.132   4.675  12.140
 9791TIP3   OH253567   3.034   4.584  12.616
 9791TIP3    H153568   2.941   4.537  12.644
 9791TIP3    H253569   3.105   4.523  12.665
 9792TIP3   OH253570   2.464   4.777  12.482
 9792TIP3    H153571   2.359   4.808  12.480
 9792TIP3    H253572   2.450   4.672  12.472
 9793TIP3   OH253573   2.820   4.767  12.281
 9793TIP3    H153574   2.923   4.765  12.255
 9793TIP3    H253575   2.773   4.826  12.212
 9794TIP3   OH253576   2.686   4.890  12.033
 9794TIP3    H153577   2.638   4.827  11.968
 9794TIP3    H253578   2.775   4.915  11.984
 9795TIP3   OH253579   3.020   4.853  12.812
 9795TIP3    H153580   3.071   4.798  12.743
 9795TIP3    H253581   3.098   4.899  12.862
 9796TIP3   OH253582   2.530   4.469  12.488
 9796TIP3    H153583   2.478   4.381  12.522
 9796TIP3    H253584   2.594   4.426  12.423
 9797TIP3   OH253585   3.040   5.397  12.238
 9797TIP3    H153586   2.958   5.339  12.203
 9797TIP3    H253587   3.010   5.408  12.332
 9798TIP3   OH253588   3.462   4.568  12.065
 9798TIP3    H153589   3.356   4.564  12.040
 9798TIP3    H253590   3.476   4.673  12.087
 9799TIP3   OH253591   3.535   4.816  12.181
 9799TIP3    H153592   3.615   4.801  12.247
 9799TIP3    H253593   3.557   4.912  12.142
 9800TIP3   OH253594   2.540   5.316  12.802
 9800TIP3    H153595   2.567   5.312  12.709
 9800TIP3    H253596   2.615   5.256  12.844
 9801TIP3   OH253597   3.274   5.513  12.120
 9801TIP3    H153598   3.252   5.613  12.152
 9801TIP3    H253599   3.189   5.457  12.153
 9802TIP3   OH253600   3.825   5.817  12.198
 9802TIP3    H153601   3.809   5.754  12.275
 9802TIP3    H253602   3.895   5.762  12.144
 9803TIP3   OH253603   2.783   5.688  12.555
 9803TIP3    H153604   2.820   5.788  12.547
 9803TIP3    H253605   2.703   5.690  12.492
 9804TIP3   OH253606   2.358   5.168  12.005
 9804TIP3    H153607   2.399   5.234  12.073
 9804TIP3    H253608   2.253   5.163  12.024
 9805TIP3   OH253609   2.905   5.419  12.471
 9805TIP3    H153610   2.872   5.516  12.498
 9805TIP3    H253611   2.840   5.358  12.526
 9806TIP3   OH253612   2.802   5.986  12.449
 9806TIP3    H153613   2.694   6.001  12.454
 9806TIP3    H253614   2.835   6.084  12.475
 9807TIP3   OH253615   3.619   5.589  12.007
 9807TIP3    H153616   3.619   5.558  12.101
 9807TIP3    H253617   3.536   5.532  11.975
 9808TIP3   OH253618   4.113   6.041  12.062
 9808TIP3    H153619   4.182   6.113  12.026
 9808TIP3    H253620   4.036   6.108  12.096
 9809TIP3   OH253621   3.691   5.436  12.244
 9809TIP3    H153622   3.665   5.344  12.290
 9809TIP3    H253623   3.797   5.436  12.247
 9810TIP3   OH253624   2.973   5.723  11.867
 9810TIP3    H153625   2.960   5.672  11.783
 9810TIP3    H253626   2.914   5.660  11.926
 9811TIP3   OH253627   2.831   5.630  12.109
 9811TIP3    H153628   2.914   5.582  12.155
 9811TIP3    H253629   2.847   5.732  12.139
 9812TIP3   OH253630   2.488   5.345  12.178
 9812TIP3    H153631   2.400   5.391  12.217
 9812TIP3    H253632   2.530   5.426  12.127
 9813TIP3   OH253633   3.397   4.491  12.329
 9813TIP3    H153634   3.418   4.540  12.244
 9813TIP3    H253635   3.450   4.551  12.395
 9814TIP3   OH253636   3.179   5.806  12.191
 9814TIP3    H153637   3.086   5.859  12.201
 9814TIP3    H253638   3.241   5.876  12.146
 9815TIP3   OH253639   3.113   4.681  12.365
 9815TIP3    H153640   3.187   4.757  12.381
 9815TIP3    H253641   3.083   4.652  12.457
 9816TIP3   OH253642   3.180   4.334  12.436
 9816TIP3    H153643   3.154   4.396  12.511
 9816TIP3    H253644   3.266   4.390  12.399
 9817TIP3   OH253645   2.880   5.900  12.189
 9817TIP3    H153646   2.881   5.982  12.124
 9817TIP3    H253647   2.848   5.954  12.269
 9818TIP3   OH253648   2.692   4.468  12.153
 9818TIP3    H153649   2.682   4.562  12.198
 9818TIP3    H253650   2.797   4.454  12.163
 9819TIP3   OH253651   2.528   5.609  12.026
 9819TIP3    H153652   2.610   5.642  12.082
 9819TIP3    H253653   2.583   5.559  11.956
 9820TIP3   OH253654   2.331   4.831  11.948
 9820TIP3    H153655   2.385   4.913  11.988
 9820TIP3    H253656   2.254   4.883  11.898
 9821TIP3   OH253657   2.457   4.256  12.846
 9821TIP3    H153658   2.423   4.253  12.754
 9821TIP3    H253659   2.410   4.169  12.883
 9822TIP3   OH253660   2.288   5.734  12.418
 9822TIP3    H153661   2.217   5.808  12.444
 9822TIP3    H253662   2.333   5.789  12.345
 9823TIP3   OH253663   3.207   5.926  11.865
 9823TIP3    H153664   3.148   5.835  11.871
 9823TIP3    H253665   3.298   5.888  11.824
 9824TIP3   OH253666   3.695   5.854  11.874
 9824TIP3    H153667   3.709   5.779  11.943
 9824TIP3    H253668   3.795   5.867  11.841
 9825TIP3   OH253669   2.693   5.420  11.854
 9825TIP3    H153670   2.711   5.345  11.920
 9825TIP3    H253671   2.790   5.429  11.810
 9826TIP3   OH253672   3.315   5.558  11.837
 9826TIP3    H153673   3.279   5.543  11.927
 9826TIP3    H253674   3.317   5.454  11.807
 9827TIP3   OH253675   2.838   5.214  12.119
 9827TIP3    H153676   2.767   5.149  12.160
 9827TIP3    H253677   2.882   5.148  12.053
 9828TIP3   OH253678   2.966   5.016  11.925
 9828TIP3    H153679   2.961   5.048  11.831
 9828TIP3    H253680   3.072   5.020  11.941
 9829TIP3   OH253681   3.971   5.256  11.878
 9829TIP3    H153682   3.955   5.231  11.784
 9829TIP3    H253683   3.971   5.364  11.872
 9830TIP3   OH253684   2.929   6.159  12.060
 9830TIP3    H153685   3.034   6.184  12.070
 9830TIP3    H253686   2.913   6.213  11.978
 9831TIP3   OH253687   2.213   5.588  12.012
 9831TIP3    H153688   2.321   5.592  12.007
 9831TIP3    H253689   2.191   5.529  11.932
 9832TIP3   OH253690   2.108   6.132  12.515
 9832TIP3    H153691   2.028   6.073  12.476
 9832TIP3    H253692   2.152   6.065  12.579
 9833TIP3   OH253693   2.182   5.930  12.705
 9833TIP3    H153694   2.140   5.833  12.692
 9833TIP3    H253695   2.131   5.957  12.787
 9834TIP3   OH253696   4.146   5.122  12.086
 9834TIP3    H153697   4.063   5.152  12.030
 9834TIP3    H253698   4.144   5.191  12.160
 9835TIP3   OH253699   3.847   4.807  11.942
 9835TIP3    H153700   3.909   4.877  11.898
 9835TIP3    H253701   3.875   4.717  11.899
 9836TIP3   OH253702   3.805   5.015  12.542
 9836TIP3    H153703   3.837   4.914  12.537
 9836TIP3    H253704   3.887   5.066  12.580
 9837TIP3   OH253705   3.852   4.485  11.902
 9837TIP3    H153706   3.873   4.485  11.997
 9837TIP3    H253707   3.749   4.512  11.895
 9838TIP3   OH253708   3.753   4.744  12.366
 9838TIP3    H153709   3.794   4.649  12.390
 9838TIP3    H253710   3.841   4.797  12.340
 9839TIP3   OH253711   2.255   4.536  12.790
 9839TIP3    H153712   2.291   4.446  12.829
 9839TIP3    H253713   2.281   4.611  12.853
 9840TIP3   OH253714   4.110   4.444  12.032
 9840TIP3    H153715   4.124   4.355  11.977
 9840TIP3    H253716   4.079   4.507  11.959
 9841TIP3   OH253717   2.115   4.435  12.354
 9841TIP3    H153718   2.012   4.458  12.346
 9841TIP3    H253719   2.152   4.494  12.279
 9842TIP3   OH253720   3.767   6.080  12.578
 9842TIP3    H153721   3.816   6.048  12.496
 9842TIP3    H253722   3.829   6.162  12.604
 9843TIP3   OH253723   3.208   4.388  12.734
 9843TIP3    H153724   3.124   4.342  12.780
 9843TIP3    H253725   3.261   4.299  12.712
 9844TIP3   OH253726   2.390   4.224  12.550
 9844TIP3    H153727   2.298   4.231  12.500
 9844TIP3    H253728   2.432   4.128  12.524
 9845TIP3   OH253729   2.269   4.190  12.138
 9845TIP3    H153730   2.298   4.264  12.072
 9845TIP3    H253731   2.196   4.244  12.190
 9846TIP3   OH253732   2.846   4.143  12.560
 9846TIP3    H153733   2.903   4.188  12.491
 9846TIP3    H253734   2.893   4.176  12.643
 9847TIP3   OH253735   2.266   5.960  12.250
 9847TIP3    H153736   2.161   5.977  12.235
 9847TIP3    H253737   2.305   6.048  12.208
 9848TIP3   OH253738   2.405   4.417  11.976
 9848TIP3    H153739   2.478   4.363  11.926
 9848TIP3    H253740   2.454   4.426  12.062
 9849TIP3   OH253741   3.005   4.476  12.200
 9849TIP3    H153742   3.039   4.406  12.265
 9849TIP3    H253743   3.047   4.564  12.245
 9850TIP3   OH253744   3.241   6.131  12.052
 9850TIP3    H153745   3.347   6.120  12.039
 9850TIP3    H253746   3.207   6.057  11.988
 9851TIP3   OH253747   3.941   6.015  12.357
 9851TIP3    H153748   3.905   5.947  12.288
 9851TIP3    H253749   3.946   6.105  12.304
 9852TIP3   OH253750   2.407   6.047  11.931
 9852TIP3    H153751   2.380   6.090  12.017
 9852TIP3    H253752   2.487   5.982  11.954
 9853TIP3   OH253753   5.739   5.531  12.764
 9853TIP3    H153754   5.746   5.427  12.744
 9853TIP3    H253755   5.689   5.531  12.852
 9854TIP3   OH253756   5.430   6.065  12.790
 9854TIP3    H153757   5.481   6.010  12.720
 9854TIP3    H253758   5.389   5.986  12.841
 9855TIP3   OH253759   5.188   5.469  12.999
 9855TIP3    H153760   5.179   5.454  12.905
 9855TIP3    H253761   5.291   5.458  13.017
 9856TIP3   OH253762   4.760   4.611  12.684
 9856TIP3    H153763   4.756   4.688  12.616
 9856TIP3    H253764   4.715   4.530  12.634
 9857TIP3   OH253765   5.644   4.631  12.492
 9857TIP3    H153766   5.683   4.578  12.569
 9857TIP3    H253767   5.733   4.686  12.466
 9858TIP3   OH253768   5.441   5.526  12.443
 9858TIP3    H153769   5.414   5.488  12.356
 9858TIP3    H253770   5.408   5.630  12.435
 9859TIP3   OH253771   4.586   4.666  12.904
 9859TIP3    H153772   4.627   4.763  12.913
 9859TIP3    H253773   4.650   4.623  12.836
 9860TIP3   OH253774   5.591   5.894  12.621
 9860TIP3    H153775   5.602   5.798  12.576
 9860TIP3    H253776   5.674   5.944  12.581
 9861TIP3   OH253777   5.763   5.668  12.509
 9861TIP3    H153778   5.755   5.591  12.442
 9861TIP3    H253779   5.741   5.612  12.589
 9862TIP3   OH253780   5.683   5.166  12.431
 9862TIP3    H153781   5.609   5.133  12.494
 9862TIP3    H253782   5.767   5.107  12.462
 9863TIP3   OH253783   4.769   5.237  12.538
 9863TIP3    H153784   4.681   5.227  12.483
 9863TIP3    H253785   4.755   5.161  12.603
 9864TIP3   OH253786   5.344   5.800  12.462
 9864TIP3    H153787   5.366   5.837  12.551
 9864TIP3    H253788   5.259   5.856  12.437
 9865TIP3   OH253789   5.997   4.164  12.180
 9865TIP3    H153790   5.894   4.181  12.207
 9865TIP3    H253791   6.028   4.260  12.147
 9866TIP3   OH253792   6.122   5.737  12.007
 9866TIP3    H153793   6.159   5.837  12.022
 9866TIP3    H253794   6.214   5.679  12.011
 9867TIP3   OH253795   5.292   6.137  12.332
 9867TIP3    H153796   5.277   6.145  12.236
 9867TIP3    H253797   5.279   6.239  12.360
 9868TIP3   OH253798   4.575   6.001  12.522
 9868TIP3    H153799   4.610   5.966  12.610
 9868TIP3    H253800   4.481   5.948  12.514
 9869TIP3   OH253801   5.630   6.057  12.039
 9869TIP3    H153802   5.664   5.968  11.993
 9869TIP3    H253803   5.636   6.030  12.134
 9870TIP3   OH253804   5.573   6.035  12.320
 9870TIP3    H153805   5.471   6.071  12.325
 9870TIP3    H253806   5.559   5.942  12.368
 9871TIP3   OH253807   5.753   5.235  11.986
 9871TIP3    H153808   5.738   5.214  11.892
 9871TIP3    H253809   5.858   5.258  11.988
 9872TIP3   OH253810   5.286   4.554  11.966
 9872TIP3    H153811   5.240   4.562  12.053
 9872TIP3    H253812   5.223   4.477  11.928
 9873TIP3   OH253813   4.916   4.558  11.927
 9873TIP3    H153814   4.819   4.529  11.955
 9873TIP3    H253815   4.906   4.657  11.890
 9874TIP3   OH253816   4.181   4.595  12.581
 9874TIP3    H153817   4.238   4.585  12.664
 9874TIP3    H253818   4.131   4.502  12.576
 9875TIP3   OH253819   5.042   4.509  12.676
 9875TIP3    H153820   4.956   4.568  12.688
 9875TIP3    H253821   5.118   4.584  12.653
 9876TIP3   OH253822   4.935   4.751  12.276
 9876TIP3    H153823   4.968   4.789  12.365
 9876TIP3    H253824   4.871   4.831  12.252
 9877TIP3   OH253825   4.737   4.875  12.037
 9877TIP3    H153826   4.663   4.881  11.967
 9877TIP3    H253827   4.828   4.885  11.985
 9878TIP3   OH253828   4.633   4.459  12.484
 9878TIP3    H153829   4.564   4.375  12.483
 9878TIP3    H253830   4.701   4.437  12.412
 9879TIP3   OH253831   5.101   5.394  12.255
 9879TIP3    H153832   5.019   5.338  12.217
 9879TIP3    H253833   5.061   5.426  12.342
 9880TIP3   OH253834   5.548   4.639  12.079
 9880TIP3    H153835   5.453   4.610  12.042
 9880TIP3    H253836   5.579   4.699  12.002
 9881TIP3   OH253837   5.331   5.532  12.132
 9881TIP3    H153838   5.300   5.633  12.152
 9881TIP3    H253839   5.258   5.474  12.180
 9882TIP3   OH253840   6.169   4.841  12.174
 9882TIP3    H153841   6.122   4.801  12.094
 9882TIP3    H253842   6.169   4.947  12.155
 9883TIP3   OH253843   5.951   5.754  12.231
 9883TIP3    H153844   5.903   5.666  12.264
 9883TIP3    H253845   6.003   5.719  12.151
 9884TIP3   OH253846   4.858   5.708  12.527
 9884TIP3    H153847   4.859   5.805  12.484
 9884TIP3    H253848   4.755   5.686  12.522
 9885TIP3   OH253849   4.438   5.188  12.023
 9885TIP3    H153850   4.462   5.207  12.116
 9885TIP3    H253851   4.334   5.160  12.030
 9886TIP3   OH253852   5.003   5.449  12.535
 9886TIP3    H153853   4.942   5.538  12.536
 9886TIP3    H253854   4.929   5.372  12.549
 9887TIP3   OH253855   4.852   5.973  12.405
 9887TIP3    H153856   4.749   5.993  12.427
 9887TIP3    H253857   4.897   6.050  12.460
 9888TIP3   OH253858   5.716   5.590  12.005
 9888TIP3    H153859   5.759   5.549  12.087
 9888TIP3    H253860   5.618   5.549  12.014
 9889TIP3   OH253861   6.174   6.043  12.065
 9889TIP3    H153862   6.246   6.116  12.037
 9889TIP3    H253863   6.095   6.108  12.098
 9890TIP3   OH253864   5.789   5.436  12.234
 9890TIP3    H153865   5.735   5.352  12.267
 9890TIP3    H253866   5.892   5.400  12.240
 9891TIP3   OH253867   5.049   5.731  11.860
 9891TIP3    H153868   5.034   5.672  11.781
 9891TIP3    H253869   4.983   5.683  11.922
 9892TIP3   OH253870   4.924   5.612  12.114
 9892TIP3    H153871   5.017   5.582  12.155
 9892TIP3    H253872   4.921   5.717  12.139
 9893TIP3   OH253873   5.529   4.444  12.301
 9893TIP3    H153874   5.561   4.508  12.228
 9893TIP3    H253875   5.563   4.503  12.377
 9894TIP3   OH253876   5.241   5.828  12.168
 9894TIP3    H153877   5.137   5.854  12.173
 9894TIP3    H253878   5.282   5.928  12.162
 9895TIP3   OH253879   5.263   4.364  12.401
 9895TIP3    H153880   5.256   4.394  12.494
 9895TIP3    H253881   5.358   4.403  12.371
 9896TIP3   OH253882   4.961   5.899  12.162
 9896TIP3    H153883   4.963   5.990  12.107
 9896TIP3    H253884   4.914   5.940  12.243
 9897TIP3   OH253885   4.766   4.446  12.152
 9897TIP3    H153886   4.805   4.544  12.166
 9897TIP3    H253887   4.859   4.391  12.160
 9898TIP3   OH253888   4.590   5.630  12.026
 9898TIP3    H153889   4.657   5.633  12.100
 9898TIP3    H253890   4.639   5.558  11.968
 9899TIP3   OH253891   4.404   5.762  12.457
 9899TIP3    H153892   4.302   5.745  12.474
 9899TIP3    H253893   4.403   5.807  12.368
 9900TIP3   OH253894   5.283   5.930  11.865
 9900TIP3    H153895   5.225   5.842  11.884
 9900TIP3    H253896   5.371   5.889  11.823
 9901TIP3   OH253897   5.777   5.855  11.877
 9901TIP3    H153898   5.779   5.768  11.936
 9901TIP3    H253899   5.871   5.847  11.831
 9902TIP3   OH253900   4.759   5.447  11.861
 9902TIP3    H153901   4.761   5.356  11.908
 9902TIP3    H253902   4.853   5.445  11.815
 9903TIP3   OH253903   5.394   5.544  11.850
 9903TIP3    H153904   5.349   5.541  11.939
 9903TIP3    H253905   5.387   5.441  11.826
 9904TIP3   OH253906   4.929   5.185  12.134
 9904TIP3    H153907   4.828   5.155  12.140
 9904TIP3    H253908   4.956   5.150  12.047
 9905TIP3   OH253909   6.042   5.243  11.874
 9905TIP3    H153910   6.015   5.218  11.781
 9905TIP3    H253911   6.054   5.350  11.869
 9906TIP3   OH253912   4.990   6.170  12.067
 9906TIP3    H153913   5.090   6.207  12.076
 9906TIP3    H253914   4.963   6.214  11.982
 9907TIP3   OH253915   4.279   5.582  12.006
 9907TIP3    H153916   4.384   5.597  12.015
 9907TIP3    H253917   4.275   5.510  11.933
 9908TIP3   OH253918   4.165   6.145  12.476
 9908TIP3    H153919   4.092   6.074  12.443
 9908TIP3    H253920   4.211   6.084  12.546
 9909TIP3   OH253921   4.258   5.942  12.654
 9909TIP3    H153922   4.227   5.851  12.695
 9909TIP3    H253923   4.304   5.990  12.731
 9910TIP3   OH253924   6.070   5.350  12.276
 9910TIP3    H153925   6.159   5.411  12.272
 9910TIP3    H253926   6.089   5.294  12.359
 9911TIP3   OH253927   6.135   5.179  12.493
 9911TIP3    H153928   6.062   5.113  12.533
 9911TIP3    H253929   6.217   5.168  12.557
 9912TIP3   OH253930   6.202   5.145  12.091
 9912TIP3    H153931   6.127   5.154  12.022
 9912TIP3    H253932   6.159   5.205  12.162
 9913TIP3   OH253933   5.999   4.819  11.936
 9913TIP3    H153934   6.014   4.894  11.868
 9913TIP3    H253935   5.974   4.731  11.883
 9914TIP3   OH253936   5.900   4.983  12.526
 9914TIP3    H153937   5.911   4.887  12.480
 9914TIP3    H253938   5.910   4.957  12.620
 9915TIP3   OH253939   5.933   4.550  11.838
 9915TIP3    H153940   5.982   4.518  11.920
 9915TIP3    H253941   5.832   4.524  11.855
 9916TIP3   OH253942   5.899   4.725  12.392
 9916TIP3    H153943   5.909   4.617  12.397
 9916TIP3    H253944   5.946   4.745  12.307
 9917TIP3   OH253945   5.873   4.430  12.405
 9917TIP3    H153946   5.970   4.401  12.438
 9917TIP3    H253947   5.831   4.336  12.375
 9918TIP3   OH253948   4.352   4.490  12.802
 9918TIP3    H153949   4.351   4.412  12.867
 9918TIP3    H253950   4.374   4.576  12.857
 9919TIP3   OH253951   6.148   4.393  12.050
 9919TIP3    H153952   6.202   4.356  11.972
 9919TIP3    H253953   6.229   4.398  12.113
 9920TIP3   OH253954   5.856   6.050  12.574
 9920TIP3    H153955   5.903   6.001  12.498
 9920TIP3    H253956   5.848   6.148  12.534
 9921TIP3   OH253957   4.443   6.031  12.861
 9921TIP3    H153958   4.418   5.980  12.942
 9921TIP3    H253959   4.540   5.990  12.838
 9922TIP3   OH253960   4.690   5.889  12.760
 9922TIP3    H153961   4.689   5.784  12.751
 9922TIP3    H253962   4.772   5.900  12.822
 9923TIP3   OH253963   5.320   4.343  12.731
 9923TIP3    H153964   5.299   4.333  12.825
 9923TIP3    H253965   5.419   4.302  12.728
 9924TIP3   OH253966   5.847   4.177  12.741
 9924TIP3    H153967   5.894   4.257  12.693
 9924TIP3    H253968   5.742   4.206  12.738
 9925TIP3   OH253969   6.076   4.319  12.575
 9925TIP3    H153970   6.110   4.219  12.565
 9925TIP3    H253971   6.161   4.376  12.544
 9926TIP3   OH253972   4.470   4.214  12.480
 9926TIP3    H153973   4.367   4.192  12.495
 9926TIP3    H253974   4.520   4.120  12.486
 9927TIP3   OH253975   4.361   4.170  12.135
 9927TIP3    H153976   4.406   4.248  12.081
 9927TIP3    H253977   4.293   4.227  12.188
 9928TIP3   OH253978   4.966   4.170  12.561
 9928TIP3    H153979   5.020   4.239  12.507
 9928TIP3    H253980   4.969   4.219  12.647
 9929TIP3   OH253981   5.579   4.228  12.662
 9929TIP3    H153982   5.551   4.232  12.569
 9929TIP3    H253983   5.532   4.137  12.694
 9930TIP3   OH253984   5.722   4.214  12.281
 9930TIP3    H153985   5.647   4.290  12.299
 9930TIP3    H253986   5.677   4.125  12.317
 9931TIP3   OH253987   4.353   5.966  12.247
 9931TIP3    H153988   4.266   5.943  12.195
 9931TIP3    H253989   4.366   6.070  12.220
 9932TIP3   OH253990   4.507   4.447  11.997
 9932TIP3    H153991   4.563   4.372  11.950
 9932TIP3    H253992   4.583   4.485  12.057
 9933TIP3   OH253993   5.080   4.442  12.214
 9933TIP3    H153994   5.143   4.396  12.282
 9933TIP3    H253995   5.064   4.539  12.254
 9934TIP3   OH253996   5.316   6.117  12.069
 9934TIP3    H153997   5.419   6.128  12.042
 9934TIP3    H253998   5.282   6.054  11.994
 9935TIP3   OH253999   6.034   6.004  12.362
 9935TIP3    H154000   6.005   5.920  12.304
 9935TIP3    H254001   6.021   6.086  12.301
 9936TIP3   OH254002   4.475   6.051  11.927
 9936TIP3    H154003   4.438   6.095  12.010
 9936TIP3    H254004   4.544   5.978  11.960
 9937TIP3   OH254005   7.532   5.232  12.541
 9937TIP3    H154006   7.509   5.336  12.522
 9937TIP3    H254007   7.442   5.188  12.512
 9938TIP3   OH254008   7.767   5.456  12.785
 9938TIP3    H154009   7.673   5.462  12.741
 9938TIP3    H254010   7.788   5.557  12.806
 9939TIP3   OH254011   6.299   4.891  12.470
 9939TIP3    H154012   6.309   4.963  12.400
 9939TIP3    H254013   6.272   4.803  12.419
 9940TIP3   OH254014   6.423   5.173  12.635
 9940TIP3    H154015   6.392   5.143  12.724
 9940TIP3    H254016   6.444   5.080  12.593
 9941TIP3   OH254017   7.492   6.040  12.736
 9941TIP3    H154018   7.578   5.992  12.779
 9941TIP3    H254019   7.468   6.118  12.802
 9942TIP3   OH254020   7.618   4.789  12.983
 9942TIP3    H154021   7.700   4.731  13.016
 9942TIP3    H254022   7.587   4.740  12.903
 9943TIP3   OH254023   6.484   4.896  12.753
 9943TIP3    H154024   6.573   4.860  12.710
 9943TIP3    H254025   6.411   4.893  12.683
 9944TIP3   OH254026   7.472   5.501  12.443
 9944TIP3    H154027   7.510   5.516  12.355
 9944TIP3    H254028   7.451   5.604  12.467
 9945TIP3   OH254029   6.337   5.486  12.264
 9945TIP3    H154030   6.365   5.524  12.177
 9945TIP3    H254031   6.393   5.542  12.327
 9946TIP3   OH254032   7.128   4.190  12.816
 9946TIP3    H154033   7.170   4.118  12.876
 9946TIP3    H254034   7.036   4.213  12.862
 9947TIP3   OH254035   7.709   5.866  12.519
 9947TIP3    H154036   7.775   5.779  12.519
 9947TIP3    H254037   7.774   5.941  12.558
 9948TIP3   OH254038   7.868   5.622  12.479
 9948TIP3    H154039   7.855   5.574  12.393
 9948TIP3    H254040   7.850   5.543  12.541
 9949TIP3   OH254041   7.759   5.185  12.371
 9949TIP3    H154042   7.675   5.185  12.433
 9949TIP3    H254043   7.828   5.118  12.416
 9950TIP3   OH254044   6.969   5.590  12.819
 9950TIP3    H154045   6.930   5.617  12.731
 9950TIP3    H254046   7.013   5.496  12.800
 9951TIP3   OH254047   7.671   5.057  12.138
 9951TIP3    H154048   7.700   5.097  12.225
 9951TIP3    H254049   7.709   5.132  12.075
 9952TIP3   OH254050   7.405   5.803  12.459
 9952TIP3    H154051   7.477   5.844  12.522
 9952TIP3    H254052   7.365   5.892  12.420
 9953TIP3   OH254053   8.067   4.181  12.130
 9953TIP3    H154054   7.970   4.184  12.094
 9953TIP3    H254055   8.076   4.276  12.173
 9954TIP3   OH254056   8.187   5.776  11.976
 9954TIP3    H154057   8.228   5.875  11.989
 9954TIP3    H254058   8.279   5.721  11.982
 9955TIP3   OH254059   7.340   6.118  12.335
 9955TIP3    H154060   7.348   6.128  12.237
 9955TIP3    H254061   7.335   6.222  12.362
 9956TIP3   OH254062   6.648   6.012  12.529
 9956TIP3    H154063   6.697   5.955  12.598
 9956TIP3    H254064   6.566   5.947  12.505
 9957TIP3   OH254065   7.671   6.035  12.041
 9957TIP3    H154066   7.743   5.964  12.005
 9957TIP3    H254067   7.692   6.035  12.137
 9958TIP3   OH254068   7.640   6.046  12.307
 9958TIP3    H154069   7.535   6.054  12.331
 9958TIP3    H254070   7.670   5.969  12.369
 9959TIP3   OH254071   6.860   4.233  12.939
 9959TIP3    H154072   6.762   4.231  12.902
 9959TIP3    H254073   6.868   4.334  12.968
 9960TIP3   OH254074   7.795   5.254  11.971
 9960TIP3    H154075   7.774   5.240  11.875
 9960TIP3    H254076   7.902   5.262  11.970
 9961TIP3   OH254077   7.337   4.489  11.999
 9961TIP3    H154078   7.264   4.498  12.068
 9961TIP3    H254079   7.276   4.467  11.922
 9962TIP3   OH254080   7.004   4.586  11.920
 9962TIP3    H154081   6.934   4.536  11.980
 9962TIP3    H254082   6.933   4.651  11.876
 9963TIP3   OH254083   7.103   4.626  12.603
 9963TIP3    H154084   7.015   4.587  12.644
 9963TIP3    H254085   7.178   4.553  12.625
 9964TIP3   OH254086   6.822   4.808  12.062
 9964TIP3    H154087   6.746   4.801  11.993
 9964TIP3    H254088   6.888   4.877  12.021
 9965TIP3   OH254089   7.346   4.849  12.757
 9965TIP3    H154090   7.313   4.750  12.745
 9965TIP3    H254091   7.308   4.877  12.843
 9966TIP3   OH254092   7.640   4.529  12.082
 9966TIP3    H154093   7.538   4.562  12.065
 9966TIP3    H254094   7.676   4.611  12.138
 9967TIP3   OH254095   7.713   4.775  12.193
 9967TIP3    H154096   7.800   4.796  12.248
 9967TIP3    H254097   7.696   4.871  12.151
 9968TIP3   OH254098   7.404   5.562  12.075
 9968TIP3    H154099   7.394   5.647  12.134
 9968TIP3    H254100   7.374   5.481  12.132
 9969TIP3   OH254101   8.242   4.816  12.170
 9969TIP3    H154102   8.174   4.791  12.098
 9969TIP3    H254103   8.259   4.919  12.150
 9970TIP3   OH254104   8.006   5.807  12.219
 9970TIP3    H154105   7.970   5.708  12.235
 9970TIP3    H254106   8.062   5.796  12.136
 9971TIP3   OH254107   6.864   5.711  12.583
 9971TIP3    H154108   6.953   5.768  12.577
 9971TIP3    H254109   6.851   5.684  12.490
 9972TIP3   OH254110   6.487   5.140  11.996
 9972TIP3    H154111   6.541   5.202  12.061
 9972TIP3    H254112   6.384   5.155  12.026
 9973TIP3   OH254113   6.926   6.028  12.430
 9973TIP3    H154114   6.822   6.037  12.455
 9973TIP3    H254115   6.971   6.102  12.488
 9974TIP3   OH254116   7.807   5.608  12.017
 9974TIP3    H154117   7.822   5.547  12.098
 9974TIP3    H254118   7.707   5.579  11.997
 9975TIP3   OH254119   8.294   6.048  12.050
 9975TIP3    H154120   8.315   6.134  11.993
 9975TIP3    H254121   8.203   6.083  12.089
 9976TIP3   OH254122   7.887   5.442  12.246
 9976TIP3    H154123   7.847   5.345  12.269
 9976TIP3    H254124   7.993   5.421  12.237
 9977TIP3   OH254125   7.128   5.713  11.866
 9977TIP3    H154126   7.113   5.679  11.775
 9977TIP3    H254127   7.074   5.640  11.916
 9978TIP3   OH254128   6.965   5.609  12.122
 9978TIP3    H154129   7.046   5.546  12.153
 9978TIP3    H254130   6.997   5.707  12.152
 9979TIP3   OH254131   6.632   5.333  12.144
 9979TIP3    H154132   6.578   5.338  12.227
 9979TIP3    H254133   6.731   5.346  12.176
 9980TIP3   OH254134   7.329   5.833  12.187
 9980TIP3    H154135   7.229   5.851  12.223
 9980TIP3    H254136   7.352   5.927  12.146
 9981TIP3   OH254137   7.030   5.896  12.191
 9981TIP3    H154138   7.039   5.976  12.126
 9981TIP3    H254139   6.986   5.952  12.265
 9982TIP3   OH254140   6.809   4.477  12.116
 9982TIP3    H154141   6.787   4.579  12.137
 9982TIP3    H254142   6.876   4.455  12.187
 9983TIP3   OH254143   7.854   4.997  12.771
 9983TIP3    H154144   7.768   4.978  12.825
 9983TIP3    H254145   7.927   4.935  12.815
 9984TIP3   OH254146   6.663   5.629  12.018
 9984TIP3    H154147   6.745   5.658  12.073
 9984TIP3    H254148   6.710   5.548  11.970
 9985TIP3   OH254149   6.520   4.829  11.944
 9985TIP3    H154150   6.536   4.918  11.996
 9985TIP3    H254151   6.426   4.795  11.978
 9986TIP3   OH254152   6.456   5.801  12.470
 9986TIP3    H154153   6.368   5.837  12.425
 9986TIP3    H254154   6.512   5.777  12.390
 9987TIP3   OH254155   7.348   5.943  11.874
 9987TIP3    H154156   7.301   5.847  11.887
 9987TIP3    H254157   7.443   5.918  11.832
 9988TIP3   OH254158   7.861   5.867  11.893
 9988TIP3    H154159   7.876   5.781  11.949
 9988TIP3    H254160   7.950   5.867  11.839
 9989TIP3   OH254161   6.812   5.423  11.844
 9989TIP3    H154162   6.776   5.335  11.887
 9989TIP3    H254163   6.912   5.398  11.817
 9990TIP3   OH254164   7.472   5.552  11.821
 9990TIP3    H154165   7.438   5.546  11.915
 9990TIP3    H254166   7.462   5.448  11.799
 9991TIP3   OH254167   7.124   4.990  11.936
 9991TIP3    H154168   7.043   4.991  11.871
 9991TIP3    H254169   7.198   5.041  11.886
 9992TIP3   OH254170   8.101   5.249  11.882
 9992TIP3    H154171   8.077   5.224  11.789
 9992TIP3    H254172   8.111   5.357  11.877
 9993TIP3   OH254173   7.071   6.149  12.050
 9993TIP3    H154174   7.170   6.161  12.084
 9993TIP3    H254175   7.072   6.219  11.976
 9994TIP3   OH254176   6.360   5.576  11.997
 9994TIP3    H154177   6.467   5.585  11.998
 9994TIP3    H254178   6.345   5.519  11.914
 9995TIP3   OH254179   6.268   6.116  12.489
 9995TIP3    H154180   6.178   6.079  12.447
 9995TIP3    H254181   6.267   6.070  12.575
 9996TIP3   OH254182   8.177   5.376  12.270
 9996TIP3    H154183   8.269   5.421  12.296
 9996TIP3    H254184   8.176   5.288  12.328
 9997TIP3   OH254185   8.216   5.163  12.460
 9997TIP3    H154186   8.125   5.108  12.480
 9997TIP3    H254187   8.241   5.193  12.550
 9998TIP3   OH254188   8.122   5.436  12.999
 9998TIP3    H154189   8.212   5.379  13.022
 9998TIP3    H254190   8.156   5.536  12.991
 9999TIP3   OH254191   8.240   5.133  12.114
 9999TIP3    H154192   8.191   5.160  12.031
 9999TIP3    H254193   8.247   5.228  12.157
10000TIP3   OH254194   8.049   4.808  11.944
10000TIP3    H154195   8.073   4.885  11.881
10000TIP3    H254196   8.018   4.728  11.885
10001TIP3   OH254197   7.968   4.995  12.512
10001TIP3    H154198   7.961   4.903  12.460
10001TIP3    H254199   7.910   4.975  12.592
10002TIP3   OH254200   7.975   4.543  11.836
10002TIP3    H154201   8.053   4.507  11.892
10002TIP3    H254202   7.887   4.530  11.889
10003TIP3   OH254203   7.965   4.756  12.336
10003TIP3    H154204   7.966   4.666  12.387
10003TIP3    H254205   8.064   4.752  12.299
10004TIP3   OH254206   7.994   4.457  12.382
10004TIP3    H154207   8.007   4.411  12.471
10004TIP3    H254208   7.887   4.466  12.380
10005TIP3   OH254209   8.262   4.426  12.034
10005TIP3    H154210   8.291   4.339  11.983
10005TIP3    H254211   8.314   4.506  11.989
10006TIP3   OH254212   7.902   6.084  12.557
10006TIP3    H154213   7.966   6.070  12.480
10006TIP3    H254214   7.962   6.149  12.613
10007TIP3   OH254215   6.972   5.898  12.852
10007TIP3    H154216   6.979   5.792  12.850
10007TIP3    H254217   6.971   5.917  12.947
10008TIP3   OH254218   8.066   4.296  12.607
10008TIP3    H154219   8.139   4.219  12.593
10008TIP3    H254220   8.125   4.360  12.662
10009TIP3   OH254221   7.140   4.225  12.518
10009TIP3    H154222   7.239   4.261  12.542
10009TIP3    H254223   7.092   4.231  12.604
10010TIP3   OH254224   6.382   5.928  12.230
10010TIP3    H154225   6.279   5.942  12.211
10010TIP3    H254226   6.418   6.025  12.204
10011TIP3   OH254227   6.564   4.440  11.951
10011TIP3    H154228   6.626   4.365  11.911
10011TIP3    H254229   6.600   4.445  12.042
10012TIP3   OH254230   7.384   6.123  12.074
10012TIP3    H154231   7.490   6.106  12.057
10012TIP3    H254232   7.347   6.064  11.998
10013TIP3   OH254233   8.114   6.031  12.373
10013TIP3    H154234   8.076   5.941  12.332
10013TIP3    H254235   8.122   6.091  12.292
10014TIP3   OH254236   6.557   6.037  11.931
10014TIP3    H154237   6.535   6.074  12.020
10014TIP3    H254238   6.644   5.977  11.949
10015TIP3   OH254239   8.340   4.880  12.466
10015TIP3    H154240   8.314   4.983  12.465
10015TIP3    H254241   8.282   4.842  12.393
10016TIP3   OH254242   8.370   5.769  12.614
10016TIP3    H154243   8.415   5.677  12.640
10016TIP3    H254244   8.278   5.741  12.571
10017TIP3   OH254245   8.290   4.528  12.595
10017TIP3    H154246   8.377   4.574  12.633
10017TIP3    H254247   8.309   4.524  12.500
10018TIP3   OH254248   8.220   6.240  12.545
10018TIP3    H154249   8.191   6.173  12.474
10018TIP3    H254250   8.231   6.168  12.617
10019TIP3   OH254251   8.309   6.040  12.714
10019TIP3    H154252   8.328   5.944  12.672
10019TIP3    H254253   8.411   6.072  12.726
10020TIP3   OH254254   8.323   5.228  12.998
10020TIP3    H154255   8.283   5.149  12.944
10020TIP3    H254256   8.397   5.170  13.044
10021TIP3   OH254257   8.278   4.459  12.303
10021TIP3    H154258   8.173   4.458  12.331
10021TIP3    H254259   8.270   4.445  12.206
10022TIP3   OH254260   1.339   7.300  12.542
10022TIP3    H154261   1.344   7.405  12.550
10022TIP3    H254262   1.261   7.291  12.476
10023TIP3   OH254263   1.580   7.591  12.746
10023TIP3    H154264   1.554   7.492  12.776
10023TIP3    H254265   1.661   7.612  12.806
10024TIP3   OH254266   0.149   6.949  12.370
10024TIP3    H154267   0.168   7.015  12.446
10024TIP3    H254268   0.042   6.938  12.380
10025TIP3   OH254269   0.188   7.148  12.579
10025TIP3    H154270   0.222   7.068  12.639
10025TIP3    H254271   0.201   7.233  12.637
10026TIP3   OH254272   1.412   6.862  12.976
10026TIP3    H154273   1.407   6.753  12.989
10026TIP3    H254274   1.324   6.874  12.924
10027TIP3   OH254275   0.616   6.663  12.687
10027TIP3    H154276   0.576   6.751  12.646
10027TIP3    H254277   0.570   6.587  12.635
10028TIP3   OH254278   1.498   6.687  12.475
10028TIP3    H154279   1.561   6.651  12.546
10028TIP3    H254280   1.551   6.778  12.457
10029TIP3   OH254281   0.257   6.905  12.723
10029TIP3    H154282   0.324   6.882  12.795
10029TIP3    H254283   0.304   6.857  12.645
10030TIP3   OH254284   1.273   7.574  12.435
10030TIP3    H154285   1.252   7.569  12.341
10030TIP3    H254286   1.296   7.677  12.449
10031TIP3   OH254287   1.653   6.645  12.700
10031TIP3    H154288   1.564   6.614  12.746
10031TIP3    H254289   1.697   6.550  12.680
10032TIP3   OH254290   0.451   6.743  12.905
10032TIP3    H154291   0.484   6.706  12.991
10032TIP3    H254292   0.517   6.687  12.847
10033TIP3   OH254293   0.198   7.592  12.260
10033TIP3    H154294   0.172   7.679  12.207
10033TIP3    H254295   0.196   7.632  12.352
10034TIP3   OH254296   1.617   7.701  12.482
10034TIP3    H154297   1.584   7.621  12.425
10034TIP3    H254298   1.595   7.665  12.572
10035TIP3   OH254299   1.192   7.237  12.301
10035TIP3    H154300   1.114   7.305  12.273
10035TIP3    H254301   1.270   7.261  12.238
10036TIP3   OH254302   1.154   7.118  11.983
10036TIP3    H154303   1.227   7.169  12.039
10036TIP3    H254304   1.185   7.017  11.996
10037TIP3   OH254305   1.586   7.200  12.379
10037TIP3    H154306   1.510   7.244  12.436
10037TIP3    H254307   1.658   7.163  12.444
10038TIP3   OH254308   0.684   7.302  12.555
10038TIP3    H154309   0.607   7.290  12.486
10038TIP3    H254310   0.722   7.203  12.555
10039TIP3   OH254311   1.424   7.200  12.135
10039TIP3    H154312   1.483   7.182  12.216
10039TIP3    H254313   1.502   7.225  12.069
10040TIP3   OH254314   1.201   7.985  12.493
10040TIP3    H154315   1.147   7.944  12.568
10040TIP3    H254316   1.132   8.063  12.464
10041TIP3   OH254317   1.856   6.236  12.177
10041TIP3    H154318   1.749   6.250  12.184
10041TIP3    H254319   1.890   6.328  12.136
10042TIP3   OH254320   0.535   7.201  12.345
10042TIP3    H154321   0.470   7.270  12.298
10042TIP3    H254322   0.483   7.108  12.339
10043TIP3   OH254323   1.968   7.822  11.997
10043TIP3    H154324   1.999   7.925  12.001
10043TIP3    H254325   2.061   7.770  12.014
10044TIP3   OH254326   0.079   7.677  12.860
10044TIP3    H154327   0.163   7.729  12.895
10044TIP3    H254328   0.002   7.728  12.909
10045TIP3   OH254329   1.464   8.114  12.058
10045TIP3    H154330   1.546   8.049  12.030
10045TIP3    H254331   1.455   8.089  12.154
10046TIP3   OH254332   1.405   8.087  12.312
10046TIP3    H154333   1.305   8.087  12.347
10046TIP3    H254334   1.451   8.019  12.374
10047TIP3   OH254335   1.634   7.308  11.976
10047TIP3    H154336   1.601   7.334  11.885
10047TIP3    H254337   1.740   7.323  11.970
10048TIP3   OH254338   1.125   6.606  11.964
10048TIP3    H154339   1.091   6.599  12.057
10048TIP3    H254340   1.072   6.521  11.930
10049TIP3   OH254341   0.619   6.922  12.527
10049TIP3    H154342   0.527   6.888  12.487
10049TIP3    H254343   0.686   6.896  12.455
10050TIP3   OH254344   1.252   6.979  12.394
10050TIP3    H154345   1.229   7.079  12.356
10050TIP3    H254346   1.328   6.949  12.331
10051TIP3   OH254347   1.274   7.000  12.701
10051TIP3    H154348   1.310   7.076  12.640
10051TIP3    H254349   1.311   6.916  12.655
10052TIP3   OH254350   0.711   6.631  11.892
10052TIP3    H154351   0.670   6.576  11.968
10052TIP3    H254352   0.636   6.701  11.870
10053TIP3   OH254353   0.062   6.592  12.637
10053TIP3    H154354   0.147   6.590  12.696
10053TIP3    H254355   0.098   6.620  12.550
10054TIP3   OH254356   0.092   6.752  12.167
10054TIP3    H154357   0.133   6.787  12.083
10054TIP3    H254358   0.136   6.822  12.231
10055TIP3   OH254359   0.943   6.668  12.629
10055TIP3    H154360   0.836   6.650  12.634
10055TIP3    H254361   0.965   6.624  12.716
10056TIP3   OH254362   0.353   6.795  12.490
10056TIP3    H154363   0.279   6.828  12.425
10056TIP3    H254364   0.371   6.691  12.463
10057TIP3   OH254365   0.726   6.822  12.288
10057TIP3    H154366   0.829   6.816  12.264
10057TIP3    H254367   0.691   6.881  12.211
10058TIP3   OH254368   0.651   6.953  12.058
10058TIP3    H154369   0.583   6.897  12.005
10058TIP3    H254370   0.720   6.989  11.989
10059TIP3   OH254371   0.465   6.531  12.464
10059TIP3    H154372   0.420   6.437  12.489
10059TIP3    H254373   0.559   6.500  12.429
10060TIP3   OH254374   0.986   7.428  12.248
10060TIP3    H154375   0.906   7.376  12.202
10060TIP3    H254376   0.930   7.487  12.313
10061TIP3   OH254377   1.393   6.670  12.052
10061TIP3    H154378   1.302   6.672  11.998
10061TIP3    H254379   1.401   6.774  12.077
10062TIP3   OH254380   1.444   6.912  12.194
10062TIP3    H154381   1.530   6.873  12.238
10062TIP3    H254382   1.487   6.981  12.130
10063TIP3   OH254383   1.170   7.605  12.116
10063TIP3    H154384   1.129   7.702  12.138
10063TIP3    H254385   1.107   7.542  12.170
10064TIP3   OH254386   2.002   6.878  12.188
10064TIP3    H154387   1.991   6.844  12.096
10064TIP3    H254388   2.023   6.983  12.173
10065TIP3   OH254389   1.775   7.855  12.220
10065TIP3    H154390   1.737   7.780  12.279
10065TIP3    H254391   1.835   7.803  12.155
10066TIP3   OH254392   1.518   7.289  12.886
10066TIP3    H154393   1.428   7.348  12.894
10066TIP3    H254394   1.540   7.276  12.980
10067TIP3   OH254395   0.228   7.206  12.010
10067TIP3    H154396   0.296   7.257  12.071
10067TIP3    H254397   0.141   7.196  12.066
10068TIP3   OH254398   0.813   7.566  12.440
10068TIP3    H154399   0.824   7.642  12.506
10068TIP3    H254400   0.754   7.491  12.486
10069TIP3   OH254401   1.582   7.645  12.009
10069TIP3    H154402   1.597   7.594  12.095
10069TIP3    H254403   1.481   7.616  11.993
10070TIP3   OH254404   2.052   8.107  12.024
10070TIP3    H154405   2.123   8.185  12.036
10070TIP3    H254406   1.958   8.160  12.041
10071TIP3   OH254407   1.634   7.494  12.250
10071TIP3    H154408   1.620   7.388  12.250
10071TIP3    H254409   1.740   7.500  12.251
10072TIP3   OH254410   0.898   7.770  11.848
10072TIP3    H154411   0.886   7.714  11.767
10072TIP3    H254412   0.844   7.710  11.909
10073TIP3   OH254413   0.383   7.374  12.182
10073TIP3    H154414   0.303   7.435  12.218
10073TIP3    H254415   0.422   7.438  12.113
10074TIP3   OH254416   1.337   6.558  12.292
10074TIP3    H154417   1.360   6.593  12.201
10074TIP3    H254418   1.397   6.625  12.349
10075TIP3   OH254419   1.077   7.872  12.189
10075TIP3    H154420   1.026   7.921  12.261
10075TIP3    H254421   1.141   7.950  12.158
10076TIP3   OH254422   1.035   6.751  12.362
10076TIP3    H154423   1.099   6.837  12.371
10076TIP3    H254424   1.014   6.721  12.455
10077TIP3   OH254425   1.133   6.402  12.414
10077TIP3    H154426   1.091   6.466  12.480
10077TIP3    H254427   1.209   6.469  12.376
10078TIP3   OH254428   0.650   6.542  12.145
10078TIP3    H154429   0.640   6.635  12.193
10078TIP3    H254430   0.751   6.515  12.165
10079TIP3   OH254431   1.595   6.957  12.768
10079TIP3    H154432   1.551   7.055  12.762
10079TIP3    H254433   1.531   6.910  12.835
10080TIP3   OH254434   0.231   6.888  11.960
10080TIP3    H154435   0.264   6.985  11.987
10080TIP3    H254436   0.190   6.908  11.873
10081TIP3   OH254437   0.277   6.323  12.746
10081TIP3    H154438   0.293   6.315  12.650
10081TIP3    H254439   0.311   6.226  12.773
10082TIP3   OH254440   0.241   7.796  12.447
10082TIP3    H154441   0.230   7.855  12.529
10082TIP3    H254442   0.204   7.867  12.383
10083TIP3   OH254443   1.133   7.963  11.877
10083TIP3    H154444   1.068   7.877  11.878
10083TIP3    H254445   1.215   7.929  11.821
10084TIP3   OH254446   1.653   7.944  11.918
10084TIP3    H154447   1.666   7.846  11.956
10084TIP3    H254448   1.725   7.946  11.845
10085TIP3   OH254449   0.632   7.509  11.886
10085TIP3    H154450   0.634   7.421  11.941
10085TIP3    H254451   0.730   7.498  11.847
10086TIP3   OH254452   1.247   7.614  11.842
10086TIP3    H154453   1.208   7.607  11.933
10086TIP3    H254454   1.246   7.509  11.818
10087TIP3   OH254455   0.749   7.271  12.108
10087TIP3    H154456   0.693   7.201  12.162
10087TIP3    H254457   0.804   7.205  12.049
10088TIP3   OH254458   0.865   7.091  11.910
10088TIP3    H154459   0.880   7.140  11.823
10088TIP3    H254460   0.967   7.087  11.941
10089TIP3   OH254461   1.915   7.341  11.866
10089TIP3    H154462   1.874   7.306  11.781
10089TIP3    H254463   1.899   7.448  11.858
10090TIP3   OH254464   0.858   8.243  12.038
10090TIP3    H154465   0.937   8.232  12.102
10090TIP3    H254466   0.887   8.331  11.990
10091TIP3   OH254467   0.172   7.706  12.011
10091TIP3    H154468   0.249   7.634  12.025
10091TIP3    H254469   0.128   7.656  11.935
10092TIP3   OH254470   0.058   8.194  12.428
10092TIP3    H154471  -0.036   8.238  12.447
10092TIP3    H254472   0.114   8.232  12.505
10093TIP3   OH254473   0.152   7.973  12.649
10093TIP3    H154474   0.050   7.989  12.673
10093TIP3    H254475   0.204   8.062  12.672
10094TIP3   OH254476   1.951   7.434  12.256
10094TIP3    H154477   2.050   7.476  12.262
10094TIP3    H254478   1.960   7.352  12.320
10095TIP3   OH254479   1.988   7.202  12.448
10095TIP3    H154480   1.904   7.156  12.495
10095TIP3    H254481   2.048   7.233  12.524
10096TIP3   OH254482   2.046   7.173  12.082
10096TIP3    H154483   1.970   7.173  12.013
10096TIP3    H254484   2.019   7.263  12.128
10097TIP3   OH254485   1.755   6.893  11.970
10097TIP3    H154486   1.848   6.938  11.952
10097TIP3    H254487   1.761   6.804  11.916
10098TIP3   OH254488   1.770   7.043  12.557
10098TIP3    H154489   1.739   6.965  12.495
10098TIP3    H254490   1.716   7.014  12.638
10099TIP3   OH254491   1.773   6.618  11.848
10099TIP3    H154492   1.822   6.570  11.924
10099TIP3    H254493   1.672   6.588  11.859
10100TIP3   OH254494   1.736   6.831  12.376
10100TIP3    H154495   1.744   6.722  12.374
10100TIP3    H254496   1.801   6.851  12.301
10101TIP3   OH254497   1.771   6.540  12.362
10101TIP3    H154498   1.796   6.483  12.441
10101TIP3    H254499   1.716   6.463  12.314
10102TIP3   OH254500   0.211   6.570  12.881
10102TIP3    H154501   0.235   6.476  12.837
10102TIP3    H254502   0.305   6.624  12.878
10103TIP3   OH254503   0.125   7.010  12.969
10103TIP3    H154504   0.154   6.911  12.944
10103TIP3    H254505   0.081   7.052  12.890
10104TIP3   OH254506   1.985   6.498  12.026
10104TIP3    H154507   2.045   6.434  11.966
10104TIP3    H254508   2.011   6.595  11.987
10105TIP3   OH254509   0.115   6.507  12.314
10105TIP3    H154510   0.014   6.491  12.346
10105TIP3    H254511   0.096   6.593  12.259
10106TIP3   OH254512   1.645   8.113  12.494
10106TIP3    H154513   1.740   8.094  12.454
10106TIP3    H254514   1.666   8.154  12.581
10107TIP3   OH254515   1.718   6.328  12.764
10107TIP3    H154516   1.803   6.323  12.704
10107TIP3    H254517   1.661   6.240  12.745
10108TIP3   OH254518   1.919   6.361  12.573
10108TIP3    H154519   1.987   6.287  12.534
10108TIP3    H254520   1.984   6.446  12.569
10109TIP3   OH254521   0.350   6.256  12.496
10109TIP3    H154522   0.257   6.230  12.448
10109TIP3    H254523   0.397   6.158  12.502
10110TIP3   OH254524   0.230   6.262  12.148
10110TIP3    H154525   0.228   6.316  12.065
10110TIP3    H254526   0.188   6.334  12.212
10111TIP3   OH254527   0.810   6.239  12.565
10111TIP3    H154528   0.905   6.239  12.522
10111TIP3    H254529   0.833   6.284  12.651
10112TIP3   OH254530   1.593   6.309  12.291
10112TIP3    H154531   1.508   6.371  12.309
10112TIP3    H254532   1.552   6.212  12.313
10113TIP3   OH254533   0.166   7.990  12.253
10113TIP3    H154534   0.081   8.035  12.210
10113TIP3    H254535   0.183   8.065  12.323
10114TIP3   OH254536   0.343   6.488  11.964
10114TIP3    H154537   0.422   6.431  11.924
10114TIP3    H254538   0.377   6.496  12.056
10115TIP3   OH254539   0.978   6.523  12.190
10115TIP3    H154540   1.025   6.458  12.253
10115TIP3    H254541   0.987   6.615  12.241
10116TIP3   OH254542   1.166   8.150  12.092
10116TIP3    H154543   1.267   8.148  12.059
10116TIP3    H254544   1.115   8.109  12.015
10117TIP3   OH254545   1.894   8.093  12.328
10117TIP3    H154546   1.858   7.998  12.292
10117TIP3    H254547   1.882   8.153  12.248
10118TIP3   OH254548   0.337   8.114  11.917
10118TIP3    H154549   0.279   8.154  11.991
10118TIP3    H254550   0.416   8.066  11.963
10119TIP3   OH254551   3.412   7.310  12.531
10119TIP3    H154552   3.378   7.412  12.530
10119TIP3    H254553   3.354   7.272  12.457
10120TIP3   OH254554   3.645   7.567  12.736
10120TIP3    H154555   3.614   7.478  12.783
10120TIP3    H254556   3.675   7.630  12.810
10121TIP3   OH254557   2.169   6.932  12.456
10121TIP3    H154558   2.156   7.037  12.472
10121TIP3    H254559   2.099   6.917  12.383
10122TIP3   OH254560   2.187   7.230  12.665
10122TIP3    H154561   2.243   7.163  12.720
10122TIP3    H254562   2.241   7.319  12.683
10123TIP3   OH254563   3.355   8.059  12.768
10123TIP3    H154564   3.444   8.027  12.723
10123TIP3    H254565   3.396   8.069  12.860
10124TIP3   OH254566   3.470   6.887  12.989
10124TIP3    H154567   3.395   6.819  13.013
10124TIP3    H254568   3.463   6.893  12.892
10125TIP3   OH254569   2.729   6.654  12.665
10125TIP3    H154570   2.737   6.746  12.614
10125TIP3    H254571   2.647   6.608  12.619
10126TIP3   OH254572   3.535   6.662  12.516
10126TIP3    H154573   3.577   6.628  12.601
10126TIP3    H254574   3.582   6.756  12.507
10127TIP3   OH254575   2.267   6.940  12.789
10127TIP3    H154576   2.346   6.896  12.845
10127TIP3    H254577   2.308   6.916  12.702
10128TIP3   OH254578   2.829   7.085  12.702
10128TIP3    H154579   2.919   7.042  12.736
10128TIP3    H254580   2.781   7.002  12.659
10129TIP3   OH254581   3.311   7.578  12.417
10129TIP3    H154582   3.299   7.582  12.320
10129TIP3    H254583   3.292   7.682  12.438
10130TIP3   OH254584   3.722   6.592  12.730
10130TIP3    H154585   3.815   6.546  12.707
10130TIP3    H254586   3.754   6.673  12.787
10131TIP3   OH254587   2.495   6.773  12.858
10131TIP3    H154588   2.518   6.716  12.938
10131TIP3    H254589   2.580   6.757  12.801
10132TIP3   OH254590   2.239   7.534  12.262
10132TIP3    H154591   2.237   7.601  12.185
10132TIP3    H254592   2.268   7.601  12.333
10133TIP3   OH254593   3.545   7.950  12.558
10133TIP3    H154594   3.587   7.853  12.540
10133TIP3    H254595   3.627   8.018  12.538
10134TIP3   OH254596   3.706   7.671  12.462
10134TIP3    H154597   3.671   7.604  12.393
10134TIP3    H254598   3.691   7.618  12.546
10135TIP3   OH254599   3.257   7.228  12.304
10135TIP3    H154600   3.189   7.308  12.281
10135TIP3    H254601   3.342   7.249  12.246
10136TIP3   OH254602   3.270   7.092  11.979
10136TIP3    H154603   3.326   7.140  12.051
10136TIP3    H254604   3.286   6.992  12.008
10137TIP3   OH254605   3.665   7.226  12.404
10137TIP3    H154606   3.583   7.251  12.464
10137TIP3    H254607   3.730   7.173  12.464
10138TIP3   OH254608   2.717   7.306  12.566
10138TIP3    H154609   2.675   7.245  12.496
10138TIP3    H254610   2.751   7.233  12.631
10139TIP3   OH254611   3.498   7.194  12.165
10139TIP3    H154612   3.567   7.205  12.239
10139TIP3    H254613   3.559   7.230  12.089
10140TIP3   OH254614   3.248   7.875  12.467
10140TIP3    H154615   3.312   7.925  12.531
10140TIP3    H254616   3.210   7.954  12.411
10141TIP3   OH254617   3.934   6.237  12.171
10141TIP3    H154618   3.832   6.249  12.203
10141TIP3    H254619   3.963   6.338  12.152
10142TIP3   OH254620   2.580   7.185  12.340
10142TIP3    H154621   2.555   7.280  12.297
10142TIP3    H254622   2.528   7.115  12.286
10143TIP3   OH254623   4.040   7.822  11.976
10143TIP3    H154624   4.064   7.925  11.989
10143TIP3    H254625   4.133   7.774  12.000
10144TIP3   OH254626   2.178   7.800  12.853
10144TIP3    H154627   2.275   7.808  12.893
10144TIP3    H254628   2.112   7.842  12.920
10145TIP3   OH254629   3.224   8.220  12.332
10145TIP3    H154630   3.227   8.249  12.238
10145TIP3    H254631   3.169   8.303  12.371
10146TIP3   OH254632   2.538   8.042  12.530
10146TIP3    H154633   2.580   8.116  12.591
10146TIP3    H254634   2.496   7.973  12.593
10147TIP3   OH254635   3.510   8.100  12.064
10147TIP3    H154636   3.597   8.043  12.037
10147TIP3    H254637   3.506   8.075  12.161
10148TIP3   OH254638   3.485   8.074  12.325
10148TIP3    H154639   3.395   8.125  12.348
10148TIP3    H254640   3.502   8.016  12.406
10149TIP3   OH254641   3.665   7.304  11.976
10149TIP3    H154642   3.654   7.319  11.879
10149TIP3    H254643   3.769   7.329  11.986
10150TIP3   OH254644   3.196   6.602  11.990
10150TIP3    H154645   3.168   6.576  12.081
10150TIP3    H254646   3.139   6.524  11.945
10151TIP3   OH254647   2.704   6.894  12.521
10151TIP3    H154648   2.604   6.864  12.497
10151TIP3    H254649   2.751   6.899  12.432
10152TIP3   OH254650   3.334   6.977  12.405
10152TIP3    H154651   3.300   7.070  12.362
10152TIP3    H254652   3.400   6.943  12.335
10153TIP3   OH254653   3.446   6.944  12.704
10153TIP3    H154654   3.416   7.032  12.654
10153TIP3    H254655   3.411   6.868  12.645
10154TIP3   OH254656   2.754   6.603  11.878
10154TIP3    H154657   2.724   6.560  11.963
10154TIP3    H254658   2.673   6.668  11.854
10155TIP3   OH254659   2.125   6.597  12.625
10155TIP3    H154660   2.182   6.686  12.636
10155TIP3    H254661   2.149   6.573  12.532
10156TIP3   OH254662   2.225   6.659  12.173
10156TIP3    H154663   2.273   6.695  12.092
10156TIP3    H254664   2.144   6.730  12.179
10157TIP3   OH254665   3.033   6.643  12.627
10157TIP3    H154666   2.926   6.631  12.633
10157TIP3    H254667   3.056   6.643  12.722
10158TIP3   OH254668   2.405   6.769  12.513
10158TIP3    H154669   2.335   6.828  12.460
10158TIP3    H254670   2.398   6.670  12.477
10159TIP3   OH254671   2.813   6.843  12.280
10159TIP3    H154672   2.918   6.834  12.267
10159TIP3    H254673   2.783   6.907  12.207
10160TIP3   OH254674   2.720   6.967  12.049
10160TIP3    H154675   2.665   6.904  11.989
10160TIP3    H254676   2.796   7.004  11.986
10161TIP3   OH254677   2.554   6.500  12.471
10161TIP3    H154678   2.604   6.404  12.469
10161TIP3    H254679   2.589   6.541  12.388
10162TIP3   OH254680   3.069   7.450  12.246
10162TIP3    H154681   2.983   7.402  12.205
10162TIP3    H254682   3.021   7.487  12.329
10163TIP3   OH254683   3.478   6.666  12.049
10163TIP3    H154684   3.370   6.670  12.039
10163TIP3    H254685   3.500   6.760  12.093
10164TIP3   OH254686   3.520   6.906  12.193
10164TIP3    H154687   3.599   6.865  12.249
10164TIP3    H254688   3.569   6.992  12.156
10165TIP3   OH254689   3.267   7.607  12.116
10165TIP3    H154690   3.216   7.698  12.145
10165TIP3    H254691   3.200   7.533  12.151
10166TIP3   OH254692   4.068   6.883  12.194
10166TIP3    H154693   4.010   6.874  12.112
10166TIP3    H254694   4.095   6.987  12.190
10167TIP3   OH254695   3.879   7.833  12.218
10167TIP3    H154696   3.839   7.757  12.277
10167TIP3    H254697   3.916   7.779  12.142
10168TIP3   OH254698   3.623   7.314  12.903
10168TIP3    H154699   3.584   7.272  12.985
10168TIP3    H254700   3.710   7.253  12.889
10169TIP3   OH254701   2.776   7.794  12.554
10169TIP3    H154702   2.807   7.886  12.512
10169TIP3    H254703   2.674   7.788  12.525
10170TIP3   OH254704   2.361   7.209  12.003
10170TIP3    H154705   2.408   7.272  12.071
10170TIP3    H254706   2.256   7.213  12.024
10171TIP3   OH254707   2.901   7.520  12.450
10171TIP3    H154708   2.863   7.602  12.499
10171TIP3    H254709   2.859   7.437  12.499
10172TIP3   OH254710   2.825   8.070  12.428
10172TIP3    H154711   2.717   8.065  12.421
10172TIP3    H254712   2.835   8.163  12.477
10173TIP3   OH254713   3.644   7.658  12.020
10173TIP3    H154714   3.648   7.615  12.110
10173TIP3    H254715   3.549   7.624  11.992
10174TIP3   OH254716   4.114   8.115  12.037
10174TIP3    H154717   4.169   8.208  12.045
10174TIP3    H254718   4.012   8.151  12.042
10175TIP3   OH254719   3.717   7.484  12.241
10175TIP3    H154720   3.696   7.393  12.288
10175TIP3    H254721   3.824   7.484  12.240
10176TIP3   OH254722   2.988   7.764  11.855
10176TIP3    H154723   2.958   7.690  11.791
10176TIP3    H254724   2.915   7.752  11.926
10177TIP3   OH254725   2.851   7.712  12.107
10177TIP3    H154726   2.917   7.665  12.169
10177TIP3    H254727   2.860   7.814  12.137
10178TIP3   OH254728   2.495   7.406  12.168
10178TIP3    H154729   2.402   7.450  12.199
10178TIP3    H254730   2.542   7.491  12.126
10179TIP3   OH254731   3.402   6.547  12.287
10179TIP3    H154732   3.457   6.582  12.210
10179TIP3    H254733   3.462   6.576  12.364
10180TIP3   OH254734   3.146   7.867  12.200
10180TIP3    H154735   3.049   7.905  12.223
10180TIP3    H254736   3.202   7.956  12.187
10181TIP3   OH254737   3.093   6.758  12.372
10181TIP3    H154738   3.170   6.831  12.389
10181TIP3    H254739   3.078   6.716  12.460
10182TIP3   OH254740   3.186   6.410  12.424
10182TIP3    H154741   3.174   6.469  12.504
10182TIP3    H254742   3.263   6.467  12.379
10183TIP3   OH254743   2.874   7.998  12.174
10183TIP3    H154744   2.891   8.093  12.127
10183TIP3    H254745   2.848   8.039  12.262
10184TIP3   OH254746   2.716   6.537  12.145
10184TIP3    H154747   2.709   6.635  12.182
10184TIP3    H254748   2.820   6.518  12.163
10185TIP3   OH254749   3.718   7.053  12.745
10185TIP3    H154750   3.616   7.022  12.754
10185TIP3    H254751   3.767   6.993  12.812
10186TIP3   OH254752   2.517   7.676  12.033
10186TIP3    H154753   2.594   7.739  12.068
10186TIP3    H254754   2.575   7.616  11.968
10187TIP3   OH254755   2.392   6.877  11.991
10187TIP3    H154756   2.390   6.983  12.008
10187TIP3    H254757   2.291   6.856  11.964
10188TIP3   OH254758   2.301   7.799  12.424
10188TIP3    H154759   2.222   7.833  12.480
10188TIP3    H254760   2.309   7.878  12.359
10189TIP3   OH254761   3.201   7.982  11.876
10189TIP3    H154762   3.149   7.887  11.883
10189TIP3    H254763   3.290   7.955  11.825
10190TIP3   OH254764   3.721   7.945  11.920
10190TIP3    H154765   3.733   7.847  11.957
10190TIP3    H254766   3.798   7.948  11.851
10191TIP3   OH254767   2.687   7.493  11.864
10191TIP3    H154768   2.711   7.434  11.941
10191TIP3    H254769   2.780   7.483  11.814
10192TIP3   OH254770   3.323   7.612  11.820
10192TIP3    H154771   3.273   7.612  11.904
10192TIP3    H254772   3.322   7.506  11.799
10193TIP3   OH254773   2.836   7.296  12.132
10193TIP3    H154774   2.771   7.236  12.188
10193TIP3    H254775   2.870   7.225  12.067
10194TIP3   OH254776   2.959   7.106  11.925
10194TIP3    H154777   2.946   7.135  11.832
10194TIP3    H254778   3.066   7.109  11.934
10195TIP3   OH254779   3.970   7.329  11.878
10195TIP3    H154780   3.950   7.296  11.786
10195TIP3    H254781   3.966   7.437  11.867
10196TIP3   OH254782   2.929   8.261  12.070
10196TIP3    H154783   3.037   8.270  12.070
10196TIP3    H254784   2.901   8.324  11.998
10197TIP3   OH254785   2.213   7.641  12.006
10197TIP3    H154786   2.321   7.644  11.999
10197TIP3    H254787   2.186   7.591  11.923
10198TIP3   OH254788   2.079   8.252  12.472
10198TIP3    H154789   2.011   8.186  12.424
10198TIP3    H254790   2.072   8.217  12.562
10199TIP3   OH254791   4.022   7.426  12.261
10199TIP3    H154792   4.120   7.468  12.272
10199TIP3    H254793   4.017   7.355  12.335
10200TIP3   OH254794   4.062   7.224  12.463
10200TIP3    H154795   3.984   7.162  12.502
10200TIP3    H254796   4.122   7.244  12.543
10201TIP3   OH254797   4.049   7.509  12.974
10201TIP3    H154798   4.125   7.435  12.975
10201TIP3    H254799   4.090   7.583  13.033
10202TIP3   OH254800   4.107   7.196  12.095
10202TIP3    H154801   4.040   7.213  12.020
10202TIP3    H254802   4.077   7.278  12.154
10203TIP3   OH254803   3.900   6.883  11.937
10203TIP3    H154804   3.926   6.948  11.865
10203TIP3    H254805   3.886   6.791  11.890
10204TIP3   OH254806   3.870   7.009  12.524
10204TIP3    H154807   3.815   6.929  12.482
10204TIP3    H254808   3.816   7.022  12.608
10205TIP3   OH254809   3.858   6.600  11.841
10205TIP3    H154810   3.898   6.560  11.924
10205TIP3    H254811   3.755   6.571  11.842
10206TIP3   OH254812   3.765   6.809  12.335
10206TIP3    H154813   3.795   6.709  12.356
10206TIP3    H254814   3.863   6.849  12.319
10207TIP3   OH254815   3.840   6.839  12.906
10207TIP3    H154816   3.945   6.867  12.898
10207TIP3    H254817   3.836   6.840  13.003
10208TIP3   OH254818   3.871   6.522  12.372
10208TIP3    H154819   3.902   6.478  12.456
10208TIP3    H254820   3.804   6.446  12.341
10209TIP3   OH254821   4.066   6.493  12.040
10209TIP3    H154822   4.105   6.434  11.966
10209TIP3    H254823   4.147   6.562  12.058
10210TIP3   OH254824   2.102   6.512  12.364
10210TIP3    H154825   2.004   6.512  12.327
10210TIP3    H254826   2.155   6.550  12.285
10211TIP3   OH254827   3.743   8.147  12.492
10211TIP3    H154828   3.832   8.135  12.440
10211TIP3    H254829   3.772   8.183  12.580
10212TIP3   OH254830   3.985   6.364  12.589
10212TIP3    H154831   4.049   6.291  12.546
10212TIP3    H254832   4.057   6.443  12.605
10213TIP3   OH254833   2.263   6.274  12.119
10213TIP3    H154834   2.319   6.328  12.053
10213TIP3    H254835   2.198   6.353  12.150
10214TIP3   OH254836   2.848   6.284  12.511
10214TIP3    H154837   2.943   6.310  12.474
10214TIP3    H254838   2.868   6.289  12.606
10215TIP3   OH254839   3.683   6.287  12.297
10215TIP3    H154840   3.610   6.326  12.236
10215TIP3    H254841   3.634   6.196  12.329
10216TIP3   OH254842   2.256   8.008  12.237
10216TIP3    H154843   2.152   8.014  12.221
10216TIP3    H254844   2.289   8.097  12.191
10217TIP3   OH254845   2.414   6.504  11.962
10217TIP3    H154846   2.488   6.441  11.921
10217TIP3    H254847   2.462   6.534  12.044
10218TIP3   OH254848   3.017   6.537  12.205
10218TIP3    H154849   3.078   6.474  12.258
10218TIP3    H254850   3.033   6.629  12.255
10219TIP3   OH254851   3.221   8.210  12.056
10219TIP3    H154852   3.322   8.180  12.037
10219TIP3    H254853   3.172   8.131  12.006
10220TIP3   OH254854   3.953   8.095  12.306
10220TIP3    H154855   3.929   7.995  12.272
10220TIP3    H254856   3.934   8.153  12.225
10221TIP3   OH254857   2.451   8.141  11.930
10221TIP3    H154858   2.389   8.163  12.007
10221TIP3    H254859   2.509   8.062  11.965
10222TIP3   OH254860   5.469   7.310  12.529
10222TIP3    H154861   5.475   7.414  12.551
10222TIP3    H254862   5.366   7.295  12.523
10223TIP3   OH254863   4.618   7.670  12.865
10223TIP3    H154864   4.572   7.575  12.863
10223TIP3    H254865   4.718   7.647  12.835
10224TIP3   OH254866   4.258   6.942  12.446
10224TIP3    H154867   4.214   7.036  12.469
10224TIP3    H254868   4.171   6.884  12.429
10225TIP3   OH254869   4.257   7.227  12.670
10225TIP3    H154870   4.306   7.140  12.706
10225TIP3    H254871   4.328   7.271  12.611
10226TIP3   OH254872   4.773   6.687  12.715
10226TIP3    H154873   4.780   6.768  12.652
10226TIP3    H254874   4.706   6.621  12.669
10227TIP3   OH254875   5.635   6.667  12.486
10227TIP3    H154876   5.669   6.629  12.572
10227TIP3    H254877   5.694   6.755  12.479
10228TIP3   OH254878   4.367   6.943  12.776
10228TIP3    H154879   4.371   6.847  12.824
10228TIP3    H254880   4.392   6.906  12.688
10229TIP3   OH254881   4.849   7.081  12.721
10229TIP3    H154882   4.944   7.042  12.745
10229TIP3    H254883   4.818   7.009  12.653
10230TIP3   OH254884   5.424   7.613  12.448
10230TIP3    H154885   5.319   7.607  12.452
10230TIP3    H254886   5.440   7.716  12.430
10231TIP3   OH254887   5.788   6.615  12.718
10231TIP3    H154888   5.822   6.537  12.776
10231TIP3    H254889   5.876   6.674  12.717
10232TIP3   OH254890   4.318   7.550  12.255
10232TIP3    H154891   4.304   7.611  12.174
10232TIP3    H254892   4.325   7.627  12.324
10233TIP3   OH254893   5.052   6.266  12.807
10233TIP3    H154894   5.062   6.163  12.831
10233TIP3    H254895   4.950   6.285  12.836
10234TIP3   OH254896   5.597   7.879  12.618
10234TIP3    H154897   5.671   7.816  12.582
10234TIP3    H254898   5.644   7.975  12.617
10235TIP3   OH254899   5.334   7.055  11.984
10235TIP3    H154900   5.371   7.030  12.071
10235TIP3    H254901   5.388   6.984  11.930
10236TIP3   OH254902   4.771   7.333  12.592
10236TIP3    H154903   4.756   7.266  12.518
10236TIP3    H254904   4.805   7.263  12.661
10237TIP3   OH254905   5.212   7.909  12.657
10237TIP3    H154906   5.315   7.889  12.674
10237TIP3    H254907   5.217   7.923  12.561
10238TIP3   OH254908   5.988   6.235  12.167
10238TIP3    H154909   5.888   6.249  12.202
10238TIP3    H254910   6.020   6.336  12.153
10239TIP3   OH254911   4.644   7.180  12.313
10239TIP3    H154912   4.617   7.273  12.271
10239TIP3    H254913   4.588   7.110  12.262
10240TIP3   OH254914   6.118   7.829  11.989
10240TIP3    H154915   6.156   7.931  11.994
10240TIP3    H254916   6.210   7.773  12.003
10241TIP3   OH254917   5.185   8.272  12.289
10241TIP3    H154918   5.212   8.169  12.289
10241TIP3    H254919   5.213   8.293  12.380
10242TIP3   OH254920   4.599   8.041  12.507
10242TIP3    H154921   4.607   8.022  12.604
10242TIP3    H254922   4.494   8.037  12.498
10243TIP3   OH254923   5.595   8.066  12.037
10243TIP3    H154924   5.667   8.007  11.990
10243TIP3    H254925   5.634   8.071  12.128
10244TIP3   OH254926   5.629   8.116  12.296
10244TIP3    H154927   5.523   8.095  12.314
10244TIP3    H254928   5.668   8.072  12.376
10245TIP3   OH254929   4.748   6.355  12.879
10245TIP3    H154930   4.654   6.324  12.845
10245TIP3    H254931   4.716   6.426  12.945
10246TIP3   OH254932   5.275   6.598  11.970
10246TIP3    H154933   5.247   6.590  12.063
10246TIP3    H254934   5.209   6.525  11.931
10247TIP3   OH254935   4.789   6.883  12.520
10247TIP3    H154936   4.684   6.863  12.505
10247TIP3    H254937   4.831   6.851  12.434
10248TIP3   OH254938   5.377   6.986  12.405
10248TIP3    H154939   5.363   7.072  12.349
10248TIP3    H254940   5.474   6.954  12.375
10249TIP3   OH254941   4.841   6.597  11.879
10249TIP3    H154942   4.799   6.578  11.968
10249TIP3    H254943   4.801   6.691  11.851
10250TIP3   OH254944   4.182   6.595  12.618
10250TIP3    H154945   4.265   6.600  12.679
10250TIP3    H254946   4.228   6.574  12.533
10251TIP3   OH254947   4.267   6.677  12.131
10251TIP3    H154948   4.327   6.725  12.063
10251TIP3    H254949   4.201   6.757  12.155
10252TIP3   OH254950   5.117   6.604  12.596
10252TIP3    H154951   5.017   6.634  12.619
10252TIP3    H254952   5.148   6.563  12.680
10253TIP3   OH254953   4.504   6.800  12.500
10253TIP3    H154954   4.414   6.833  12.454
10253TIP3    H254955   4.517   6.696  12.471
10254TIP3   OH254956   4.896   6.826  12.272
10254TIP3    H154957   4.996   6.826  12.238
10254TIP3    H254958   4.848   6.899  12.216
10255TIP3   OH254959   4.771   6.960  12.031
10255TIP3    H154960   4.720   6.905  11.962
10255TIP3    H254961   4.851   7.003  11.980
10256TIP3   OH254962   5.152   6.938  12.828
10256TIP3    H154963   5.234   6.940  12.767
10256TIP3    H254964   5.190   6.971  12.913
10257TIP3   OH254965   4.593   6.531  12.458
10257TIP3    H154966   4.544   6.451  12.510
10257TIP3    H254967   4.663   6.475  12.408
10258TIP3   OH254968   5.138   7.415  12.275
10258TIP3    H154969   5.056   7.365  12.231
10258TIP3    H254970   5.085   7.466  12.348
10259TIP3   OH254971   5.529   6.688  12.072
10259TIP3    H154972   5.440   6.667  12.020
10259TIP3    H254973   5.515   6.791  12.097
10260TIP3   OH254974   5.581   6.938  12.191
10260TIP3    H154975   5.653   6.875  12.240
10260TIP3    H254976   5.647   6.974  12.123
10261TIP3   OH254977   4.574   7.349  12.804
10261TIP3    H154978   4.628   7.383  12.726
10261TIP3    H254979   4.550   7.251  12.774
10262TIP3   OH254980   5.342   7.578  12.140
10262TIP3    H154981   5.304   7.679  12.144
10262TIP3    H254982   5.267   7.521  12.189
10263TIP3   OH254983   6.153   6.888  12.196
10263TIP3    H154984   6.078   6.884  12.128
10263TIP3    H254985   6.166   6.994  12.208
10264TIP3   OH254986   5.925   7.861  12.210
10264TIP3    H154987   5.921   7.825  12.302
10264TIP3    H254988   6.003   7.803  12.168
10265TIP3   OH254989   4.830   7.742  12.590
10265TIP3    H154990   4.872   7.840  12.589
10265TIP3    H254991   4.734   7.752  12.548
10266TIP3   OH254992   4.420   7.215  12.021
10266TIP3    H154993   4.467   7.296  12.068
10266TIP3    H254994   4.314   7.231  12.036
10267TIP3   OH254995   4.993   7.510  12.487
10267TIP3    H154996   4.942   7.600  12.516
10267TIP3    H254997   4.956   7.444  12.556
10268TIP3   OH254998   4.925   8.033  12.450
10268TIP3    H154999   4.825   8.037  12.485
10268TIP3    H255000   4.972   8.120  12.491
10269TIP3   OH255001   6.219   8.099  12.024
10269TIP3    H155002   6.291   8.180  12.016
10269TIP3    H255003   6.126   8.153  12.035
10270TIP3   OH255004   5.039   7.775  11.852
10270TIP3    H155005   5.045   7.706  11.779
10270TIP3    H255006   4.987   7.718  11.918
10271TIP3   OH255007   4.923   7.711  12.120
10271TIP3    H155008   5.002   7.658  12.163
10271TIP3    H255009   4.952   7.813  12.141
10272TIP3   OH255010   4.563   7.417  12.166
10272TIP3    H155011   4.470   7.460  12.199
10272TIP3    H255012   4.618   7.504  12.140
10273TIP3   OH255013   5.504   6.505  12.288
10273TIP3    H155014   5.534   6.567  12.213
10273TIP3    H255015   5.556   6.552  12.364
10274TIP3   OH255016   5.224   7.850  12.123
10274TIP3    H155017   5.135   7.901  12.149
10274TIP3    H255018   5.290   7.897  12.188
10275TIP3   OH255019   5.189   6.754  12.342
10275TIP3    H155020   5.241   6.844  12.369
10275TIP3    H255021   5.148   6.722  12.428
10276TIP3   OH255022   5.253   6.417  12.424
10276TIP3    H155023   5.202   6.487  12.484
10276TIP3    H255024   5.333   6.476  12.383
10277TIP3   OH255025   4.976   8.004  12.190
10277TIP3    H155026   5.016   8.096  12.155
10277TIP3    H255027   4.976   8.020  12.288
10278TIP3   OH255028   4.778   6.535  12.138
10278TIP3    H155029   4.774   6.621  12.196
10278TIP3    H255030   4.881   6.504  12.155
10279TIP3   OH255031   4.610   7.690  12.026
10279TIP3    H155032   4.699   7.719  12.076
10279TIP3    H255033   4.656   7.633  11.955
10280TIP3   OH255034   4.406   6.900  11.955
10280TIP3    H155035   4.452   6.990  11.987
10280TIP3    H255036   4.330   6.941  11.897
10281TIP3   OH255037   4.351   7.802  12.412
10281TIP3    H155038   4.280   7.876  12.441
10281TIP3    H255039   4.402   7.859  12.345
10282TIP3   OH255040   5.270   7.971  11.864
10282TIP3    H155041   5.201   7.894  11.894
10282TIP3    H255042   5.361   7.916  11.861
10283TIP3   OH255043   5.783   7.911  11.886
10283TIP3    H155044   5.854   7.867  11.946
10283TIP3    H255045   5.842   7.931  11.806
10284TIP3   OH255046   4.793   7.481  11.874
10284TIP3    H155047   4.841   7.472  11.961
10284TIP3    H255048   4.872   7.451  11.814
10285TIP3   OH255049   5.410   7.615  11.880
10285TIP3    H155050   5.367   7.608  11.970
10285TIP3    H255051   5.396   7.514  11.849
10286TIP3   OH255052   4.906   7.283  12.140
10286TIP3    H155053   4.831   7.224  12.185
10286TIP3    H255054   4.942   7.214  12.073
10287TIP3   OH255055   5.030   7.096  11.931
10287TIP3    H155056   5.010   7.109  11.835
10287TIP3    H255057   5.136   7.080  11.933
10288TIP3   OH255058   6.049   7.326  11.879
10288TIP3    H155059   6.028   7.291  11.788
10288TIP3    H255060   6.037   7.433  11.866
10289TIP3   OH255061   5.034   8.235  12.006
10289TIP3    H155062   5.140   8.240  12.024
10289TIP3    H255063   5.014   8.338  12.002
10290TIP3   OH255064   4.296   7.647  12.003
10290TIP3    H155065   4.403   7.648  11.999
10290TIP3    H255066   4.270   7.593  11.920
10291TIP3   OH255067   4.143   8.228  12.456
10291TIP3    H155068   4.061   8.182  12.407
10291TIP3    H255069   4.147   8.165  12.536
10292TIP3   OH255070   4.244   8.032  12.650
10292TIP3    H155071   4.306   7.951  12.675
10292TIP3    H255072   4.214   8.062  12.738
10293TIP3   OH255073   6.183   7.192  12.103
10293TIP3    H155074   6.115   7.226  12.033
10293TIP3    H255075   6.169   7.260  12.176
10294TIP3   OH255076   5.972   6.873  11.942
10294TIP3    H155077   6.006   6.939  11.874
10294TIP3    H255078   5.955   6.786  11.887
10295TIP3   OH255079   4.285   7.308  12.941
10295TIP3    H155080   4.217   7.294  12.866
10295TIP3    H255081   4.358   7.236  12.920
10296TIP3   OH255082   5.939   6.592  11.828
10296TIP3    H155083   5.982   6.553  11.910
10296TIP3    H255084   5.834   6.578  11.841
10297TIP3   OH255085   5.839   6.821  12.308
10297TIP3    H155086   5.879   6.722  12.309
10297TIP3    H255087   5.920   6.876  12.345
10298TIP3   OH255088   5.980   6.519  12.354
10298TIP3    H155089   5.991   6.474  12.442
10298TIP3    H255090   5.897   6.464  12.319
10299TIP3   OH255091   4.126   6.881  12.941
10299TIP3    H155092   4.178   6.786  12.951
10299TIP3    H255093   4.200   6.931  12.888
10300TIP3   OH255094   6.124   6.489  12.044
10300TIP3    H155095   6.166   6.434  11.969
10300TIP3    H255096   6.196   6.567  12.059
10301TIP3   OH255097   4.198   6.508  12.349
10301TIP3    H155098   4.092   6.518  12.342
10301TIP3    H255099   4.226   6.558  12.266
10302TIP3   OH255100   5.840   8.115  12.546
10302TIP3    H155101   5.906   8.129  12.471
10302TIP3    H255102   5.865   8.198  12.602
10303TIP3   OH255103   4.589   7.942  12.754
10303TIP3    H155104   4.594   7.838  12.781
10303TIP3    H255105   4.675   7.977  12.803
10304TIP3   OH255106   4.896   7.993  12.818
10304TIP3    H155107   4.960   7.907  12.809
10304TIP3    H255108   4.939   8.039  12.897
10305TIP3   OH255109   6.076   6.343  12.593
10305TIP3    H155110   6.151   6.284  12.550
10305TIP3    H255111   6.135   6.431  12.613
10306TIP3   OH255112   4.483   6.285  12.545
10306TIP3    H155113   4.397   6.267  12.491
10306TIP3    H255114   4.520   6.186  12.561
10307TIP3   OH255115   4.336   6.261  12.118
10307TIP3    H155116   4.369   6.339  12.057
10307TIP3    H255117   4.261   6.313  12.170
10308TIP3   OH255118   4.939   6.230  12.549
10308TIP3    H155119   5.034   6.235  12.506
10308TIP3    H255120   4.963   6.249  12.642
10309TIP3   OH255121   5.739   6.311  12.311
10309TIP3    H155122   5.651   6.369  12.293
10309TIP3    H255123   5.694   6.215  12.335
10310TIP3   OH255124   4.303   8.020  12.225
10310TIP3    H155125   4.228   8.031  12.155
10310TIP3    H255126   4.272   8.101  12.281
10311TIP3   OH255127   4.484   6.493  11.969
10311TIP3    H155128   4.561   6.439  11.921
10311TIP3    H255129   4.533   6.513  12.053
10312TIP3   OH255130   5.082   6.508  12.218
10312TIP3    H155131   5.134   6.447  12.285
10312TIP3    H255132   5.115   6.606  12.245
10313TIP3   OH255133   5.327   8.217  12.001
10313TIP3    H155134   5.424   8.174  12.019
10313TIP3    H255135   5.280   8.129  11.962
10314TIP3   OH255136   6.053   8.118  12.309
10314TIP3    H155137   6.024   8.026  12.266
10314TIP3    H255138   6.039   8.190  12.237
10315TIP3   OH255139   4.451   8.078  11.894
10315TIP3    H155140   4.418   8.078  11.987
10315TIP3    H255141   4.552   8.048  11.903
10316TIP3   OH255142   7.562   7.366  12.515
10316TIP3    H155143   7.525   7.423  12.588
10316TIP3    H255144   7.488   7.374  12.447
10317TIP3   OH255145   7.414   7.187  12.856
10317TIP3    H155146   7.425   7.165  12.950
10317TIP3    H255147   7.453   7.097  12.819
10318TIP3   OH255148   6.483   7.193  12.629
10318TIP3    H155149   6.427   7.115  12.673
10318TIP3    H255150   6.409   7.237  12.572
10319TIP3   OH255151   6.874   6.648  12.700
10319TIP3    H155152   6.854   6.736  12.646
10319TIP3    H255153   6.805   6.578  12.661
10320TIP3   OH255154   7.704   6.713  12.518
10320TIP3    H155155   7.754   6.653  12.586
10320TIP3    H255156   7.785   6.768  12.477
10321TIP3   OH255157   6.468   6.909  12.757
10321TIP3    H155158   6.549   6.863  12.802
10321TIP3    H255159   6.483   6.875  12.665
10322TIP3   OH255160   7.841   6.574  12.718
10322TIP3    H155161   7.763   6.541  12.778
10322TIP3    H255162   7.897   6.639  12.778
10323TIP3   OH255163   6.391   7.520  12.262
10323TIP3    H155164   6.349   7.561  12.181
10323TIP3    H255165   6.406   7.605  12.319
10324TIP3   OH255166   7.371   7.218  12.278
10324TIP3    H155167   7.314   7.306  12.254
10324TIP3    H255168   7.467   7.242  12.235
10325TIP3   OH255169   7.390   7.126  11.981
10325TIP3    H155170   7.479   7.168  12.021
10325TIP3    H255171   7.415   7.021  11.982
10326TIP3   OH255172   7.791   7.204  12.398
10326TIP3    H155173   7.728   7.283  12.430
10326TIP3    H255174   7.858   7.187  12.472
10327TIP3   OH255175   6.998   7.740  12.836
10327TIP3    H155176   7.013   7.670  12.764
10327TIP3    H255177   7.049   7.692  12.910
10328TIP3   OH255178   7.634   7.197  12.153
10328TIP3    H155179   7.709   7.161  12.215
10328TIP3    H255180   7.696   7.224  12.074
10329TIP3   OH255181   8.084   6.228  12.159
10329TIP3    H155182   7.987   6.247  12.200
10329TIP3    H255183   8.110   6.327  12.130
10330TIP3   OH255184   6.722   7.184  12.336
10330TIP3    H155185   6.690   7.279  12.297
10330TIP3    H255186   6.640   7.124  12.312
10331TIP3   OH255187   8.203   7.821  11.986
10331TIP3    H155188   8.216   7.928  11.999
10331TIP3    H255189   8.301   7.791  12.014
10332TIP3   OH255190   6.263   7.825  12.923
10332TIP3    H155191   6.362   7.785  12.908
10332TIP3    H255192   6.283   7.862  13.013
10333TIP3   OH255193   6.656   8.059  12.512
10333TIP3    H155194   6.644   8.049  12.608
10333TIP3    H255195   6.619   7.966  12.476
10334TIP3   OH255196   7.673   8.111  12.066
10334TIP3    H155197   7.718   8.039  12.006
10334TIP3    H255198   7.667   8.053  12.147
10335TIP3   OH255199   7.772   7.329  11.954
10335TIP3    H155200   7.759   7.306  11.859
10335TIP3    H255201   7.879   7.325  11.955
10336TIP3   OH255202   7.349   6.592  11.983
10336TIP3    H155203   7.318   6.565  12.072
10336TIP3    H255204   7.279   6.533  11.933
10337TIP3   OH255205   6.844   6.898  12.547
10337TIP3    H155206   6.750   6.893  12.503
10337TIP3    H255207   6.909   6.885  12.469
10338TIP3   OH255208   7.488   7.009  12.411
10338TIP3    H155209   7.468   7.093  12.350
10338TIP3    H255210   7.562   6.961  12.356
10339TIP3   OH255211   7.502   6.918  12.656
10339TIP3    H155212   7.504   6.955  12.565
10339TIP3    H255213   7.578   6.843  12.646
10340TIP3   OH255214   6.944   6.637  11.908
10340TIP3    H155215   6.893   6.588  11.981
10340TIP3    H255216   6.864   6.682  11.858
10341TIP3   OH255217   6.277   6.568  12.609
10341TIP3    H155218   6.300   6.672  12.622
10341TIP3    H255219   6.315   6.549  12.519
10342TIP3   OH255220   6.346   6.679  12.141
10342TIP3    H155221   6.405   6.722  12.069
10342TIP3    H255222   6.279   6.763  12.157
10343TIP3   OH255223   7.188   6.630  12.619
10343TIP3    H155224   7.088   6.607  12.648
10343TIP3    H255225   7.226   6.673  12.702
10344TIP3   OH255226   6.520   6.801  12.497
10344TIP3    H155227   6.464   6.802  12.415
10344TIP3    H255228   6.573   6.707  12.487
10345TIP3   OH255229   6.975   6.859  12.301
10345TIP3    H155230   7.064   6.829  12.256
10345TIP3    H255231   6.918   6.900  12.228
10346TIP3   OH255232   6.834   6.957  12.036
10346TIP3    H155233   6.804   6.891  11.965
10346TIP3    H255234   6.926   6.994  11.997
10347TIP3   OH255235   7.270   6.881  12.819
10347TIP3    H155236   7.361   6.882  12.766
10347TIP3    H255237   7.315   6.883  12.908
10348TIP3   OH255238   6.669   6.553  12.480
10348TIP3    H155239   6.609   6.476  12.522
10348TIP3    H255240   6.738   6.491  12.431
10349TIP3   OH255241   7.207   7.465  12.255
10349TIP3    H155242   7.124   7.422  12.206
10349TIP3    H255243   7.160   7.483  12.343
10350TIP3   OH255244   7.631   6.655  12.075
10350TIP3    H155245   7.537   6.669  12.029
10350TIP3    H255246   7.669   6.755  12.077
10351TIP3   OH255247   7.687   6.908  12.222
10351TIP3    H155248   7.784   6.883  12.257
10351TIP3    H255249   7.719   6.963  12.142
10352TIP3   OH255250   7.398   7.624  12.087
10352TIP3    H155251   7.418   7.706  12.147
10352TIP3    H255252   7.339   7.564  12.148
10353TIP3   OH255253   8.201   6.952  12.188
10353TIP3    H155254   8.187   6.898  12.104
10353TIP3    H255255   8.219   7.050  12.148
10354TIP3   OH255256   8.011   7.812  12.225
10354TIP3    H155257   7.939   7.736  12.241
10354TIP3    H255258   8.066   7.777  12.148
10355TIP3   OH255259   6.929   7.792  12.508
10355TIP3    H155260   6.944   7.876  12.565
10355TIP3    H255261   6.824   7.796  12.493
10356TIP3   OH255262   6.491   7.223  12.006
10356TIP3    H155263   6.543   7.285  12.071
10356TIP3    H255264   6.389   7.231  12.034
10357TIP3   OH255265   7.055   7.519  12.478
10357TIP3    H155266   7.040   7.625  12.468
10357TIP3    H255267   7.000   7.500  12.557
10358TIP3   OH255268   7.789   7.648  12.021
10358TIP3    H155269   7.806   7.613  12.113
10358TIP3    H255270   7.690   7.612  12.013
10359TIP3   OH255271   8.287   8.092  12.049
10359TIP3    H155272   8.358   8.170  12.045
10359TIP3    H255273   8.195   8.146  12.035
10360TIP3   OH255274   7.866   7.515  12.243
10360TIP3    H155275   7.816   7.424  12.224
10360TIP3    H255276   7.967   7.485  12.222
10361TIP3   OH255277   7.126   7.758  11.848
10361TIP3    H155278   7.134   7.666  11.801
10361TIP3    H255279   7.056   7.732  11.918
10362TIP3   OH255280   7.005   7.729  12.127
10362TIP3    H155281   7.084   7.666  12.158
10362TIP3    H255282   7.035   7.820  12.169
10363TIP3   OH255283   6.634   7.400  12.163
10363TIP3    H155284   6.543   7.448  12.192
10363TIP3    H255285   6.685   7.479  12.118
10364TIP3   OH255286   7.548   6.567  12.321
10364TIP3    H155287   7.585   6.597  12.233
10364TIP3    H255288   7.614   6.621  12.382
10365TIP3   OH255289   7.289   6.772  12.408
10365TIP3    H155290   7.390   6.738  12.423
10365TIP3    H255291   7.241   6.717  12.482
10366TIP3   OH255292   7.325   6.407  12.435
10366TIP3    H155293   7.290   6.471  12.507
10366TIP3    H255294   7.407   6.465  12.400
10367TIP3   OH255295   6.857   6.532  12.139
10367TIP3    H155296   6.834   6.611  12.200
10367TIP3    H255297   6.962   6.515  12.156
10368TIP3   OH255298   6.657   7.676  12.026
10368TIP3    H155299   6.720   7.721  12.093
10368TIP3    H255300   6.730   7.634  11.964
10369TIP3   OH255301   6.479   6.901  11.957
10369TIP3    H155302   6.525   6.994  11.985
10369TIP3    H255303   6.393   6.934  11.908
10370TIP3   OH255304   6.606   6.304  12.835
10370TIP3    H155305   6.588   6.311  12.740
10370TIP3    H255306   6.587   6.203  12.855
10371TIP3   OH255307   6.488   7.801  12.400
10371TIP3    H155308   6.424   7.812  12.476
10371TIP3    H255309   6.439   7.866  12.334
10372TIP3   OH255310   7.341   7.971  11.875
10372TIP3    H155311   7.286   7.877  11.881
10372TIP3    H255312   7.442   7.935  11.855
10373TIP3   OH255313   7.834   7.925  11.898
10373TIP3    H155314   7.886   7.852  11.950
10373TIP3    H255315   7.886   7.918  11.812
10374TIP3   OH255316   6.849   7.499  11.865
10374TIP3    H155317   6.885   7.439  11.939
10374TIP3    H255318   6.932   7.485  11.803
10375TIP3   OH255319   7.432   7.614  11.801
10375TIP3    H155320   7.404   7.618  11.895
10375TIP3    H255321   7.442   7.508  11.792
10376TIP3   OH255322   6.982   7.288  12.123
10376TIP3    H155323   6.907   7.222  12.160
10376TIP3    H255324   7.031   7.223  12.060
10377TIP3   OH255325   7.102   7.103  11.932
10377TIP3    H155326   7.063   7.140  11.848
10377TIP3    H255327   7.207   7.127  11.921
10378TIP3   OH255328   8.076   7.318  11.876
10378TIP3    H155329   8.056   7.274  11.789
10378TIP3    H255330   8.104   7.418  11.855
10379TIP3   OH255331   6.361   7.638  12.006
10379TIP3    H155332   6.469   7.651  12.005
10379TIP3    H255333   6.345   7.577  11.927
10380TIP3   OH255334   6.230   8.283  12.485
10380TIP3    H155335   6.166   8.254  12.411
10380TIP3    H255336   6.236   8.188  12.531
10381TIP3   OH255337   6.329   8.008  12.664
10381TIP3    H155338   6.306   7.920  12.716
10381TIP3    H255339   6.359   8.074  12.734
10382TIP3   OH255340   8.179   7.447  12.236
10382TIP3    H155341   8.238   7.525  12.273
10382TIP3    H255342   8.186   7.368  12.302
10383TIP3   OH255343   8.208   7.235  12.466
10383TIP3    H155344   8.116   7.186  12.491
10383TIP3    H255345   8.242   7.269  12.553
10384TIP3   OH255346   8.272   7.206  12.080
10384TIP3    H155347   8.195   7.217  12.013
10384TIP3    H255348   8.251   7.290  12.138
10385TIP3   OH255349   8.151   6.813  11.940
10385TIP3    H155350   8.075   6.888  11.965
10385TIP3    H255351   8.095   6.764  11.869
10386TIP3   OH255352   7.984   7.059  12.566
10386TIP3    H155353   7.995   6.986  12.493
10386TIP3    H255354   7.938   7.000  12.635
10387TIP3   OH255355   6.398   7.252  12.916
10387TIP3    H155356   6.328   7.282  12.849
10387TIP3    H255357   6.401   7.334  12.978
10388TIP3   OH255358   7.978   6.574  11.838
10388TIP3    H155359   7.973   6.581  11.935
10388TIP3    H255360   7.874   6.574  11.817
10389TIP3   OH255361   7.956   6.817  12.364
10389TIP3    H155362   7.971   6.710  12.355
10389TIP3    H255363   8.028   6.849  12.297
10390TIP3   OH255364   7.952   6.824  12.877
10390TIP3    H155365   8.055   6.846  12.897
10390TIP3    H255366   7.909   6.822  12.967
10391TIP3   OH255367   7.975   6.498  12.380
10391TIP3    H155368   8.003   6.501  12.473
10391TIP3    H255369   7.950   6.393  12.372
10392TIP3   OH255370   8.235   6.492  12.043
10392TIP3    H155371   8.292   6.435  11.979
10392TIP3    H255372   8.232   6.590  12.002
10393TIP3   OH255373   6.280   6.482  12.336
10393TIP3    H155374   6.172   6.484  12.334
10393TIP3    H255375   6.299   6.549  12.261
10394TIP3   OH255376   7.047   8.034  12.851
10394TIP3    H155377   7.049   7.928  12.841
10394TIP3    H255378   6.960   8.050  12.905
10395TIP3   OH255379   7.965   6.300  12.737
10395TIP3    H155380   7.882   6.346  12.691
10395TIP3    H255381   7.913   6.249  12.808
10396TIP3   OH255382   6.558   6.294  12.557
10396TIP3    H155383   6.469   6.294  12.503
10396TIP3    H255384   6.592   6.193  12.544
10397TIP3   OH255385   6.412   6.268  12.120
10397TIP3    H155386   6.451   6.334  12.052
10397TIP3    H255387   6.369   6.337  12.183
10398TIP3   OH255388   7.035   6.261  12.581
10398TIP3    H155389   7.126   6.256  12.532
10398TIP3    H255390   7.066   6.277  12.672
10399TIP3   OH255391   7.652   6.284  12.594
10399TIP3    H155392   7.604   6.256  12.511
10399TIP3    H255393   7.626   6.204  12.654
10400TIP3   OH255394   7.824   6.263  12.283
10400TIP3    H155395   7.731   6.314  12.278
10400TIP3    H255396   7.790   6.167  12.316
10401TIP3   OH255397   6.390   8.007  12.230
10401TIP3    H155398   6.301   8.028  12.178
10401TIP3    H255399   6.439   8.100  12.217
10402TIP3   OH255400   6.559   6.500  11.988
10402TIP3    H155401   6.625   6.435  11.938
10402TIP3    H255402   6.620   6.524  12.066
10403TIP3   OH255403   7.167   6.526  12.224
10403TIP3    H155404   7.220   6.467  12.289
10403TIP3    H255405   7.195   6.624  12.250
10404TIP3   OH255406   8.141   8.107  12.310
10404TIP3    H155407   8.106   8.006  12.302
10404TIP3    H255408   8.090   8.154  12.236
10405TIP3   OH255409   6.614   8.170  11.918
10405TIP3    H155410   6.531   8.185  11.977
10405TIP3    H255411   6.661   8.086  11.961
10406TIP3   OH255412   8.311   6.934  12.444
10406TIP3    H155413   8.290   7.038  12.454
10406TIP3    H255414   8.272   6.919  12.353
10407TIP3   OH255415   8.251   8.314  12.513
10407TIP3    H155416   8.197   8.291  12.431
10407TIP3    H255417   8.243   8.216  12.553
10408TIP3   OH255418   8.284   8.031  12.675
10408TIP3    H155419   8.280   7.952  12.743
10408TIP3    H255420   8.302   8.114  12.732
10409TIP3   OH255421  -0.034   7.269  12.904
10409TIP3    H155422  -0.005   7.326  12.828
10409TIP3    H255423   0.031   7.308  12.973
10410TIP3   OH255424   8.265   6.922  12.888
10410TIP3    H155425   8.331   6.929  12.813
10410TIP3    H255426   8.303   6.998  12.948
10411TIP3   OH255427   8.272   6.536  12.316
10411TIP3    H155428   8.164   6.537  12.316
10411TIP3    H255429   8.295   6.530  12.221
10412TIP3   OH255430   1.815   8.259  12.084
10412TIP3    H155431   1.736   8.255  12.149
10412TIP3    H255432   1.836   8.364  12.091
10413TIP3   OH255433   0.257   8.305  12.586
10413TIP3    H155434   0.224   8.407  12.579
10413TIP3    H255435   0.332   8.309  12.656
10414TIP3   OH255436   1.727   8.247  12.728
10414TIP3    H155437   1.822   8.207  12.751
10414TIP3    H255438   1.739   8.351  12.743
10415TIP3   OH255439   0.348   8.235  12.329
10415TIP3    H155440   0.271   8.255  12.395
10415TIP3    H255441   0.436   8.265  12.376
10416TIP3   OH255442   0.206   8.306  12.097
10416TIP3    H155443   0.279   8.381  12.080
10416TIP3    H255444   0.228   8.284  12.191
10417TIP3   OH255445   1.594   8.319  12.269
10417TIP3    H155446   1.507   8.296  12.217
10417TIP3    H255447   1.577   8.251  12.343
10418TIP3   OH255448   2.914   8.199  12.768
10418TIP3    H155449   2.987   8.263  12.810
10418TIP3    H255450   2.825   8.204  12.823
10419TIP3   OH255451   3.859   8.255  12.101
10419TIP3    H155452   3.774   8.273  12.159
10419TIP3    H255453   3.886   8.359  12.086
10420TIP3   OH255454   3.809   8.206  12.768
10420TIP3    H155455   3.853   8.302  12.786
10420TIP3    H255456   3.706   8.236  12.773
10421TIP3   OH255457   2.374   8.291  12.440
10421TIP3    H155458   2.270   8.258  12.441
10421TIP3    H255459   2.419   8.215  12.494
10422TIP3   OH255460   2.274   8.279  12.132
10422TIP3    H155461   2.345   8.357  12.122
10422TIP3    H255462   2.212   8.329  12.196
10423TIP3   OH255463   2.781   8.332  12.541
10423TIP3    H155464   2.858   8.395  12.502
10423TIP3    H255465   2.829   8.300  12.623
10424TIP3   OH255466   3.549   8.314  12.707
10424TIP3    H155467   3.482   8.344  12.636
10424TIP3    H255468   3.489   8.248  12.762
10425TIP3   OH255469   3.609   8.328  12.253
10425TIP3    H155470   3.529   8.293  12.197
10425TIP3    H255471   3.615   8.249  12.320
10426TIP3   OH255472   5.123   8.305  12.783
10426TIP3    H155473   5.154   8.235  12.715
10426TIP3    H255474   5.094   8.240  12.855
10427TIP3   OH255475   5.980   8.258  12.061
10427TIP3    H155476   5.898   8.251  12.124
10427TIP3    H255477   6.013   8.358  12.081
10428TIP3   OH255478   4.932   8.218  13.009
10428TIP3    H155479   4.848   8.188  12.956
10428TIP3    H255480   4.884   8.287  13.067
10429TIP3   OH255481   4.287   8.348  12.875
10429TIP3    H155482   4.300   8.367  12.780
10429TIP3    H255483   4.339   8.257  12.884
10430TIP3   OH255484   4.358   8.345  12.608
10430TIP3    H155485   4.277   8.317  12.548
10430TIP3    H255486   4.440   8.357  12.548
10431TIP3   OH255487   4.242   8.377  12.126
10431TIP3    H155488   4.242   8.444  12.051
10431TIP3    H255489   4.217   8.441  12.200
10432TIP3   OH255490   5.032   8.314  12.521
10432TIP3    H155491   5.045   8.412  12.479
10432TIP3    H255492   5.017   8.342  12.613
10433TIP3   OH255493   5.796   8.351  12.269
10433TIP3    H155494   5.733   8.387  12.197
10433TIP3    H255495   5.730   8.274  12.304
10434TIP3   OH255496   7.113   8.391  12.777
10434TIP3    H155497   7.154   8.292  12.774
10434TIP3    H255498   7.028   8.372  12.834
10435TIP3   OH255499   8.032   8.258  12.071
10435TIP3    H155500   7.950   8.237  12.132
10435TIP3    H255501   8.053   8.358  12.099
10436TIP3   OH255502   6.866   8.348  12.954
10436TIP3    H155503   6.774   8.327  12.907
10436TIP3    H255504   6.823   8.385  13.035
10437TIP3   OH255505   6.492   8.286  12.626
10437TIP3    H155506   6.399   8.292  12.578
10437TIP3    H255507   6.545   8.216  12.570
10438TIP3   OH255508   6.432   8.276  12.115
10438TIP3    H155509   6.487   8.358  12.077
10438TIP3    H255510   6.391   8.338  12.186
10439TIP3   OH255511   7.835   8.287  12.271
10439TIP3    H155512   7.772   8.362  12.234
10439TIP3    H255513   7.768   8.232  12.328
   8.44854   8.44854  30.00000
